Membrane in water
40347
    1TMC1    C1    1   0.008   1.876  11.626 -0.3926  0.5339  0.0406
    1TMC1    C2    2   4.632   1.804  11.627  0.8508  0.1833 -0.6539
    1TMC1    C3    3   4.559   1.789  11.513 -0.0579 -0.4580  0.4231
    1TMC1    C4    4   0.060   1.937  11.511  0.3113 -0.0798 -0.4694
    1TMC1    C5    5   4.724   1.917  11.400  0.4836 -0.1049 -0.3937
    1TMC1    C6    6   4.610   1.836  11.401 -0.1935  0.2364 -0.0172
    1TMC1     C    7   0.050   1.936  11.749 -0.5222  0.5083 -0.4079
    1TMC1     O    8   4.698   1.983  11.818 -0.5645 -0.1016 -0.3873
    1TMC1     H    9   4.597   1.770  11.723 -1.1159  0.4749 -1.2613
    1TMC1    H1   10   0.156   1.987  11.505  0.5570 -0.1861  2.2636
    1TMC1    H2   11   4.569   1.803  11.306  0.8877  3.2799 -1.5380
    1TMC1    C7   12   0.040   1.952  11.274 -0.1554 -0.2490 -0.4606
    1TMC1    C8   13   4.440   1.700  11.517 -0.3163 -0.6001  0.1557
    1TMC1    O1   14   0.029   1.886  11.172  0.3269 -0.4898  0.3382
    1TMC1    O2   15   4.420   1.652  11.627 -0.7454 -0.1125  0.1079
    1TMC1    O3   16   0.118   2.056  11.282  0.2859  0.0459  0.5566
    1TMC1    H3   17   0.082   2.112  11.355 -1.2678 -0.3730  0.1032
    1TMC1    O5   18   4.350   1.748  11.429  0.5444 -0.1071 -0.3241
    1TMC1    H5   19   4.383   1.769  11.339  0.7960 -1.4831 -0.5554
    2MPD2     C   20   0.369   2.038  12.126  0.3321 -0.2580  0.1691
    2MPD2    C1   21   0.246   2.080  12.095  0.1877  0.4743 -0.2473
    2MPD2    C2   22   0.188   2.045  11.982 -0.5003  0.7492  0.0483
    2MPD2    C3   23   0.250   1.958  11.893  0.1368  0.2807  0.2854
    2MPD2    C4   24   0.384   1.928  11.915  0.1145 -0.0297  0.6501
    2MPD2    C5   25   0.439   1.982  12.024 -0.5065  0.4411  0.3076
    2MPD2     H   26   0.092   2.092  11.963 -0.7524  0.2823  0.1796
    2MPD2    H1   27   0.437   1.855  11.856 -0.7326 -0.6919  0.7158
    2MPD2    H2   28   0.422   2.058  12.219  1.8734  1.8218 -1.1555
    2MPD2    H3   29   0.542   1.965  12.052  0.2790  1.2169 -2.1121
    2MPD2     N   30   0.190   1.918  11.770 -0.5580 -0.0419 -0.2135
    2MPD2    H5   31   0.241   1.859  11.705  0.0149 -0.5354  0.6850
    2MPD2    N1   32   0.166   2.148  12.185 -0.4029 -0.0260  0.4344
    2MPD2    H7   33   0.075   2.182  12.157  0.1238  1.2481  0.2604
    3TMC1    C1   34   4.361   3.231  10.485  0.7874  0.6584 -0.4760
    3TMC1    C2   35   4.379   3.115  10.403 -0.3797  0.2774 -0.1840
    3TMC1    C3   36   4.473   3.132  10.304 -0.3624  0.1830 -0.5334
    3TMC1    C4   37   4.444   3.344  10.471 -0.2890 -0.4057  0.4517
    3TMC1    C5   38   4.538   3.345  10.374 -0.1888  0.2626 -0.2885
    3TMC1    C6   39   4.560   3.240  10.282 -0.1757 -0.5068 -0.0275
    3TMC1     C   40   4.251   3.228  10.577  0.4489  0.1001  0.1058
    3TMC1     O   41   4.190   3.123  10.595 -0.2913  0.1711 -0.3939
    3TMC1     H   42   4.315   3.027  10.402  0.2707 -0.2069  1.5071
    3TMC1    H1   43   4.439   3.426  10.542 -0.3020  0.3677 -0.4380
    3TMC1    H2   44   4.625   3.245  10.196  3.5685 -2.1250  2.6917
    3TMC1    C7   45   4.609   3.469  10.351  0.0878  0.0088  0.4171
    3TMC1    C8   46   4.458   3.047  10.186 -0.3864 -0.2815 -0.0613
    3TMC1    O1   47   4.703   3.465  10.279 -0.2265 -0.0552  0.0230
    3TMC1    O2   48   4.392   2.944  10.189 -0.7398 -0.0082  0.1918
    3TMC1    O3   49   4.517   3.570  10.351  0.0605  0.4600  0.0165
    3TMC1    H3   50   4.441   3.556  10.411 -0.2446  0.4485 -0.3701
    3TMC1    O5   51   4.462   3.132  10.080 -0.0218  0.3695  0.1909
    3TMC1    H5   52   4.459   3.228  10.102  1.6770  0.6656 -0.9094
    4MPD2     C   53   3.966   3.385  10.968  0.0354  0.0839  0.4210
    4MPD2    C1   54   4.028   3.491  10.918  1.1155  0.5164 -0.2597
    4MPD2    C2   55   4.122   3.479  10.817 -0.5321  0.5215  0.0073
    4MPD2    C3   56   4.144   3.355  10.754 -0.2168  0.5311  0.5887
    4MPD2    C4   57   4.088   3.249  10.815 -0.3163 -0.1096  0.8351
    4MPD2    C5   58   4.004   3.261  10.920 -0.2436 -0.0842 -0.0970
    4MPD2     H   59   4.173   3.572  10.792  0.5635  0.2054  1.0947
    4MPD2    H1   60   4.091   3.146  10.781 -1.2976  0.7257 -1.7715
    4MPD2    H2   61   3.885   3.386  11.039 -0.9144  0.3504 -0.6562
    4MPD2    H3   62   3.959   3.168  10.952 -1.9737  0.3793 -1.1947
    4MPD2     N   63   4.231   3.346  10.634 -0.9422 -0.1420  0.2321
    4MPD2    H5   64   4.299   3.421  10.622 -0.5348 -0.4292  0.6995
    4MPD2    N1   65   4.011   3.620  10.968  0.1359  0.1456  0.6947
    4MPD2    H7   66   4.076   3.684  10.923 -0.4214 -0.9038 -1.6099
    5TCq1    O1   67   0.498   1.013  12.163 -0.0041 -0.9238 -0.7301
    5TCq1    C1   68   0.482   0.975  12.036  0.4821 -0.3557  0.4342
    5TCq1    O2   69   0.556   1.001  11.947 -0.3039 -0.7107  0.7501
    5TCq1    C2   70   0.353   0.895  12.016  0.1281  0.2311 -0.6377
    5TCq1    C3   71   0.278   0.859  12.124 -0.0977 -0.2124 -0.0729
    5TCq1    C4   72   0.151   0.812  12.105 -0.5257 -0.2036 -0.3943
    5TCq1    C5   73   0.095   0.795  11.981  0.7322 -0.2196  0.5270
    5TCq1    C6   74   0.179   0.821  11.876  0.7149  0.1943  0.1889
    5TCq1    C7   75   0.302   0.877  11.891 -0.2831 -0.1083 -0.2539
    5TCq1    C8   76   0.141   0.794  11.742  0.6126  0.5462  0.5421
    5TCq1    O4   77   0.231   0.769  11.659  0.4646  0.8362  0.2403
    5TCq1    C9   78   0.082   0.747  12.223  0.9432  0.1824  0.5901
    5TCq1    O5   79   4.710   0.690  12.193 -0.2202  0.4297  0.1297
    5TCq1    O6   80   0.139   0.759  12.337 -0.7245  0.5113  0.5986
    5TCq1    H1   81   0.430   0.975  12.224  0.6013 -3.7530 -1.8563
    5TCq1    H2   82   0.321   0.857  12.223 -0.5830 -0.6894  0.1268
    5TCq1    H3   83   4.731   0.757  11.967  0.9320 -1.3556  2.1259
    5TCq1    H4   84   0.373   0.903  11.812 -0.5972 -1.0001 -0.8290
    6MPD2     C   85   4.529   0.790  11.600  0.1116 -0.2855 -0.0924
    6MPD2    C1   86   4.663   0.759  11.606 -0.1477  0.5526  0.3544
    6MPD2    C2   87   4.711   0.671  11.515 -0.6352 -0.1806  0.1972
    6MPD2    C3   88   4.630   0.633  11.409  0.0200 -0.5171  0.5154
    6MPD2    C4   89   4.496   0.660  11.413 -0.2266  0.1269 -0.5228
    6MPD2    C5   90   4.443   0.739  11.511 -0.8608 -0.0930 -0.2010
    6MPD2     H   91   0.076   0.638  11.509 -0.7757 -0.9774  2.0711
    6MPD2    H1   92   4.426   0.607  11.349 -0.0126  2.1246 -2.3932
    6MPD2    H2   93   4.492   0.844  11.686  0.8495 -1.1993  0.8043
    6MPD2    H3   94   4.336   0.752  11.522 -0.9727  0.1947 -1.5396
    6MPD2     N   95   4.682   0.539  11.315 -0.2227  0.3950 -0.0022
    6MPD2    H5   96   0.039   0.508  11.335 -0.5703 -0.9425 -0.4437
    6MPD2    N1   97   0.003   0.803  11.719 -0.4426  0.1397 -0.1469
    6MPD2    H7   98   4.689   0.855  11.791  2.4235  2.5261  0.1477
    7TCq1    O1   99   2.134   0.617  13.350  0.1350 -0.1257  0.0318
    7TCq1    C1  100   2.089   0.527  13.440 -0.1959 -0.0944 -0.0060
    7TCq1    O2  101   2.045   0.417  13.409 -0.7660 -0.0720  0.2117
    7TCq1    C2  102   2.182   0.540  13.550 -0.0513  0.2085  0.9446
    7TCq1    C3  103   2.222   0.668  13.587 -0.2465  0.4541 -0.2955
    7TCq1    C4  104   2.319   0.681  13.677  0.4659 -1.0114 -0.0936
    7TCq1    C5  105   2.384   0.579  13.730 -0.7788 -0.0866 -0.1530
    7TCq1    C6  106   2.346   0.451  13.693 -0.2348  0.3741  0.2215
    7TCq1    C7  107   2.238   0.429  13.608  0.7917  0.7485 -0.2530
    7TCq1    C8  108   2.420   0.338  13.744  0.2539  0.3411  0.6156
    7TCq1    O4  109   2.397   0.221  13.721 -0.4549 -0.2096  0.3367
    7TCq1    C9  110   2.371   0.814  13.697 -0.0224 -0.3166 -0.6552
    7TCq1    O5  111   2.316   0.906  13.631 -0.0423 -0.3247 -0.2959
    7TCq1    O6  112   2.457   0.835  13.783  0.5227 -0.6038  0.0468
    7TCq1    H1  113   2.199   0.681  13.386 -0.6753  1.4567 -1.3046
    7TCq1    H2  114   2.174   0.754  13.543 -0.2812  0.4557 -0.2548
    7TCq1    H3  115   2.474   0.599  13.786  0.4909  2.0099 -2.9845
    7TCq1    H4  116   2.231   0.326  13.573 -0.1908  1.4790 -2.1726
    8MPD2     C  117   2.795   0.138  14.030  0.5302 -0.3544 -0.2043
    8MPD2    C1  118   2.745   0.081  13.916 -0.0112  0.2395 -0.2513
    8MPD2    C2  119   2.657   0.171  13.844 -0.4547 -0.0820  0.5609
    8MPD2    C3  120   2.610   0.290  13.889 -0.2476 -0.0674 -1.3213
    8MPD2    C4  121   2.663   0.338  14.004  0.3943  0.3508 -0.4070
    8MPD2    C5  122   2.753   0.261  14.075 -0.2071  0.0201  0.2662
    8MPD2     H  123   2.622   0.134  13.748  2.7752 -0.5034 -0.4762
    8MPD2    H1  124   2.623   0.432  14.042  0.0237  1.1548 -2.7453
    8MPD2    H2  125   2.873   0.093  14.089 -0.5777 -0.2559  1.3481
    8MPD2    H3  126   2.805   0.301  14.162 -1.1933 -1.9759  1.7956
    8MPD2     N  127   2.517   0.374  13.833 -0.1805 -0.6492 -0.4383
    8MPD2    H5  128   2.516   0.467  13.874 -0.6237 -0.2932 -1.2405
    8MPD2    N1  129   2.773   4.683  13.882  0.3981 -0.1539  0.0681
    8MPD2    H7  130   2.827   4.625  13.946  1.8324  0.7715 -0.2988
    9TMC1    C1  131   0.029   2.779  10.882  0.1633  0.4493 -0.2296
    9TMC1    C2  132   0.080   2.897  10.939 -0.0590 -0.9817  0.5256
    9TMC1    C3  133   0.219   2.916  10.919 -0.7595  0.2443 -0.3316
    9TMC1    C4  134   0.107   2.693  10.808 -0.0172  0.0614  1.0841
    9TMC1    C5  135   0.233   2.737  10.775  0.0338  0.2942  0.0209
    9TMC1    C6  136   0.292   2.840  10.838 -0.3981  0.1300  0.2930
    9TMC1     C  137   4.639   2.726  10.932  0.6793  0.3786  0.1545
    9TMC1     O  138   4.589   2.635  10.866 -0.3248 -0.5631 -0.0651
    9TMC1     H  139   0.029   2.981  10.985  0.2794 -1.5251  1.8660
    9TMC1    H1  140   0.073   2.594  10.779 -0.1275  0.7939 -1.2735
    9TMC1    H2  141   0.398   2.857  10.824 -0.4415 -0.0930 -0.2712
    9TMC1    C7  142   0.307   2.672  10.673 -0.5497 -0.1839  0.7518
    9TMC1    C8  143   0.263   3.055  10.917 -0.4054 -0.0323 -0.1305
    9TMC1    O1  144   0.427   2.681  10.667  0.0149 -0.3531 -0.4656
    9TMC1    O2  145   0.349   3.084  10.829  0.0114  0.1363  0.1921
    9TMC1    O3  146   0.225   2.621  10.579  0.5613 -0.6119  0.2732
    9TMC1    H3  147   0.129   2.616  10.601  0.2169 -0.5914 -1.2088
    9TMC1    O5  148   0.258   3.096  11.049  0.3536 -0.2714 -0.0253
    9TMC1    H5  149   0.209   3.031  11.103 -3.9085  1.2074 -2.0844
   10MPD2     C  150   4.447   2.617  11.120 -0.2919 -0.5797 -0.3011
   10MPD2    C1  151   4.519   2.729  11.143  0.1270 -0.5503 -0.1589
   10MPD2    C2  152   4.508   2.791  11.264 -0.4041 -0.1656 -0.5314
   10MPD2    C3  153   4.427   2.737  11.360 -0.3782 -0.2511 -0.5129
   10MPD2    C4  154   4.364   2.612  11.344  0.1150  0.2396  0.3132
   10MPD2    C5  155   4.373   2.558  11.220 -0.1706 -0.1524 -0.2477
   10MPD2     H  156   4.565   2.883  11.272 -2.7854  1.2381  0.2617
   10MPD2    H1  157   4.303   2.560  11.417  1.0490 -1.6523 -0.2702
   10MPD2    H2  158   4.443   2.567  11.024  1.4391 -0.2694 -0.5255
   10MPD2    H3  159   4.327   2.464  11.195  1.1769 -0.7578 -0.4718
   10MPD2     N  160   4.402   2.804  11.482  0.4224 -0.1393 -0.1668
   10MPD2    H5  161   4.345   2.750  11.545  2.6141 -2.6015 -0.3046
   10MPD2    N1  162   4.601   2.782  11.050 -0.3268  0.0707  0.2554
   10MPD2    H7  163   4.665   2.852  11.088  0.9756 -0.9606 -0.0566
   11TCq1    O1  164   1.411   4.039  14.158 -0.3923 -0.2992 -0.6973
   11TCq1    C1  165   1.362   4.162  14.186  0.5063 -0.8728 -0.4590
   11TCq1    O2  166   1.386   4.258  14.114  0.3772 -0.2024 -0.3708
   11TCq1    C2  167   1.225   4.136  14.232  0.2452  0.7109  0.0127
   11TCq1    C3  168   1.203   4.082  14.354  0.4858 -0.3987 -0.6315
   11TCq1    C4  169   1.081   4.090  14.408  0.0986  0.5413  0.0477
   11TCq1    C5  170   0.970   4.122  14.333  0.3715 -0.3482 -0.6189
   11TCq1    C6  171   1.000   4.183  14.216 -0.5538 -0.2382 -0.5758
   11TCq1    C7  172   1.123   4.188  14.159 -0.6294  0.2107 -0.2790
   11TCq1    C8  173   0.888   4.188  14.126  0.2100  0.0351  0.2427
   11TCq1    O4  174   0.889   4.278  14.042 -0.0895 -0.0061  0.5885
   11TCq1    C9  175   1.080   4.054  14.551 -0.1094  0.0059 -0.6729
   11TCq1    O5  176   1.179   3.994  14.602 -0.1627  0.7789  0.1375
   11TCq1    O6  177   0.967   4.051  14.605 -0.0603 -0.2847  0.1270
   11TCq1    H1  178   1.353   3.972  14.200  0.6730  0.4906  2.0989
   11TCq1    H2  179   1.289   4.048  14.411 -1.5206 -1.2740  1.8693
   11TCq1    H3  180   0.869   4.100  14.366  0.2957 -1.0305 -1.2897
   11TCq1    H4  181   1.133   4.247  14.069  0.1465  0.9777  0.3121
   12MPD2     C  182   0.649   4.128  13.954  0.1477  0.2181 -0.2583
   12MPD2    C1  183   0.705   4.033  14.039  0.2175 -0.4822  0.1528
   12MPD2    C2  184   0.656   3.909  14.051 -0.0246 -0.1841  1.0013
   12MPD2    C3  185   0.547   3.862  13.978 -0.2916 -0.0598  0.5523
   12MPD2    C4  186   0.497   3.953  13.887 -0.2858  1.0476 -0.0271
   12MPD2    C5  187   0.541   4.081  13.880 -0.1689 -0.5467  0.6401
   12MPD2     H  188   0.701   3.840  14.121  0.8001 -1.5960 -0.9248
   12MPD2    H1  189   0.417   3.924  13.819 -0.6511  1.6543  0.1396
   12MPD2    H2  190   0.684   4.230  13.947  1.7580 -0.3425 -0.3317
   12MPD2    H3  191   0.496   4.145  13.805 -0.4516 -0.8135  0.5821
   12MPD2     N  192   0.502   3.733  13.972  0.4113 -0.3586  0.6086
   12MPD2    H5  193   0.430   3.709  13.904 -0.9067 -1.8587  2.5356
   12MPD2    N1  194   0.815   4.065  14.120 -0.2352 -0.2306 -0.3427
   12MPD2    H7  195   0.865   3.993  14.171  2.4721 -0.3468 -3.1336
   13TCq1    O1  196   0.467   3.772  10.564 -0.0340  0.1866  0.2777
   13TCq1    C1  197   0.479   3.658  10.635 -0.0196  0.1711  0.3390
   13TCq1    O2  198   0.521   3.641  10.751  0.1459  0.6096 -0.4762
   13TCq1    C2  199   0.438   3.550  10.552  0.3496 -0.0973 -0.2478
   13TCq1    C3  200   0.427   3.577  10.425 -0.2328  0.3684  0.4641
   13TCq1    C4  201   0.347   3.500  10.351 -0.2220  0.2668 -0.3566
   13TCq1    C5  202   0.278   3.396  10.405 -0.4772  0.2270 -1.3079
   13TCq1    C6  203   0.291   3.377  10.541 -0.3073 -0.0600  0.3671
   13TCq1    C7  204   0.378   3.448  10.616  0.6334 -0.0407 -0.0050
   13TCq1    C8  205   0.185   3.314  10.613  0.2125 -0.0670  0.4224
   13TCq1    O4  206   0.132   3.357  10.715 -0.6102  0.2884 -0.5205
   13TCq1    C9  207   0.320   3.526  10.207 -0.3159  0.5199  0.0242
   13TCq1    O5  208   0.310   3.425  10.128 -0.6658  0.0548 -0.2932
   13TCq1    O6  209   0.350   3.645  10.170 -0.1334  0.2669 -0.1238
   13TCq1    H1  210   0.413   3.774  10.482 -1.1336 -0.1836  0.9954
   13TCq1    H2  211   0.479   3.655  10.370 -1.2719 -0.0898 -1.1893
   13TCq1    H3  212   0.228   3.330  10.334  2.1897 -1.6222 -1.4645
   13TCq1    H4  213   0.385   3.446  10.724  0.0810  0.9436  0.0538
   14MPD2     C  214   0.039   2.989  10.499  0.6267 -0.5368 -1.0585
   14MPD2    C1  215   0.052   3.104  10.573  0.5136 -0.0329 -0.4444
   14MPD2    C2  216   4.691   3.118  10.667  0.6642 -0.2933 -0.0501
   14MPD2    C3  217   4.592   3.025  10.690 -0.0778  0.2741 -0.2081
   14MPD2    C4  218   4.589   2.908  10.615  0.0994 -0.5980 -0.0805
   14MPD2    C5  219   4.678   2.893  10.518  0.0660 -0.3869 -0.3445
   14MPD2     H  220   4.694   3.211  10.723 -1.0124  0.2937 -0.9305
   14MPD2    H1  221   4.515   2.833  10.640 -0.3637  0.1216  0.6837
   14MPD2    H2  222   0.107   2.981  10.415  1.1489 -2.0295 -0.4881
   14MPD2    H3  223   4.671   2.810  10.449  2.2622 -0.0982 -0.9073
   14MPD2     N  224   4.504   3.051  10.796 -0.2165 -0.6887  0.1904
   14MPD2    H5  225   4.528   3.123  10.863 -2.0288 -0.7451  0.9029
   14MPD2    N1  226   0.151   3.201  10.545  0.7251 -0.0552  0.0460
   14MPD2    H7  227   0.217   3.180  10.471 -0.3319 -1.4998 -0.5048
   15TCq1    O1  228   2.429   1.695   2.317 -0.6569 -0.2034  0.4271
   15TCq1    C1  229   2.473   1.650   2.197  0.0030  0.4739  0.3366
   15TCq1    O2  230   2.401   1.620   2.098  0.7327 -0.1736  0.2562
   15TCq1    C2  231   2.614   1.672   2.197 -0.4884  0.0367  0.0613
   15TCq1    C3  232   2.695   1.621   2.285 -0.3654 -1.2532 -0.2376
   15TCq1    C4  233   2.834   1.638   2.273 -0.2606 -0.0963  0.2617
   15TCq1    C5  234   2.890   1.713   2.171  0.1699 -0.1539  0.3813
   15TCq1    C6  235   2.802   1.770   2.084  0.3508  0.2993 -0.2302
   15TCq1    C7  236   2.664   1.740   2.094  0.5976  0.2370  0.5515
   15TCq1    C8  237   2.867   1.792   1.956 -0.3763 -0.3018 -0.0787
   15TCq1    O4  238   2.988   1.804   1.954  0.0164  0.2138  0.4575
   15TCq1    C9  239   2.923   1.558   2.352  0.3629 -0.1377  0.2351
   15TCq1    O5  240   3.032   1.536   2.301 -0.5803 -0.2106  0.3995
   15TCq1    O6  241   2.881   1.524   2.467  0.0440 -0.1873  0.2028
   15TCq1    H1  242   2.507   1.714   2.373 -0.6399  1.5035 -0.1802
   15TCq1    H2  243   2.658   1.548   2.356 -0.1287  0.0332  1.2342
   15TCq1    H3  244   2.996   1.735   2.169  0.0402  0.1747 -1.9669
   15TCq1    H4  245   2.590   1.764   2.018  0.8260  0.1074  0.2879
   16MPD2     C  246   2.724   1.902   1.646  0.0093 -0.1833  0.3470
   16MPD2    C1  247   2.816   1.831   1.719 -0.3300  0.4695  0.2917
   16MPD2    C2  248   2.926   1.766   1.661  0.3027  0.9486 -0.5936
   16MPD2    C3  249   2.931   1.761   1.524 -0.2258 -0.1717 -0.7460
   16MPD2    C4  250   2.837   1.834   1.452 -0.4878 -0.2929 -0.0237
   16MPD2    C5  251   2.740   1.910   1.514 -0.7687  0.4592 -0.2775
   16MPD2     H  252   2.981   1.692   1.718  0.1754  0.9547 -0.4617
   16MPD2    H1  253   2.834   1.836   1.343  1.1372  1.0974 -0.0461
   16MPD2    H2  254   2.646   1.964   1.689  0.2733 -0.1715  0.8148
   16MPD2    H3  255   2.667   1.965   1.456 -0.2720 -0.1444 -1.4860
   16MPD2     N  256   3.031   1.680   1.470  0.7570 -0.2144 -0.3119
   16MPD2    H5  257   3.074   1.613   1.533  2.8731  1.0834 -0.3924
   16MPD2    N1  258   2.780   1.812   1.857  0.4870  0.5668 -0.8640
   16MPD2    H7  259   2.684   1.823   1.887  0.3401 -0.0053 -1.1304
   17TMC1    C1  260   4.512   2.160  10.989 -0.1180 -0.1162  0.0985
   17TMC1    C2  261   4.433   2.077  11.069  0.0068  0.3122  0.6261
   17TMC1    C3  262   4.371   1.985  10.995 -0.2771 -0.0089  0.2062
   17TMC1    C4  263   4.509   2.158  10.856 -0.2019 -1.0997 -0.4155
   17TMC1    C5  264   4.451   2.055  10.791 -0.0637 -0.1742 -0.9728
   17TMC1    C6  265   4.380   1.964  10.860 -0.8201  0.1780 -0.4539
   17TMC1     C  266   4.573   2.265  11.062  0.6487 -0.3563  1.3565
   17TMC1     O  267   4.532   2.284  11.179  0.4375  0.0909  0.3309
   17TMC1     H  268   4.447   2.066  11.176  0.5801 -1.0175  0.4074
   17TMC1    H1  269   4.548   2.237  10.793 -1.2392 -0.8645 -0.7662
   17TMC1    H2  270   4.330   1.890  10.798  0.4385  0.1987 -1.5006
   17TMC1    C7  271   4.421   2.047  10.652  0.2353  0.4727 -0.8592
   17TMC1    C8  272   4.319   1.871  11.070  0.7259 -0.3247  0.0415
   17TMC1    O1  273   4.390   1.951  10.579  0.3789  0.2756 -0.1653
   17TMC1    O2  274   4.371   1.838  11.178 -0.0911 -0.0267 -0.3763
   17TMC1    O3  275   4.403   2.176  10.614 -0.4592  0.5683  0.0353
   17TMC1    H3  276   4.378   2.235  10.689  1.5827 -0.5090  1.5578
   17TMC1    O5  277   4.202   1.831  11.020 -0.4369  0.0890 -0.2385
   17TMC1    H5  278   4.174   1.892  10.948 -3.3125 -1.1382 -0.1678
   18MPD2     C  279   0.018   2.480  11.152  0.1320 -0.2127 -0.1545
   18MPD2    C1  280   0.042   2.397  11.041 -0.3190 -1.4158  0.2623
   18MPD2    C2  281   0.167   2.393  10.985 -0.0870  0.0485  0.3486
   18MPD2    C3  282   0.271   2.471  11.033 -0.3311 -0.1937 -0.2233
   18MPD2    C4  283   0.240   2.551  11.135  0.2310 -1.1397  0.1545
   18MPD2    C5  284   0.121   2.551  11.202  0.1227  0.8232  0.3554
   18MPD2     H  285   0.196   2.324  10.906 -0.2112 -0.5186  0.8036
   18MPD2    H1  286   0.317   2.612  11.181  1.9020 -2.0589 -1.4361
   18MPD2    H2  287   4.660   2.474  11.204 -0.9328  1.4165 -1.9057
   18MPD2    H3  288   0.106   2.616  11.287 -1.3651  0.2938  0.5063
   18MPD2     N  289   0.401   2.493  10.972  0.3502 -0.7855  0.8297
   18MPD2    H5  290   0.454   2.569  11.014 -0.4448  1.0368 -1.4949
   18MPD2    N1  291   4.679   2.311  10.994  0.3680  0.1024 -0.1772
   18MPD2    H7  292   4.699   2.265  10.906 -1.9674 -1.0519 -0.1022
   19TMC2    C1  293   2.058   3.514  14.146 -0.0951  0.4053 -0.0503
   19TMC2    C2  294   2.046   3.595  14.036  0.0701  0.0921  0.6314
   19TMC2    C3  295   1.943   3.572  13.959  0.5719  0.2967  0.3062
   19TMC2    C4  296   1.956   3.425  14.178 -0.0280  0.3246  0.2075
   19TMC2    C5  297   1.853   3.407  14.095 -0.2575 -0.1363  0.3696
   19TMC2    C6  298   1.839   3.483  13.981 -0.1892  1.0191  0.2438
   19TMC2     C  299   2.183   3.524  14.220 -0.6593  0.1412  0.1799
   19TMC2     O  300   2.276   3.586  14.169  0.1994  0.3568  0.4166
   19TMC2     H  301   2.130   3.657  14.005 -0.6128  0.0074 -1.3976
   19TMC2    H1  302   1.963   3.364  14.268 -1.5660 -1.2387 -0.7239
   19TMC2    H2  303   1.756   3.470  13.913 -0.4783  1.7862  0.4524
   19TMC2    C7  304   1.739   3.340  14.158  0.3092  0.3525 -0.1945
   19TMC2    C8  305   1.950   3.631  13.823  0.3025 -0.1747 -0.1737
   19TMC2    O1  306   1.749   3.269  14.258  0.1944 -0.1418 -0.2128
   19TMC2    O2  307   1.921   3.574  13.718  0.3193 -0.0497  0.7826
   19TMC2    O5  308   1.957   3.767  13.849  0.6267 -0.4891 -0.1089
   19TMC2    H5  309   1.951   3.787  13.945  2.2262  1.3255 -0.3860
   20MPD2     C  310   2.403   3.511  14.404  0.5251 -0.1271 -0.4362
   20MPD2    C1  311   2.277   3.468  14.439 -0.1970  0.1839 -0.3080
   20MPD2    C2  312   2.246   3.422  14.568  0.1271  0.6657  0.5032
   20MPD2    C3  313   2.346   3.436  14.665 -1.0714 -0.8388 -0.2408
   20MPD2    C4  314   2.469   3.495  14.632  0.8012 -0.1041 -0.3083
   20MPD2    C5  315   2.498   3.530  14.503  0.4341 -0.4910  0.0713
   20MPD2     H  316   2.149   3.376  14.585  0.7588 -0.1176  1.9863
   20MPD2    H1  317   2.539   3.508  14.714  1.6328 -0.4927 -0.9615
   20MPD2    H2  318   2.436   3.542  14.305  1.9625 -1.3237 -0.3425
   20MPD2    H3  319   2.594   3.577  14.485  0.7077 -0.8522  0.6024
   20MPD2     N  320   2.330   3.386  14.794  0.5149 -0.2766  0.2502
   20MPD2    H5  321   2.408   3.391  14.859  2.1148  2.8655 -1.9118
   20MPD2    N1  322   2.173   3.467  14.344 -0.2957  0.5013  0.2020
   20MPD2    H7  323   2.082   3.435  14.375 -0.0212 -1.1685 -0.7155
   21TMC2    C1  324   4.257   3.608  14.965 -0.0636  0.6487  0.0982
   21TMC2    C2  325   4.241   3.496  15.044  0.2551  0.5991 -0.4288
   21TMC2    C3  326   4.129   3.476  15.117 -0.0988 -0.5133  0.1422
   21TMC2    C4  327   4.153   3.703  14.971  0.4129 -0.2538  0.8068
   21TMC2    C5  328   4.045   3.683  15.052  0.3120  0.4413  0.2072
   21TMC2    C6  329   4.028   3.567  15.125  0.0967 -1.0469  0.6047
   21TMC2     C  330   4.361   3.614  14.864  0.0900 -0.3265 -0.5795
   21TMC2     O  331   4.450   3.527  14.862 -0.2586  0.5363  0.8002
   21TMC2     H  332   4.332   3.439  15.059  0.8273  1.2431 -1.4499
   21TMC2    H1  333   4.160   3.805  14.934 -0.6686 -0.2317  0.6847
   21TMC2    H2  334   3.943   3.558  15.191  0.7035 -0.7712  1.4325
   21TMC2    C7  335   3.930   3.777  15.059  0.1506  0.7966  0.4328
   21TMC2    C8  336   4.134   3.375  15.223  0.0398  0.1669  0.7455
   21TMC2    O1  337   3.864   3.783  15.159  0.6823  0.0780  0.0877
   21TMC2    O2  338   4.222   3.289  15.236  0.7737  0.3489 -0.3661
   21TMC2    O5  339   4.008   3.343  15.258 -0.2823 -0.3719  0.0931
   21TMC2    H5  340   3.935   3.393  15.215  1.3477  1.3673 -0.6492
   22MPD2     C  341   4.571   3.906  14.485 -0.1370  0.6094 -0.0190
   22MPD2    C1  342   4.613   3.786  14.542  0.4788 -0.0389 -0.3047
   22MPD2    C2  343   4.539   3.714  14.635  0.3135 -0.1980  0.1255
   22MPD2    C3  344   4.428   3.775  14.684 -0.0273  0.8687  0.2678
   22MPD2    C4  345   4.380   3.883  14.616 -0.1880 -0.0308 -0.3549
   22MPD2    C5  346   4.444   3.948  14.512 -0.1902  0.4316 -0.2334
   22MPD2     H  347   4.589   3.626  14.675  1.3438  0.6320  0.6407
   22MPD2    H1  348   4.285   3.924  14.647  0.0036  0.2409 -0.1351
   22MPD2    H2  349   4.631   3.956  14.410 -1.0065 -0.8155 -1.6625
   22MPD2    H3  350   4.388   4.030  14.468 -2.5795  0.2746  2.5408
   22MPD2     N  351   4.351   3.733  14.793  0.3868 -0.1471  0.3549
   22MPD2    H5  352   4.278   3.803  14.807  1.6502  0.9478  1.4670
   22MPD2    N1  353   4.736   3.724  14.498 -0.3142 -0.9132 -0.1311
   22MPD2    H7  354   0.013   3.627  14.523  1.9803 -0.3028  0.9693
   23TMC2    C1  355   0.902   0.183  14.456  0.2619  0.6722 -0.2660
   23TMC2    C2  356   0.876   0.218  14.326 -0.0844  0.2823 -0.0756
   23TMC2    C3  357   0.751   0.186  14.284 -0.6536  0.0470  1.2214
   23TMC2    C4  358   0.809   0.142  14.544 -0.0413  0.2554  0.4381
   23TMC2    C5  359   0.689   0.104  14.501  0.7905 -0.3520 -0.3054
   23TMC2    C6  360   0.656   0.131  14.369 -0.1325  0.2474  0.0190
   23TMC2     C  361   1.038   0.188  14.502 -0.3448  0.2637  0.1335
   23TMC2     O  362   1.063   0.163  14.617 -0.1923  0.3414  0.5227
   23TMC2     H  363   0.931   0.300  14.281  0.3403 -0.4759 -0.9353
   23TMC2    H1  364   0.833   0.127  14.649  0.1330  2.4842  0.7258
   23TMC2    H2  365   0.566   0.097  14.320  0.2211  1.6708 -1.6280
   23TMC2    C7  366   0.600   0.029  14.588 -0.1527 -0.6017 -1.0725
   23TMC2    C8  367   0.694   0.274  14.189  0.0447 -0.8882 -0.0896
   23TMC2    O1  368   0.646   4.724  14.692 -0.0045 -0.4839  0.2393
   23TMC2    O2  369   0.575   0.310  14.205  0.8090  0.1131  0.3126
   23TMC2    O5  370   0.777   0.318  14.095  0.3941 -0.4855 -0.3298
   23TMC2    H5  371   0.862   0.270  14.091  0.4134 -0.4933  0.2282
   24MPD2     C  372   1.506   0.008  14.387 -0.7629 -0.5130  0.5576
   24MPD2    C1  373   1.438   0.023  14.509 -0.4796  0.4870  0.6752
   24MPD2    C2  374   1.318   0.088  14.509 -0.7708 -0.0967 -0.3347
   24MPD2    C3  375   1.260   0.122  14.393 -0.3700 -0.6827  0.9308
   24MPD2    C4  376   1.329   0.112  14.273 -0.4079  0.5182 -0.0532
   24MPD2    C5  377   1.452   0.055  14.269  0.6128  0.2785 -0.6259
   24MPD2     H  378   1.265   0.101  14.603  0.9942 -2.9698  1.0655
   24MPD2    H1  379   1.290   0.163  14.186 -0.2143 -0.5892 -0.7827
   24MPD2    H2  380   1.610   4.713  14.389 -0.7899 -0.6861 -0.8851
   24MPD2    H3  381   1.514   0.057  14.180  0.8613 -2.4355 -0.5092
   24MPD2     N  382   1.127   0.176  14.395  0.2990 -0.5690  0.8516
   24MPD2    H5  383   1.100   0.213  14.304  2.1177  1.5771  1.1976
   24MPD2    N1  384   1.485   4.723  14.638  0.2298  0.0678 -0.3407
   24MPD2    H7  385   1.437   0.018  14.722 -0.8188 -2.7247  0.1096
   25TMC2    C1  386   0.264   1.698  12.225  0.5200  0.4705  0.1212
   25TMC2    C2  387   0.368   1.688  12.307  0.5139  1.0598 -0.6194
   25TMC2    C3  388   0.335   1.702  12.442 -0.5277  0.5937 -0.3643
   25TMC2    C4  389   0.132   1.706  12.269 -0.4391  0.6009 -0.0682
   25TMC2    C5  390   0.104   1.719  12.401  0.3381  0.2444 -0.5046
   25TMC2    C6  391   0.207   1.723  12.486  0.8430  0.5014  0.0571
   25TMC2     C  392   0.297   1.662  12.089  0.8136 -0.5529 -0.2552
   25TMC2     O  393   0.414   1.639  12.058  0.3973 -0.6130  0.0901
   25TMC2     H  394   0.473   1.684  12.282  0.8289 -1.4116  1.0524
   25TMC2    H1  395   0.052   1.698  12.197  0.3089  0.7145 -0.9077
   25TMC2    H2  396   0.190   1.724  12.593 -1.8308  0.4499 -0.3739
   25TMC2    C7  397   4.706   1.749  12.439 -0.0419  0.1589  0.0692
   25TMC2    C8  398   0.436   1.699  12.545 -0.5756 -0.9941  0.9184
   25TMC2    O1  399   4.673   1.748  12.559  0.4672  0.0689 -0.3594
   25TMC2    O2  400   0.551   1.701  12.503 -0.1876  0.2270 -0.0872
   25TMC2    O5  401   0.393   1.608  12.633  0.1528 -0.5450 -0.3527
   25TMC2    H5  402   0.296   1.590  12.627 -0.0525 -0.0356  1.3744
   26MPD2     C  403   0.163   1.505  11.616 -0.3156 -0.2152 -0.1861
   26MPD2    C1  404   0.061   1.481  11.704  0.1423  0.1675 -0.3575
   26MPD2    C2  405   0.064   1.524  11.835  0.1258  0.5018 -0.3837
   26MPD2    C3  406   0.179   1.586  11.880 -0.3751 -0.1882 -0.0350
   26MPD2    C4  407   0.284   1.605  11.793 -0.1770  0.2298 -0.1970
   26MPD2    C5  408   0.279   1.568  11.660 -0.0653 -0.6620  0.1007
   26MPD2     H  409   4.715   1.528  11.900 -0.1884 -1.4904 -0.6787
   26MPD2    H1  410   0.375   1.642  11.839 -0.3351  2.9385 -2.0145
   26MPD2    H2  411   0.158   1.471  11.513  0.4150  0.3543 -0.4094
   26MPD2    H3  412   0.366   1.581  11.597  1.3079  3.0703  2.7371
   26MPD2     N  413   0.186   1.613  12.019  0.2395  0.2230  0.9288
   26MPD2    H5  414   0.096   1.610  12.066  0.0459 -0.2351  0.5296
   26MPD2    N1  415   4.684   1.412  11.661  0.2879  0.5383 -0.5810
   26MPD2    H7  416   4.686   1.392  11.561  1.8439 -1.7471 -0.0783
   27TMC2    C1  417   3.483   4.643  12.248  0.1660  0.2629  0.2105
   27TMC2    C2  418   3.562   4.685  12.143  0.4462  0.4659 -0.5673
   27TMC2    C3  419   3.700   4.686  12.152  0.2605 -0.2012  0.4071
   27TMC2    C4  420   3.544   4.597  12.360 -0.2833 -0.4242 -0.3632
   27TMC2    C5  421   3.682   4.590  12.362 -0.1961 -0.3076  0.6435
   27TMC2    C6  422   3.763   4.634  12.257  0.2464 -0.5536  0.4364
   27TMC2     C  423   3.379   4.548  12.204  0.2552 -0.6106 -0.1443
   27TMC2     O  424   3.373   4.516  12.086  0.3236  0.6576  0.3279
   27TMC2     H  425   3.509   4.712  12.053  0.3644 -0.3239 -0.7601
   27TMC2    H1  426   3.491   4.550  12.442 -0.9740  0.1600 -0.4810
   27TMC2    H2  427   3.871   4.627  12.255  0.4514  2.0520  1.5531
   27TMC2    C7  428   3.739   4.515  12.476 -0.2118  0.2890 -0.3747
   27TMC2    C8  429   3.765   4.697  12.027 -0.6328 -0.0094 -0.1767
   27TMC2    O1  430   3.676   4.495  12.577 -0.0571 -0.2214 -0.0417
   27TMC2    O2  431   3.722   0.037  11.941  0.2530  0.0655  0.0955
   27TMC2    O5  432   3.882   4.645  12.037  0.0001 -0.2352  0.1963
   27TMC2    H5  433   3.882   4.562  12.090 -1.9859 -0.4766 -0.1719
   28MPD2     C  434   3.014   4.210  12.275  0.2886  0.3208  0.7597
   28MPD2    C1  435   3.005   4.301  12.384 -0.0996  0.3751  0.0426
   28MPD2    C2  436   3.094   4.406  12.392 -0.5933  0.1542  0.4963
   28MPD2    C3  437   3.192   4.415  12.293 -0.1590 -0.2658  0.0516
   28MPD2    C4  438   3.202   4.320  12.194  0.3857 -0.6997 -0.0811
   28MPD2    C5  439   3.123   4.209  12.185  0.2722 -0.4517 -0.2783
   28MPD2     H  440   3.082   4.480  12.470  0.0153  1.3830 -0.5740
   28MPD2    H1  441   3.290   4.318  12.129  0.5346  0.5040  0.0849
   28MPD2    H2  442   2.952   4.121  12.268  1.1565 -0.1232 -1.1154
   28MPD2    H3  443   3.143   4.125  12.120 -1.2484  0.1011 -1.4603
   28MPD2     N  444   3.285   4.522  12.306  0.8219  0.0032  0.4734
   28MPD2    H5  445   3.280   4.587  12.384  1.1122 -1.3165  1.5892
   28MPD2    N1  446   2.916   4.275  12.487 -0.4264  0.1812 -0.4473
   28MPD2    H7  447   2.862   4.190  12.476 -1.4000  0.7499 -0.1149
   29TMC2    C1  448   3.231   1.970  15.080 -0.2452  0.1667  1.0476
   29TMC2    C2  449   3.171   1.949  15.203 -0.2980 -0.0079 -0.0447
   29TMC2    C3  450   3.200   2.045  15.296  0.4570 -0.2073 -0.2592
   29TMC2    C4  451   3.321   2.073  15.050  0.4487 -0.1023  0.5702
   29TMC2    C5  452   3.357   2.153  15.160  0.3399 -0.7676  0.3803
   29TMC2    C6  453   3.295   2.139  15.274  0.2079  0.0865 -0.5330
   29TMC2     C  454   3.182   1.884  14.972  0.2106  0.1746 -0.4925
   29TMC2     O  455   3.104   1.795  15.000 -0.6509  0.9276  0.2389
   29TMC2     H  456   3.118   1.859  15.231 -1.3682  1.0630  1.4081
   29TMC2    H1  457   3.378   2.072  14.958 -1.6067  1.7416 -0.7300
   29TMC2    H2  458   3.322   2.209  15.351  3.4035 -0.0630 -1.5034
   29TMC2    C7  459   3.400   2.287  15.128  0.1354 -0.1048  0.4900
   29TMC2    C8  460   3.168   2.001  15.427  1.4769  0.2849 -0.4987
   29TMC2    O1  461   3.437   2.358  15.221  0.0203 -0.0929 -0.2653
   29TMC2    O2  462   3.145   1.882  15.449  0.0673  0.2732 -0.0816
   29TMC2    O5  463   3.123   2.105  15.503 -0.3640 -0.9761  0.1439
   29TMC2    H5  464   3.125   2.193  15.461 -2.5786 -0.0306  2.0216
   30MPD2     C  465   3.280   1.635  14.531  0.1093  0.3273  0.4516
   30MPD2    C1  466   3.255   1.595  14.667 -0.6017  0.2316  0.3452
   30MPD2    C2  467   3.251   1.686  14.772 -0.2357  0.2074  0.0633
   30MPD2    C3  468   3.253   1.824  14.743 -0.0438 -0.3077  0.1010
   30MPD2    C4  469   3.278   1.861  14.611  0.4381  0.7293  0.2220
   30MPD2    C5  470   3.288   1.766  14.508  0.1049 -0.7238 -0.1072
   30MPD2     H  471   3.234   1.651  14.873  0.7697 -1.0317 -0.1914
   30MPD2    H1  472   3.268   1.960  14.570  0.8247  0.0238 -1.6068
   30MPD2    H2  473   3.260   1.566  14.449  1.2038  1.9983 -1.1951
   30MPD2    H3  474   3.303   1.802  14.407 -0.6728 -0.7851 -0.2452
   30MPD2     N  475   3.235   1.916  14.852 -0.4404  0.7374 -0.6399
   30MPD2    H5  476   3.264   2.013  14.845 -2.8412  1.4813 -0.2013
   30MPD2    N1  477   3.233   1.463  14.699  0.0896  0.1452  0.3063
   30MPD2    H7  478   3.219   1.444  14.797 -0.5147  1.6020  0.5074
   31TMC2    C1  479   0.682   0.727  15.822  0.9397  0.8972 -1.1085
   31TMC2    C2  480   0.557   0.781  15.845 -0.1828  0.1278  0.5203
   31TMC2    C3  481   0.515   0.791  15.975 -0.7284  0.8301 -0.6375
   31TMC2    C4  482   0.773   0.691  15.918 -0.4783  0.3605 -0.6449
   31TMC2    C5  483   0.731   0.706  16.043  0.1634 -0.2360  0.2422
   31TMC2    C6  484   0.604   0.756  16.072 -0.6940 -0.0661 -0.8572
   31TMC2     C  485   0.721   0.718  15.682  0.5277  0.4664  0.8082
   31TMC2     O  486   0.644   0.755  15.596  0.3051  0.0803  0.2494
   31TMC2     H  487   0.496   0.813  15.761  0.1904  0.2536  0.3001
   31TMC2    H1  488   0.859   0.628  15.899  0.3790  0.8960  1.4507
   31TMC2    H2  489   0.575   0.755  16.176 -1.3965 -0.5626 -1.0598
   31TMC2    C7  490   0.812   0.699  16.161  0.1103 -0.2377  0.8458
   31TMC2    C8  491   0.378   0.779  16.010 -0.2812  0.4807  0.3812
   31TMC2    O1  492   0.759   0.690  16.270 -0.3666  0.7551  0.0559
   31TMC2    O2  493   0.345   0.688  16.089 -0.3705  0.0326  0.6473
   31TMC2    O5  494   0.306   0.822  15.912  0.3721  0.4782 -0.0823
   31TMC2    H5  495   0.362   0.886  15.862  0.5743  0.2133 -0.1943
   32MPD2     C  496   1.102   0.632  15.354 -0.9243  0.4064 -0.5899
   32MPD2    C1  497   0.983   0.697  15.338 -0.0340 -0.6913 -0.1424
   32MPD2    C2  498   0.890   0.713  15.444  1.3102  0.1818  0.0910
   32MPD2    C3  499   0.922   0.651  15.558 -0.0673 -0.1948 -0.0832
   32MPD2    C4  500   1.040   0.580  15.575 -0.8706  0.6027 -0.4827
   32MPD2    C5  501   1.132   0.577  15.474  0.0475 -0.0849  0.4018
   32MPD2     H  502   0.794   0.760  15.424  2.1642  1.5659 -0.7362
   32MPD2    H1  503   1.072   0.535  15.668  0.1766  1.1170 -0.6012
   32MPD2    H2  504   1.178   0.626  15.276  0.4009  3.2406  0.4825
   32MPD2    H3  505   1.226   0.525  15.491  1.1976  1.9821  0.3759
   32MPD2     N  506   0.841   0.651  15.671 -0.2342  0.1368 -0.2602
   32MPD2    H5  507   0.872   0.590  15.746 -3.2347  0.6893  1.3901
   32MPD2    N1  508   0.971   0.744  15.206 -0.2115  0.6371  0.3442
   32MPD2    H7  509   1.054   0.744  15.148 -1.5653  0.5693 -1.5916
   33TMC2    C1  510   1.100   3.308  10.693  0.9767  0.6719  0.1065
   33TMC2    C2  511   1.212   3.295  10.769 -0.2298 -0.0679  0.4674
   33TMC2    C3  512   1.297   3.403  10.770  0.6288  0.2229  0.4726
   33TMC2    C4  513   1.075   3.426  10.628 -0.2672  0.2081  0.8573
   33TMC2    C5  514   1.162   3.528  10.641 -0.1665 -0.2366  0.0271
   33TMC2    C6  515   1.273   3.525  10.712  0.0668  1.0439  0.4039
   33TMC2     C  516   1.021   3.191  10.689 -0.3856  0.2668 -0.0604
   33TMC2     O  517   1.065   3.098  10.754  0.6016 -0.1926 -0.3561
   33TMC2     H  518   1.236   3.207  10.827  1.1315  0.1041  0.1678
   33TMC2    H1  519   0.980   3.435  10.576  0.3579 -1.0363 -0.4953
   33TMC2    H2  520   1.347   3.604  10.716  1.6816 -0.4661  0.3749
   33TMC2    C7  521   1.137   3.661  10.582  0.1033  0.7320  0.7357
   33TMC2    C8  522   1.425   3.377  10.836  0.1351  0.1574 -0.0178
   33TMC2    O1  523   1.239   3.715  10.549 -0.0284  0.1708 -0.6956
   33TMC2    O2  524   1.489   3.465  10.886 -0.5416 -0.0143 -0.6306
   33TMC2    O5  525   1.476   3.264  10.781 -0.9204  0.5266 -0.0554
   33TMC2    H5  526   1.417   3.230  10.710  0.6958  0.7724 -1.5282
   34MPD2     C  527   0.567   2.975  10.635 -0.4695  0.7361 -0.0537
   34MPD2    C1  528   0.687   2.928  10.666  0.1074 -0.5942 -1.1243
   34MPD2    C2  529   0.801   3.002  10.658 -0.0295 -0.2683 -0.2269
   34MPD2    C3  530   0.789   3.133  10.620 -0.1595  0.5856  0.2980
   34MPD2    C4  531   0.670   3.181  10.568 -0.6539  0.0511  0.1621
   34MPD2    C5  532   0.559   3.103  10.590  0.4876 -0.2454  0.1049
   34MPD2     H  533   0.894   2.967  10.701  0.9084  0.1685 -1.9058
   34MPD2    H1  534   0.661   3.284  10.536  1.1239 -0.4252 -1.8210
   34MPD2    H2  535   0.479   2.911  10.640  1.2909 -1.6783  0.2712
   34MPD2    H3  536   0.461   3.148  10.575 -0.0756 -1.5264 -0.0841
   34MPD2     N  537   0.897   3.221  10.631 -0.8415  0.0172 -0.3095
   34MPD2    H5  538   0.881   3.316  10.599 -0.7728 -0.3868 -1.5358
   34MPD2    N1  539   0.687   2.794  10.716  0.2281  0.7564  0.1529
   34MPD2    H7  540   0.605   2.736  10.699 -0.8824  2.5591 -0.5850
   35TMC2    C1  541   1.371   4.456  11.410 -0.2883 -0.4179  0.6726
   35TMC2    C2  542   1.278   4.543  11.358 -0.0884 -0.5856 -0.0899
   35TMC2    C3  543   1.149   4.504  11.352  0.3031  0.1218  0.0948
   35TMC2    C4  544   1.328   4.337  11.460  0.1217 -0.2758  0.3763
   35TMC2    C5  545   1.204   4.295  11.439 -0.1652 -0.3599  0.3028
   35TMC2    C6  546   1.110   4.378  11.385  0.1099  0.1796 -0.0951
   35TMC2     C  547   1.492   4.516  11.455 -0.0056 -0.8272 -0.1324
   35TMC2     O  548   1.498   4.636  11.428 -0.5771 -0.6612 -0.2525
   35TMC2     H  549   1.306   4.642  11.324  0.6939 -0.6617  0.3373
   35TMC2    H1  550   1.396   4.270  11.512  0.1499 -2.6059 -2.6758
   35TMC2    H2  551   1.012   4.340  11.357  0.3784 -1.3086  0.9743
   35TMC2    C7  552   1.165   4.157  11.477  0.3362  0.5889 -0.3929
   35TMC2    C8  553   1.052   4.596  11.296 -0.0294  0.0462 -0.7647
   35TMC2    O1  554   1.225   4.118  11.574 -0.1182 -0.0103 -0.2731
   35TMC2    O2  555   0.943   4.562  11.250 -0.1989 -0.2746 -0.6885
   35TMC2    O5  556   1.080   4.715  11.361  0.0975  0.4497 -0.2039
   35TMC2    H5  557   1.130   4.710  11.445  1.7444  0.1040 -1.2197
   36MPD2     C  558   1.993   4.531  11.531 -1.1658 -0.0430  0.6361
   36MPD2    C1  559   1.940   4.432  11.612 -0.0363 -0.0808  0.1299
   36MPD2    C2  560   1.808   4.401  11.593  0.0779  0.4745 -0.4135
   36MPD2    C3  561   1.728   4.482  11.514 -0.4686 -0.4024  0.5167
   36MPD2    C4  562   1.779   4.577  11.435 -0.5018 -0.0726 -0.0418
   36MPD2    C5  563   1.909   4.607  11.455  0.3926  0.7576  0.0775
   36MPD2     H  564   1.765   4.318  11.648 -0.7237  0.9796 -0.2838
   36MPD2    H1  565   1.728   4.651  11.375 -0.7593  0.6979  1.1507
   36MPD2    H2  566   2.099   4.550  11.541 -1.5679  3.5579 -1.9352
   36MPD2    H3  567   1.941   4.694  11.399  1.2556 -0.4763 -1.3516
   36MPD2     N  568   1.588   4.444  11.517  0.4713 -0.3754 -0.0431
   36MPD2    H5  569   1.569   4.346  11.538 -0.9272 -0.2087 -0.5270
   36MPD2    N1  570   2.020   4.370  11.710 -0.7242 -0.5845 -0.1432
   36MPD2    H7  571   2.118   4.396  11.707 -0.4644 -1.5533  0.0879
   37TMC2    C1  572   3.765   0.380  11.999 -0.2852  0.1744 -0.3934
   37TMC2    C2  573   3.663   0.403  11.914 -0.6199  0.0597 -0.7208
   37TMC2    C3  574   3.692   0.465  11.798 -0.7081  0.3752  0.1349
   37TMC2    C4  575   3.893   0.421  11.975  0.3679 -0.1276 -0.3619
   37TMC2    C5  576   3.917   0.487  11.859 -0.3661 -0.2914 -0.7251
   37TMC2    C6  577   3.818   0.518  11.770  0.0979 -0.3193  0.5664
   37TMC2     C  578   3.736   0.311  12.125 -0.0003  0.7097  0.1612
   37TMC2     O  579   3.620   0.295  12.148  0.4175  0.2166 -0.0303
   37TMC2     H  580   3.558   0.397  11.939 -0.5432  0.4444 -0.2995
   37TMC2    H1  581   3.974   0.395  12.042 -0.3743  0.8468  0.9028
   37TMC2    H2  582   3.829   0.572  11.676  0.3470 -1.8404 -0.2717
   37TMC2    C7  583   4.049   0.483  11.806  0.2378 -0.4473 -0.1195
   37TMC2    C8  584   3.589   0.510  11.705 -0.0006  0.4467 -0.1246
   37TMC2    O1  585   4.148   0.484  11.878  0.0078  0.2742 -0.8623
   37TMC2    O2  586   3.606   0.609  11.634 -0.6167  0.1126 -0.6346
   37TMC2    O5  587   3.484   0.432  11.717 -0.0807  0.1525 -0.4046
   37TMC2    H5  588   3.520   0.348  11.752 -0.7766 -0.2330 -0.6131
   38MPD2     C  589   3.880   0.115  12.568  0.1271 -0.0767 -0.0804
   38MPD2    C1  590   3.988   0.097  12.481  0.9784 -0.1969 -0.1985
   38MPD2    C2  591   3.974   0.144  12.355 -0.0102  0.8630 -0.3796
   38MPD2    C3  592   3.852   0.204  12.314  0.1387 -0.4142  0.3245
   38MPD2    C4  593   3.751   0.221  12.404  0.2531 -0.2060 -0.2277
   38MPD2    C5  594   3.767   0.179  12.530 -0.1894 -0.5097 -0.2125
   38MPD2     H  595   4.058   0.122  12.291  0.1523  2.2640 -0.6604
   38MPD2    H1  596   3.662   0.280  12.383 -0.9209 -1.8181  0.2400
   38MPD2    H2  597   3.879   0.071  12.667  2.5607  1.5307  0.6648
   38MPD2    H3  598   3.687   0.192  12.602  0.5569 -0.1421  0.5542
   38MPD2     N  599   3.849   0.267  12.188 -0.0914 -0.3764 -0.1656
   38MPD2    H5  600   3.935   0.274  12.135 -0.7145  0.6326 -1.0560
   38MPD2    N1  601   4.111   0.025  12.517  0.1735  0.5235 -0.2298
   38MPD2    H7  602   4.185   0.017  12.448  0.8464 -0.9351  0.6629
   39TMC2    C1  603   3.190   1.460   1.922 -0.0546  0.5161  0.0999
   39TMC2    C2  604   3.191   1.439   2.055  0.3166  0.1163  0.3920
   39TMC2    C3  605   3.311   1.428   2.115 -0.5732 -0.2045 -0.0793
   39TMC2    C4  606   3.312   1.475   1.849 -0.2849 -0.8182  0.1528
   39TMC2    C5  607   3.425   1.473   1.922  0.6113  0.0842 -0.7067
   39TMC2    C6  608   3.432   1.453   2.057 -0.2057  0.2668  0.3899
   39TMC2     C  609   3.067   1.428   1.844  0.6397 -0.0389 -0.5630
   39TMC2     O  610   3.069   1.464   1.727 -0.0192 -0.0019  0.3501
   39TMC2     H  611   3.096   1.424   2.106  0.4647  0.3187  0.7303
   39TMC2    H1  612   3.310   1.473   1.741 -0.4472  0.9624  0.1141
   39TMC2    H2  613   3.527   1.444   2.108 -0.6210  0.2613  1.1620
   39TMC2    C7  614   3.554   1.492   1.857  0.9607 -0.0008 -0.6318
   39TMC2    C8  615   3.303   1.348   2.238  0.2349 -0.3238 -0.3727
   39TMC2    O1  616   3.660   1.470   1.921 -0.3526  0.1525  0.4942
   39TMC2    O2  617   3.399   1.285   2.279  0.3904  0.3230 -0.2197
   39TMC2    O5  618   3.179   1.323   2.269 -0.7133  0.0456  0.4093
   39TMC2    H5  619   3.132   1.410   2.270  2.5926  1.8280  1.3030
   40MPD2     C  620   2.737   1.392   1.982  0.9135  0.0345  0.1639
   40MPD2    C1  621   2.824   1.408   1.886 -0.0869 -0.0226  0.0680
   40MPD2    C2  622   2.782   1.410   1.755  0.4216 -0.7615 -0.4497
   40MPD2    C3  623   2.642   1.398   1.728  0.2607  0.1567 -0.0554
   40MPD2    C4  624   2.552   1.362   1.822  0.0608 -0.5992 -0.1560
   40MPD2    C5  625   2.604   1.372   1.951  0.3746 -0.7667  0.2312
   40MPD2     H  626   2.856   1.436   1.679  2.3595  1.2044  2.0963
   40MPD2    H1  627   2.445   1.365   1.803  0.2769  2.7784 -0.9646
   40MPD2    H2  628   2.763   1.400   2.087  1.4361  1.3660 -0.0582
   40MPD2    H3  629   2.541   1.356   2.038 -2.0420  2.6500 -0.8939
   40MPD2     N  630   2.578   1.408   1.605  0.5334 -0.2348 -0.2646
   40MPD2    H5  631   2.476   1.406   1.603  0.5150  0.9188 -0.7440
   40MPD2    N1  632   2.960   1.409   1.926 -0.8007 -0.3114  0.1895
   40MPD2    H7  633   2.977   1.398   2.025  1.5917  0.9052 -0.0931
   41TMC2    C1  634   2.145   0.272  13.045  0.0933 -0.1054 -0.0032
   41TMC2    C2  635   2.190   0.384  13.116 -0.1517  0.0922 -0.1864
   41TMC2    C3  636   2.315   0.418  13.085  0.2367  0.0770  0.1954
   41TMC2    C4  637   2.231   0.199  12.962  0.4562 -0.6150 -0.3033
   41TMC2    C5  638   2.360   0.244  12.936  0.7160  0.0853 -0.0205
   41TMC2    C6  639   2.403   0.358  12.998 -0.4900  0.4202  0.4829
   41TMC2     C  640   2.030   0.190  13.099  0.0971  0.5766  0.0231
   41TMC2     O  641   1.981   0.117  13.015 -0.1411 -0.2199  0.6981
   41TMC2     H  642   2.122   0.450  13.169  0.3395  0.0058  0.5580
   41TMC2    H1  643   2.190   0.116  12.905  0.0692  1.2920 -2.8096
   41TMC2    H2  644   2.498   0.403  12.974  0.8808 -3.5338 -1.5355
   41TMC2    C7  645   2.458   0.176  12.855  0.2075  0.4722 -0.7520
   41TMC2    C8  646   2.374   0.532  13.145 -0.8981 -0.2082 -0.7781
   41TMC2    O1  647   2.564   0.227  12.831 -0.0844  0.0975  0.3622
   41TMC2    O2  648   2.495   0.545  13.163  0.8861 -0.4145 -0.1312
   41TMC2    O5  649   2.295   0.636  13.109 -0.0299  0.2936  0.2091
   41TMC2    H5  650   2.210   0.600  13.075 -1.2096  0.4813  3.0192
   42MPD2     C  651   1.874   4.726  13.243 -0.6943 -0.5511 -0.2085
   42MPD2    C1  652   1.929   0.103  13.308 -0.0845 -0.3603  0.3601
   42MPD2    C2  653   1.883   0.126  13.436 -0.2775  0.1946 -0.8548
   42MPD2    C3  654   1.798   0.038  13.501 -0.1877  0.1434  0.1421
   42MPD2    C4  655   1.762   4.658  13.442  0.6546  0.7571  0.5118
   42MPD2    C5  656   1.797   4.641  13.313 -0.3598  0.2679 -0.2978
   42MPD2     H  657   1.927   0.213  13.485  0.3434 -1.2979  1.2407
   42MPD2    H1  658   1.691   4.594  13.493  1.5081 -0.1176  0.6080
   42MPD2    H2  659   1.916   4.698  13.147 -0.6272  1.0365 -0.6522
   42MPD2    H3  660   1.756   4.552  13.268 -0.2873 -0.3364  0.8101
   42MPD2     N  661   1.746   0.061  13.634 -0.0234 -0.0332 -0.0067
   42MPD2    H5  662   1.686   4.726  13.671  1.7893 -1.7529 -0.3723
   42MPD2    N1  663   2.009   0.193  13.236 -0.6844  0.1758  0.5306
   42MPD2    H7  664   2.056   0.267  13.288  1.0222 -0.1665 -0.5363
   43TMC2    C1  665   3.415   2.569   0.806 -0.5863 -0.4133 -0.4968
   43TMC2    C2  666   3.316   2.590   0.909  0.3713  0.1075  0.1811
   43TMC2    C3  667   3.305   2.716   0.957 -0.4900 -0.1254  0.9413
   43TMC2    C4  668   3.504   2.672   0.772 -0.3019 -1.3635  1.1174
   43TMC2    C5  669   3.482   2.799   0.827  0.4677 -0.1508  0.7255
   43TMC2    C6  670   3.392   2.818   0.929  0.9043 -0.9852  0.0289
   43TMC2     C  671   3.447   2.435   0.754  0.1556 -0.4349  0.3050
   43TMC2     O  672   3.542   2.427   0.682  0.3672 -0.1253  0.4126
   43TMC2     H  673   3.238   2.518   0.930  0.5653 -0.2183 -0.2094
   43TMC2    H1  674   3.576   2.657   0.692 -0.9090 -2.0218  0.7022
   43TMC2    H2  675   3.362   2.919   0.955 -0.2482 -1.4872  0.6036
   43TMC2    C7  676   3.567   2.903   0.776 -0.2032 -0.0562  0.0155
   43TMC2    C8  677   3.213   2.729   1.070  0.1602 -0.0472  0.2055
   43TMC2    O1  678   3.632   2.876   0.677 -0.1438  0.2904 -0.5161
   43TMC2    O2  679   3.107   2.668   1.072 -0.0588 -0.3308 -0.0873
   43TMC2    O5  680   3.249   2.841   1.141 -0.1010 -0.2276 -0.1596
   43TMC2    H5  681   3.338   2.877   1.120 -0.1636  0.5189  0.8592
   44MPD2     C  682   3.326   1.948   0.654  0.3588 -0.1293  0.0871
   44MPD2    C1  683   3.427   2.022   0.606  0.2857  0.1780 -0.0540
   44MPD2    C2  684   3.433   2.157   0.653 -0.1269  0.2904 -0.1593
   44MPD2    C3  685   3.347   2.211   0.753 -0.5114 -0.1073 -0.0181
   44MPD2    C4  686   3.257   2.120   0.808 -0.1285 -0.2523  0.1672
   44MPD2    C5  687   3.247   1.997   0.756 -0.0422 -0.1387 -0.5926
   44MPD2     H  688   3.518   2.212   0.615  0.2630 -0.5346 -0.4776
   44MPD2    H1  689   3.183   2.142   0.884  1.6260  0.1548  1.7711
   44MPD2    H2  690   3.300   1.850   0.616 -1.1468  0.7439 -1.1297
   44MPD2    H3  691   3.165   1.939   0.796  2.3437 -2.0102  1.6541
   44MPD2     N  692   3.357   2.342   0.805 -0.2438  0.6393 -0.3785
   44MPD2    H5  693   3.298   2.369   0.883  0.7444  0.2010  0.5212
   44MPD2    N1  694   3.521   1.987   0.512 -0.2900 -0.7184 -0.2054
   44MPD2    H7  695   3.587   2.059   0.485 -1.0617  0.2390  0.4599
   45TMC2    C1  696   3.561   0.170   9.756  0.2732  0.3124  0.6774
   45TMC2    C2  697   3.608   0.197   9.634 -0.1062  0.4648 -0.1872
   45TMC2    C3  698   3.710   0.283   9.621 -0.9861  0.4287 -0.2393
   45TMC2    C4  699   3.618   0.235   9.863 -0.0250  0.3433 -0.7609
   45TMC2    C5  700   3.712   0.340   9.842 -0.3526 -0.2163  0.2368
   45TMC2    C6  701   3.768   0.355   9.721 -0.0872  0.4271  0.0256
   45TMC2     C  702   3.472   0.056   9.780  0.1831  0.0688 -0.2952
   45TMC2     O  703   3.490   4.727   9.880 -0.2699 -0.0902 -0.5390
   45TMC2     H  704   3.563   0.148   9.549 -1.4523 -1.1071  1.4483
   45TMC2    H1  705   3.591   0.212   9.965 -0.1832  0.5001 -0.7669
   45TMC2    H2  706   3.851   0.424   9.707 -0.3677  0.8301  0.3676
   45TMC2    C7  707   3.724   0.445   9.945 -0.4742  0.7135 -0.0930
   45TMC2    C8  708   3.751   0.303   9.485 -0.1216  0.2234 -0.1560
   45TMC2    O1  709   3.662   0.428  10.048  0.1050  0.2989  0.7911
   45TMC2    O2  710   3.728   0.224   9.397  0.3353 -0.5559  0.1399
   45TMC2    O5  711   3.781   0.433   9.466 -0.3185 -0.3117  0.1259
   45TMC2    H5  712   3.770   0.494   9.542 -0.2716  0.4649 -0.4898
   46MPD2     C  713   3.316   4.558   9.716  0.2208  0.3302 -0.0026
   46MPD2    C1  714   3.282   4.679   9.658 -0.5403 -0.0987  0.5327
   46MPD2    C2  715   3.180   4.694   9.568 -0.5019  0.0917 -0.3773
   46MPD2    C3  716   3.097   4.582   9.539  0.2606 -0.3837 -0.6473
   46MPD2    C4  717   3.126   4.464   9.610  0.4212  0.4491  0.0409
   46MPD2    C5  718   3.240   4.450   9.686  0.0037  0.1790 -0.4189
   46MPD2     H  719   3.156   0.052   9.521  0.1938  1.0734  1.2592
   46MPD2    H1  720   3.058   4.380   9.605  1.4992 -0.4513  0.6953
   46MPD2    H2  721   3.401   4.537   9.779 -0.8582 -0.0596  1.3212
   46MPD2    H3  722   3.250   4.369   9.758  0.0587  1.9064  1.5085
   46MPD2     N  723   2.981   4.600   9.463  0.9210  0.1051 -0.4804
   46MPD2    H5  724   2.951   4.690   9.428  1.9670 -0.1163 -1.9553
   46MPD2    N1  725   3.376   0.050   9.682  1.0759 -0.4020  0.4363
   46MPD2    H7  726   3.369   0.138   9.631  1.4070 -0.5933  0.0520
   47TMC2    C1  727   1.620   0.431   9.093 -0.5816 -0.2655  0.1283
   47TMC2    C2  728   1.565   0.449   8.969 -0.3244  0.0696 -0.1707
   47TMC2    C3  729   1.434   0.426   8.947 -0.9232  0.1655  0.1403
   47TMC2    C4  730   1.537   0.410   9.203  0.3631 -0.5232  0.0824
   47TMC2    C5  731   1.401   0.409   9.174 -1.2257  0.1290  0.4182
   47TMC2    C6  732   1.346   0.424   9.050 -0.2175  0.1744 -0.2083
   47TMC2     C  733   1.766   0.436   9.105  0.2652  0.5447  0.2746
   47TMC2     O  734   1.822   0.482   9.007 -0.5492 -0.0398  0.1186
   47TMC2     H  735   1.627   0.444   8.880 -1.4996  1.0626 -1.0432
   47TMC2    H1  736   1.574   0.414   9.305  2.5580 -0.6747 -0.7111
   47TMC2    H2  737   1.241   0.441   9.031 -0.3309 -0.8454 -0.5026
   47TMC2    C7  738   1.306   0.412   9.284  1.0360 -0.3081 -0.0185
   47TMC2    C8  739   1.381   0.461   8.816  0.2252 -0.1100 -0.1910
   47TMC2    O1  740   1.197   0.353   9.264  0.2835  0.6913  0.1655
   47TMC2    O2  741   1.455   0.516   8.740 -0.6590  0.1433 -0.2009
   47TMC2    O5  742   1.326   0.336   8.788 -0.1841 -0.0867 -0.1241
   47TMC2    H5  743   1.339   0.273   8.862  1.9120 -1.1276 -1.3581
   48MPD2     C  744   2.040   0.478   9.210 -0.4342  0.0532 -0.2250
   48MPD2    C1  745   1.940   0.403   9.271 -0.4879 -0.5362  0.0000
   48MPD2    C2  746   1.977   0.337   9.385  0.1560  0.8590 -0.3255
   48MPD2    C3  747   2.105   0.343   9.442 -0.0001  0.4155 -0.8917
   48MPD2    C4  748   2.198   0.431   9.393 -0.0506 -0.9578 -0.2125
   48MPD2    C5  749   2.161   0.492   9.272 -0.1434  0.2983  0.3423
   48MPD2     H  750   1.904   0.275   9.434  0.7283 -0.9974 -1.8065
   48MPD2    H1  751   2.293   0.451   9.441 -0.9658 -0.8400  1.5629
   48MPD2    H2  752   2.030   0.524   9.112  0.0450  1.5099  0.4175
   48MPD2    H3  753   2.232   0.562   9.229  0.1864  0.6200  1.4295
   48MPD2     N  754   2.135   0.257   9.550 -0.8033 -0.5310  0.0864
   48MPD2    H5  755   2.064   0.188   9.571  0.0637 -1.8606 -1.4126
   48MPD2    N1  756   1.808   0.395   9.224  0.3521  0.1702 -0.1741
   48MPD2    H7  757   1.749   0.337   9.283  0.3056  1.6530  1.2375
   49TMC2    C1  758   4.696   2.374   9.926 -0.0392 -0.2169  0.2317
   49TMC2    C2  759   0.075   2.411   9.865 -0.5795  0.1459  0.3296
   49TMC2    C3  760   0.159   2.315   9.811 -1.1282  0.1496 -0.5054
   49TMC2    C4  761   4.668   2.234   9.931 -0.4113  0.4532  0.2448
   49TMC2    C5  762   0.018   2.141   9.874 -0.7632  0.1471  0.3711
   49TMC2    C6  763   0.131   2.184   9.811 -0.1326 -0.3595  0.3632
   49TMC2     C  764   4.647   2.471  10.027  0.1058  0.4212  0.3557
   49TMC2     O  765   4.675   2.590  10.016 -0.3228  0.3968  0.1541
   49TMC2     H  766   0.109   2.514   9.861 -0.9386  0.2334 -0.4976
   49TMC2    H1  767   4.572   2.202   9.970 -1.6623  1.2521 -2.1535
   49TMC2    H2  768   0.201   2.116   9.763 -0.1352  0.3540 -0.6602
   49TMC2    C7  769   4.710   2.007   9.852  0.2252  0.5498  0.5319
   49TMC2    C8  770   0.286   2.355   9.747 -0.2348  0.2608  0.0951
   49TMC2    O1  771   0.035   1.953   9.760  0.5948  0.2445  0.7271
   49TMC2    O2  772   0.385   2.287   9.763  0.0149 -0.4468  0.2218
   49TMC2    O5  773   0.282   2.491   9.723  0.0488 -0.0100  1.4429
   49TMC2    H5  774   0.198   2.534   9.698 -0.8906 -4.0541 -2.3324
   50MPD2     C  775   4.511   2.627  10.252 -0.0985  0.4070 -0.2104
   50MPD2    C1  776   4.497   2.489  10.228  0.2041 -0.7977 -0.0040
   50MPD2    C2  777   4.402   2.424  10.301 -0.1413 -0.1708  0.4332
   50MPD2    C3  778   4.326   2.492  10.391  0.8326  0.2004 -0.1583
   50MPD2    C4  779   4.340   2.625  10.409  0.1237  0.4015 -0.6399
   50MPD2    C5  780   4.443   2.691  10.348 -0.5017 -0.5629 -0.3673
   50MPD2     H  781   4.395   2.316  10.289 -0.5347  0.0129 -0.9823
   50MPD2    H1  782   4.288   2.673  10.491 -1.3796  0.3208 -1.5512
   50MPD2    H2  783   4.584   2.686  10.199  1.8958 -2.0068 -0.1773
   50MPD2    H3  784   4.467   2.793  10.376 -2.3782 -0.4429  0.8351
   50MPD2     N  785   4.225   2.437  10.462  0.6183  0.3788 -0.3597
   50MPD2    H5  786   4.177   2.486  10.536 -0.8924 -0.3716 -0.8423
   50MPD2    N1  787   4.568   2.416  10.127  0.1388 -0.6562 -0.7117
   50MPD2    H7  788   4.537   2.320  10.115 -0.6653 -0.2289 -2.0238
   51TMC2    C1  789   4.588   1.534   1.136  0.1364 -0.2994 -0.0996
   51TMC2    C2  790   4.471   1.600   1.165  0.7635  0.0262  0.6118
   51TMC2    C3  791   4.457   1.729   1.131  0.8592 -0.0037 -0.0403
   51TMC2    C4  792   4.678   1.592   1.057 -0.2452 -0.3984 -0.2937
   51TMC2    C5  793   4.666   1.723   1.016 -0.1526 -0.2651 -0.1584
   51TMC2    C6  794   4.559   1.794   1.056 -0.5295  0.1168  0.6557
   51TMC2     C  795   4.624   1.401   1.189  0.2960  0.1352  0.2705
   51TMC2     O  796   4.700   1.326   1.125 -0.2022  0.2660 -0.0521
   51TMC2     H  797   4.387   1.554   1.215  1.8609 -0.3504  2.1134
   51TMC2    H1  798   0.029   1.532   1.041 -0.0203 -0.0199 -0.4731
   51TMC2    H2  799   4.556   1.901   1.041  1.1839  0.2382  1.1607
   51TMC2    C7  800   0.054   1.797   1.010  0.0743  0.4507 -0.1563
   51TMC2    C8  801   4.377   1.814   1.216  0.0228 -0.3763 -0.5661
   51TMC2    O1  802   0.041   1.915   1.037 -0.3261 -0.2844 -0.6426
   51TMC2    O2  803   4.365   1.799   1.336 -0.1037  0.2627 -0.2689
   51TMC2    O5  804   4.301   1.888   1.137 -0.1802  0.1563 -0.0027
   51TMC2    H5  805   4.310   1.864   1.042  0.5718  0.9701 -0.1371
   52MPD2     C  806   4.651   1.021   1.532  0.0310 -0.0744 -0.0406
   52MPD2    C1  807   4.696   1.027   1.400 -0.0726 -0.0970  0.1349
   52MPD2    C2  808   4.667   1.144   1.328  0.2630 -0.1846 -0.2889
   52MPD2    C3  809   4.595   1.254   1.386 -0.4545  0.5527 -0.5111
   52MPD2    C4  810   4.553   1.246   1.515 -0.0073 -0.4628 -0.4795
   52MPD2    C5  811   4.584   1.132   1.582  0.4447  0.2426  0.4998
   52MPD2     H  812   4.679   1.137   1.220  2.1384 -2.2980  0.0649
   52MPD2    H1  813   4.504   1.331   1.561  1.7065 -0.9729  2.3271
   52MPD2    H2  814   4.686   0.937   1.590  2.8700  0.3583 -1.1347
   52MPD2    H3  815   4.555   1.120   1.686 -4.0550 -2.4650 -1.0573
   52MPD2     N  816   4.566   1.371   1.310 -0.1596 -0.3454  0.1355
   52MPD2    H5  817   4.517   1.446   1.358  0.8712 -0.1617  0.9275
   52MPD2    N1  818   0.055   0.939   1.337  0.1739 -0.1305  0.7985
   52MPD2    H7  819   0.070   0.962   1.239 -0.8343 -0.1600  0.6389
   53TMC2    C1  820   4.714   0.191  11.704  0.1163 -0.6674  0.0808
   53TMC2    C2  821   0.073   0.111  11.653  0.2471  0.2396  0.3642
   53TMC2    C3  822   0.135   0.027  11.741  0.5785 -1.0163 -0.2140
   53TMC2    C4  823   4.680   0.193  11.839 -0.2360  0.5943 -0.2020
   53TMC2    C5  824   0.015   0.111  11.924  0.5931  0.3382 -0.4669
   53TMC2    C6  825   0.108   0.021  11.876 -0.9223 -0.2086 -0.1109
   53TMC2     C  826   4.632   0.252  11.607  0.5895 -0.6415  0.0574
   53TMC2     O  827   4.672   0.218  11.501  0.8509 -0.0602  0.6058
   53TMC2     H  828   0.126   0.136  11.562 -1.0341  0.8243 -0.2226
   53TMC2    H1  829   4.625   0.277  11.881 -0.9525 -0.0348  0.1026
   53TMC2    H2  830   0.155   4.684  11.939 -1.2987  0.1319  0.5609
   53TMC2    C7  831   4.716   0.121  12.063 -0.2211  0.0284 -0.2667
   53TMC2    C8  832   0.272   4.721  11.709  0.1719 -0.0670 -0.3406
   53TMC2    O1  833   4.615   0.183  12.085  0.2961  0.4606 -0.3696
   53TMC2    O2  834   0.358   4.687  11.792 -0.6594 -0.3815 -0.2047
   53TMC2    O5  835   0.287   4.700  11.578  0.3176  0.0851  0.1809
   53TMC2    H5  836   0.211   4.722  11.520 -0.3850 -0.6882  0.8213
   54MPD2     C  837   4.388   0.334  11.445 -0.6652  0.4423 -0.5617
   54MPD2    C1  838   4.388   0.319  11.578  0.1695 -0.6955 -0.3251
   54MPD2    C2  839   4.277   0.360  11.651  0.0787 -0.5085 -0.6521
   54MPD2    C3  840   4.158   0.403  11.602  0.9312  0.0675  0.5413
   54MPD2    C4  841   4.163   0.415  11.460 -0.7216  0.4298 -0.1524
   54MPD2    C5  842   4.272   0.377  11.384  0.4667  0.3989 -0.0554
   54MPD2     H  843   4.290   0.341  11.757 -1.7392  0.7163 -0.2038
   54MPD2    H1  844   4.077   0.458  11.410  1.1998  1.7430 -2.2929
   54MPD2    H2  845   4.471   0.298  11.386 -0.1811 -0.1401  0.4756
   54MPD2    H3  846   4.254   0.374  11.277  0.3706 -1.2520  0.0197
   54MPD2     N  847   4.044   0.444  11.676  0.0300  0.1602  0.9736
   54MPD2    H5  848   3.954   0.426  11.634 -0.1627 -0.4520  1.6399
   54MPD2    N1  849   4.499   0.268  11.655 -0.4450 -0.5329 -0.6634
   54MPD2    H7  850   4.491   0.263  11.756  1.2516  1.4998 -0.4285
   55TMC2    C1  851   1.690   2.901   0.580  0.2578 -0.7516  0.4399
   55TMC2    C2  852   1.716   2.892   0.445 -0.7598 -0.3892  0.8923
   55TMC2    C3  853   1.775   2.780   0.399 -0.5091 -0.2283  0.1444
   55TMC2    C4  854   1.730   2.798   0.666  1.1982  1.1032 -0.1162
   55TMC2    C5  855   1.799   2.697   0.614 -0.1329 -0.4982  0.7980
   55TMC2    C6  856   1.813   2.675   0.481 -0.0072 -0.2617 -0.3067
   55TMC2     C  857   1.603   3.005   0.623 -0.3497  0.5961  1.1720
   55TMC2     O  858   1.529   2.979   0.719 -0.4717  0.1961  0.3140
   55TMC2     H  859   1.689   2.973   0.378  1.0215 -1.2231 -0.8297
   55TMC2    H1  860   1.716   2.816   0.772 -1.7777 -1.5412 -0.0475
   55TMC2    H2  861   1.869   2.591   0.441  0.8922 -0.1780  0.7462
   55TMC2    C7  862   1.813   2.574   0.695 -0.8835 -0.1121 -0.5361
   55TMC2    C8  863   1.757   2.758   0.257  0.0952 -0.1117  0.0811
   55TMC2    O1  864   1.908   2.505   0.661 -0.3882  0.9053  0.1077
   55TMC2    O2  865   1.682   2.829   0.197  0.0442 -0.6716  0.4367
   55TMC2    O5  866   1.788   2.632   0.215  0.1829 -0.0604  0.2092
   55TMC2    H5  867   1.843   2.577   0.275 -2.0408  0.2855  2.5810
   56MPD2     C  868   1.572   3.339   0.482 -0.0586 -0.2758 -0.0743
   56MPD2    C1  869   1.533   3.240   0.562  0.7157  0.0575  0.1425
   56MPD2    C2  870   1.429   3.255   0.645 -0.3307  0.5472  0.2158
   56MPD2    C3  871   1.358   3.376   0.641  0.4669 -0.0208  0.0869
   56MPD2    C4  872   1.392   3.478   0.563  0.7697  0.2128  0.1013
   56MPD2    C5  873   1.506   3.464   0.487  0.2149 -0.4114  0.6655
   56MPD2     H  874   1.390   3.174   0.707 -0.1384 -0.1339 -0.5528
   56MPD2    H1  875   1.348   3.576   0.551  0.8535  0.0672 -1.4326
   56MPD2    H2  876   1.634   3.321   0.396 -0.3900 -0.1025 -0.3501
   56MPD2    H3  877   1.550   3.554   0.447 -0.2177 -0.8149 -0.7163
   56MPD2     N  878   1.235   3.377   0.706 -0.8399  0.6096 -0.4631
   56MPD2    H5  879   1.212   3.303   0.772  3.8650  0.1813  0.6765
   56MPD2    N1  880   1.613   3.125   0.557 -0.5305 -0.2729  0.0056
   56MPD2    H7  881   1.682   3.127   0.482 -0.9281 -1.6771 -0.4017
   57TMC2    C1  882   4.299   2.899  13.099  0.1481  0.0722  1.4402
   57TMC2    C2  883   4.176   2.858  13.055 -0.4245 -0.5171  0.3338
   57TMC2    C3  884   4.125   2.916  12.939  0.3109  0.8799 -0.0436
   57TMC2    C4  885   4.372   2.972  13.020  0.3289 -0.4869  0.5323
   57TMC2    C5  886   4.321   3.018  12.905 -0.3404  0.7073  0.7344
   57TMC2    C6  887   4.197   3.005  12.865  0.3272 -0.2901  0.6491
   57TMC2     C  888   4.327   2.907  13.244 -0.6215  0.0750 -0.3472
   57TMC2     O  889   4.438   2.944  13.275 -0.1011 -0.2600 -0.1538
   57TMC2     H  890   4.124   2.781  13.111 -0.5036 -0.3352  0.5158
   57TMC2    H1  891   4.457   3.030  13.055  0.7994  0.6859 -2.4814
   57TMC2    H2  892   4.148   3.059  12.785 -0.6034 -2.0687  0.0270
   57TMC2    C7  893   4.419   3.062  12.804 -0.0626  0.6295  0.2476
   57TMC2    C8  894   3.980   2.910  12.917  0.0225  1.0449 -0.2762
   57TMC2    O1  895   4.368   3.105  12.702 -0.2851 -0.2361  0.1139
   57TMC2    O2  896   3.905   2.874  13.012  1.0800 -0.6520  0.4171
   57TMC2    O5  897   3.953   2.894  12.788  0.1589 -0.4779 -0.6845
   57TMC2    H5  898   4.017   2.934  12.725  2.2509 -2.4875  0.1908
   58MPD2     C  899   4.149   2.907  13.723 -0.3850  0.1141 -0.1586
   58MPD2    C1  900   4.234   2.995  13.666  0.3249 -0.0409 -0.9691
   58MPD2    C2  901   4.271   2.983  13.535  0.3761  0.5785  0.5415
   58MPD2    C3  902   4.213   2.879  13.463  0.3502  1.0706  0.9296
   58MPD2    C4  903   4.115   2.803  13.521  0.1595 -0.5750  0.2489
   58MPD2    C5  904   4.087   2.814  13.652  0.9219  0.9657 -0.0778
   58MPD2     H  905   4.345   3.042  13.481  2.4076 -0.3482  2.3115
   58MPD2    H1  906   4.064   2.725  13.465 -1.2269 -0.2508  1.0534
   58MPD2    H2  907   4.114   2.916  13.826  0.4128 -0.8120  0.1899
   58MPD2    H3  908   4.005   2.766  13.704  0.3293  1.4514 -0.5552
   58MPD2     N  909   4.219   2.862  13.321  0.5511 -0.1665 -0.3165
   58MPD2    H5  910   4.151   2.801  13.276  2.7014 -2.3043 -0.7121
   58MPD2    N1  911   4.293   3.101  13.736  0.5544  0.2540  0.3562
   58MPD2    H7  912   4.351   3.157  13.673  1.8148 -0.4900  0.8434
   59TMC2    C1  913   2.434   3.666  12.874 -0.2683  0.6657 -0.1364
   59TMC2    C2  914   2.454   3.548  12.940  0.6909 -0.4527  0.0420
   59TMC2    C3  915   2.394   3.438  12.886  0.1899 -0.0779 -0.7389
   59TMC2    C4  916   2.352   3.675  12.761  0.4178  0.2183  0.5583
   59TMC2    C5  917   2.277   3.566  12.725  0.1908 -1.2124 -0.0174
   59TMC2    C6  918   2.296   3.450  12.794 -1.1674  0.0167  0.4657
   59TMC2     C  919   2.506   3.784  12.917  0.6717  0.1534  0.2378
   59TMC2     O  920   2.447   3.890  12.905 -0.2007  0.0045  0.1981
   59TMC2     H  921   2.521   3.544  13.026  2.2909  1.1758 -1.1144
   59TMC2    H1  922   2.348   3.773  12.714 -0.6449  0.1045  0.4156
   59TMC2    H2  923   2.237   3.361  12.776  0.8881 -0.9309 -1.5511
   59TMC2    C7  924   2.170   3.562  12.626  0.2428  0.9141 -0.6262
   59TMC2    C8  925   2.458   3.308  12.909  0.4531  0.4782  0.7805
   59TMC2    O1  926   2.071   3.490  12.653 -0.7450  0.5631 -0.3398
   59TMC2    O2  927   2.525   3.281  13.010  0.1192  0.8959 -0.5092
   59TMC2    O5  928   2.480   3.256  12.785  0.0203 -0.0472 -0.3488
   59TMC2    H5  929   2.463   3.317  12.710 -1.6222  3.5798  2.9754
   60MPD2     C  930   2.667   4.000  13.058  0.0240  0.0708  0.3160
   60MPD2    C1  931   2.696   3.862  13.059 -0.0197 -0.1918  0.3795
   60MPD2    C2  932   2.808   3.819  13.126  0.3541 -0.0184 -0.2525
   60MPD2    C3  933   2.884   3.913  13.202 -0.0856  0.0393 -0.0733
   60MPD2    C4  934   2.842   4.044  13.209 -0.1622 -0.0457  0.1775
   60MPD2    C5  935   2.741   4.088  13.131  0.4860  0.3286 -0.6277
   60MPD2     H  936   2.819   3.711  13.130 -2.4571 -0.3280 -0.7845
   60MPD2    H1  937   2.887   4.114  13.278  1.5769 -0.4699 -0.5417
   60MPD2    H2  938   2.585   4.038  12.997  1.0372 -0.8470 -1.6139
   60MPD2    H3  939   2.729   4.196  13.121 -0.2653  0.0646 -2.4941
   60MPD2     N  940   2.998   3.887  13.276  0.8542 -0.1472 -0.1276
   60MPD2    H5  941   3.033   3.958  13.339 -1.3973  2.8630 -2.2943
   60MPD2    N1  942   2.617   3.760  12.995 -0.1060 -0.0824 -0.3316
   60MPD2    H7  943   2.662   3.670  12.983  0.4270  0.1386  0.0114
   61TMC2    C1  944   2.036   4.660  15.330  0.3442 -0.0383  0.6793
   61TMC2    C2  945   2.035   4.589  15.446  0.5359  0.2147  0.1158
   61TMC2    C3  946   2.055   4.661  15.562  0.2269  0.4359  0.2832
   61TMC2    C4  947   2.087   0.048  15.315 -0.2682  0.5689  0.4524
   61TMC2    C5  948   2.117   0.118  15.430 -0.4899  0.3599  0.0236
   61TMC2    C6  949   2.089   0.056  15.553 -0.2212 -0.2863  0.2339
   61TMC2     C  950   2.043   4.574  15.210  0.2133  0.0261  0.3112
   61TMC2     O  951   1.957   4.486  15.196  0.0376  0.5920 -0.7074
   61TMC2     H  952   1.999   4.487  15.442  1.0670 -0.0089  1.0587
   61TMC2    H1  953   2.100   0.092  15.216  0.0856  0.2143  0.3403
   61TMC2    H2  954   2.087   0.112  15.646  0.6939 -2.2033  1.4126
   61TMC2    C7  955   2.143   0.267  15.425  0.3253 -0.3514 -0.4949
   61TMC2    C8  956   1.994   4.616  15.686  0.5097 -0.7041  0.0514
   61TMC2    O1  957   2.134   0.318  15.314  0.1595  0.1571 -0.8620
   61TMC2    O2  958   2.009   4.685  15.788 -0.1700 -0.0773 -0.2948
   61TMC2    O5  959   1.881   4.544  15.656  0.1137  0.9305  0.4024
   61TMC2    H5  960   1.898   4.494  15.573 -4.7716 -1.3796  0.7912
   62MPD2     C  961   2.034   4.557  14.920  0.1931  0.1525  0.1121
   62MPD2    C1  962   2.136   4.616  14.989  0.2560  0.8841 -0.1684
   62MPD2    C2  963   2.235   4.678  14.918  0.1441 -0.4363 -0.6884
   62MPD2    C3  964   2.234   4.681  14.775  0.2179 -0.3038 -0.1415
   62MPD2    C4  965   2.132   4.611  14.712  0.2987  0.3347 -0.1566
   62MPD2    C5  966   2.030   4.551  14.785 -0.0967 -0.6745  0.3371
   62MPD2     H  967   2.313   4.736  14.966  1.4388 -2.0410 -0.8557
   62MPD2    H1  968   2.129   4.592  14.605 -0.2347  0.8797 -0.2379
   62MPD2    H2  969   1.946   4.514  14.968  0.3071 -1.7168 -1.3219
   62MPD2    H3  970   1.948   4.496  14.740 -0.9844 -0.2416  1.4025
   62MPD2     N  971   2.322   0.027  14.702  0.3990 -0.6756 -0.2239
   62MPD2    H5  972   2.313   0.018  14.601 -0.3161 -0.4972 -0.1787
   62MPD2    N1  973   2.137   4.626  15.129  0.1679  0.3011  0.0241
   62MPD2    H7  974   2.213   4.681  15.169  0.0412 -0.7429  1.7248
   63TMC2    C1  975   1.447   0.488  10.499 -0.6479 -0.4340 -0.6761
   63TMC2    C2  976   1.533   0.595  10.508 -0.0155 -0.8231  0.4406
   63TMC2    C3  977   1.619   0.612  10.403  0.0159  0.1265  0.2198
   63TMC2    C4  978   1.409   0.438  10.378  0.4682  0.3098 -0.3189
   63TMC2    C5  979   1.499   0.454  10.274  0.3959 -0.7393  0.2262
   63TMC2    C6  980   1.606   0.539  10.283  0.3173 -0.8808  0.1478
   63TMC2     C  981   1.350   0.477  10.607  0.4720 -0.5670  0.4301
   63TMC2     O  982   1.316   0.579  10.667 -0.4656 -0.5300  0.0341
   63TMC2     H  983   1.542   0.645  10.603  1.6931  1.2017 -0.7878
   63TMC2    H1  984   1.325   0.372  10.359  0.7923 -0.4299  0.8940
   63TMC2    H2  985   1.676   0.561  10.203  0.7860  0.5567  0.9591
   63TMC2    C7  986   1.459   0.392  10.146  0.7973 -0.0463 -0.4281
   63TMC2    C8  987   1.744   0.684  10.418  0.2009  0.2868 -0.3994
   63TMC2    O1  988   1.346   0.358  10.129 -0.1870  0.1968  0.5186
   63TMC2    O2  989   1.846   0.659  10.351  0.3086  0.6053  0.6954
   63TMC2    O5  990   1.740   0.782  10.511 -0.3478  0.2061  0.2249
   63TMC2    H5  991   1.649   0.814  10.526 -1.0534 -1.0631 -1.3612
   64MPD2     C  992   0.949   0.238  10.801 -0.8683 -0.4179 -0.3030
   64MPD2    C1  993   1.052   0.149  10.788  1.4998 -0.1140 -0.1501
   64MPD2    C2  994   1.169   0.193  10.720 -0.2688  0.4798  0.9927
   64MPD2    C3  995   1.177   0.327  10.683  0.2712  0.4769 -0.2239
   64MPD2    C4  996   1.075   0.410  10.713 -0.8615  0.5448  0.0979
   64MPD2    C5  997   0.957   0.369  10.764  0.1326 -0.6218 -0.8157
   64MPD2     H  998   1.251   0.124  10.702  0.6294  2.1139 -1.1853
   64MPD2    H1  999   1.066   0.508  10.667  0.0647  1.1538  1.2271
   64MPD2    H2 1000   0.851   0.213  10.840 -0.5136  0.4099  1.1352
   64MPD2    H3 1001   0.870   0.432  10.768  0.4772 -0.1471 -0.8009
   64MPD2     N 1002   1.297   0.354  10.608 -0.4705  0.6094  0.2493
   64MPD2    H5 1003   1.346   0.270  10.579 -0.1291  0.2203  1.9730
   64MPD2    N1 1004   1.047   0.013  10.826 -0.0511 -0.3308 -0.3739
   64MPD2    H7 1005   1.125   4.691  10.797  1.4229  2.1337 -1.3959
   65TMC2    C1 1006   2.895   0.408  15.671  0.5721  0.1839  0.7941
   65TMC2    C2 1007   2.881   0.347  15.547  0.2401 -0.3774 -0.1067
   65TMC2    C3 1008   2.924   0.420  15.442 -0.3845  1.0426  0.0864
   65TMC2    C4 1009   2.945   0.538  15.682 -0.3273  0.9861 -0.0232
   65TMC2    C5 1010   2.985   0.606  15.571  0.0566  0.3136  0.6525
   65TMC2    C6 1011   2.975   0.545  15.448  0.5581  0.1863 -0.4041
   65TMC2     C 1012   2.886   0.335  15.798 -0.1355 -0.3969 -0.0829
   65TMC2     O 1013   2.876   0.405  15.902  0.3261 -0.2662  0.4595
   65TMC2     H 1014   2.847   0.246  15.530  1.7744 -0.9510  0.2988
   65TMC2    H1 1015   2.976   0.574  15.779 -2.6608 -1.5445  1.6596
   65TMC2    H2 1016   2.999   0.588  15.351  0.9387  0.7797 -0.0410
   65TMC2    C7 1017   3.015   0.748  15.567  0.2436  0.8907  0.1743
   65TMC2    C8 1018   2.916   0.356  15.310  0.0510  0.0467 -1.0069
   65TMC2    O1 1019   3.071   0.792  15.466 -0.7534 -0.0592 -0.5772
   65TMC2    O2 1020   2.919   0.233  15.301 -0.2457 -0.8222  0.0572
   65TMC2    O5 1021   2.830   0.433  15.242 -0.0516  0.0787  0.2595
   65TMC2    H5 1022   2.811   0.522  15.279  1.5968  1.0771 -1.2696
   66MPD2     C 1023   2.816   0.125  16.002  0.3531 -0.2970  0.0343
   66MPD2    C1 1024   2.838   0.101  15.867 -0.2578  0.6872  0.6250
   66MPD2    C2 1025   2.811   4.707  15.816 -0.6372  0.5919  0.4659
   66MPD2    C3 1026   2.756   4.606  15.896  0.2638  0.7440 -0.9025
   66MPD2    C4 1027   2.732   4.635  16.028  0.2293 -0.5440  0.2121
   66MPD2    C5 1028   2.767   0.021  16.084 -0.5241 -1.2707 -0.0818
   66MPD2     H 1029   2.832   4.687  15.712  1.0813 -1.8569  1.2899
   66MPD2    H1 1030   2.688   4.565  16.099  0.6030 -0.3411  0.6424
   66MPD2    H2 1031   2.825   0.220  16.054 -0.1564  0.6582 -1.6548
   66MPD2    H3 1032   2.746   0.048  16.187  1.2471 -0.9007  0.1818
   66MPD2     N 1033   2.706   4.494  15.834 -0.5773 -0.0924 -0.0033
   66MPD2    H5 1034   2.651   4.438  15.899 -0.8021 -1.8089 -1.6626
   66MPD2    N1 1035   2.871   0.203  15.767 -0.7240 -0.3070 -0.2345
   66MPD2    H7 1036   2.910   0.168  15.680  0.4475  1.2027 -0.3231
   67TMC2    C1 1037   2.940   4.059  14.350 -0.4812 -0.6080 -0.7821
   67TMC2    C2 1038   2.841   3.974  14.371  0.7660 -1.0327 -0.7549
   67TMC2    C3 1039   2.814   3.936  14.499  0.7650 -0.9961  0.0164
   67TMC2    C4 1040   3.013   4.123  14.451 -0.5214  0.1703  0.2479
   67TMC2    C5 1041   2.994   4.080  14.580  0.3936 -0.8393  0.2428
   67TMC2    C6 1042   2.896   3.978  14.599  0.3921 -0.3414 -0.8305
   67TMC2     C 1043   2.975   4.100  14.212  0.0067 -0.3523 -0.7781
   67TMC2     O 1044   3.041   4.201  14.197  0.4842 -0.9209  0.0487
   67TMC2     H 1045   2.779   3.933  14.293  0.4315 -1.7321 -0.1281
   67TMC2    H1 1046   3.091   4.195  14.429 -1.3998  0.3330 -2.3322
   67TMC2    H2 1047   2.890   3.944  14.702 -1.6643  0.9217 -0.5342
   67TMC2    C7 1048   3.076   4.119  14.692 -0.8406  0.1263 -0.1586
   67TMC2    C8 1049   2.683   3.865  14.523 -0.2514  0.0902 -0.7548
   67TMC2    O1 1050   3.190   4.147  14.657 -0.1026  0.6204  0.2497
   67TMC2    O2 1051   2.590   3.863  14.447 -0.1646  0.6883  0.2071
   67TMC2    O5 1052   2.715   3.768  14.605  0.1542  0.8802  0.0528
   67TMC2    H5 1053   2.801   3.755  14.652 -0.4438  2.1023  1.4985
   68MPD2     C 1054   2.964   4.144  13.927  0.4106  0.5856 -0.7482
   68MPD2    C1 1055   2.945   4.018  13.985 -0.2226  0.2114 -0.7300
   68MPD2    C2 1056   2.919   3.904  13.915  0.5960 -0.7578 -0.1179
   68MPD2    C3 1057   2.912   3.919  13.777  0.3194  0.3240 -0.1719
   68MPD2    C4 1058   2.930   4.044  13.715  0.3386 -0.2249  0.4397
   68MPD2    C5 1059   2.962   4.154  13.790  0.5917  0.0688 -0.1189
   68MPD2     H 1060   2.895   3.811  13.965  1.0745 -0.5096  0.5665
   68MPD2    H1 1061   2.930   4.061  13.608  3.3819  0.5427  0.5651
   68MPD2    H2 1062   2.984   4.237  13.979 -3.2616 -0.3708  2.3429
   68MPD2    H3 1063   2.970   4.254  13.751 -0.2912  0.6341  1.1364
   68MPD2     N 1064   2.875   3.814  13.694 -0.1184  0.1754  0.4349
   68MPD2    H5 1065   2.828   3.840  13.608  0.0305  0.8117  0.5451
   68MPD2    N1 1066   2.947   4.004  14.126 -0.4656 -0.3247  0.6436
   68MPD2    H7 1067   2.933   3.909  14.159 -0.8754  0.0601  1.5968
   69TMC2    C1 1068   0.119   0.371  12.520  0.6081  0.4163 -0.2973
   69TMC2    C2 1069   4.727   0.401  12.497 -0.6759  0.2506  0.2590
   69TMC2    C3 1070   4.685   0.422  12.369  0.4089 -0.2762  0.6214
   69TMC2    C4 1071   0.207   0.362  12.418  0.3481  0.6340 -0.7457
   69TMC2    C5 1072   0.158   0.374  12.289  0.3794  0.7664 -0.1387
   69TMC2    C6 1073   0.034   0.414  12.263 -0.4651 -0.1396  0.4620
   69TMC2     C 1074   0.159   0.358  12.657  0.1844 -0.8051 -0.7824
   69TMC2     O 1075   0.074   0.312  12.731  0.5442 -0.1959 -0.2252
   69TMC2     H 1076   4.654   0.401  12.577  0.3039 -0.3833  1.1676
   69TMC2    H1 1077   0.309   0.327  12.431 -0.4531 -1.3133  0.2605
   69TMC2    H2 1078   4.731   0.401  12.163  0.3086 -0.3096  0.1745
   69TMC2    C7 1079   0.254   0.353  12.180 -0.6107  0.1435  0.7445
   69TMC2    C8 1080   4.548   0.432  12.353  0.7483 -1.0374 -0.6961
   69TMC2    O1 1081   0.351   0.283  12.199 -0.3449 -0.4194 -0.5955
   69TMC2    O2 1082   4.466   0.362  12.405 -0.1190 -0.2256  0.6463
   69TMC2    O5 1083   4.529   0.528  12.261  0.5363  0.3722  0.1501
   69TMC2    H5 1084   4.612   0.580  12.252  0.1238  0.8614 -0.9165
   70MPD2     C 1085   0.495   0.424  12.788  0.3170 -0.1866 -0.7224
   70MPD2    C1 1086   0.367   0.375  12.787  0.6178  0.3993  0.3712
   70MPD2    C2 1087   0.338   0.293  12.893  0.5346  0.2491 -1.4369
   70MPD2    C3 1088   0.420   0.265  12.996 -0.4165 -0.0825  0.4365
   70MPD2    C4 1089   0.539   0.336  13.008 -0.7702  0.2596  0.3176
   70MPD2    C5 1090   0.575   0.415  12.902 -0.4368  0.0939  0.7508
   70MPD2     H 1091   0.237   0.254  12.889  0.9317 -1.0207  0.9351
   70MPD2    H1 1092   0.611   0.330  13.090 -1.1637 -0.0077  0.6427
   70MPD2    H2 1093   0.531   0.478  12.701  0.0250  1.0239 -0.1008
   70MPD2    H3 1094   0.674   0.459  12.903 -0.7699  0.8301  0.5226
   70MPD2     N 1095   0.401   0.161  13.083 -0.2635  0.0289  0.3654
   70MPD2    H5 1096   0.476   0.150  13.150 -0.5094  0.8190  0.7671
   70MPD2    N1 1097   0.287   0.397  12.675  0.7922 -0.1691  0.0740
   70MPD2    H7 1098   0.329   0.450  12.599  1.7588  1.0225  1.4587
   71TMC2    C1 1099   2.721   1.021   1.778 -0.4992 -0.4161  0.9169
   71TMC2    C2 1100   2.832   1.054   1.850 -0.6145 -0.4149 -1.0273
   71TMC2    C3 1101   2.829   1.020   1.979 -0.0398  0.2624  0.1245
   71TMC2    C4 1102   2.628   0.933   1.830  0.2752 -0.2901 -0.3167
   71TMC2    C5 1103   2.635   0.896   1.964 -0.7875  0.2227 -0.4261
   71TMC2    C6 1104   2.735   0.942   2.042 -0.1040 -0.2281 -0.4274
   71TMC2     C 1105   2.710   1.064   1.643 -0.2261  1.0112  0.7041
   71TMC2     O 1106   2.809   1.057   1.574  0.0585  0.6646 -0.5949
   71TMC2     H 1107   2.898   1.129   1.808 -0.5701  0.7378  1.1106
   71TMC2    H1 1108   2.539   0.903   1.775  0.8058  0.5837 -1.6683
   71TMC2    H2 1109   2.746   0.908   2.145  1.7489 -0.6032 -0.7413
   71TMC2    C7 1110   2.556   0.786   2.016  0.4100 -0.1347  0.1125
   71TMC2    C8 1111   2.919   1.096   2.056  0.0388  0.5876  0.0048
   71TMC2    O1 1112   2.571   0.764   2.137 -0.0064 -0.3538 -0.1204
   71TMC2    O2 1113   3.029   1.134   2.020 -0.6494  0.0051 -0.1606
   71TMC2    O5 1114   2.839   1.162   2.146 -1.0361  0.0477  0.0510
   71TMC2    H5 1115   2.748   1.126   2.143 -1.7766  1.9166  0.0292
   72MPD2     C 1116   2.399   1.020   1.225 -0.3804 -1.6260 -0.6734
   72MPD2    C1 1117   2.531   0.970   1.250 -0.1260 -0.0565  0.7838
   72MPD2    C2 1118   2.591   1.004   1.371 -0.4958 -0.0133  0.3624
   72MPD2    C3 1119   2.525   1.065   1.473 -0.2367  0.1100  0.1484
   72MPD2    C4 1120   2.394   1.102   1.454 -0.1850  0.2225  0.1128
   72MPD2    C5 1121   2.332   1.083   1.335 -0.8050  0.4565 -0.0086
   72MPD2     H 1122   2.690   0.968   1.397 -0.7912 -0.9053  0.2567
   72MPD2    H1 1123   2.346   1.170   1.523  1.4740 -0.4623  1.9145
   72MPD2    H2 1124   2.340   0.997   1.137 -2.1118 -0.3855  0.1544
   72MPD2    H3 1125   2.236   1.132   1.321 -2.0008 -2.0884 -0.7492
   72MPD2     N 1126   2.575   1.073   1.609  0.1316  0.1845 -0.1020
   72MPD2    H5 1127   2.509   1.074   1.686  0.4762 -1.3888  0.2126
   72MPD2    N1 1128   2.603   0.886   1.162  0.2887 -0.1677 -0.3591
   72MPD2    H7 1129   2.700   0.863   1.178  1.0043  0.5764 -3.5967
   73TMC2    C1 1130   1.844   2.962  14.374 -0.1967  0.5549 -0.3969
   73TMC2    C2 1131   1.777   3.045  14.457  0.3869 -0.2966 -0.5623
   73TMC2    C3 1132   1.831   3.101  14.570 -0.2137  0.7615  0.7733
   73TMC2    C4 1133   1.974   2.936  14.408 -0.1028  0.3532  0.0849
   73TMC2    C5 1134   2.038   3.003  14.506  0.6455 -0.2382  0.0604
   73TMC2    C6 1135   1.969   3.079  14.593 -1.0632 -0.4286  0.6899
   73TMC2     C 1136   1.820   2.964  14.232  0.3378  0.1391  0.5495
   73TMC2     O 1137   1.922   2.977  14.169 -0.3676 -0.0793 -0.2091
   73TMC2     H 1138   1.679   3.088  14.439  1.6604  2.3978 -1.0975
   73TMC2    H1 1139   2.025   2.872  14.337 -1.1018 -1.1457  0.7183
   73TMC2    H2 1140   2.012   3.144  14.670  0.3439  1.4557 -1.6935
   73TMC2    C7 1141   2.165   3.052  14.461  0.7373 -0.4555  0.2928
   73TMC2    C8 1142   1.749   3.168  14.669 -0.0700 -0.1868 -0.7705
   73TMC2    O1 1143   2.245   3.086  14.545 -0.7299 -0.1436 -0.4913
   73TMC2    O2 1144   1.796   3.252  14.748  0.0992  0.2321  0.6015
   73TMC2    O5 1145   1.633   3.099  14.697 -0.1303 -0.4038 -0.1812
   73TMC2    H5 1146   1.618   3.019  14.642 -3.5669  0.9353 -1.1589
   74MPD2     C 1147   1.587   3.032  13.802 -0.0785 -0.6345 -0.4991
   74MPD2    C1 1148   1.714   3.078  13.833  0.4698 -0.1538  0.1795
   74MPD2    C2 1149   1.739   3.068  13.970  0.2543 -0.4799  0.7407
   74MPD2    C3 1150   1.653   3.013  14.059  0.0371  0.2617  0.6327
   74MPD2    C4 1151   1.529   2.973  14.016 -0.1314  0.4939 -0.3600
   74MPD2    C5 1152   1.498   2.983  13.889 -0.0189  0.9408  0.0108
   74MPD2     H 1153   1.828   3.114  14.010  0.8387  1.0533 -2.3189
   74MPD2    H1 1154   1.463   2.914  14.080 -0.4283  2.0978  0.8351
   74MPD2    H2 1155   1.546   3.019  13.702  0.1756  0.2182 -0.7180
   74MPD2    H3 1156   1.405   2.940  13.855 -0.3469  1.1817  0.5941
   74MPD2     N 1157   1.687   2.982  14.190 -0.2206 -0.1873 -0.2929
   74MPD2    H5 1158   1.620   2.967  14.265 -2.6142  0.5818 -2.2867
   74MPD2    N1 1159   1.805   3.121  13.731 -0.0463 -0.6750  0.2947
   74MPD2    H7 1160   1.771   3.119  13.635 -0.9323 -2.0607  0.6386
   75TMC2    C1 1161   2.856   3.600  13.610  0.0461  0.4099 -0.4951
   75TMC2    C2 1162   2.946   3.505  13.567 -0.1639 -0.4022 -0.0640
   75TMC2    C3 1163   2.911   3.426  13.469 -0.2675 -0.0913  0.0888
   75TMC2    C4 1164   2.732   3.624  13.551  0.2347  0.4244 -0.3318
   75TMC2    C5 1165   2.713   3.555  13.436  0.1366  0.6937  0.0197
   75TMC2    C6 1166   2.797   3.450  13.394  0.3346  0.2752  0.4107
   75TMC2     C 1167   2.903   3.681  13.721  0.2771 -0.3081 -0.1744
   75TMC2     O 1168   2.983   3.631  13.797 -0.4856  0.5881  0.1911
   75TMC2     H 1169   3.041   3.498  13.619  0.4217  0.9655 -0.9372
   75TMC2    H1 1170   2.661   3.701  13.578 -0.7318 -0.4416 -0.4196
   75TMC2    H2 1171   2.793   3.413  13.293  3.4287  0.0778  0.3504
   75TMC2    C7 1172   2.584   3.566  13.377 -0.0797  0.3982 -0.8036
   75TMC2    C8 1173   3.016   3.353  13.409  0.3612 -0.9052 -1.0835
   75TMC2    O1 1174   2.527   3.672  13.365 -0.2636 -0.0877  0.0827
   75TMC2    O2 1175   3.133   3.367  13.441  0.6788  0.0528  0.1596
   75TMC2    O5 1176   2.948   3.239  13.387  0.9841 -0.4889 -0.6514
   75TMC2    H5 1177   2.850   3.234  13.392  1.2216 -1.4906  3.3569
   76TMC2    C1 1178   0.963   4.069  12.339 -0.0846  0.6437 -0.0695
   76TMC2    C2 1179   0.860   3.975  12.366 -0.1282 -0.4637 -0.5880
   76TMC2    C3 1180   0.842   3.933  12.499 -0.2503  0.2543  0.0770
   76TMC2    C4 1181   1.052   4.095  12.434 -0.1972  0.2396 -0.0611
   76TMC2    C5 1182   1.050   4.024  12.551  0.4346  0.1497  0.5835
   76TMC2    C6 1183   0.941   3.954  12.593  0.6776  0.2771  0.3962
   76TMC2     C 1184   0.987   4.118  12.206  0.5935 -0.1239 -1.1652
   76TMC2     O 1185   1.056   4.220  12.187 -0.1452  0.1718 -0.6223
   76TMC2     H 1186   0.778   3.969  12.295 -0.9107  0.4652  0.2201
   76TMC2    H1 1187   1.129   4.164  12.400 -2.7467  4.2164  2.2829
   76TMC2    H2 1188   0.935   3.895  12.684 -0.1978  2.8934  2.0105
   76TMC2    C7 1189   1.160   4.005  12.642 -0.5894 -0.4809 -0.4699
   76TMC2    C8 1190   0.725   3.867  12.529 -0.6166  0.9248 -0.3923
   76TMC2    O1 1191   1.131   3.942  12.742  0.3393 -0.0968  0.3108
   76TMC2    O2 1192   0.658   3.805  12.444 -0.1694 -0.0709 -0.1574
   76TMC2    O5 1193   0.681   3.891  12.658 -0.0237  0.5072  0.4491
   76TMC2    H5 1194   0.728   3.959  12.711  0.1374 -0.4871  1.5957
   77MPD2     C 1195   0.838   4.185  11.729  0.4620 -0.6332 -0.5099
   77MPD2    C1 1196   0.877   4.279  11.824 -0.0765 -0.3958 -0.2691
   77MPD2    C2 1197   0.921   4.238  11.946 -0.3039  0.4593  0.5164
   77MPD2    C3 1198   0.900   4.102  11.981  0.2999 -0.6028 -0.6988
   77MPD2    C4 1199   0.853   4.008  11.891  1.0242  0.3360 -0.7710
   77MPD2    C5 1200   0.835   4.047  11.763 -0.1655  0.4927 -0.1986
   77MPD2     H 1201   0.964   4.309  12.015 -1.2539  2.1143 -0.5990
   77MPD2    H1 1202   0.851   3.901  11.904 -1.4766  0.6497  1.4691
   77MPD2    H2 1203   0.798   4.210  11.631  1.0517  1.5172 -0.2088
   77MPD2    H3 1204   0.811   3.976  11.684  0.2874 -0.6645  0.7016
   77MPD2     N 1205   0.922   4.048  12.106 -0.6094 -0.4056 -0.0527
   77MPD2    H5 1206   0.893   3.954  12.130 -1.6206  0.0137  0.3981
   77MPD2    N1 1207   0.871   4.418  11.805 -0.6943 -0.0519 -0.1589
   77MPD2    H7 1208   0.890   4.473  11.888  1.0730  0.5648 -0.9742
   78TMC2    C1 1209   2.969   3.827   0.498 -0.0937  0.2805  0.0063
   78TMC2    C2 1210   2.836   3.810   0.469  0.1290 -0.0620  0.2111
   78TMC2    C3 1211   2.747   3.892   0.538  0.1435 -0.0200  0.2598
   78TMC2    C4 1212   3.011   3.901   0.601 -0.9249  0.1227  0.1350
   78TMC2    C5 1213   2.920   3.965   0.683  0.0260 -0.6927 -0.0096
   78TMC2    C6 1214   2.791   3.976   0.635  0.0990 -0.6017 -0.4839
   78TMC2     C 1215   3.058   3.777   0.395  0.1325  0.3884  0.1867
   78TMC2     O 1216   3.013   3.702   0.305  0.2956  0.2771 -0.2353
   78TMC2     H 1217   2.797   3.756   0.383 -3.1629  1.4038  0.7969
   78TMC2    H1 1218   3.115   3.923   0.624 -0.9189  0.2780 -0.0355
   78TMC2    H2 1219   2.721   4.044   0.682  1.2466  1.4429 -1.7003
   78TMC2    C7 1220   2.976   4.074   0.761 -0.0596 -0.4962 -0.0851
   78TMC2    C8 1221   2.612   3.907   0.492  0.2549 -0.2909 -0.8436
   78TMC2    O1 1222   3.093   4.108   0.747  0.1532 -0.0192  0.1104
   78TMC2    O2 1223   2.545   3.999   0.533  0.3551  0.4434  0.0371
   78TMC2    O5 1224   2.561   3.785   0.458  0.5425 -0.6543 -0.0618
   78TMC2    H5 1225   2.623   3.709   0.463 -0.1315 -1.1109  1.5951
   79MPD1     C 1226   3.499   3.816   0.120  0.1293 -0.1408 -0.2845
   79MPD1    C1 1227   3.366   3.825   0.085 -0.0282  0.0575 -0.0159
   79MPD1    C2 1228   3.266   3.811   0.180 -0.2125  0.6359  0.1225
   79MPD1    C3 1229   3.294   3.792   0.315 -0.3024 -0.3384  0.1541
   79MPD1    C4 1230   3.426   3.792   0.357 -0.0206  0.6972  0.3486
   79MPD1    C5 1231   3.521   3.804   0.257 -0.3346 -0.1565  0.1576
   79MPD1     H 1232   3.166   3.796   0.140 -0.4080 -0.4639  1.0171
   79MPD1    H1 1233   3.460   3.787   0.459 -0.4138  1.3708  0.5110
   79MPD1    H2 1234   3.581   3.819   0.048  0.5531  0.2863  0.2181
   79MPD1    H3 1235   3.623   3.777   0.280 -0.7485 -0.4679  1.6562
   79MPD1     N 1236   3.195   3.806   0.410  0.4319 -0.2023 -0.0670
   79MPD1    H5 1237   3.224   3.833   0.504 -0.2119 -0.9614  0.3458
   79MPD1    N1 1238   3.328   3.834  17.696  0.0144 -0.0432 -0.7041
   79MPD1    H6 1239   3.229   3.849  17.676 -0.3138 -0.3926  0.6092
   79MPD1    H7 1240   3.398   3.883  17.641  0.8224 -0.5079 -0.0947
   80TMC2    C1 1241   4.694   3.910  11.946 -0.4991 -0.0410 -0.8999
   80TMC2    C2 1242   0.018   3.853  11.839  0.2394  0.0396  0.4978
   80TMC2    C3 1243   4.714   3.733  11.787 -0.5510 -0.3156 -0.0524
   80TMC2    C4 1244   4.575   3.854  11.994  0.0937 -0.0197  0.0355
   80TMC2    C5 1245   4.527   3.738  11.930 -0.3333  0.3022  0.7310
   80TMC2    C6 1246   4.596   3.678  11.825 -0.1160 -0.2074 -0.0606
   80TMC2     C 1247   0.028   4.013  12.016 -0.2970  0.1059 -0.5512
   80TMC2     O 1248   0.137   4.042  11.975  0.4248 -0.5220  0.3702
   80TMC2     H 1249   0.102   3.905  11.794  1.3562 -1.1636  1.1820
   80TMC2    H1 1250   4.536   3.875  12.093  0.0335 -0.1567  0.0404
   80TMC2    H2 1251   4.582   3.577  11.789 -0.4502 -0.4141  0.6581
   80TMC2    C7 1252   4.429   3.659  12.000 -0.6255 -0.6937  0.0350
   80TMC2    C8 1253   0.067   3.663  11.699 -0.1803  0.3774  0.3548
   80TMC2    O1 1254   4.352   3.592  11.935 -0.0166  0.4682  0.1979
   80TMC2    O2 1255   0.032   3.567  11.631  0.0195 -0.2004 -0.2186
   80TMC2    O5 1256   0.197   3.696  11.716  0.4271 -0.3548 -0.0394
   80TMC2    H5 1257   0.213   3.777  11.769 -1.0663 -0.7801  1.0455
   81MPD2     C 1258   0.130   4.169  12.239  0.4196 -0.3814 -0.7631
   81MPD2    C1 1259   4.733   4.170  12.208 -0.3879  0.1464 -0.0611
   81MPD2    C2 1260   4.644   4.246  12.283  0.1474 -0.1334  0.4014
   81MPD2    C3 1261   4.703   4.328  12.375  0.1292  0.6523  1.1116
   81MPD2    C4 1262   0.100   4.325  12.406  0.8203  0.3194 -0.4230
   81MPD2    C5 1263   0.186   4.244  12.339 -0.5814  0.6901 -0.2210
   81MPD2     H 1264   4.536   4.246  12.268  0.0333  1.2986  1.3026
   81MPD2    H1 1265   0.137   4.381  12.491  2.1865 -1.8021  0.3843
   81MPD2    H2 1266   0.197   4.103  12.185  1.4203  0.3645 -0.4235
   81MPD2    H3 1267   0.293   4.235  12.353 -0.3735  0.8806 -1.6412
   81MPD2     N 1268   4.629   4.412  12.459  0.1347 -0.3101 -0.2559
   81MPD2    H5 1269   4.669   4.429  12.550  2.8331 -0.2816 -1.4667
   81MPD2    N1 1270   4.686   4.082  12.104 -0.5071  0.7567  0.2853
   81MPD2    H7 1271   4.585   4.086  12.093 -0.8158 -0.3519  2.8003
   82TMC2    C1 1272   3.020   3.073  11.216 -0.1431  0.5343 -0.4760
   82TMC2    C2 1273   3.154   3.090  11.259  0.4664  0.5491  0.6021
   82TMC2    C3 1274   3.188   3.029  11.377 -0.4533  0.4291  0.6225
   82TMC2    C4 1275   2.943   2.972  11.261 -0.5758  1.2385 -0.0104
   82TMC2    C5 1276   2.991   2.914  11.373 -0.5376  0.3071 -0.4863
   82TMC2    C6 1277   3.109   2.938  11.438 -0.6069  0.3893  1.1108
   82TMC2     C 1278   2.958   3.178  11.140  0.2636 -0.6040  0.3253
   82TMC2     O 1279   2.839   3.164  11.109 -0.0904 -0.0382  0.1896
   82TMC2     H 1280   3.224   3.170  11.238  0.0644  1.7227  3.7440
   82TMC2    H1 1281   2.838   2.957  11.235 -0.5562  4.6890 -1.9609
   82TMC2    H2 1282   3.153   2.874  11.514  0.6183  0.7848  0.7342
   82TMC2    C7 1283   2.904   2.827  11.453 -0.4269  0.1316  0.7550
   82TMC2    C8 1284   3.329   3.012  11.379  0.4996 -0.0152  0.5203
   82TMC2    O1 1285   2.921   2.820  11.574  0.1658  0.7090 -0.2578
   82TMC2    O2 1286   3.398   2.908  11.389  0.1107  0.0434 -0.2814
   82TMC2    O5 1287   3.367   3.119  11.439 -0.1183  0.5187  0.3568
   82TMC2    H5 1288   3.301   3.191  11.445 -1.9034 -1.1989  1.3755
   83MPD2     C 1289   3.002   3.574  10.817 -0.0456 -0.0701  0.1328
   83MPD2    C1 1290   2.891   3.528  10.882  0.4391  0.2234 -0.2805
   83MPD2    C2 1291   2.906   3.420  10.968  0.1644  0.3684 -0.3954
   83MPD2    C3 1292   3.033   3.362  10.994  0.0455 -0.5559 -0.0918
   83MPD2    C4 1293   3.134   3.401  10.910  0.2518 -0.0736  0.6456
   83MPD2    C5 1294   3.113   3.503  10.825  0.5909  0.6417  0.2042
   83MPD2     H 1295   2.823   3.387  11.029  1.4083 -0.2199  0.9736
   83MPD2    H1 1296   3.228   3.347  10.907 -0.0027 -0.5437  1.2371
   83MPD2    H2 1297   2.998   3.659  10.750  0.1970  0.2318  0.4968
   83MPD2    H3 1298   3.191   3.529  10.753  0.7300  2.4105  1.0000
   83MPD2     N 1299   3.058   3.259  11.089 -0.6824  0.5292 -0.0742
   83MPD2    H5 1300   3.153   3.225  11.098 -0.8364 -0.4476 -2.0783
   83MPD2    N1 1301   2.773   3.609  10.875  0.1917  0.3619  0.0518
   83MPD2    H7 1302   2.770   3.686  10.810  1.4978 -0.0550 -0.5015
   84TMC2    C1 1303   3.963   2.319  10.734 -0.1920 -0.3738 -1.0112
   84TMC2    C2 1304   3.961   2.187  10.766 -0.1056  0.6014  0.2433
   84TMC2    C3 1305   4.002   2.102  10.677  0.3941 -0.2542 -0.6053
   84TMC2    C4 1306   4.016   2.369  10.623 -0.3020  0.4159 -0.2451
   84TMC2    C5 1307   4.072   2.279  10.538  0.1895 -0.5348 -0.3378
   84TMC2    C6 1308   4.059   2.145  10.558  0.3456 -0.7076 -0.1202
   84TMC2     C 1309   3.873   2.411  10.805  0.1145 -0.2827 -0.3127
   84TMC2     O 1310   3.880   2.531  10.789  0.0730 -0.3749 -0.1074
   84TMC2     H 1311   3.941   2.144  10.864 -0.6049  1.1076  0.3673
   84TMC2    H1 1312   4.011   2.476  10.607 -0.7830  0.5949  1.1172
   84TMC2    H2 1313   4.102   2.074  10.489 -1.2629 -0.1438 -1.7210
   84TMC2    C7 1314   4.162   2.322  10.433 -0.3252  0.2893  0.1513
   84TMC2    C8 1315   4.017   1.966  10.718  0.4085  0.4851 -0.1515
   84TMC2    O1 1316   4.178   2.240  10.339  0.3734 -0.0270 -0.0081
   84TMC2    O2 1317   4.064   1.934  10.825 -0.1398  0.4062 -0.1383
   84TMC2    O5 1318   4.031   1.894  10.606 -0.4171 -0.1116  0.2172
   84TMC2    H5 1319   3.976   1.926  10.531 -1.5697 -1.7275  0.3718
   85TMC2    C1 1320   0.494   1.273  16.075 -0.7555 -0.3912 -0.1307
   85TMC2    C2 1321   0.376   1.338  16.099  0.0363  0.1004  0.4858
   85TMC2    C3 1322   0.353   1.452  16.028 -0.3074 -0.3970 -0.0038
   85TMC2    C4 1323   0.587   1.316  15.989  0.5693 -0.0135 -0.2946
   85TMC2    C5 1324   0.560   1.432  15.919  0.4010 -0.0357  0.5349
   85TMC2    C6 1325   0.442   1.497  15.934 -0.4279 -0.2267 -0.7935
   85TMC2     C 1326   0.533   1.170  16.166  1.0206 -0.2985 -0.3916
   85TMC2     O 1327   0.652   1.149  16.174 -0.4008 -0.7843 -0.1952
   85TMC2     H 1328   0.335   1.318  16.197 -1.8444 -0.5385 -0.4228
   85TMC2    H1 1329   0.678   1.258  15.976 -0.2435 -1.0018 -1.5717
   85TMC2    H2 1330   0.423   1.598  15.899 -2.6660  0.1041  1.4234
   85TMC2    C7 1331   0.634   1.437  15.789 -0.3388  0.4932  0.1494
   85TMC2    C8 1332   0.229   1.522  16.051  0.3451  0.6996 -0.2793
   85TMC2    O1 1333   0.691   1.329  15.757 -0.4675  0.4555 -0.5905
   85TMC2    O2 1334   0.213   1.637  16.013 -0.2753  0.8639 -0.5007
   85TMC2    O5 1335   0.157   1.462  16.156  0.8310 -0.0581  0.7010
   85TMC2    H5 1336   0.184   1.370  16.175  0.3668  0.1363  2.3395
   86MPD2     C 1337   0.483   0.773  16.490 -0.0541  0.1808  0.3918
   86MPD2    C1 1338   0.360   0.800  16.428  0.5278  0.3133 -0.3460
   86MPD2    C2 1339   0.341   0.908  16.335 -0.2700 -0.3128 -0.7869
   86MPD2    C3 1340   0.448   0.990  16.303  0.8967  0.1818  0.0811
   86MPD2    C4 1341   0.567   0.960  16.366 -0.1773 -0.4759 -0.2102
   86MPD2    C5 1342   0.584   0.856  16.461 -0.8895 -0.3015  0.0852
   86MPD2     H 1343   0.243   0.924  16.292 -0.0237 -1.0225 -1.5918
   86MPD2    H1 1344   0.654   1.025  16.369 -1.8156  1.6956 -0.2606
   86MPD2    H2 1345   0.498   0.708  16.576  0.1960 -1.1013 -0.6139
   86MPD2    H3 1346   0.673   0.847  16.522 -0.5222  0.5705 -0.3253
   86MPD2     N 1347   0.432   1.088  16.212 -0.1590  0.5908 -0.3169
   86MPD2    H5 1348   0.339   1.095  16.171 -0.1653 -1.2060 -0.6386
   86MPD2    N1 1349   0.255   0.702  16.432 -0.4854 -0.3609 -0.2155
   86MPD2    H7 1350   0.175   0.734  16.378  0.5753  1.5224 -0.6644
   87TMC2    C1 1351   2.693   3.615   0.107 -0.0050 -0.0340 -0.3360
   87TMC2    C2 1352   2.563   3.589   0.144 -0.6959 -0.9785 -0.5788
   87TMC2    C3 1353   2.489   3.697   0.163  0.0401  1.2392  0.3953
   87TMC2    C4 1354   2.751   3.737   0.096  0.4131 -0.6674  1.1911
   87TMC2    C5 1355   2.672   3.842   0.111 -0.2407 -0.5484 -0.2544
   87TMC2    C6 1356   2.539   3.826   0.150  0.3802  0.3425  0.2313
   87TMC2     C 1357   2.781   3.506   0.089  0.2730 -0.2931  0.4488
   87TMC2     O 1358   2.899   3.521   0.112  0.2264 -0.0028 -0.0965
   87TMC2     H 1359   2.528   3.487   0.157 -1.2680 -0.5856  0.9322
   87TMC2    H1 1360   2.851   3.750   0.057 -0.1432  2.0032  0.6099
   87TMC2    H2 1361   2.469   3.907   0.166  0.6288  0.2897  1.5788
   87TMC2    C7 1362   2.731   3.973   0.154 -0.0184 -0.3084 -0.0975
   87TMC2    C8 1363   2.350   3.692   0.207 -0.0544 -0.3961 -0.5108
   87TMC2    O1 1364   2.653   4.047   0.215 -0.3709 -0.7143  0.9525
   87TMC2    O2 1365   2.292   3.786   0.256  0.5927  0.1654  0.2932
   87TMC2    O5 1366   2.290   3.597   0.131  0.7875 -1.0429  0.1026
   87TMC2    H5 1367   2.355   3.530   0.101  2.3655  0.1082  0.9185
   88MPD2     C 1368   3.079   4.079   0.157 -0.5138  0.4325 -0.6229
   88MPD2    C1 1369   2.952   4.076   0.183  0.0839 -0.1370 -0.3169
   88MPD2    C2 1370   2.909   4.165   0.279 -0.4424  0.0753 -0.8605
   88MPD2    C3 1371   2.991   4.258   0.339 -0.0955  0.0213  0.2181
   88MPD2    C4 1372   3.126   4.261   0.301  0.2256 -0.0103  0.3049
   88MPD2    C5 1373   3.163   4.170   0.212  0.2563 -0.0254 -0.4717
   88MPD2     H 1374   2.815   4.150   0.331  0.5653  0.1787  1.0033
   88MPD2    H1 1375   3.196   4.331   0.344  0.3500 -0.1243  0.2896
   88MPD2    H2 1376   3.111   4.017   0.074 -0.1090  0.3178 -0.3785
   88MPD2    H3 1377   3.262   4.170   0.169  1.1344  2.4696  1.5387
   88MPD2     N 1378   2.957   4.336   0.446 -0.1889 -0.9284  0.2814
   88MPD2    H5 1379   3.034   4.396   0.473 -1.7699  0.8154  0.8426
   88MPD2    N1 1380   2.869   3.981   0.121 -0.2124 -0.3610 -0.4865
   88MPD2    H7 1381   2.908   3.916   0.054  0.7809 -1.1564  0.8602
   89TMC2    C1 1382   3.705   1.872   1.126  0.5949  0.2108 -0.5954
   89TMC2    C2 1383   3.772   1.878   1.005 -0.1022 -0.6816  0.0591
   89TMC2    C3 1384   3.744   1.987   0.924 -0.2236  0.7082 -0.8564
   89TMC2    C4 1385   3.636   1.988   1.170  0.1474 -0.3823 -0.4428
   89TMC2    C5 1386   3.627   2.092   1.090 -0.2614 -0.0260  0.6162
   89TMC2    C6 1387   3.671   2.093   0.968  0.0191 -0.2639  0.1208
   89TMC2     C 1388   3.781   1.801   1.223  0.0115 -0.3992  0.6726
   89TMC2     O 1389   3.899   1.783   1.196  0.0858  0.2666 -0.5944
   89TMC2     H 1390   3.840   1.800   0.973  0.3035 -1.6948  3.3374
   89TMC2    H1 1391   3.597   2.000   1.271 -0.5094  0.7001 -0.8340
   89TMC2    H2 1392   3.648   2.169   0.893 -0.0519  1.0722  1.4867
   89TMC2    C7 1393   3.563   2.211   1.143  0.2366 -0.8014 -0.1785
   89TMC2    C8 1394   3.801   2.004   0.791 -0.5737 -0.1542  0.7489
   89TMC2    O1 1395   3.492   2.198   1.240  1.0303  0.0808  0.0948
   89TMC2    O2 1396   3.793   2.098   0.715  0.2042 -0.1965 -0.3561
   89TMC2    O5 1397   3.865   1.888   0.757 -0.1981 -0.1094  0.6868
   89TMC2    H5 1398   3.858   1.818   0.826  3.1670 -0.5740  0.5798
   90MPD2     C 1399   3.767   1.530   1.667  0.4909  0.0094 -0.1630
   90MPD2    C1 1400   3.637   1.572   1.637 -0.4332  0.0098 -0.0090
   90MPD2    C2 1401   3.603   1.631   1.519 -0.0391 -0.0701 -0.5677
   90MPD2    C3 1402   3.710   1.670   1.437  0.9617  0.2449 -0.0566
   90MPD2    C4 1403   3.833   1.624   1.467 -0.2051  0.1817 -0.2244
   90MPD2    C5 1404   3.861   1.549   1.574 -0.3167  0.7235  0.5748
   90MPD2     H 1405   3.500   1.663   1.510 -0.1562 -0.4226 -0.4884
   90MPD2    H1 1406   3.919   1.631   1.401  0.3667  2.0612  0.7140
   90MPD2    H2 1407   3.793   1.462   1.747 -1.4079 -3.1448 -2.2697
   90MPD2    H3 1408   3.959   1.502   1.574 -0.8705 -0.4603 -2.0549
   90MPD2     N 1409   3.693   1.752   1.319  0.4120 -0.6093 -0.6774
   90MPD2    H5 1410   3.594   1.764   1.302  0.1561  0.3697  1.5233
   90MPD2    N1 1411   3.538   1.544   1.728 -0.3481  0.0114  0.4850
   90MPD2    H7 1412   3.442   1.569   1.704 -0.0799  0.4129 -0.1604
   91TMC2    C1 1413   0.542   1.953  16.791 -0.1076 -0.8096 -0.1933
   91TMC2    C2 1414   0.610   1.977  16.906  0.3152  0.6808 -0.0711
   91TMC2    C3 1415   0.537   2.011  17.018  0.3449 -1.1208  0.2162
   91TMC2    C4 1416   0.412   1.952  16.784  0.2199 -0.3248 -0.1455
   91TMC2    C5 1417   0.346   1.973  16.898 -0.4294  0.8320 -0.1666
   91TMC2    C6 1418   0.403   2.019  17.011 -0.4518 -0.8906  0.4991
   91TMC2     C 1419   0.613   1.879  16.684  0.5324  0.2572  0.7787
   91TMC2     O 1420   0.551   1.791  16.632 -0.3310 -0.5954  0.1817
   91TMC2     H 1421   0.713   1.947  16.917  0.1086  0.1501  0.3801
   91TMC2    H1 1422   0.358   1.913  16.699  2.2652 -0.5046 -1.3626
   91TMC2    H2 1423   0.339   2.036  17.097 -2.2269 -0.9328 -0.8215
   91TMC2    C7 1424   0.210   1.941  16.909 -0.8154  0.1329 -0.8296
   91TMC2    C8 1425   0.586   2.007  17.150 -0.2594  1.0494  0.1259
   91TMC2    O1 1426   0.180   1.898  17.022 -0.0553 -0.3569 -0.1284
   91TMC2    O2 1427   0.705   1.989  17.170  0.1321  0.2506 -0.4655
   91TMC2    O5 1428   0.508   2.092  17.222  0.0096 -0.1831  0.6588
   91TMC2    H5 1429   0.428   2.130  17.180 -0.0925 -1.6002 -0.4067
   92MPD2     C 1430   0.811   1.754  16.499  1.3417  0.8672 -1.0345
   92MPD2    C1 1431   0.840   1.855  16.587  0.1015  0.5463  0.0618
   92MPD2    C2 1432   0.970   1.907  16.588 -0.2797  0.1431  0.5879
   92MPD2    C3 1433   1.072   1.859  16.514 -0.5321 -0.2331  0.7538
   92MPD2    C4 1434   1.050   1.744  16.442  0.7521 -0.3949  0.1953
   92MPD2    C5 1435   0.923   1.693  16.433  0.3626 -0.3557 -0.1998
   92MPD2     H 1436   0.985   1.988  16.659  1.4037 -0.7349  1.2461
   92MPD2    H1 1437   1.135   1.698  16.392  0.2863  0.3032 -1.2578
   92MPD2    H2 1438   0.712   1.710  16.501  2.3050 -1.2760 -0.6754
   92MPD2    H3 1439   0.912   1.596  16.387  0.0127  0.4336 -1.7755
   92MPD2     N 1440   1.201   1.908  16.522  0.0065  0.4682 -0.0231
   92MPD2    H5 1441   1.209   1.993  16.578  1.0962  0.6953 -0.5145
   92MPD2    N1 1442   0.743   1.924  16.665 -0.1353  0.5093  0.3804
   92MPD2    H7 1443   0.773   2.008  16.714  0.4169  0.4988  0.0593
   93TMC2    C1 1444   1.901   2.155  14.713 -0.9583  0.0834 -0.6838
   93TMC2    C2 1445   1.929   2.139  14.848 -0.0223  0.5048 -0.0240
   93TMC2    C3 1446   2.060   2.136  14.887 -0.1716 -0.1353 -0.0865
   93TMC2    C4 1447   1.989   2.187  14.615 -0.4117 -0.4498 -0.2335
   93TMC2    C5 1448   2.123   2.188  14.659 -0.9392  0.0728 -0.2123
   93TMC2    C6 1449   2.160   2.144  14.788 -0.1719  0.1491 -0.3124
   93TMC2     C 1450   1.761   2.128  14.684 -0.2572  0.5551 -0.6668
   93TMC2     O 1451   1.683   2.111  14.779 -0.0331 -1.2436 -0.6301
   93TMC2     H 1452   1.858   2.134  14.931 -0.0043  3.3548  0.1688
   93TMC2    H1 1453   1.963   2.234  14.521 -1.5719 -2.2279 -0.8146
   93TMC2    H2 1454   2.264   2.140  14.818 -0.3990 -1.9250  0.2559
   93TMC2    C7 1455   2.231   2.196  14.563  0.1408  0.1560 -0.2738
   93TMC2    C8 1456   2.091   2.089  15.017  0.1126 -0.5578 -0.8405
   93TMC2    O1 1457   2.342   2.178  14.608 -0.2879  0.3101 -0.5733
   93TMC2    O2 1458   2.030   2.127  15.118 -0.0547  0.0374 -0.1979
   93TMC2    O5 1459   2.173   1.983  15.001 -0.1517 -0.3660  0.4124
   93TMC2    H5 1460   2.219   1.975  14.915  0.6731 -2.1938  1.0211
   94MPD2     C 1461   1.536   1.975  14.576 -0.3602  0.3604 -0.3832
   94MPD2    C1 1462   1.603   2.075  14.504  0.2507  0.2028  0.9546
   94MPD2    C2 1463   1.551   2.104  14.377  0.3891  0.2946 -0.3898
   94MPD2    C3 1464   1.434   2.052  14.328  0.2591  0.7221 -0.1663
   94MPD2    C4 1465   1.368   1.956  14.400 -0.0097 -0.1345  0.3211
   94MPD2    C5 1466   1.417   1.919  14.528 -0.1265 -0.2275  0.3600
   94MPD2     H 1467   1.617   2.171  14.322 -0.6290 -0.3039 -2.3451
   94MPD2    H1 1468   1.278   1.907  14.364 -1.3152  2.9776 -0.6294
   94MPD2    H2 1469   1.581   1.936  14.667 -1.4951  0.0768  0.0639
   94MPD2    H3 1470   1.368   1.848  14.594 -0.9920 -0.1403 -0.1916
   94MPD2     N 1471   1.383   2.076  14.197  0.2665 -0.1710  0.4798
   94MPD2    H5 1472   1.315   2.010  14.161  0.6678  0.2944 -1.1558
   94MPD2    N1 1473   1.723   2.125  14.549 -0.0718  0.3536 -0.3035
   94MPD2    H7 1474   1.787   2.166  14.481  1.1684  0.8003  1.1380
   95TMC2    C1 1475   1.899   3.762  16.047  0.1793  0.0679  0.1009
   95TMC2    C2 1476   1.796   3.744  15.963 -0.2718  0.3443  0.0424
   95TMC2    C3 1477   1.767   3.621  15.911  0.0933 -0.0862  0.1565
   95TMC2    C4 1478   1.957   3.645  16.098 -0.0804 -0.2530 -0.1796
   95TMC2    C5 1479   1.929   3.525  16.045  0.4479 -0.0209  0.5068
   95TMC2    C6 1480   1.839   3.512  15.944  0.5024 -0.2792  0.5821
   95TMC2     C 1481   1.995   3.869  16.008 -0.2525 -0.0566  0.1779
   95TMC2     O 1482   2.114   3.843  16.020  0.0347  0.1379 -0.1836
   95TMC2     H 1483   1.734   3.830  15.938  0.1444  0.5249 -0.3685
   95TMC2    H1 1484   2.042   3.649  16.166  1.0126 -1.1754 -1.4792
   95TMC2    H2 1485   1.811   3.419  15.897  1.6555  0.1596 -0.9749
   95TMC2    C7 1486   2.010   3.410  16.081  0.2640 -0.3405  0.4664
   95TMC2    C8 1487   1.624   3.615  15.900 -0.6439 -0.8135 -0.1051
   95TMC2    O1 1488   2.025   3.311  16.006  0.0624 -0.1054 -0.0607
   95TMC2    O2 1489   1.545   3.688  15.961 -0.0012 -0.0163 -0.4457
   95TMC2    O5 1490   1.591   3.494  15.852 -0.1795 -0.2851  0.0339
   95TMC2    H5 1491   1.656   3.468  15.783 -0.0563 -0.6056  0.2724
   96MPD2     C 1492   2.100   4.340  15.840  0.3943  0.0791 -0.2015
   96MPD2    C1 1493   2.178   4.229  15.840 -0.0891 -0.5963  0.4193
   96MPD2    C2 1494   2.124   4.118  15.892  0.2619 -0.1110 -0.2197
   96MPD2    C3 1495   1.993   4.113  15.944  0.1012 -0.1936  0.1452
   96MPD2    C4 1496   1.918   4.220  15.939 -0.0152 -0.9455  0.0691
   96MPD2    C5 1497   1.975   4.330  15.890 -0.4755 -0.3935 -0.6182
   96MPD2     H 1498   2.189   4.031  15.885  0.9415  0.1894  2.5296
   96MPD2    H1 1499   1.815   4.216  15.973 -0.4361  0.5465 -1.0353
   96MPD2    H2 1500   2.135   4.439  15.814  0.1957  0.1824 -0.0783
   96MPD2    H3 1501   1.911   4.417  15.890  0.4586  0.2896  0.2356
   96MPD2     N 1502   1.935   3.989  15.984  0.8878 -0.1026 -0.5978
   96MPD2    H5 1503   1.839   3.998  16.016  0.2967 -0.6791 -2.1731
   96MPD2    N1 1504   2.305   4.234  15.782 -0.7068 -0.5142 -1.1397
   96MPD2    H7 1505   2.345   4.322  15.752 -0.5760 -0.1620  0.1065
   97TMC2    C1 1506   0.779   1.186   0.108 -0.1522 -0.1977  0.3829
   97TMC2    C2 1507   0.887   1.157   0.022 -0.1206 -0.5992 -0.1590
   97TMC2    C3 1508   0.959   1.265  17.735  0.0756 -1.0516  0.1122
   97TMC2    C4 1509   0.755   1.316   0.146 -0.0687 -0.2596 -0.3794
   97TMC2    C5 1510   0.822   1.423   0.092 -0.8353 -0.1690 -0.4844
   97TMC2    C6 1511   0.928   1.397   0.013  0.3767  0.5530 -0.1985
   97TMC2     C 1512   0.682   1.090   0.142 -0.4211  0.1186  0.6375
   97TMC2     O 1513   0.594   1.122   0.222 -0.0322  0.1722  0.1037
   97TMC2     H 1514   0.922   1.059  17.740 -0.5182 -1.0536  0.9073
   97TMC2    H1 1515   0.672   1.331   0.213 -0.3892 -2.8503 -0.2127
   97TMC2    H2 1516   0.987   1.478  17.720  0.9608  0.4203  0.3985
   97TMC2    C7 1517   0.765   1.556   0.088  0.2256 -0.1783 -0.4545
   97TMC2    C8 1518   1.089   1.219  17.687  0.2314  0.7631 -0.7404
   97TMC2    O1 1519   0.844   1.651   0.069  0.5730  0.8366 -0.3886
   97TMC2    O2 1520   1.106   1.127  17.607 -0.4929 -0.1200  0.1637
   97TMC2    O5 1521   1.171   1.235   0.043 -0.0376  0.4234 -0.2912
   97TMC2    H5 1522   1.149   1.306   0.107 -0.5765  1.9191 -2.1396
   98MPD2     C 1523   0.471   0.630   0.088  0.0257 -0.7770 -0.1119
   98MPD2    C1 1524   0.456   0.721   0.185 -0.2812  0.1939  0.0227
   98MPD2    C2 1525   0.526   0.840   0.179  0.1063  0.2877 -0.1619
   98MPD2    C3 1526   0.606   0.862   0.071 -0.2566 -0.2655 -0.2499
   98MPD2    C4 1527   0.618   0.769  17.715 -0.1118  0.0268 -0.4308
   98MPD2    C5 1528   0.555   0.649  17.730 -0.1217 -0.7510  0.2388
   98MPD2     H 1529   0.516   0.913   0.259  0.0196 -0.1499  0.2268
   98MPD2    H1 1530   0.686   0.779  17.631  1.0291 -0.7535  0.4009
   98MPD2    H2 1531   0.415   0.538   0.085 -3.6368  1.3217  3.5929
   98MPD2    H3 1532   0.576   0.576  17.653  0.2446  1.4503 -1.7432
   98MPD2     N 1533   0.692   0.979   0.057  0.3289 -0.4912 -0.7181
   98MPD2    H5 1534   0.757   0.979  17.726  0.1280 -1.5732 -0.8784
   98MPD2    N1 1535   0.357   0.687   0.287 -0.0898 -0.2248 -0.2591
   98MPD2    H7 1536   0.326   0.591   0.277 -3.0854  0.5111  2.1135
   99TMC2    C1 1537   3.836   3.583   1.164 -0.7540  0.2260  0.0614
   99TMC2    C2 1538   3.907   3.696   1.181  0.4014 -0.7160 -0.3109
   99TMC2    C3 1539   3.883   3.775   1.287  0.7627  0.9433  0.0047
   99TMC2    C4 1540   3.726   3.554   1.239  0.9222  0.5006 -0.4329
   99TMC2    C5 1541   3.705   3.631   1.352 -0.3907  0.2073 -0.3112
   99TMC2    C6 1542   3.782   3.745   1.377  0.1773  0.2953 -0.5848
   99TMC2     C 1543   3.844   3.519   1.037  0.7946 -0.2458 -0.3513
   99TMC2     O 1544   3.923   3.561   0.953  0.1498  0.3087 -0.1385
   99TMC2     H 1545   4.000   3.712   1.127  0.8164  0.0997  0.6519
   99TMC2    H1 1546   3.697   3.450   1.248  0.2746  0.6849 -0.3590
   99TMC2    H2 1547   3.769   3.798   1.470 -0.9100  1.0377 -1.1638
   99TMC2    C7 1548   3.597   3.601   1.440  0.6058  0.0012  0.9716
   99TMC2    C8 1549   3.985   3.878   1.315  0.7801  0.3793  0.2786
   99TMC2    O1 1550   3.606   3.642   1.558 -0.1325  0.8555 -0.4557
   99TMC2    O2 1551   4.060   3.933   1.232  0.4593  0.2224  0.1398
   99TMC2    O5 1552   3.996   3.868   1.446  0.2486  0.0225 -0.0163
   99TMC2    H5 1553   3.943   3.794   1.483  0.7371 -0.5793 -0.5207
  100MPD2     C 1554   3.781   3.374   0.793 -0.2055 -0.7584 -0.7031
  100MPD2    C1 1555   3.726   3.343   0.915 -0.1093 -0.1139 -0.2707
  100MPD2    C2 1556   3.655   3.226   0.938  0.4416  0.0602  0.8591
  100MPD2    C3 1557   3.636   3.137   0.835  0.2960  0.2268  0.2573
  100MPD2    C4 1558   3.687   3.168   0.714 -0.2095  0.4414  0.8787
  100MPD2    C5 1559   3.762   3.281   0.691 -0.4926  0.1710 -0.2876
  100MPD2     H 1560   3.615   3.210   1.037  1.6108 -1.2380  1.1274
  100MPD2    H1 1561   3.661   3.109   0.627  0.7806  1.1767  0.0803
  100MPD2    H2 1562   3.843   3.462   0.779  0.4391 -1.2228 -0.7670
  100MPD2    H3 1563   3.787   3.301   0.587  2.4560 -0.2173  0.3407
  100MPD2     N 1564   3.566   3.014   0.859 -0.6384  0.2352 -0.6038
  100MPD2    H5 1565   3.514   3.008   0.946 -1.7973  4.6094 -1.0009
  100MPD2    N1 1566   3.746   3.419   1.025  0.1839  0.1425 -0.2748
  100MPD2    H7 1567   3.698   3.400   1.112  1.1119 -0.7350  0.0482
  101TMC2    C1 1568   4.028   4.268  13.610  0.2787  0.0960  0.9260
  101TMC2    C2 1569   4.156   4.259  13.658  0.0227  0.1754  0.2014
  101TMC2    C3 1570   4.216   4.380  13.677 -0.4276  0.4852 -0.6877
  101TMC2    C4 1571   3.970   4.391  13.576 -0.1944 -0.5844  0.1285
  101TMC2    C5 1572   4.039   4.507  13.592 -0.3164  0.3280 -0.4542
  101TMC2    C6 1573   4.162   4.502  13.648  0.0971  0.6126 -0.1101
  101TMC2     C 1574   3.949   4.150  13.586 -0.1358  0.4788  0.2614
  101TMC2     O 1575   3.832   4.168  13.606 -0.0414  0.7923 -0.8872
  101TMC2     H 1576   4.209   4.167  13.682 -1.3948 -0.5736  0.4237
  101TMC2    H1 1577   3.870   4.398  13.534 -0.3035 -0.0637  0.4752
  101TMC2    H2 1578   4.221   4.593  13.651  0.5810  0.2537  1.2617
  101TMC2    C7 1579   4.022   4.609  13.489  0.5572  0.4778 -0.2023
  101TMC2    C8 1580   4.350   4.373  13.733 -0.3241  0.2422 -0.6213
  101TMC2    O1 1581   4.113   4.693  13.485 -0.4295  0.4020  0.1415
  101TMC2    O2 1582   4.381   4.265  13.786 -0.2479  0.3548 -0.0810
  101TMC2    O5 1583   4.443   4.454  13.668  0.2334 -0.0406  0.5269
  101TMC2    H5 1584   4.410   4.511  13.595  1.4107  0.6994  0.5686
  102MPD2     C 1585   3.999   3.824  13.441 -0.4714  0.5444 -0.3183
  102MPD2    C1 1586   3.926   3.929  13.485  0.2571  0.5423 -0.2061
  102MPD2    C2 1587   3.788   3.907  13.497 -0.0350 -0.8270 -0.7185
  102MPD2    C3 1588   3.729   3.797  13.440  0.4815  0.3729  0.3185
  102MPD2    C4 1589   3.805   3.689  13.391 -0.1522  0.1377 -0.5973
  102MPD2    C5 1590   3.943   3.704  13.393 -0.3272 -0.5280  0.6240
  102MPD2     H 1591   3.731   3.982  13.550  1.2790 -1.3881  1.5028
  102MPD2    H1 1592   3.761   3.601  13.347  2.3155 -1.0130 -0.7770
  102MPD2    H2 1593   4.106   3.827  13.459 -0.6517  0.1694  0.8676
  102MPD2    H3 1594   4.011   3.629  13.353  1.7014  1.2812  0.6833
  102MPD2     N 1595   3.588   3.782  13.454 -0.2153 -0.0275 -0.2172
  102MPD2    H5 1596   3.541   3.850  13.513 -1.8717  1.6831 -3.4710
  102MPD2    N1 1597   4.003   4.043  13.531  0.2067  0.2942  0.4308
  102MPD2    H7 1598   4.104   4.033  13.527  0.2895  0.4567  2.1580
  103TMC2    C1 1599   1.852   4.324  12.417 -0.4430  0.0980  0.1620
  103TMC2    C2 1600   1.847   4.377  12.290  0.0349  0.5296  0.3052
  103TMC2    C3 1601   1.966   4.430  12.246  0.3349 -0.7681 -0.4745
  103TMC2    C4 1602   1.963   4.326  12.491  0.2924  0.3604 -0.2598
  103TMC2    C5 1603   2.082   4.381  12.437  0.4945  0.0448 -0.4401
  103TMC2    C6 1604   2.084   4.429  12.311 -0.1179  0.2916  0.7934
  103TMC2     C 1605   1.726   4.273  12.473 -0.2423 -0.9157  0.4036
  103TMC2     O 1606   1.626   4.302  12.405 -0.1229  0.6393 -0.2226
  103TMC2     H 1607   1.753   4.384  12.236 -0.3153  1.3518  1.0232
  103TMC2    H1 1608   1.963   4.304  12.597 -0.1801  2.1931  0.1190
  103TMC2    H2 1609   2.166   4.489  12.275 -2.5424  3.0068 -0.1487
  103TMC2    C7 1610   2.187   4.424  12.529  0.4548  0.1022 -0.2631
  103TMC2    C8 1611   1.942   4.524  12.149  0.1914  0.4747  0.3580
  103TMC2    O1 1612   2.151   4.443  12.645  0.3367  0.2195 -0.8754
  103TMC2    O2 1613   2.028   4.557  12.067  0.0870  0.3300  0.1610
  103TMC2    O5 1614   1.844   4.601  12.193  0.0294 -0.1883 -0.1116
  103TMC2    H5 1615   1.809   4.574  12.281  2.7276 -0.4687  0.9118
  104MPD2     C 1616   1.637   4.103  12.785  0.2664 -0.4516  0.0055
  104MPD2    C1 1617   1.627   4.138  12.654  0.1631 -0.5873  0.0228
  104MPD2    C2 1618   1.501   4.127  12.595  0.5299 -0.3308 -0.0986
  104MPD2    C3 1619   1.399   4.080  12.674  0.3734  0.2400 -0.4319
  104MPD2    C4 1620   1.404   4.041  12.799  0.1604 -0.0160  0.0362
  104MPD2    C5 1621   1.530   4.047  12.857 -0.4002  0.2373  0.0943
  104MPD2     H 1622   1.485   4.154  12.491  0.1114 -0.9073 -0.1827
  104MPD2    H1 1623   1.314   4.015  12.854 -0.1037 -0.0298 -0.4060
  104MPD2    H2 1624   1.730   4.120  12.838  0.5793  1.3511 -1.1344
  104MPD2    H3 1625   1.538   4.009  12.959 -0.6619 -2.7726 -0.9993
  104MPD2     N 1626   1.282   4.067  12.600 -0.2352 -0.2780 -0.2525
  104MPD2    H5 1627   1.279   4.106  12.507  0.9964 -1.5896 -0.8382
  104MPD2    N1 1628   1.738   4.192  12.589  0.0863 -0.5111 -0.8078
  104MPD2    H7 1629   1.826   4.189  12.639 -1.0018 -2.7723  0.9251
  105TMC2    C1 1630   3.385   3.062   0.261  0.3577  0.0630 -0.2403
  105TMC2    C2 1631   3.448   2.946   0.291  0.0448 -0.5989 -0.1361
  105TMC2    C3 1632   3.409   2.845   0.213  0.3239  0.4001  0.0977
  105TMC2    C4 1633   3.299   3.082   0.154 -0.3151 -0.6949  0.5685
  105TMC2    C5 1634   3.259   2.970   0.083 -0.0631  0.1424  1.0227
  105TMC2    C6 1635   3.310   2.849   0.112  0.2776 -0.0902  0.1590
  105TMC2     C 1636   3.467   3.178   0.300 -0.0179  0.2144  0.2151
  105TMC2     O 1637   3.515   3.174   0.413 -0.0399  0.3237 -0.8861
  105TMC2     H 1638   3.523   2.939   0.369  0.7250  1.7612 -0.5644
  105TMC2    H1 1639   3.257   3.181   0.152  1.3363 -0.0119 -0.3652
  105TMC2    H2 1640   3.289   2.758   0.056  0.8106  0.4428 -0.9054
  105TMC2    C7 1641   3.131   2.970   0.020  0.8856  0.9968 -0.4660
  105TMC2    C8 1642   3.466   2.710   0.239 -0.6086  0.2832 -0.3244
  105TMC2    O1 1643   3.075   2.864   0.007 -0.4815  0.3643 -0.0687
  105TMC2    O2 1644   3.575   2.685   0.290  0.4499 -0.7841  0.8215
  105TMC2    O5 1645   3.372   2.618   0.214  0.2553  0.3576  0.5495
  105TMC2    H5 1646   3.295   2.657   0.168  0.3260  0.0820  0.1950
  106MPD2     C 1647   3.778   3.562   0.204  0.4316  1.2590  0.7232
  106MPD2    C1 1648   3.706   3.538   0.088  0.6473  0.1615 -0.3897
  106MPD2    C2 1649   3.605   3.443   0.090 -0.2898 -0.4806  0.7126
  106MPD2    C3 1650   3.569   3.375   0.211 -0.7572  0.1104 -0.2063
  106MPD2    C4 1651   3.641   3.411   0.325  0.1460  0.7031 -0.3642
  106MPD2    C5 1652   3.741   3.505   0.321  0.4510  0.3268  0.9235
  106MPD2     H 1653   3.552   3.434  17.743  0.1580 -0.9836  0.5036
  106MPD2    H1 1654   3.635   3.359   0.420 -5.6494  0.1288 -1.0803
  106MPD2    H2 1655   3.877   3.605   0.213  0.0557  2.3950 -0.4700
  106MPD2    H3 1656   3.815   3.522   0.399  0.2262  0.1945  1.1676
  106MPD2     N 1657   3.476   3.275   0.207 -0.1019  0.0643  0.3831
  106MPD2    H5 1658   3.422   3.249   0.125  0.7653 -0.4051 -0.0346
  106MPD2    N1 1659   3.752   3.597  17.711 -0.1907 -0.0172 -0.4429
  106MPD2    H7 1660   3.705   3.579  17.622  0.5990 -1.6492 -0.5226
  107TMC2    C1 1661   3.700   2.969  11.571  0.3031 -0.5589  0.2973
  107TMC2    C2 1662   3.736   3.069  11.478  0.5778 -0.4221  0.0565
  107TMC2    C3 1663   3.740   3.033  11.347 -0.5351  0.1286 -1.1521
  107TMC2    C4 1664   3.667   2.839  11.526  0.3372  0.1680 -0.0637
  107TMC2    C5 1665   3.679   2.806  11.396 -0.0240  0.1040 -1.0186
  107TMC2    C6 1666   3.716   2.903  11.306 -0.1114  0.0509  0.1246
  107TMC2     C 1667   3.636   3.008  11.696 -0.0790  0.4038  0.4602
  107TMC2     O 1668   3.627   2.928  11.789  0.0869  0.0362 -0.3675
  107TMC2     H 1669   3.771   3.165  11.514 -0.9194  0.0268  0.3371
  107TMC2    H1 1670   3.629   2.771  11.602 -1.6765  0.3688 -0.8917
  107TMC2    H2 1671   3.719   2.882  11.200 -0.4798 -1.9908  0.5318
  107TMC2    C7 1672   3.648   2.670  11.351 -0.4184  0.0373 -0.4841
  107TMC2    C8 1673   3.742   3.136  11.243  0.4517  0.8413  0.1606
  107TMC2    O1 1674   3.604   2.594  11.435  0.0266  0.2184  0.7178
  107TMC2    O2 1675   3.689   3.108  11.135 -0.1854  0.2317  0.5681
  107TMC2    O5 1676   3.868   3.178  11.244 -0.3397  0.1174  0.4498
  107TMC2    H5 1677   3.892   3.216  11.332 -0.1076  3.2735 -0.9913
  108MPD2     C 1678   3.445   3.323  11.725 -0.1458 -0.1690  0.5743
  108MPD2    C1 1679   3.507   3.209  11.776  0.2887  0.4985 -0.2204
  108MPD2    C2 1680   3.481   3.173  11.906  0.1245  0.0306 -0.0500
  108MPD2    C3 1681   3.387   3.240  11.982 -0.4047 -0.3574 -0.1555
  108MPD2    C4 1682   3.324   3.352  11.927 -0.4069 -0.1723 -0.4565
  108MPD2    C5 1683   3.359   3.400  11.806 -0.0924 -0.2455  0.8001
  108MPD2     H 1684   3.537   3.091  11.950  0.6088  0.6317  0.4457
  108MPD2    H1 1685   3.242   3.398  11.980 -0.0315 -0.8044  0.6685
  108MPD2    H2 1686   3.470   3.350  11.623  1.2572  0.3197  1.0550
  108MPD2    H3 1687   3.317   3.486  11.753 -0.3086  0.0684  1.4839
  108MPD2     N 1688   3.340   3.209  12.117  0.1066 -0.5764 -0.3626
  108MPD2    H5 1689   3.264   3.265  12.153 -0.5443 -0.7696 -1.4350
  108MPD2    N1 1690   3.590   3.140  11.682  0.1485 -0.0825 -0.2174
  108MPD2    H7 1691   3.610   3.187  11.595  0.9944  0.6862  0.3827
  109TMC2    C1 1692   3.807   0.377   0.106  0.3963 -0.1248  0.0273
  109TMC2    C2 1693   3.864   0.415  17.736  0.2394  0.4147  0.8331
  109TMC2    C3 1694   3.998   0.401  17.728 -0.7074  0.1506  0.2419
  109TMC2    C4 1695   3.881   0.326   0.211  0.1100 -0.0089  0.5245
  109TMC2    C5 1696   4.016   0.319   0.196  1.0162 -0.3624  0.6321
  109TMC2    C6 1697   4.079   0.357   0.080 -0.0191  0.2273 -0.8789
  109TMC2     C 1698   3.663   0.374   0.106 -0.0950  0.3050 -0.6510
  109TMC2     O 1699   3.606   0.382  17.744 -0.1517  0.0542 -0.2103
  109TMC2     H 1700   3.813   0.453  17.648  1.2042 -0.9830 -0.3122
  109TMC2    H1 1701   3.836   0.308   0.308  1.5374 -2.0402  0.8046
  109TMC2    H2 1702   4.186   0.347   0.064  0.4828 -0.8205  3.2530
  109TMC2    C7 1703   4.092   0.255   0.305 -0.1706  0.4541 -0.1420
  109TMC2    C8 1704   4.047   0.405  17.586  0.4959 -0.1546  0.3066
  109TMC2    O1 1705   4.030   0.202   0.396 -0.2981  0.2818 -0.4519
  109TMC2    O2 1706   3.977   0.347  17.504  0.2621  0.0748  0.1220
  109TMC2    O5 1707   4.179   0.406  17.581 -0.8329  0.2334  0.0716
  109TMC2    H5 1708   4.229   0.456  17.649 -2.0989  0.2631  1.0003
  110MPD2     C 1709   3.241   0.194   0.337  0.1039 -0.8219  0.5591
  110MPD2    C1 1710   3.326   0.221   0.435 -0.3643 -0.1104  1.0783
  110MPD2    C2 1711   3.445   0.283   0.393 -0.5483 -0.1118 -0.5127
  110MPD2    C3 1712   3.475   0.312   0.261 -0.1634 -0.0914  0.5732
  110MPD2    C4 1713   3.383   0.279   0.168 -0.0052 -0.1524 -0.1171
  110MPD2    C5 1714   3.272   0.215   0.206  0.2299  0.3392 -0.2270
  110MPD2     H 1715   3.523   0.289   0.468  0.2430 -0.4778 -1.3131
  110MPD2    H1 1716   3.396   0.278   0.061 -0.4438 -0.9325 -0.1622
  110MPD2    H2 1717   3.143   0.153   0.357 -0.7231  0.8429 -0.0697
  110MPD2    H3 1718   3.206   0.174   0.131  0.8798  0.1463 -0.6938
  110MPD2     N 1719   3.608   0.351   0.229 -0.6182  0.1362 -0.1189
  110MPD2    H5 1720   3.674   0.363   0.305  3.1002 -1.5023 -3.0627
  110MPD2    N1 1721   3.301   0.172   0.569 -0.5477  0.5095  0.4023
  110MPD2    H7 1722   3.222   0.110   0.588 -0.9676  1.7141  2.5447
  111TMC2    C1 1723   3.371   0.595  12.248  0.2972 -0.4623  0.2943
  111TMC2    C2 1724   3.288   0.595  12.356 -0.6017  0.0209  0.0705
  111TMC2    C3 1725   3.338   0.648  12.474  0.1270 -0.0292  0.1771
  111TMC2    C4 1726   3.505   0.626  12.273 -0.8313  0.3704  0.1812
  111TMC2    C5 1727   3.553   0.660  12.394 -0.5907  0.2489 -0.6435
  111TMC2    C6 1728   3.471   0.682  12.498  0.4540 -0.1205  0.3245
  111TMC2     C 1729   3.341   0.533  12.124  0.1051 -0.5120  0.3051
  111TMC2     O 1730   3.402   0.565  12.019 -0.8032 -0.0958 -0.1971
  111TMC2     H 1731   3.183   0.566  12.353 -0.4258 -0.6672  0.5925
  111TMC2    H1 1732   3.571   0.598  12.192 -1.7135 -0.2493 -0.3162
  111TMC2    H2 1733   3.504   0.711  12.597 -0.2196 -1.9422  1.0753
  111TMC2    C7 1734   3.689   0.621  12.428 -0.2529 -0.6335  0.2265
  111TMC2    C8 1735   3.241   0.648  12.585  0.6714  0.6170  0.4052
  111TMC2    O1 1736   3.709   0.590  12.545 -0.1177  0.0023 -0.3335
  111TMC2    O2 1737   3.168   0.550  12.598  0.1883 -0.0808 -0.0152
  111TMC2    O5 1738   3.306   0.696  12.698 -0.2979  0.1210  0.5196
  111TMC2    H5 1739   3.346   0.785  12.686 -3.0369  1.2125 -0.5954
  112MPD2     C 1740   3.177   0.137  11.849 -0.4277 -0.1099  0.6811
  112MPD2    C1 1741   3.208   0.262  11.812  0.1241 -0.3365  0.4632
  112MPD2    C2 1742   3.242   0.349  11.905 -0.2451 -0.0793 -0.3211
  112MPD2    C3 1743   3.225   0.323  12.042 -0.5511 -0.9613 -0.2099
  112MPD2    C4 1744   3.180   0.199  12.082 -0.6022 -0.1060 -0.3604
  112MPD2    C5 1745   3.161   0.107  11.982 -0.1415  0.1667  0.0279
  112MPD2     H 1746   3.278   0.444  11.868 -0.7568 -0.1552 -1.0113
  112MPD2    H1 1747   3.173   0.172  12.187  0.7183 -0.8142 -0.4515
  112MPD2    H2 1748   3.153   0.056  11.781  1.5204 -0.0092 -0.1227
  112MPD2    H3 1749   3.120   0.012  12.014 -0.5923  0.3024 -0.1426
  112MPD2     N 1750   3.265   0.419  12.137 -0.3938 -0.2759 -0.3081
  112MPD2    H5 1751   3.245   0.393  12.234 -2.6751 -0.7984 -0.9178
  112MPD2    N1 1752   3.215   0.309  11.677 -0.4430 -0.0613 -0.4654
  112MPD2    H7 1753   3.250   0.403  11.665  0.2644 -0.3946 -1.0002
  113TMC2    C1 1754   2.307   3.053   0.828 -0.3209 -0.6944  0.1717
  113TMC2    C2 1755   2.176   3.091   0.825 -0.3644  0.0453 -0.8398
  113TMC2    C3 1756   2.084   2.995   0.829 -0.0131 -0.5724 -0.2909
  113TMC2    C4 1757   2.348   2.925   0.847 -0.9563 -0.0378  0.1221
  113TMC2    C5 1758   2.249   2.830   0.861 -0.2607  0.4058  0.7256
  113TMC2    C6 1759   2.112   2.863   0.845 -0.2452 -0.2490 -0.4777
  113TMC2     C 1760   2.409   3.159   0.840 -0.9744  0.4001 -0.4222
  113TMC2     O 1761   2.373   3.270   0.879 -0.0673 -0.1930  0.0818
  113TMC2     H 1762   2.140   3.193   0.826 -0.9507 -0.2136  2.1088
  113TMC2    H1 1763   2.453   2.905   0.867 -1.4036 -1.1856  1.2482
  113TMC2    H2 1764   2.032   2.791   0.858 -0.0651 -0.1830  1.0013
  113TMC2    C7 1765   2.282   2.705   0.926  0.3424  0.7271  0.3425
  113TMC2    C8 1766   1.945   3.033   0.803  0.2316  0.3801 -0.3390
  113TMC2    O1 1767   2.397   2.666   0.919 -0.3155  0.1920 -0.0033
  113TMC2    O2 1768   1.921   3.121   0.720  0.5187 -0.1397  0.2033
  113TMC2    O5 1769   1.855   2.971   0.876 -0.7217  0.0149 -0.4211
  113TMC2    H5 1770   1.891   2.938   0.961  0.5791 -0.1718 -1.0375
  114MPD2     C 1771   2.894   3.319   0.888  0.1771 -0.1152  0.1460
  114MPD2    C1 1772   2.787   3.336   0.966 -1.1180 -0.1064 -0.1796
  114MPD2    C2 1773   2.660   3.283   0.941 -0.1680  0.3433 -0.0588
  114MPD2    C3 1774   2.654   3.210   0.824  0.0760 -0.4340 -0.2988
  114MPD2    C4 1775   2.760   3.190   0.742  0.4045 -1.1862  0.1789
  114MPD2    C5 1776   2.877   3.258   0.763 -0.1206  0.3302  0.0427
  114MPD2     H 1777   2.575   3.300   1.005  1.5733 -0.8510  2.5746
  114MPD2    H1 1778   2.732   3.130   0.656 -0.4750  2.5517 -2.1409
  114MPD2    H2 1779   2.992   3.353   0.918  0.6684 -0.8552 -0.6173
  114MPD2    H3 1780   2.960   3.250   0.693  1.0816  0.1350  1.4937
  114MPD2     N 1781   2.537   3.130   0.806  0.3345  0.0746  0.0668
  114MPD2    H5 1782   2.549   3.050   0.743 -1.1372 -1.5488  1.8460
  114MPD2    N1 1783   2.796   3.412   1.088  0.4368  0.2767  0.5432
  114MPD2    H7 1784   2.704   3.443   1.120 -0.4635 -1.2867 -0.5431
  115TMC2    C1 1785   3.225   1.369   0.151 -0.6003 -0.2898  0.2869
  115TMC2    C2 1786   3.336   1.305   0.197 -0.6006 -0.8856  0.7487
  115TMC2    C3 1787   3.434   1.369   0.271  0.2111 -0.5039 -0.2080
  115TMC2    C4 1788   3.186   1.486   0.206  0.2700  0.6738  0.0615
  115TMC2    C5 1789   3.276   1.549   0.289 -0.3870  0.7086 -0.1827
  115TMC2    C6 1790   3.402   1.498   0.304 -0.2364 -0.8630 -0.0798
  115TMC2     C 1791   3.124   1.289   0.100 -0.6082 -0.0727  0.1054
  115TMC2     O 1792   3.125   1.167   0.120  0.1005 -0.5842 -0.0919
  115TMC2     H 1793   3.361   1.208   0.154 -3.7266 -1.0102 -0.7078
  115TMC2    H1 1794   3.088   1.530   0.195 -0.8194 -1.0414  3.0142
  115TMC2    H2 1795   3.478   1.550   0.362 -2.8341  0.4522  2.1213
  115TMC2    C7 1796   3.278   1.690   0.291 -0.0946 -0.4828 -0.1950
  115TMC2    C8 1797   3.537   1.300   0.339  0.8562  0.7790 -0.5720
  115TMC2    O1 1798   3.177   1.744   0.318 -0.2121  0.5582  0.1111
  115TMC2    O2 1799   3.624   1.368   0.391 -0.3999 -0.0629 -0.0404
  115TMC2    O5 1800   3.526   1.164   0.337  0.0936 -0.3603 -0.1067
  115TMC2    H5 1801   3.445   1.130   0.293  0.2902 -1.1191  0.1243
  116MPD2     C 1802   2.769   1.223  17.457 -1.1699 -0.6530  0.6220
  116MPD2    C1 1803   2.827   1.131  17.542 -1.0695  0.2933 -0.3238
  116MPD2    C2 1804   2.907   1.174  17.652  0.3841  0.5331 -0.1590
  116MPD2    C3 1805   2.950   1.303  17.658  0.3713 -0.0492 -0.4616
  116MPD2    C4 1806   2.902   1.394  17.564  0.1098 -0.3930  0.2821
  116MPD2    C5 1807   2.807   1.357  17.467  0.0436 -0.1116 -0.1207
  116MPD2     H 1808   2.944   1.100  17.722 -1.2300  0.6953  0.8664
  116MPD2    H1 1809   2.936   1.495  17.542 -0.0894  0.2091  2.8027
  116MPD2    H2 1810   2.695   1.190  17.385 -0.2098 -1.7800  0.1593
  116MPD2    H3 1811   2.786   1.432  17.392  1.1277 -0.8514 -1.1483
  116MPD2     N 1812   3.051   1.357   0.005  0.1837 -0.0311 -0.0714
  116MPD2    H5 1813   3.064   1.458   0.001 -0.1042  0.0066 -0.0471
  116MPD2    N1 1814   2.798   1.003  17.533 -0.7104 -0.8225  0.0523
  116MPD2    H7 1815   2.720   0.981  17.471 -1.2480 -0.2076  0.5134
  117TMC2    C1 1816   1.110   2.721  14.335  0.1713 -0.0277 -0.1094
  117TMC2    C2 1817   1.168   2.652  14.441 -0.3023 -0.4476 -0.0682
  117TMC2    C3 1818   1.252   2.710  14.526 -0.2810 -0.2572  0.3275
  117TMC2    C4 1819   1.168   2.837  14.300 -0.2321  0.1869 -0.0618
  117TMC2    C5 1820   1.262   2.888  14.381  0.0380 -0.7910 -0.0012
  117TMC2    C6 1821   1.299   2.829  14.504 -0.3895 -0.6996 -0.1748
  117TMC2     C 1822   0.993   2.672  14.264 -0.1127  0.3383 -0.8313
  117TMC2     O 1823   0.961   2.555  14.263  0.0409  0.1782  0.2628
  117TMC2     H 1824   1.124   2.555  14.462  0.2757 -1.0194 -1.4884
  117TMC2    H1 1825   1.153   2.881  14.202 -0.4221  0.3073  0.0203
  117TMC2    H2 1826   1.370   2.881  14.567 -0.9540 -0.6968  0.4572
  117TMC2    C7 1827   1.335   3.008  14.349  0.2837 -0.0642 -0.5147
  117TMC2    C8 1828   1.289   2.645  14.646 -0.0451  0.3408  0.1790
  117TMC2    O1 1829   1.449   3.013  14.393  0.2869 -0.4564  0.9940
  117TMC2    O2 1830   1.291   2.701  14.757 -0.1367 -0.3441 -0.1313
  117TMC2    O5 1831   1.327   2.517  14.618 -0.1794  0.2991  0.0293
  117TMC2    H5 1832   1.313   2.485  14.526  0.9121  0.9629 -0.3688
  118MPD2     C 1833   1.231   3.282  14.140 -0.0096  0.3335 -0.0676
  118MPD2    C1 1834   1.326   3.208  14.205 -0.6598 -0.3862 -1.0405
  118MPD2    C2 1835   1.461   3.236  14.202  0.3735 -0.8747 -0.7947
  118MPD2    C3 1836   1.498   3.344  14.126  0.0022 -0.0388 -0.0053
  118MPD2    C4 1837   1.399   3.423  14.062  0.2162 -0.0200  0.6934
  118MPD2    C5 1838   1.270   3.395  14.076 -1.0442  0.1665  0.5245
  118MPD2     H 1839   1.530   3.176  14.260  0.7105 -0.3399 -0.6414
  118MPD2    H1 1840   1.424   3.520  14.019  1.1108 -0.1274  0.9639
  118MPD2    H2 1841   1.126   3.265  14.161 -0.0689 -0.6566 -1.1776
  118MPD2    H3 1842   1.192   3.456  14.032 -1.1460  0.5574  1.2504
  118MPD2     N 1843   1.630   3.380  14.087 -0.6367  0.6819  0.4141
  118MPD2    H5 1844   1.647   3.453  14.018  4.0159 -0.6370  0.1300
  118MPD2    N1 1845   1.264   3.093  14.267  0.0496  0.1077 -0.6353
  118MPD2    H7 1846   1.163   3.085  14.258  0.0716  0.9717 -1.5338
  119TMC2    C1 1847   4.161   3.361  13.414 -0.2994 -0.4160  0.3033
  119TMC2    C2 1848   4.147   3.396  13.284  0.3306  0.6392  0.3978
  119TMC2    C3 1849   4.035   3.365  13.227 -0.2138 -0.1939 -0.2614
  119TMC2    C4 1850   4.070   3.288  13.482 -0.0087  0.5106 -0.3137
  119TMC2    C5 1851   3.954   3.254  13.419 -0.0681  0.8764  0.9413
  119TMC2    C6 1852   3.932   3.301  13.291  0.4376  0.0044  0.1965
  119TMC2     C 1853   4.280   3.394  13.479  0.2567  0.4438  0.4296
  119TMC2     O 1854   4.312   3.320  13.572  0.5543  0.2672 -0.2910
  119TMC2     H 1855   4.233   3.433  13.230  0.1423  1.6635  0.7990
  119TMC2    H1 1856   4.097   3.238  13.573  0.8109  1.7907  0.1470
  119TMC2    H2 1857   3.843   3.274  13.235  0.9994 -0.1994 -0.6067
  119TMC2    C7 1858   3.849   3.215  13.511 -0.8704 -0.5717  0.1577
  119TMC2    C8 1859   4.052   3.327  13.091 -0.2983  0.2440 -0.5292
  119TMC2    O1 1860   3.752   3.160  13.466 -0.0166 -0.0030  0.2494
  119TMC2    O2 1861   4.138   3.376  13.024  0.0782 -0.6664 -0.3289
  119TMC2    O5 1862   3.999   3.203  13.073 -0.1622  0.4215 -0.4232
  119TMC2    H5 1863   3.927   3.172  13.132  0.1333 -0.1606 -0.3716
  120MPD2     C 1864   4.643   3.716  13.612 -0.1563  0.4326  0.0867
  120MPD2    C1 1865   4.587   3.618  13.688 -0.5156  0.7815 -1.5333
  120MPD2    C2 1866   4.485   3.559  13.623 -0.4457 -0.3630  0.3262
  120MPD2    C3 1867   4.432   3.588  13.500 -0.0242  0.2172  0.4034
  120MPD2    C4 1868   4.467   3.708  13.455  0.3284 -0.1396  0.3326
  120MPD2    C5 1869   4.576   3.769  13.504  0.3763  0.3057 -0.2115
  120MPD2     H 1870   4.445   3.467  13.662  1.7664  0.1829  3.9225
  120MPD2    H1 1871   4.420   3.746  13.365  2.9142  3.1235  0.3604
  120MPD2    H2 1872   4.721   3.781  13.650 -0.5923  1.2793 -0.4458
  120MPD2    H3 1873   4.622   3.847  13.445  0.3381  1.3618  1.1754
  120MPD2     N 1874   4.328   3.514  13.433 -0.0740  0.3502  0.1806
  120MPD2    H5 1875   4.288   3.558  13.352 -0.2039 -0.6438 -0.2933
  120MPD2    N1 1876   4.646   3.582  13.811  0.3446  0.3123 -0.0321
  120MPD2    H7 1877   0.003   3.616  13.824  0.5826 -0.6350  0.7052
  121TMC2    C1 1878   0.558   1.497  14.443 -0.1237 -1.0457 -0.1924
  121TMC2    C2 1879   0.493   1.538  14.562 -0.0813 -0.7057  0.4529
  121TMC2    C3 1880   0.513   1.459  14.677  0.6500 -0.3823 -1.0790
  121TMC2    C4 1881   0.642   1.391  14.441 -0.1324  0.1455  0.4494
  121TMC2    C5 1882   0.667   1.327  14.551  0.5382 -0.1245 -0.0633
  121TMC2    C6 1883   0.607   1.353  14.673 -0.0948  0.0229 -0.1034
  121TMC2     C 1884   0.538   1.562  14.319  0.1081  0.8719  0.0499
  121TMC2     O 1885   0.424   1.599  14.298 -0.3965  0.1285  0.1278
  121TMC2     H 1886   0.423   1.621  14.566  1.0791  0.2154  1.6901
  121TMC2    H1 1887   0.686   1.363  14.346  0.8332  1.5256  0.4821
  121TMC2    H2 1888   0.625   1.292  14.761  1.3475 -2.4510 -2.1293
  121TMC2    C7 1889   0.746   1.209  14.538  0.4207 -0.1741 -0.0653
  121TMC2    C8 1890   0.470   1.493  14.806 -0.7957  0.5268 -0.4084
  121TMC2    O1 1891   0.815   1.166  14.635 -0.1295  0.0766  0.2271
  121TMC2    O2 1892   0.550   1.503  14.897 -0.0679  0.5028  0.1267
  121TMC2    O5 1893   0.365   1.573  14.797 -0.4398 -0.0713  0.6617
  121TMC2    H5 1894   0.307   1.529  14.731  1.6690 -1.5290 -0.2257
  122MPD2     C 1895   0.541   1.634  14.024 -0.5715 -0.0070  0.2099
  122MPD2    C1 1896   0.651   1.610  14.103 -0.1176  0.4516 -0.5573
  122MPD2    C2 1897   0.779   1.620  14.045 -0.6507 -0.4092  0.1503
  122MPD2    C3 1898   0.789   1.642  13.905  0.7130  0.1127 -0.5184
  122MPD2    C4 1899   0.683   1.659  13.831 -0.1976  0.6110  0.3694
  122MPD2    C5 1900   0.562   1.644  13.889  0.0698  0.1723 -0.2524
  122MPD2     H 1901   0.865   1.620  14.111 -1.0590 -0.0809  0.6773
  122MPD2    H1 1902   0.679   1.673  13.723  0.3138  0.3908  0.3215
  122MPD2    H2 1903   0.442   1.630  14.069 -0.2191  1.5616  1.1370
  122MPD2    H3 1904   0.472   1.631  13.829  0.0790 -1.7514  0.1383
  122MPD2     N 1905   0.918   1.656  13.845  0.2953 -0.2655  0.1021
  122MPD2    H5 1906   0.914   1.683  13.747  3.4901  1.5088  0.4497
  122MPD2    N1 1907   0.646   1.579  14.240  0.0463 -0.5555  0.9701
  122MPD2    H7 1908   0.735   1.550  14.279 -0.0937 -1.7570  0.3809
  123TMC2    C1 1909   4.708   3.731   9.985 -0.0896 -0.9772  0.0793
  123TMC2    C2 1910   0.090   3.781   9.945 -0.3153  0.8491 -0.8649
  123TMC2    C3 1911   0.191   3.688   9.913  0.3763  0.8472 -0.5085
  123TMC2    C4 1912   4.676   3.595   9.983  0.2849 -0.0820 -0.1812
  123TMC2    C5 1913   0.033   3.508   9.931  0.0710  0.8992  0.5960
  123TMC2    C6 1914   0.159   3.553   9.894 -0.1520 -0.2036 -0.0501
  123TMC2     C 1915   4.613   3.827  10.041 -0.6849 -0.0914 -0.0305
  123TMC2     O 1916   4.654   3.944  10.056  0.1462 -0.1119  0.0632
  123TMC2     H 1917   0.118   3.885   9.952 -0.0684  0.8207 -1.4423
  123TMC2    H1 1918   4.593   3.545  10.032  0.6239 -0.2963  0.1746
  123TMC2    H2 1919   0.235   3.487   9.853 -0.2244 -0.1151 -0.3305
  123TMC2    C7 1920   0.002   3.366   9.916  0.4170 -0.3120 -0.0447
  123TMC2    C8 1921   0.304   3.734   9.843  0.6232  0.6910 -0.1611
  123TMC2    O1 1922   4.630   3.337   9.871 -0.0669  0.0615  0.4290
  123TMC2    O2 1923   0.288   3.834   9.774  0.4315 -0.6410  0.2904
  123TMC2    O5 1924   0.407   3.725   9.939 -0.3938  0.1024  0.6543
  123TMC2    H5 1925   0.375   3.685  10.023 -1.0015 -0.6931  0.0478
  124MPD2     C 1926   4.167   3.883  10.305  0.0897  0.6090 -0.4526
  124MPD2    C1 1927   4.180   3.757  10.259 -0.5137  0.4049 -0.7092
  124MPD2    C2 1928   4.295   3.718  10.179 -0.3823 -0.2669 -0.2904
  124MPD2    C3 1929   4.383   3.817  10.141 -0.2134  0.0607  0.2641
  124MPD2    C4 1930   4.361   3.946  10.176  0.1086  0.6204 -0.2352
  124MPD2    C5 1931   4.261   3.976  10.257  0.4269 -0.4791  0.5045
  124MPD2     H 1932   4.306   3.614  10.153  0.9451 -0.1483 -0.2053
  124MPD2    H1 1933   4.429   4.023  10.141 -1.3421  1.0205 -2.1969
  124MPD2    H2 1934   4.089   3.922  10.370  1.1673 -1.6583  2.1860
  124MPD2    H3 1935   4.248   4.080  10.285  0.9649 -0.1012 -0.6651
  124MPD2     N 1936   4.494   3.763  10.073  0.4972 -0.5109  0.5251
  124MPD2    H5 1937   4.488   3.663  10.059  0.7726 -0.2577 -1.3936
  124MPD2    N1 1938   4.080   3.665  10.297  0.1876  0.1330 -0.5228
  124MPD2    H7 1939   3.999   3.713  10.334 -0.1679 -0.8133 -0.0721
  125TMC2    C1 1940   0.470   0.499   9.643 -0.1115 -0.3706 -0.0038
  125TMC2    C2 1941   0.465   0.390   9.563 -0.0007  0.2409 -0.9750
  125TMC2    C3 1942   0.578   0.310   9.541  0.0418 -0.2134 -0.2634
  125TMC2    C4 1943   0.591   0.542   9.692 -0.8350  0.0392 -0.3012
  125TMC2    C5 1944   0.700   0.457   9.672  0.3694  0.0563 -0.5976
  125TMC2    C6 1945   0.698   0.347   9.585  0.6001 -0.4523 -0.5065
  125TMC2     C 1946   0.351   0.582   9.647 -0.6744  0.0600  0.5771
  125TMC2     O 1947   0.240   0.536   9.627 -0.1138  0.5038 -0.3942
  125TMC2     H 1948   0.372   0.356   9.519  1.6550 -2.7579 -2.1356
  125TMC2    H1 1949   0.602   0.639   9.739  1.6567  0.5318 -1.9131
  125TMC2    H2 1950   0.781   0.279   9.573 -0.6196 -2.0804  0.3030
  125TMC2    C7 1951   0.820   0.526   9.697  0.4320 -0.3176  0.5989
  125TMC2    C8 1952   0.562   0.208   9.440  0.3776  0.1741 -0.6878
  125TMC2    O1 1953   0.819   0.606   9.788 -0.4404 -0.3699  0.2830
  125TMC2    O2 1954   0.461   0.138   9.450 -0.1482  0.3002 -0.8162
  125TMC2    O5 1955   0.595   0.268   9.321  0.5403  0.4319 -0.3141
  125TMC2    H5 1956   0.656   0.345   9.326 -0.2889  1.1660 -1.4013
  126MPD1     C 1957   0.181   1.035   9.473  0.7927 -0.3027  0.4383
  126MPD1    C1 1958   0.312   1.047   9.501  0.0481  0.7421 -0.3513
  126MPD1    C2 1959   0.381   0.938   9.550 -0.2369  0.1984 -0.7271
  126MPD1    C3 1960   0.309   0.820   9.585 -0.1657 -0.4869  0.1271
  126MPD1    C4 1961   0.170   0.813   9.569  0.0239 -0.1158  0.9257
  126MPD1    C5 1962   0.112   0.920   9.505  0.3047 -0.1546 -0.2860
  126MPD1     H 1963   0.488   0.941   9.569 -0.3224  3.2990 -0.8355
  126MPD1    H1 1964   0.111   0.724   9.588  0.7588 -0.4153  1.8011
  126MPD1    H2 1965   0.121   1.114   9.430 -1.3731 -0.9985  2.2205
  126MPD1    H3 1966   0.010   0.913   9.469 -1.2424  3.9610  3.3980
  126MPD1     N 1967   0.387   0.715   9.630 -0.0189  0.8445 -0.2679
  126MPD1    H5 1968   0.485   0.738   9.632 -0.2085  1.6562 -0.2810
  126MPD1    N1 1969   0.384   1.157   9.454  0.2380  0.4204  0.4299
  126MPD1    H6 1970   0.468   1.160   9.511 -1.0483  2.1026  2.2422
  126MPD1    H7 1971   0.323   1.237   9.469 -1.7461 -0.8601 -0.7790
  127TMC2    C1 1972   1.428   4.401  10.302  0.8216  0.0127 -0.2173
  127TMC2    C2 1973   1.400   4.492  10.397  0.1878 -0.3222  0.0614
  127TMC2    C3 1974   1.289   4.479  10.474 -0.1297  0.8647 -0.0562
  127TMC2    C4 1975   1.349   4.293  10.290  0.5894  0.1468 -0.6168
  127TMC2    C5 1976   1.234   4.286  10.360  0.5469  0.1978 -0.0561
  127TMC2    C6 1977   1.196   4.385  10.448  0.0533  0.1178 -0.7719
  127TMC2     C 1978   1.547   4.428  10.222  0.1969  0.1877 -0.1227
  127TMC2     O 1979   1.615   4.525  10.254 -0.4542  0.4354 -0.4255
  127TMC2     H 1980   1.457   4.584  10.399 -0.0795 -0.1808  1.2025
  127TMC2    H1 1981   1.382   4.212  10.227  0.9201  1.9014 -2.7041
  127TMC2    H2 1982   1.109   4.380  10.514  1.8971  1.4295  1.7571
  127TMC2    C7 1983   1.176   4.151  10.364 -0.3362  0.1524 -0.6682
  127TMC2    C8 1984   1.254   4.579  10.572  0.4940 -0.2835  0.9799
  127TMC2    O1 1985   1.232   4.054  10.321  0.4321  0.1132  0.0860
  127TMC2    O2 1986   1.146   4.571  10.628  0.0766  0.0362  0.0356
  127TMC2    O5 1987   1.369   4.640  10.619  0.1370 -0.6507 -0.6581
  127TMC2    H5 1988   1.457   4.618  10.580 -0.2613 -1.4296 -1.1172
  128MPD2     C 1989   1.623   4.281   9.901 -0.6156  0.4612 -0.2650
  128MPD2    C1 1990   1.647   4.362  10.008  0.2315  0.1439  0.2107
  128MPD2    C2 1991   1.750   4.455   9.998 -0.5779 -0.4307 -0.9453
  128MPD2    C3 1992   1.842   4.461   9.892 -0.1643  0.0052  0.5335
  128MPD2    C4 1993   1.817   4.372   9.789  0.1437 -0.0139 -0.1870
  128MPD2    C5 1994   1.715   4.284   9.796  0.0255 -0.2594 -0.5007
  128MPD2     H 1995   1.779   4.513  10.085 -0.0347  1.4618 -2.3849
  128MPD2    H1 1996   1.889   4.377   9.708  0.2896  1.7137  0.0353
  128MPD2    H2 1997   1.544   4.207   9.903 -0.6440  0.4852 -0.6187
  128MPD2    H3 1998   1.705   4.211   9.716  2.0701  0.0655 -1.0584
  128MPD2     N 1999   1.951   4.554   9.896  0.7177  0.6672  0.1708
  128MPD2    H5 2000   1.973   4.597   9.986  1.8529 -2.4441  1.3600
  128MPD2    N1 2001   1.553   4.352  10.111  0.3560 -0.6378  0.1400
  128MPD2    H7 2002   1.479   4.284  10.096 -1.0673  1.4285 -2.4066
  129TMC2    C1 2003   0.379   0.180   2.152  0.0284 -0.3785 -0.6830
  129TMC2    C2 2004   0.428   0.155   2.276  0.1335  0.0556  0.7038
  129TMC2    C3 2005   0.342   0.116   2.372  1.3110  1.0138  0.9871
  129TMC2    C4 2006   0.244   0.163   2.120  1.1980  0.1403  0.1439
  129TMC2    C5 2007   0.158   0.140   2.227  0.5497 -1.1867  0.1324
  129TMC2    C6 2008   0.206   0.103   2.350  0.1945 -0.3396  0.5686
  129TMC2     C 2009   0.475   0.198   2.049 -0.2018 -0.8310  0.0941
  129TMC2     O 2010   0.588   0.153   2.067  0.2156 -0.9122  0.2890
  129TMC2     H 2011   0.535   0.140   2.284  0.4006  0.2312 -2.4593
  129TMC2    H1 2012   0.205   0.168   2.018 -0.7495 -0.3150  0.8598
  129TMC2    H2 2013   0.148   0.060   2.431 -2.5837 -1.9338 -2.2792
  129TMC2    C7 2014   0.015   0.115   2.201 -0.1161  0.3540 -0.6482
  129TMC2    C8 2015   0.397   0.042   2.489 -0.2702  0.0863 -0.1287
  129TMC2    O1 2016   4.719   0.088   2.088 -0.1341  0.0515  0.0723
  129TMC2    O2 2017   0.351   4.684   2.551  0.2438 -0.2939  1.0079
  129TMC2    O5 2018   0.502   0.119   2.528 -0.1123 -0.0371  0.5080
  129TMC2    H5 2019   0.512   0.205   2.482  0.7327 -1.2593 -1.6059
  130MPD2     C 2020   0.597   0.222   1.778 -0.3424 -0.4258  0.7717
  130MPD2    C1 2021   0.486   0.296   1.820  0.7972 -0.2987  0.3756
  130MPD2    C2 2022   0.433   0.375   1.726 -1.0388  0.4095  0.1203
  130MPD2    C3 2023   0.485   0.389   1.596  0.2100 -0.1841  0.5662
  130MPD2    C4 2024   0.594   0.317   1.561 -0.1119  0.8522  0.9611
  130MPD2    C5 2025   0.648   0.227   1.650  0.5560 -0.3649  0.2633
  130MPD2     H 2026   0.337   0.421   1.748  0.0241  2.4945  0.3861
  130MPD2    H1 2027   0.643   0.337   1.467 -1.5676 -0.4440 -0.0621
  130MPD2    H2 2028   0.638   0.138   1.833  0.9709 -0.4842 -0.2934
  130MPD2    H3 2029   0.735   0.168   1.623 -1.9204 -3.9663  0.2105
  130MPD2     N 2030   0.414   0.477   1.514  0.1870  0.5818  0.3319
  130MPD2    H5 2031   0.334   0.527   1.553 -1.5651 -0.7669 -1.5300
  130MPD2    N1 2032   0.422   0.271   1.944  0.0071  0.6203 -0.3647
  130MPD2    H7 2033   0.329   0.311   1.948  0.0351  0.6775 -0.2910
  131TMC2    C1 2034   3.610   4.362  10.633 -0.1098  0.0135  0.2009
  131TMC2    C2 2035   3.531   4.442  10.553  0.6736  0.6346  0.5990
  131TMC2    C3 2036   3.516   4.571  10.600  0.1350 -0.2497 -0.8497
  131TMC2    C4 2037   3.696   4.396  10.733 -0.3820  0.1188  0.0815
  131TMC2    C5 2038   3.694   4.531  10.760  0.9604  0.2946 -0.9398
  131TMC2    C6 2039   3.599   4.619  10.701  0.2919  0.8958 -0.5479
  131TMC2     C 2040   3.602   4.224  10.595  0.2634 -0.0970 -0.4547
  131TMC2     O 2041   3.701   4.154  10.621 -0.5780  0.5451  0.3990
  131TMC2     H 2042   3.479   4.408  10.464  0.3801 -0.0366  1.0295
  131TMC2    H1 2043   3.749   4.320  10.789  0.8769 -0.0702 -1.3597
  131TMC2    H2 2044   3.572   4.720  10.729 -1.9957  0.2415 -0.3800
  131TMC2    C7 2045   3.806   4.589  10.836  0.2208  0.0393 -0.9463
  131TMC2    C8 2046   3.458   4.674  10.513  0.0439 -0.2846  0.6606
  131TMC2    O1 2047   3.863   4.516  10.918  0.5025  0.7323 -0.5986
  131TMC2    O2 2048   3.495   0.055  10.514  0.2860 -0.4519  0.3447
  131TMC2    O5 2049   3.383   4.620  10.413  0.1416  0.3264 -0.8528
  131TMC2    H5 2050   3.371   4.529  10.445 -0.4284  0.8759  0.4613
  132MPD2     C 2051   3.360   4.071  10.379  0.4579  0.7796 -0.0973
  132MPD2    C1 2052   3.471   4.069  10.456 -0.1916 -0.0630  0.8841
  132MPD2    C2 2053   3.556   3.960  10.454  0.3914  0.1005 -0.6658
  132MPD2    C3 2054   3.525   3.854  10.369 -0.1641  0.1254  0.1517
  132MPD2    C4 2055   3.408   3.853  10.285  0.0596  0.1609  0.5150
  132MPD2    C5 2056   3.338   3.968  10.292 -0.3020 -0.8267  0.4968
  132MPD2     H 2057   3.650   3.962  10.507  0.1963 -0.9875 -0.2732
  132MPD2    H1 2058   3.386   3.777  10.211  1.3918  1.6946 -1.4702
  132MPD2    H2 2059   3.289   4.154  10.373 -0.4369  0.0872  0.9329
  132MPD2    H3 2060   3.260   3.971  10.217  0.6299 -0.8546 -0.4877
  132MPD2     N 2061   3.619   3.747  10.365  0.0275 -0.1809  0.3568
  132MPD2    H5 2062   3.700   3.766  10.423  0.1395 -2.6160  0.9858
  132MPD2    N1 2063   3.495   4.191  10.525 -0.0635 -0.3533  1.0855
  132MPD2    H7 2064   3.411   4.248  10.532  0.0180 -0.0384 -0.5285
  133TMC2    C1 2065   3.073   0.774   9.467 -0.0087  0.0986  0.4251
  133TMC2    C2 2066   3.183   0.738   9.536  0.2435 -0.4689  0.2264
  133TMC2    C3 2067   3.246   0.833   9.619 -0.8886  0.0608 -0.2659
  133TMC2    C4 2068   3.008   0.895   9.486 -0.3278  0.1015  0.3004
  133TMC2    C5 2069   3.073   0.980   9.572  0.3272  0.0657  0.0217
  133TMC2    C6 2070   3.193   0.956   9.635  0.2827 -1.1581 -0.1057
  133TMC2     C 2071   3.007   0.661   9.394 -0.5461  0.1260  0.8063
  133TMC2     O 2072   3.058   0.551   9.388 -0.6125  0.0579 -0.2358
  133TMC2     H 2073   3.237   0.647   9.514  0.7856  0.0907 -0.7738
  133TMC2    H1 2074   2.911   0.917   9.444 -0.3903  1.0850  0.9637
  133TMC2    H2 2075   3.237   1.045   9.678  1.7307 -2.8067  1.7881
  133TMC2    C7 2076   3.005   1.107   9.586 -0.0740  0.0666  0.1254
  133TMC2    C8 2077   3.380   0.803   9.650 -0.4392  0.7249 -0.2758
  133TMC2    O1 2078   2.936   1.144   9.494  0.4279 -0.4949  0.4507
  133TMC2    O2 2079   3.467   0.739   9.582 -0.0741 -0.0810 -0.4714
  133TMC2    O5 2080   3.402   0.865   9.766  0.2249  0.5187  0.5979
  133TMC2    H5 2081   3.320   0.907   9.800 -0.6910  0.2378 -1.2290
  134MPD2     C 2082   2.664   0.674   9.255 -0.4114 -0.0935  0.0639
  134MPD2    C1 2083   2.784   0.614   9.300 -0.7523 -0.0735 -0.3203
  134MPD2    C2 2084   2.778   0.476   9.323 -0.3949 -0.4391  0.5218
  134MPD2    C3 2085   2.666   0.393   9.299 -1.0171 -0.9387  1.1501
  134MPD2    C4 2086   2.550   0.461   9.261  0.1743  0.0445  0.4631
  134MPD2    C5 2087   2.550   0.595   9.240 -1.2831 -0.0214  0.2450
  134MPD2     H 2088   2.868   0.416   9.334  1.0592  0.8859 -3.7888
  134MPD2    H1 2089   2.458   0.408   9.241 -0.5073  1.7356 -0.8515
  134MPD2    H2 2090   2.657   0.779   9.229 -0.3420 -0.2091 -0.4386
  134MPD2    H3 2091   2.463   0.643   9.196  0.2245 -0.1303 -2.8023
  134MPD2     N 2092   2.659   0.250   9.309  0.7876 -0.3034 -0.1505
  134MPD2    H5 2093   2.561   0.223   9.302  1.4982 -2.3102 -2.2761
  134MPD2    N1 2094   2.885   0.700   9.342 -0.2571  0.5757  0.3019
  134MPD2    H7 2095   2.870   0.798   9.318  1.6531  0.9949  0.7544
  135TMC2    C1 2096   0.576   1.060  10.159  0.8783  0.0054 -0.3967
  135TMC2    C2 2097   0.496   1.086  10.264 -0.3190 -0.5214  0.0887
  135TMC2    C3 2098   0.517   1.021  10.384 -0.5377 -0.5684 -0.7631
  135TMC2    C4 2099   0.668   0.961  10.165  0.0204 -0.7120 -0.6272
  135TMC2    C5 2100   0.676   0.890  10.277  0.5214 -0.8212  0.5773
  135TMC2    C6 2101   0.602   0.912  10.389  0.7644  0.0924  0.6702
  135TMC2     C 2102   0.585   1.155  10.049 -0.2460  0.0466 -0.0176
  135TMC2     O 2103   0.561   1.272  10.068  0.0688 -0.4128 -0.2914
  135TMC2     H 2104   0.442   1.180  10.253  0.2663 -0.4477 -2.1267
  135TMC2    H1 2105   0.735   0.934  10.084 -0.6452  0.0845 -1.4510
  135TMC2    H2 2106   0.615   0.853  10.480 -0.3619  0.7015  1.2236
  135TMC2    C7 2107   0.775   0.787  10.284 -0.4933  0.3651 -0.2585
  135TMC2    C8 2108   0.532   1.112  10.499  0.6112  0.1865  0.1077
  135TMC2    O1 2109   0.881   0.804  10.229 -0.2967 -0.6418 -0.3494
  135TMC2    O2 2110   0.610   1.082  10.586 -0.1400 -0.2452 -0.7071
  135TMC2    O5 2111   0.407   1.152  10.526 -0.3894 -0.2066  0.5924
  135TMC2    H5 2112   0.341   1.152  10.454 -1.5029  1.8237  1.6005
  136MPD2     C 2113   0.672   1.268   9.777 -0.9764  0.3783  0.1835
  136MPD2    C1 2114   0.645   1.140   9.805  0.1523  0.1604 -0.3202
  136MPD2    C2 2115   0.676   1.047   9.710 -0.0257 -0.0246 -0.8558
  136MPD2    C3 2116   0.747   1.084   9.593 -0.9444  0.8917 -0.1879
  136MPD2    C4 2117   0.774   1.220   9.567 -0.3322  0.5072 -0.8566
  136MPD2    C5 2118   0.731   1.305   9.659  0.1521  0.1400 -0.4221
  136MPD2     H 2119   0.668   0.943   9.740 -1.7497  0.7873  1.4694
  136MPD2    H1 2120   0.834   1.247   9.481 -0.2918  0.0389 -0.9729
  136MPD2    H2 2121   0.630   1.350   9.835 -0.2831  1.6522 -1.1146
  136MPD2    H3 2122   0.735   1.412   9.642 -1.0099 -0.1647 -2.6633
  136MPD2     N 2123   0.786   0.992   9.497 -0.5384 -0.1850  0.0903
  136MPD2    H5 2124   0.838   1.033   9.420 -2.1766 -0.4638 -1.1466
  136MPD2    N1 2125   0.610   1.087   9.933 -0.1437  0.3423 -0.9760
  136MPD2    H7 2126   0.608   0.986   9.931 -1.5893  0.3573 -0.3319
  137TMC2    C1 2127   4.393   0.014   9.519 -0.4791 -0.5267  0.0006
  137TMC2    C2 2128   4.366   0.034   9.390 -0.2533  0.5953  0.3879
  137TMC2    C3 2129   4.245   0.090   9.363  0.7562 -0.5265  0.4663
  137TMC2    C4 2130   4.320   0.046   9.630 -0.1156 -0.0388  0.3037
  137TMC2    C5 2131   4.195   0.092   9.588 -0.2689 -0.4953  0.0603
  137TMC2    C6 2132   4.159   0.112   9.461 -0.4515  0.0354 -0.1145
  137TMC2     C 2133   4.520   4.680   9.552  0.0789 -0.8983 -0.4290
  137TMC2     O 2134   4.532   4.626   9.659 -0.0403  0.1710  0.4152
  137TMC2     H 2135   4.432   4.737   9.311 -1.2837 -0.4188 -0.0355
  137TMC2    H1 2136   4.347   0.019   9.731  0.0320  1.5122  0.6818
  137TMC2    H2 2137   4.060   0.145   9.433 -0.2026 -0.8554 -2.0273
  137TMC2    C7 2138   4.092   0.097   9.698  0.3432 -0.1191  0.3980
  137TMC2    C8 2139   4.193   0.110   9.221 -0.3912 -0.2014  0.2537
  137TMC2    O1 2140   3.971   0.095   9.671 -0.1889 -0.1280  0.0844
  137TMC2    O2 2141   4.076   0.141   9.196 -0.3088  0.2798 -0.6172
  137TMC2    O5 2142   4.306   0.150   9.159  1.0512 -0.1176 -0.3117
  137TMC2    H5 2143   4.381   0.140   9.221  1.0109 -1.9712 -0.5646
  138MPD2     C 2144   0.087   4.676   9.353 -0.2176 -0.1892 -0.7373
  138MPD2    C1 2145   0.006   4.636   9.457 -0.4124  0.4362  0.0799
  138MPD2    C2 2146   0.052   4.540   9.540 -0.3164 -0.5290  0.4020
  138MPD2    C3 2147   0.176   4.480   9.530 -0.0615 -0.1471  0.0205
  138MPD2    C4 2148   0.256   4.526   9.426  0.4741 -0.3827  0.2471
  138MPD2    C5 2149   0.212   4.619   9.339  0.1192 -0.1165  0.1295
  138MPD2     H 2150   4.730   4.520   9.629  0.5240 -1.0873  0.8340
  138MPD2    H1 2151   0.359   4.494   9.420  0.0216 -1.7895  0.1012
  138MPD2    H2 2152   0.058   0.009   9.275 -1.2551  1.6933  1.3427
  138MPD2    H3 2153   0.286   4.643   9.263 -0.5104  0.7088 -0.2237
  138MPD2     N 2154   0.213   4.393   9.627 -0.1349 -0.1028  0.3386
  138MPD2    H5 2155   0.151   4.405   9.707 -0.8619 -2.0015  0.0594
  138MPD2    N1 2156   4.623   4.704   9.464 -0.2198 -0.0827 -0.5179
  138MPD2    H7 2157   4.611   0.038   9.393  0.6251  0.9338  0.3478
  139TMC2    C1 2158   0.636   3.346  13.713  0.3953 -0.4076  0.4845
  139TMC2    C2 2159   0.581   3.239  13.651  0.3368 -1.0738  0.2249
  139TMC2    C3 2160   0.467   3.255  13.586  0.6080  0.7504  0.1509
  139TMC2    C4 2161   0.581   3.470  13.704 -0.1246  0.4227 -0.1730
  139TMC2    C5 2162   0.474   3.487  13.616 -0.4866 -0.7288  0.2038
  139TMC2    C6 2163   0.420   3.380  13.554 -0.3429 -0.0801 -0.3002
  139TMC2     C 2164   0.775   3.352  13.727 -0.6074  0.4410 -0.6535
  139TMC2     O 2165   0.822   3.438  13.804 -0.5420  0.2083  0.7323
  139TMC2     H 2166   0.622   3.140  13.667 -2.0314 -1.7035  2.3297
  139TMC2    H1 2167   0.613   3.546  13.774 -2.0475 -1.2008  2.4655
  139TMC2    H2 2168   0.328   3.394  13.498  0.5956 -0.4323 -1.9556
  139TMC2    C7 2169   0.418   3.621  13.613  0.2166  0.0541  0.0360
  139TMC2    C8 2170   0.392   3.135  13.556 -0.3288  0.2345  0.4212
  139TMC2    O1 2171   0.422   3.690  13.715  0.1030 -0.2416  0.6326
  139TMC2    O2 2172   0.371   3.048  13.635 -0.0963  0.0304  0.0736
  139TMC2    O5 2173   0.380   3.139  13.423 -0.1033  0.0897  0.4367
  139TMC2    H5 2174   0.419   3.221  13.385 -1.5405 -0.4294 -2.1937
  140MPD2     C 2175   1.062   3.269  13.770  0.0575  0.1220 -0.0790
  140MPD2    C1 2176   0.978   3.230  13.660 -0.7687  0.6118  0.5674
  140MPD2    C2 2177   1.042   3.157  13.561 -0.0714  0.5014  0.5604
  140MPD2    C3 2178   1.175   3.127  13.556 -0.1202  0.3984 -0.0448
  140MPD2    C4 2179   1.254   3.155  13.668 -0.3324 -0.0210  0.7946
  140MPD2    C5 2180   1.189   3.219  13.768 -0.4726 -0.2043  0.3952
  140MPD2     H 2181   0.979   3.112  13.485 -0.7956  2.0434  0.2443
  140MPD2    H1 2182   1.359   3.129  13.675 -0.2278  0.4447  0.9006
  140MPD2    H2 2183   1.021   3.319  13.857  2.0550  1.6252  0.0026
  140MPD2    H3 2184   1.249   3.226  13.858 -0.5931 -2.3914  0.6501
  140MPD2     N 2185   1.220   3.060  13.441  0.1662  0.6940 -0.4862
  140MPD2    H5 2186   1.146   3.058  13.372  1.3770 -0.9062 -1.7404
  140MPD2    N1 2187   0.839   3.253  13.658 -0.3168 -0.4531 -0.0733
  140MPD2    H7 2188   0.787   3.214  13.581  3.2639 -1.2931 -2.0400
  141TMC2    C1 2189   1.693   0.188  13.827 -0.2595 -0.1671 -0.4427
  141TMC2    C2 2190   1.562   0.168  13.800  0.0116 -0.1686 -0.5652
  141TMC2    C3 2191   1.468   0.223  13.889 -0.1982  0.4836 -0.2924
  141TMC2    C4 2192   1.742   0.246  13.939 -0.0576 -0.3234 -0.5579
  141TMC2    C5 2193   1.643   0.299  14.023 -0.1754  0.0437 -0.7783
  141TMC2    C6 2194   1.505   0.290  13.999 -0.1869 -0.2939  0.7119
  141TMC2     C 2195   1.788   0.167  13.715 -0.2932  0.6490 -0.2538
  141TMC2     O 2196   1.886   0.239  13.710 -0.0761 -0.1667 -0.1294
  141TMC2     H 2197   1.523   0.107  13.720  0.4164  1.4895 -2.0372
  141TMC2    H1 2198   1.848   0.254  13.964  0.2310  1.0640 -2.2678
  141TMC2    H2 2199   1.425   0.336  14.056  1.6322  2.0795  1.3836
  141TMC2    C7 2200   1.690   0.413  14.101  1.1330  0.0692 -0.2893
  141TMC2    C8 2201   1.332   0.214  13.856 -0.7457 -0.1989 -0.3791
  141TMC2    O1 2202   1.612   0.502  14.125 -0.2590 -0.7952  0.2521
  141TMC2    O2 2203   1.246   0.206  13.946 -0.0667  0.3518 -0.2674
  141TMC2    O5 2204   1.317   0.273  13.737 -0.0911 -0.5767 -1.0658
  141TMC2    H5 2205   1.394   0.309  13.687  0.3442  2.8556  2.0103
  142TMC2    C1 2206   4.266   2.675   9.898 -0.2384 -0.4946 -0.1800
  142TMC2    C2 2207   4.230   2.638   9.769 -0.1440 -1.4295 -0.0398
  142TMC2    C3 2208   4.306   2.679   9.665 -0.3319  0.9608  0.0706
  142TMC2    C4 2209   4.382   2.732   9.925  0.0402 -0.0927  0.2771
  142TMC2    C5 2210   4.457   2.767   9.815  0.4915 -0.3380  0.2975
  142TMC2    C6 2211   4.421   2.752   9.684  0.0037 -0.3238 -0.1139
  142TMC2     C 2212   4.174   2.647  10.007  0.5038 -0.0045 -0.3851
  142TMC2     O 2213   4.098   2.564   9.972 -1.0125  0.1626  0.5948
  142TMC2     H 2214   4.148   2.572   9.742 -0.1846 -0.6842 -1.7881
  142TMC2    H1 2215   4.411   2.760  10.025 -1.4944 -1.8294  1.2158
  142TMC2    H2 2216   4.481   2.785   9.600 -1.3671 -0.2291 -1.0553
  142TMC2    C7 2217   4.559   2.871   9.831  0.9088  0.7072  0.1626
  142TMC2    C8 2218   4.276   2.636   9.529 -0.2242  0.6652  0.0062
  142TMC2    O1 2219   4.560   2.956   9.745  0.1817  0.1090 -0.4147
  142TMC2    O2 2220   4.250   2.522   9.502  0.8805  0.2656 -0.3893
  142TMC2    O5 2221   4.291   2.730   9.435 -0.4394 -0.1119  0.4817
  142TMC2    H5 2222   4.306   2.814   9.484  0.8099  0.7635 -1.4215
  143MPD2     C 2223   3.904   2.724  10.441  0.0113  0.2343  0.3943
  143MPD2    C1 2224   3.881   2.636  10.336 -0.2254  0.2521 -0.1615
  143MPD2    C2 2225   3.973   2.634  10.227 -0.4291 -0.4855 -0.2695
  143MPD2    C3 2226   4.072   2.734  10.217 -0.2630 -0.1979 -0.1045
  143MPD2    C4 2227   4.076   2.832  10.317  0.3303  0.2240  0.1340
  143MPD2    C5 2228   3.996   2.829  10.432 -0.1276 -0.1926 -0.6602
  143MPD2     H 2229   3.967   2.556  10.151 -3.1275  1.2169 -1.7848
  143MPD2    H1 2230   4.162   2.897  10.323 -0.1875  0.9926 -0.8240
  143MPD2    H2 2231   3.844   2.721  10.532 -0.0677  2.3285  0.4062
  143MPD2    H3 2232   4.016   2.890  10.519  1.4569  0.3610 -1.4098
  143MPD2     N 2233   4.175   2.733  10.119  0.0032  0.4538 -0.0840
  143MPD2    H5 2234   4.246   2.805  10.126  1.5662 -1.0200 -0.9383
  143MPD2    N1 2235   3.776   2.544  10.354  0.3444 -0.5245  0.3385
  143MPD2    H7 2236   3.725   2.559  10.440  1.6811 -1.4110  1.2911
  144TMC2    C1 2237   2.738   2.198   0.571  0.0972  0.5035 -0.2781
  144TMC2    C2 2238   2.788   2.073   0.579 -0.1432 -0.1380  0.0209
  144TMC2    C3 2239   2.923   2.051   0.584  0.4236 -1.0437  0.3863
  144TMC2    C4 2240   2.821   2.311   0.555 -0.6573 -0.7237  0.7452
  144TMC2    C5 2241   2.953   2.279   0.534  0.0110  0.7600  0.0731
  144TMC2    C6 2242   3.009   2.159   0.551  0.6169 -0.0989 -0.4301
  144TMC2     C 2243   2.598   2.207   0.527 -0.2160 -0.3670 -0.0029
  144TMC2     O 2244   2.550   2.113   0.466  0.5052 -0.4558  0.5211
  144TMC2     H 2245   2.724   1.988   0.602 -1.5738  1.1055  0.5615
  144TMC2    H1 2246   2.772   2.398   0.513 -0.0953 -0.3829  0.7918
  144TMC2    H2 2247   3.117   2.158   0.547  0.7624 -0.3829  3.3095
  144TMC2    C7 2248   3.039   2.394   0.535  1.2744  0.5525  0.2039
  144TMC2    C8 2249   2.955   1.921   0.526 -0.0620 -0.2434 -1.0494
  144TMC2    O1 2250   3.160   2.377   0.515  0.3995  0.5309 -0.0615
  144TMC2    O2 2251   2.865   1.850   0.479 -0.2271 -0.4529 -0.2709
  144TMC2    O5 2252   3.080   1.930   0.476  0.1773 -0.3860 -0.3847
  144TMC2    H5 2253   3.099   1.876   0.397  1.2024 -1.1315  0.3741
  145MPD2     C 2254   2.189   2.506   0.484  0.1750 -0.1601  0.0852
  145MPD2    C1 2255   2.223   2.384   0.424  0.1736 -0.1134  0.7294
  145MPD2    C2 2256   2.337   2.316   0.453  0.3268  0.1247  0.5874
  145MPD2    C3 2257   2.416   2.369   0.554 -0.1001 -0.1378 -0.7170
  145MPD2    C4 2258   2.383   2.490   0.618 -0.1758 -0.3082  0.3209
  145MPD2    C5 2259   2.276   2.562   0.576 -0.3968  0.3840 -0.5231
  145MPD2     H 2260   2.356   2.221   0.404  1.4226  1.2217 -1.0970
  145MPD2    H1 2261   2.446   2.521   0.701 -0.6838  1.7684 -0.0591
  145MPD2    H2 2262   2.102   2.568   0.463  1.1535  1.2987  0.3769
  145MPD2    H3 2263   2.260   2.663   0.611  1.1101  0.5470 -0.3058
  145MPD2     N 2264   2.540   2.315   0.586 -0.4316  0.4305 -0.0962
  145MPD2    H5 2265   2.582   2.359   0.667 -1.7673  2.4763 -0.5198
  145MPD2    N1 2266   2.142   2.317   0.326  0.5092  0.0345  0.8313
  145MPD2    H7 2267   2.168   2.220   0.308  1.8793  0.4450  0.6124
  146TMC2    C1 2268   2.915   1.084  13.361 -0.3438  0.0936 -0.3429
  146TMC2    C2 2269   2.887   1.157  13.245 -0.6442  0.2913 -0.4340
  146TMC2    C3 2270   2.872   1.085  13.122  0.1537 -0.1466  0.2351
  146TMC2    C4 2271   2.935   0.947  13.349  0.5622 -0.1808 -0.3574
  146TMC2    C5 2272   2.914   0.883  13.232 -0.2847  0.5396 -0.0890
  146TMC2    C6 2273   2.879   0.947  13.118  0.5459  0.8978  0.8061
  146TMC2     C 2274   2.948   1.151  13.486  0.7807 -0.0504 -0.2367
  146TMC2     O 2275   2.898   1.266  13.499  0.3439 -0.1079 -0.0297
  146TMC2     H 2276   2.865   1.263  13.259 -0.6973  0.2980 -0.5711
  146TMC2    H1 2277   2.951   0.888  13.439  1.0560  0.0594 -0.2886
  146TMC2    H2 2278   2.854   0.887  13.032 -0.3477  0.3359  1.4703
  146TMC2    C7 2279   2.928   0.740  13.218  0.5801 -0.3935 -0.7697
  146TMC2    C8 2280   2.806   1.162  13.012  0.7487  0.3457 -0.1725
  146TMC2    O1 2281   2.867   0.691  13.121 -0.0481  0.1350 -0.2342
  146TMC2    O2 2282   2.763   1.275  13.030  0.4567  0.1739  0.2468
  146TMC2    O5 2283   2.743   1.070  12.938 -0.3241  0.2218 -0.1417
  146TMC2    H5 2284   2.804   1.006  12.895 -2.2221 -3.0069  2.0666
  147MPD2     C 2285   3.165   0.292  13.264 -0.5434 -0.2115 -0.1502
  147MPD2    C1 2286   3.247   0.388  13.315 -0.8522 -0.1639  0.0261
  147MPD2    C2 2287   3.200   0.513  13.342 -0.6914 -0.4623  0.7220
  147MPD2    C3 2288   3.075   0.547  13.286  0.0914 -0.3885  0.5097
  147MPD2    C4 2289   3.001   0.455  13.213 -0.2890 -0.0299 -0.5010
  147MPD2    C5 2290   3.044   0.327  13.208 -0.0254 -0.0258  0.0028
  147MPD2     H 2291   3.257   0.587  13.397  2.1819 -1.3959 -0.9931
  147MPD2    H1 2292   2.905   0.474  13.167 -0.5879 -1.8610 -0.6087
  147MPD2    H2 2293   3.204   0.192  13.248 -1.2140 -0.4337 -0.4069
  147MPD2    H3 2294   2.977   0.256  13.161  0.2496 -1.3503  1.6156
  147MPD2     N 2295   3.031   0.685  13.295  0.1688 -0.0069 -0.5612
  147MPD2    H5 2296   3.091   0.746  13.351  2.4178 -0.4168 -2.4983
  147MPD2    N1 2297   3.376   0.341  13.344 -0.7722  0.0370  0.2790
  147MPD2    H7 2298   3.392   0.241  13.338 -6.0075 -0.7813  0.1901
  148TMC2    C1 2299   3.389   4.507  11.000  0.3054 -0.0509 -0.5000
  148TMC2    C2 2300   3.455   4.589  11.087 -0.1875 -0.8165 -1.0651
  148TMC2    C3 2301   3.567   4.542  11.155  0.1982  0.5947 -0.6548
  148TMC2    C4 2302   3.436   4.382  10.968 -0.4074  0.9261 -0.2955
  148TMC2    C5 2303   3.545   4.332  11.043 -0.6905  0.6152 -0.4009
  148TMC2    C6 2304   3.614   4.415  11.125  0.5840  0.0917  0.3666
  148TMC2     C 2305   3.322   4.576  10.891 -0.0543 -0.7125  0.2274
  148TMC2     O 2306   3.352   4.690  10.860  0.2481 -0.8718 -0.4059
  148TMC2     H 2307   3.417   4.690  11.094 -1.6233 -1.2331 -2.6372
  148TMC2    H1 2308   3.387   4.326  10.889  0.5499  0.4253 -0.5242
  148TMC2    H2 2309   3.705   4.387  11.177  0.4456 -3.2007 -1.1259
  148TMC2    C7 2310   3.612   4.207  11.013  0.0485  0.2908  0.3879
  148TMC2    C8 2311   3.621   4.608  11.269  1.0792  0.5931 -0.0454
  148TMC2    O1 2312   3.727   4.199  11.056  0.2099  0.2609 -0.0742
  148TMC2    O2 2313   3.740   4.600  11.304  0.7792 -0.0004 -0.0527
  148TMC2    O5 2314   3.518   4.665  11.329  0.3195 -0.2644  0.2011
  148TMC2    H5 2315   3.435   4.659  11.277 -0.3706  1.0404  1.1217
  149MPD2     C 2316   3.141   4.646  10.666 -0.1503 -0.2790 -0.2033
  149MPD2    C1 2317   3.129   4.539  10.749  0.5440  0.5215 -0.6140
  149MPD2    C2 2318   3.030   4.449  10.723  1.0977  0.0096  0.5859
  149MPD2    C3 2319   2.948   4.463  10.616 -0.2556  0.5811 -0.2929
  149MPD2    C4 2320   2.949   4.583  10.549  0.2979 -0.6837  0.0040
  149MPD2    C5 2321   3.042   4.671  10.568 -0.4808 -0.1909 -0.5746
  149MPD2     H 2322   3.021   4.363  10.789  0.3456  0.8604  1.5890
  149MPD2    H1 2323   2.887   4.601  10.462  1.4367 -0.3525 -0.7423
  149MPD2    H2 2324   3.213   4.727  10.678 -0.2974 -0.3555  1.2414
  149MPD2    H3 2325   3.034   0.033  10.525 -2.4062  0.3737  1.0702
  149MPD2     N 2326   2.862   4.361  10.558  0.1757  0.2631  0.0049
  149MPD2    H5 2327   2.803   4.381  10.479  0.0329 -0.2921 -0.0315
  149MPD2    N1 2328   3.214   4.506  10.856  0.3066 -0.3293  0.6141
  149MPD2    H7 2329   3.191   4.425  10.913 -2.3490 -0.9373 -1.2894
  150TMC2    C1 2330   0.435   3.551  12.079  0.4038  0.3631  0.3800
  150TMC2    C2 2331   0.418   3.571  11.943  0.1891  0.0972  0.3803
  150TMC2    C3 2332   0.513   3.637  11.872  0.3910  0.8600 -0.2608
  150TMC2    C4 2333   0.553   3.583  12.138 -0.1365 -1.0254 -0.4069
  150TMC2    C5 2334   0.648   3.650  12.066 -0.3659 -0.1334  0.1478
  150TMC2    C6 2335   0.635   3.679  11.928 -0.0143 -1.0498 -0.3000
  150TMC2     C 2336   0.322   3.513  12.171 -0.1479 -0.1401  0.6080
  150TMC2     O 2337   0.349   3.512  12.286  0.1982 -0.4010 -0.1541
  150TMC2     H 2338   0.325   3.561  11.888  0.2623 -1.1357  0.4659
  150TMC2    H1 2339   0.569   3.584  12.246  1.1449  1.0649 -0.6053
  150TMC2    H2 2340   0.702   3.747  11.878  0.0616 -0.2836  0.8419
  150TMC2    C7 2341   0.778   3.680  12.130 -0.5684  0.1172 -1.8537
  150TMC2    C8 2342   0.502   3.648  11.729 -0.1527  0.1202 -0.4223
  150TMC2    O1 2343   0.833   3.787  12.099  0.2506 -0.0010 -0.0495
  150TMC2    O2 2344   0.571   3.723  11.660  0.7097  0.2994  0.4835
  150TMC2    O5 2345   0.451   3.529  11.691  0.8092  0.3898 -0.8628
  150TMC2    H5 2346   0.403   3.480  11.761  1.5982 -0.3517 -0.8449
  151MPD2     C 2347   4.587   3.322  12.231 -0.9253 -0.3577  0.5676
  151MPD2    C1 2348   4.626   3.297  12.100 -0.3193 -0.3313  0.2937
  151MPD2    C2 2349   0.016   3.336  12.057 -0.4404 -0.5918 -0.0215
  151MPD2    C3 2350   0.105   3.395  12.149 -0.0734  0.5371 -0.1547
  151MPD2    C4 2351   0.063   3.417  12.281 -0.1478 -0.1099 -0.1113
  151MPD2    C5 2352   4.672   3.380  12.322  0.1682 -0.8275  0.1152
  151MPD2     H 2353   0.068   3.301  11.968  0.7527 -0.7764  0.7445
  151MPD2    H1 2354   0.129   3.462  12.355 -1.0874  2.9400 -1.1046
  151MPD2    H2 2355   4.483   3.308  12.259 -1.5119  2.6423 -0.0555
  151MPD2    H3 2356   4.637   3.401  12.422  1.2521 -0.8179  0.4988
  151MPD2     N 2357   0.228   3.440  12.105  0.7462 -0.2372  0.2049
  151MPD2    H5 2358   0.252   3.419  12.009  2.1700 -1.1950  0.7553
  151MPD2    N1 2359   4.528   3.242  12.015  0.5197 -0.4137  0.8494
  151MPD2    H7 2360   4.448   3.199  12.059 -1.7147 -0.2421 -3.0002
  152TMC2    C1 2361   0.621   3.184  12.965  0.4184 -0.2250 -0.0061
  152TMC2    C2 2362   0.673   3.102  13.063 -0.6427 -0.3259 -0.7532
  152TMC2    C3 2363   0.780   3.148  13.136 -0.2630  0.4112  0.6308
  152TMC2    C4 2364   0.683   3.307  12.929  0.2686 -0.2088 -0.0017
  152TMC2    C5 2365   0.790   3.339  13.001 -0.1519 -0.6832 -0.0148
  152TMC2    C6 2366   0.852   3.257  13.096  0.1054 -0.4435  0.3612
  152TMC2     C 2367   0.472   3.189  12.951  0.8467 -0.2351 -0.6494
  152TMC2     O 2368   0.431   3.277  12.876  0.3272  0.7757  0.1969
  152TMC2     H 2369   0.641   3.002  13.088 -0.9442 -0.2455 -0.8253
  152TMC2    H1 2370   0.642   3.384  12.865  2.1786  0.6658 -0.1993
  152TMC2    H2 2371   0.934   3.285  13.162 -0.3905 -0.6561  1.0678
  152TMC2    C7 2372   0.851   3.469  12.975 -0.1846  0.3067 -0.2086
  152TMC2    C8 2373   0.818   3.063  13.243 -0.1996 -0.2083 -0.4977
  152TMC2    O1 2374   0.785   3.544  12.906 -0.0465 -0.9263  0.0374
  152TMC2    O2 2375   0.920   2.996  13.228 -0.2197  0.5882 -0.3374
  152TMC2    O5 2376   0.770   3.127  13.353 -0.1046 -0.5599 -0.0118
  152TMC2    H5 2377   0.692   3.183  13.332  0.5311  0.6240  0.7853
  153MPD2     C 2378   0.216   2.998  13.138 -0.7669  0.5854 -0.4401
  153MPD2    C1 2379   0.272   3.101  13.063  0.1339  0.1153 -0.3922
  153MPD2    C2 2380   0.189   3.210  13.023  0.1894  0.2605  0.1665
  153MPD2    C3 2381   0.056   3.219  13.063 -0.1744  0.8504 -0.4745
  153MPD2    C4 2382   0.003   3.115  13.138  0.0404  0.1576 -0.2632
  153MPD2    C5 2383   0.080   3.011  13.168 -0.0157 -0.4725  0.4822
  153MPD2     H 2384   0.230   3.295  12.969 -1.3667  0.7350 -0.2656
  153MPD2    H1 2385   4.635   3.114  13.164  0.7812  0.1716  2.8125
  153MPD2    H2 2386   0.268   2.916  13.185 -3.6487 -1.3277 -0.6076
  153MPD2    H3 2387   0.046   2.924  13.224  0.1282 -0.6401  0.3077
  153MPD2     N 2388   4.712   3.332  13.027 -0.0382  0.4515 -1.2496
  153MPD2    H5 2389   0.018   3.397  12.962  0.7211  0.8945 -0.3106
  153MPD2    N1 2390   0.409   3.094  13.030 -0.2939 -0.2747  0.4957
  153MPD2    H7 2391   0.459   3.011  13.060  0.5993  0.2245  0.3968
  154TMC2    C1 2392   2.612   3.149   0.354  0.0623  0.3475  0.1386
  154TMC2    C2 2393   2.743   3.146   0.393 -0.7596 -0.0105  0.0593
  154TMC2    C3 2394   2.826   3.062   0.328  0.4119  0.3249  0.1376
  154TMC2    C4 2395   2.572   3.066   0.259 -0.7898  0.5236  0.2414
  154TMC2    C5 2396   2.661   2.987   0.198 -0.1782  0.0191 -0.6156
  154TMC2    C6 2397   2.793   2.981   0.227  0.0760  0.2734 -0.0349
  154TMC2     C 2398   2.533   3.249   0.416  0.4572 -0.8727  0.5563
  154TMC2     O 2399   2.584   3.320   0.503  0.1800  0.3752 -0.2972
  154TMC2     H 2400   2.784   3.211   0.469 -0.7141 -0.7928  0.7062
  154TMC2    H1 2401   2.466   3.044   0.250 -0.6483  0.2117 -0.7107
  154TMC2    H2 2402   2.862   2.919   0.171  0.4518  1.1085 -0.5033
  154TMC2    C7 2403   2.608   2.903   0.090 -0.1158  0.3441 -0.2641
  154TMC2    C8 2404   2.968   3.083   0.353  1.0381 -0.3997  0.3897
  154TMC2    O1 2405   2.501   2.942   0.040 -0.4339 -0.1626 -0.1336
  154TMC2    O2 2406   3.007   3.202   0.352 -0.4655  0.7087 -0.0436
  154TMC2    O5 2407   3.034   2.965   0.344 -0.6802  0.5405 -0.5312
  154TMC2    H5 2408   2.967   2.893   0.343  2.9013 -2.7920 -0.1502
  155MPD2     C 2409   2.205   3.309   0.294  0.2577 -0.6807  1.1827
  155MPD2    C1 2410   2.314   3.330   0.372 -0.2065  0.1268 -0.5946
  155MPD2    C2 2411   2.309   3.432   0.473 -0.1396  0.0757 -0.0767
  155MPD2    C3 2412   2.197   3.508   0.481 -0.5660 -0.2582  0.1392
  155MPD2    C4 2413   2.093   3.491   0.396 -0.2914 -1.1286 -0.0774
  155MPD2    C5 2414   2.095   3.391   0.301 -0.1187  0.1672 -0.3686
  155MPD2     H 2415   2.398   3.453   0.532 -0.6249  1.4604  0.1557
  155MPD2    H1 2416   2.002   3.548   0.406  1.2448  0.9485  2.0580
  155MPD2    H2 2417   2.193   3.222   0.230 -1.1193  0.0404  0.4710
  155MPD2    H3 2418   2.014   3.361   0.236 -1.8958  1.8748  1.0495
  155MPD2     N 2419   2.186   3.609   0.580  0.0648  0.1650  0.7834
  155MPD2    H5 2420   2.261   3.606   0.648  1.4426 -1.3107 -0.8044
  155MPD2    N1 2421   2.422   3.253   0.343  0.2224 -0.2470 -0.1048
  155MPD2    H7 2422   2.418   3.203   0.255  0.2754 -0.5505  0.0631
  156TMC2    C1 2423   0.835   0.935  11.723  0.1532 -0.3447 -0.5237
  156TMC2    C2 2424   0.825   0.800  11.715  1.0151  0.5471 -0.1282
  156TMC2    C3 2425   0.705   0.749  11.673 -0.0421  0.1840 -0.2312
  156TMC2    C4 2426   0.739   1.013  11.675  0.3667 -0.0032  0.1699
  156TMC2    C5 2427   0.625   0.959  11.632  0.8667  0.1525 -0.1197
  156TMC2    C6 2428   0.606   0.826  11.631  0.3118 -0.3200 -0.5558
  156TMC2     C 2429   0.929   0.993  11.822  0.5548  0.1000  0.0518
  156TMC2     O 2430   1.033   0.930  11.849 -0.7505  0.6040 -0.5833
  156TMC2     H 2431   0.902   0.737  11.760 -0.9943  0.4385  3.1701
  156TMC2    H1 2432   0.752   1.121  11.682  0.7171  0.0492 -1.3116
  156TMC2    H2 2433   0.520   0.781  11.581 -1.0569 -1.9428  3.2078
  156TMC2    C7 2434   0.532   1.056  11.576  0.0394  0.1695 -0.9016
  156TMC2    C8 2435   0.655   0.619  11.703 -0.2480  0.0959 -0.4970
  156TMC2    O1 2436   0.572   1.166  11.546 -0.3323  0.5491  0.0635
  156TMC2    O2 2437   0.713   0.548  11.789  0.3646  0.1461 -0.3268
  156TMC2    O5 2438   0.590   0.567  11.596  0.2065 -0.1751 -0.2239
  156TMC2    H5 2439   0.604   0.613  11.511 -0.6384 -2.0759 -1.3876
  157MPD2     C 2440   1.034   1.113  12.078  0.8317  0.0894 -0.1182
  157MPD2    C1 2441   0.906   1.134  12.024 -0.1796 -0.6854  0.3516
  157MPD2    C2 2442   0.818   1.212  12.102 -0.3703  0.4309  0.3418
  157MPD2    C3 2443   0.842   1.256  12.225  0.1707 -0.0928 -0.1108
  157MPD2    C4 2444   0.964   1.233  12.277  0.0030  0.2022 -0.4925
  157MPD2    C5 2445   1.057   1.160  12.206  0.7128 -0.0759  0.8015
  157MPD2     H 2446   0.716   1.219  12.067 -0.1266 -3.8368 -1.2408
  157MPD2    H1 2447   0.990   1.285  12.368  0.5095  1.4437 -1.3566
  157MPD2    H2 2448   1.115   1.057  12.034  1.8167  0.0462  1.7526
  157MPD2    H3 2449   1.151   1.146  12.258  0.5363  1.7069  1.5841
  157MPD2     N 2450   0.741   1.325  12.291 -0.0503  0.0513 -0.3922
  157MPD2    H5 2451   0.655   1.340  12.238 -0.0730 -0.4938 -0.5065
  157MPD2    N1 2452   0.856   1.083  11.903 -0.5737  0.3420  0.1323
  157MPD2    H7 2453   0.758   1.096  11.881 -0.4473 -0.7457 -1.0452
  158TMC2    C1 2454   1.047   4.665  13.324 -0.2325 -0.5003  0.3004
  158TMC2    C2 2455   1.061   4.631  13.193  0.0585  0.3872 -0.0357
  158TMC2    C3 2456   0.975   4.686  13.104 -0.3974 -0.6281 -0.5132
  158TMC2    C4 2457   0.944   0.009  13.369 -0.3218  0.5697  0.8187
  158TMC2    C5 2458   0.859   0.057  13.272  0.5315 -0.3409  0.2059
  158TMC2    C6 2459   0.875   0.040  13.136  0.8285  0.6213 -1.0391
  158TMC2     C 2460   1.128   4.569  13.405  0.2112 -0.0303  0.3369
  158TMC2     O 2461   1.207   4.498  13.344 -0.2081  0.1289 -0.2556
  158TMC2     H 2462   1.142   4.574  13.148  0.2966  1.2631 -0.7300
  158TMC2    H1 2463   0.928   0.030  13.474  0.8850 -0.7516  1.2570
  158TMC2    H2 2464   0.812   0.083  13.059  0.1536  1.3569 -0.0646
  158TMC2    C7 2465   0.722   0.097  13.307  0.5134 -0.0461  0.5109
  158TMC2    C8 2466   0.980   4.635  12.967  0.0001  0.0490  0.2216
  158TMC2    O1 2467   0.655   0.165  13.231  0.4356  0.4575  0.5338
  158TMC2    O2 2468   1.088   4.642  12.901 -0.3402  0.2503  0.3870
  158TMC2    O5 2469   0.860   4.601  12.924  0.1413 -0.1571  0.3590
  158TMC2    H5 2470   0.794   4.592  12.996 -1.5300 -1.2496 -1.3405
  159MPD2     C 2471   1.283   4.333  13.830 -0.8654  0.8644  0.9563
  159MPD2    C1 2472   1.221   4.455  13.864  0.5610 -0.5175 -0.5810
  159MPD2    C2 2473   1.168   4.540  13.767 -0.0980 -0.4295  0.2405
  159MPD2    C3 2474   1.194   4.504  13.635  0.1057  0.4637 -0.4646
  159MPD2    C4 2475   1.255   4.380  13.598 -0.3227 -0.1075 -0.7742
  159MPD2    C5 2476   1.302   4.301  13.699  0.1201  0.2500  0.0963
  159MPD2     H 2477   1.099   4.622  13.781 -1.2887 -1.1727 -1.3215
  159MPD2    H1 2478   1.265   4.345  13.496  0.6533 -1.0492 -0.3467
  159MPD2    H2 2479   1.325   4.269  13.907 -1.7274  0.8008  1.3725
  159MPD2    H3 2480   1.353   4.208  13.675  0.3499  0.0076  1.5381
  159MPD2     N 2481   1.114   4.582  13.541 -0.6505 -0.0342  0.0448
  159MPD2    H5 2482   1.065   4.664  13.576  0.3670  0.1243  1.0969
  159MPD2    N1 2483   1.198   4.485  14.005  0.2826  0.2270 -0.7203
  159MPD2    H7 2484   1.226   4.417  14.075 -2.3773  1.0362  1.1360
  160TMC2    C1 2485   1.326   3.792   2.315 -0.0826  0.3848  0.2397
  160TMC2    C2 2486   1.313   3.878   2.430  0.6317  0.1302  0.5184
  160TMC2    C3 2487   1.351   4.011   2.412  0.1899  0.1973  0.0889
  160TMC2    C4 2488   1.401   3.833   2.208  0.3915  0.0775  0.2075
  160TMC2    C5 2489   1.450   3.959   2.207  0.2828 -0.3829 -0.0356
  160TMC2    C6 2490   1.422   4.056   2.304 -0.0141  0.0411 -0.4958
  160TMC2     C 2491   1.220   3.689   2.300 -0.1333  0.0004 -0.4681
  160TMC2     O 2492   1.171   3.649   2.405  0.7356 -0.4704  0.6303
  160TMC2     H 2493   1.264   3.852   2.523 -0.3163 -0.1914 -0.0712
  160TMC2    H1 2494   1.417   3.767   2.123 -3.1029  1.0082 -1.1901
  160TMC2    H2 2495   1.455   4.159   2.299 -1.4542  0.4191 -1.9647
  160TMC2    C7 2496   1.503   4.021   2.084  0.2833  0.2361 -0.4297
  160TMC2    C8 2497   1.301   4.114   2.506  0.0280  0.7889 -0.3378
  160TMC2    O1 2498   1.495   4.144   2.083  0.0577  0.3164  0.5061
  160TMC2    O2 2499   1.366   4.194   2.567  0.6149  0.2497  0.0998
  160TMC2    O5 2500   1.178   4.071   2.541 -0.2010  0.1556  0.0544
  160TMC2    H5 2501   1.140   3.991   2.499  1.1504 -1.1651  1.3369
  161MPD2     C 2502   0.997   3.508   2.190 -0.2318 -0.5582 -0.0409
  161MPD2    C1 2503   1.064   3.611   2.125  0.0938 -0.0834 -0.5703
  161MPD2    C2 2504   1.008   3.666   2.009  0.2934  0.7862  0.9808
  161MPD2    C3 2505   0.887   3.618   1.963  0.3514  0.9321  0.3576
  161MPD2    C4 2506   0.830   3.509   2.023  0.7441 -0.2448  0.2139
  161MPD2    C5 2507   0.886   3.455   2.137 -0.0276  0.1313 -0.0722
  161MPD2     H 2508   1.065   3.738   1.952  1.3366  0.7712  1.9927
  161MPD2    H1 2509   0.737   3.473   1.982  1.4922 -3.6820  1.4933
  161MPD2    H2 2510   1.037   3.457   2.276  3.7000  0.7198 -1.1063
  161MPD2    H3 2511   0.833   3.377   2.190 -1.0856  0.8205 -0.1165
  161MPD2     N 2512   0.822   3.662   1.843  0.0506 -0.6031  0.5399
  161MPD2    H5 2513   0.746   3.616   1.796 -1.8767  2.8854  0.2579
  161MPD2    N1 2514   1.183   3.666   2.169  0.3639  0.4078  0.2771
  161MPD2    H7 2515   1.226   3.733   2.106 -1.5333  0.5731 -0.8519
  162TMC2    C1 2516   3.302   4.307   1.248 -0.8817 -0.1476  0.1997
  162TMC2    C2 2517   3.206   4.216   1.211  0.7182  0.4989  0.3363
  162TMC2    C3 2518   3.117   4.169   1.304  0.0791  0.1552 -1.0563
  162TMC2    C4 2519   3.302   4.356   1.377  0.0742  0.0778  0.3226
  162TMC2    C5 2520   3.199   4.318   1.467 -0.0998 -0.7105  0.2371
  162TMC2    C6 2521   3.109   4.219   1.429  0.3725  0.4449 -0.4823
  162TMC2     C 2522   3.401   4.348   1.157 -0.3033  0.4468  0.8579
  162TMC2     O 2523   3.397   4.283   1.051 -0.5203  0.2271  0.2919
  162TMC2     H 2524   3.210   4.183   1.108  0.2942  0.0850  0.4571
  162TMC2    H1 2525   3.361   4.442   1.407 -0.5430  0.8540 -0.6754
  162TMC2    H2 2526   3.040   4.173   1.500  0.6360 -0.6496 -0.9347
  162TMC2    C7 2527   3.204   4.343   1.613 -0.2483 -0.9089 -0.0695
  162TMC2    C8 2528   3.027   4.066   1.261 -1.1878  0.1468 -0.1964
  162TMC2    O1 2529   3.110   4.316   1.684  0.1890  0.8136  0.5190
  162TMC2    O2 2530   3.041   3.989   1.165  0.4046  0.4470 -0.4201
  162TMC2    O5 2531   2.913   4.062   1.339  0.0596  0.2161  0.0124
  162TMC2    H5 2532   2.908   4.123   1.415 -1.7363  1.6073 -1.2195
  163MPD2     C 2533   3.814   4.615   1.020 -0.1813 -0.0395  0.2175
  163MPD2    C1 2534   3.727   4.534   0.947  0.6261  0.3660  0.6240
  163MPD2    C2 2535   3.619   4.481   1.011 -0.3358 -0.2495  0.3137
  163MPD2    C3 2536   3.594   4.497   1.143 -0.0835 -0.5612 -0.4171
  163MPD2    C4 2537   3.682   4.567   1.212  0.8996  0.4475 -0.0615
  163MPD2    C5 2538   3.784   4.631   1.152 -0.0767 -0.4052  0.6365
  163MPD2     H 2539   3.553   4.413   0.959 -0.5499  1.3762 -1.5222
  163MPD2    H1 2540   3.666   4.569   1.319 -1.1249  0.0783 -0.3575
  163MPD2    H2 2541   3.910   4.656   0.989 -0.0970  0.5209  1.2221
  163MPD2    H3 2542   3.854   4.687   1.213 -1.2659  2.3033 -0.4695
  163MPD2     N 2543   3.490   4.432   1.210  0.5268  0.0136  0.3312
  163MPD2    H5 2544   3.474   4.463   1.306  0.8118 -1.7328  0.9561
  163MPD2    N1 2545   3.758   4.498   0.816 -0.3720  0.0983  0.2279
  163MPD2    H7 2546   3.703   4.422   0.777 -0.1368 -0.1312  0.3460
  164TMC2    C1 2547   3.937   3.790  11.122 -0.3450  1.1417 -0.1822
  164TMC2    C2 2548   4.063   3.845  11.122 -0.1727 -0.2351 -0.5758
  164TMC2    C3 2549   4.072   3.967  11.187  0.2324  0.1289  0.9277
  164TMC2    C4 2550   3.831   3.838  11.190  0.2383 -0.0159  0.5395
  164TMC2    C5 2551   3.850   3.953  11.261 -0.2615  0.2027 -0.5831
  164TMC2    C6 2552   3.965   4.022  11.254 -0.2207  0.2470  0.3497
  164TMC2     C 2553   3.924   3.653  11.071  0.2907  0.0943 -0.7962
  164TMC2     O 2554   3.838   3.587  11.127 -0.4185 -0.3812 -0.0163
  164TMC2     H 2555   4.153   3.804  11.077 -0.1202 -2.2808  1.4025
  164TMC2    H1 2556   3.743   3.774  11.198  0.8681 -0.8950  0.4853
  164TMC2    H2 2557   3.968   4.117  11.305  2.0173  1.2815 -1.6710
  164TMC2    C7 2558   3.740   4.001  11.337 -0.3018  0.7497 -0.5389
  164TMC2    C8 2559   4.189   4.052  11.158  0.0589 -0.9641  0.3651
  164TMC2    O1 2560   3.632   3.966  11.298 -0.0712  0.2953  0.2726
  164TMC2    O2 2561   4.238   4.059  11.045  0.2398 -0.3055 -0.0857
  164TMC2    O5 2562   4.261   4.068  11.269 -0.9973  0.5547 -0.0064
  164TMC2    H5 2563   4.213   4.068  11.354 -1.0754 -1.3180 -0.0446
  165TMC2    C1 2564   0.540   2.211   1.309  0.0417  0.1101  0.0175
  165TMC2    C2 2565   0.501   2.337   1.291 -0.2914  0.1376 -0.3647
  165TMC2    C3 2566   0.587   2.438   1.326 -0.5392 -0.1104 -0.5467
  165TMC2    C4 2567   0.667   2.178   1.336  0.5721  0.5787  0.6105
  165TMC2    C5 2568   0.750   2.281   1.359  0.1367 -0.1776 -0.3855
  165TMC2    C6 2569   0.712   2.413   1.357 -0.2562 -0.0147  0.3066
  165TMC2     C 2570   0.447   2.110   1.250  0.6835 -0.4395 -0.5519
  165TMC2     O 2571   0.326   2.116   1.271  0.1300  0.2969  1.0157
  165TMC2     H 2572   0.397   2.346   1.260  0.0557  1.1134 -1.2375
  165TMC2    H1 2573   0.699   2.078   1.360  0.2298  1.0033  2.8100
  165TMC2    H2 2574   0.772   2.495   1.394  0.3462  0.6341 -2.0732
  165TMC2    C7 2575   0.869   2.243   1.430  0.0773 -0.2700 -0.1138
  165TMC2    C8 2576   0.538   2.571   1.319 -0.0971 -0.0282  0.0833
  165TMC2    O1 2577   0.921   2.139   1.394  0.7918 -0.1449  0.5479
  165TMC2    O2 2578   0.603   2.660   1.374 -0.0027 -0.2214 -0.3537
  165TMC2    O5 2579   0.417   2.575   1.275 -0.1148 -0.3711  0.4874
  165TMC2    H5 2580   0.398   2.502   1.212 -0.2330  0.6153 -0.6172
  166MPD2     C 2581   0.402   1.676   0.974 -0.5880  0.4034 -0.4068
  166MPD2    C1 2582   0.304   1.761   1.020  0.2127 -0.1878 -0.0520
  166MPD2    C2 2583   0.346   1.881   1.076 -0.2140  0.2971 -0.1643
  166MPD2    C3 2584   0.474   1.909   1.105  0.1629  0.0541  1.2431
  166MPD2    C4 2585   0.573   1.829   1.049 -0.6089 -0.1217 -0.0519
  166MPD2    C5 2586   0.540   1.713   0.980 -1.0762 -0.1643 -0.8962
  166MPD2     H 2587   0.275   1.957   1.107 -1.8820 -0.5927 -1.8475
  166MPD2    H1 2588   0.678   1.843   1.068 -0.9390  0.6946  1.1734
  166MPD2    H2 2589   0.378   1.583   0.923  1.0252  0.2410 -0.8841
  166MPD2    H3 2590   0.614   1.647   0.937 -2.8304 -2.9226  0.3286
  166MPD2     N 2591   0.518   2.025   1.172  0.1835  0.2319  0.1422
  166MPD2    H5 2592   0.619   2.031   1.181  0.3426 -0.4792 -1.1157
  166MPD2    N1 2593   0.169   1.716   0.998 -0.1406 -0.0009  0.3036
  166MPD2    H7 2594   0.159   1.621   0.965 -0.3597  0.0259  0.2909
  167TMC2    C1 2595   3.873   3.932  12.882  0.3367 -0.5064  0.4657
  167TMC2    C2 2596   3.804   4.003  12.975 -0.3214 -0.2123 -0.5313
  167TMC2    C3 2597   3.725   3.939  13.067  0.4095 -1.0113 -0.3043
  167TMC2    C4 2598   3.881   3.800  12.894  0.1088  0.0640 -0.3754
  167TMC2    C5 2599   3.794   3.731  12.979  0.3038 -0.4599 -0.9327
  167TMC2    C6 2600   3.712   3.799  13.065  0.3554 -0.2315 -0.2600
  167TMC2     C 2601   3.964   4.002  12.795  0.0124  0.3774 -0.1686
  167TMC2     O 2602   4.057   3.930  12.751  0.4131  0.0017  0.3579
  167TMC2     H 2603   3.807   4.111  12.983  0.0847 -0.2837  0.3956
  167TMC2    H1 2604   3.947   3.760  12.818  0.6367  2.1872 -1.0282
  167TMC2    H2 2605   3.639   3.740  13.118  0.9128  0.0013  0.7660
  167TMC2    C7 2606   3.759   3.591  12.952  0.2780  0.2341  0.5912
  167TMC2    C8 2607   3.655   4.017  13.168 -0.4040  0.4418 -0.9264
  167TMC2    O1 2608   3.707   3.531  13.047  0.2938 -0.0069  0.0531
  167TMC2    O2 2609   3.680   4.132  13.195 -0.3825  0.4818  0.3148
  167TMC2    O5 2610   3.530   3.966  13.160 -0.1429 -0.0278  0.5210
  167TMC2    H5 2611   3.524   3.888  13.101  2.5110  0.6235 -0.6474
  168MPD2     C 2612   4.104   4.192  12.615 -0.0534  0.0380 -0.0656
  168MPD2    C1 2613   3.978   4.205  12.656 -0.3097 -0.0249  0.1895
  168MPD2    C2 2614   3.900   4.307  12.607  0.8221  0.7457 -0.4874
  168MPD2    C3 2615   3.941   4.381  12.497  0.1890  0.3197 -0.3442
  168MPD2    C4 2616   4.062   4.361  12.445  0.3187  0.6166  0.0075
  168MPD2    C5 2617   4.144   4.269  12.509 -0.3671 -0.2574 -0.0245
  168MPD2     H 2618   3.802   4.318  12.652  0.7994  0.8362 -0.5584
  168MPD2    H1 2619   4.094   4.428  12.366  1.7386  1.2308  1.0960
  168MPD2    H2 2620   4.175   4.124  12.659 -0.7254  1.0443  2.5967
  168MPD2    H3 2621   4.243   4.252  12.468 -0.6447 -1.2300 -0.3065
  168MPD2     N 2622   3.868   4.481  12.440 -0.3450 -0.1632  0.2354
  168MPD2    H5 2623   3.910   4.519  12.356 -0.8352  1.4888  0.7425
  168MPD2    N1 2624   3.915   4.126  12.758  0.2113 -0.1496 -0.4606
  168MPD2    H7 2625   3.818   4.145  12.779  0.8980  1.6476  1.1703
  169MPD1     C 2626   0.672   3.768  10.179 -1.1934  0.2985 -0.4449
  169MPD1    C1 2627   0.780   3.843  10.214 -0.5519 -0.8954 -0.3126
  169MPD1    C2 2628   0.904   3.788  10.210 -0.1748  0.8356  0.3980
  169MPD1    C3 2629   0.917   3.659  10.160  0.0559 -0.2776  0.1502
  169MPD1    C4 2630   0.808   3.582  10.128 -0.7517 -0.6733 -0.1189
  169MPD1    C5 2631   0.682   3.633  10.140 -0.8454  0.2579 -1.3384
  169MPD1     H 2632   0.990   3.850  10.229  0.8967 -0.0082 -1.6296
  169MPD1    H1 2633   0.811   3.479  10.093  1.5804 -0.3455 -0.9106
  169MPD1    H2 2634   0.570   3.804  10.175 -1.6582 -1.1378 -1.4348
  169MPD1    H3 2635   0.597   3.572  10.112 -1.4386  0.1440  0.7066
  169MPD1     N 2636   1.041   3.606  10.130 -0.4925 -0.1684 -0.8198
  169MPD1    H5 2637   1.116   3.673  10.116 -0.3775  0.4023  2.4982
  169MPD1    N1 2638   0.771   3.981  10.230 -0.6068 -0.2842 -0.1989
  169MPD1    H6 2639   0.832   4.003  10.308 -2.2993  0.0082  1.0475
  169MPD1    H7 2640   0.675   3.999  10.261 -1.2294 -2.6267 -0.7293
  170MPD1     C 2641   4.048   1.169  13.377 -0.9791  0.3820 -0.0852
  170MPD1    C1 2642   4.165   1.157  13.440 -0.7508 -0.1427  0.6008
  170MPD1    C2 2643   4.229   1.263  13.494  0.6117  0.0187 -0.2333
  170MPD1    C3 2644   4.155   1.378  13.511 -0.0002 -0.8394 -0.1520
  170MPD1    C4 2645   4.026   1.391  13.462 -0.0225  0.0532  0.6255
  170MPD1    C5 2646   3.973   1.290  13.393 -0.2580 -0.3014 -0.1518
  170MPD1     H 2647   4.336   1.268  13.510  0.4169  1.5050  0.6441
  170MPD1    H1 2648   3.964   1.479  13.475 -0.0652  0.3431 -1.4732
  170MPD1    H2 2649   4.004   1.081  13.330 -0.3466 -0.8513  1.6439
  170MPD1    H3 2650   3.868   1.295  13.366 -0.5319 -3.2007  0.3814
  170MPD1     N 2651   4.217   1.481  13.594  0.3005  0.2695 -0.1501
  170MPD1    H5 2652   4.312   1.461  13.625  0.4351  0.8794 -0.1670
  170MPD1    N1 2653   4.234   1.036  13.434 -0.6432 -0.1133  0.1635
  170MPD1    H6 2654   4.181   0.954  13.405 -0.8461 -0.4177  1.4269
  170MPD1    H7 2655   4.292   1.015  13.514  0.9329  1.7795 -0.4701
  171MPD1     C 2656   2.975   3.163  15.534  0.0761 -0.1575 -0.0656
  171MPD1    C1 2657   2.892   3.067  15.578  1.4571 -0.1778  0.1743
  171MPD1    C2 2658   2.937   2.976  15.671  0.5601  0.8017 -0.4180
  171MPD1    C3 2659   3.068   2.989  15.708  0.2809 -0.2399  0.3254
  171MPD1    C4 2660   3.149   3.090  15.662 -0.4163  0.0738  0.6727
  171MPD1    C5 2661   3.103   3.180  15.574 -0.1784  0.3929 -0.2661
  171MPD1     H 2662   2.868   2.896  15.697  0.7196 -0.3779 -3.5914
  171MPD1    H1 2663   3.253   3.102  15.691 -0.0401  1.3515 -1.1964
  171MPD1    H2 2664   2.953   3.229  15.451 -2.5528  1.2390  1.7400
  171MPD1    H3 2665   3.159   3.254  15.519 -0.1271  0.6100  0.0752
  171MPD1     N 2666   3.135   2.897  15.780 -0.5503 -0.6569  0.3865
  171MPD1    H5 2667   3.230   2.921  15.807 -0.3484  1.3844 -2.1806
  171MPD1    N1 2668   2.765   3.056  15.526  0.4267  0.1469  0.4982
  171MPD1    H6 2669   2.691   3.023  15.588  1.7641  0.6640  2.3724
  171MPD1    H7 2670   2.732   3.138  15.476  0.8159  0.8503  1.3826
  172MPD1     C 2671   2.261   1.999  17.340 -0.0067 -0.2129 -0.7571
  172MPD1    C1 2672   2.254   2.143  17.329  0.1105 -0.1594  0.4248
  172MPD1    C2 2673   2.281   2.218  17.445 -0.1882 -0.2765 -0.7808
  172MPD1    C3 2674   2.313   2.154  17.568 -0.1561 -0.4187 -0.0317
  172MPD1    C4 2675   2.311   2.015  17.570  0.3301  0.0268 -0.6233
  172MPD1    C5 2676   2.282   1.939  17.459  0.1887 -0.0129  0.0951
  172MPD1     H 2677   2.274   2.326  17.437 -0.4025 -0.0582  2.4181
  172MPD1    H1 2678   2.321   1.968  17.667  0.7503 -1.1980 -1.2591
  172MPD1    H2 2679   2.238   1.934  17.256  0.1791  0.2296 -1.1502
  172MPD1    H3 2680   2.285   1.831  17.464  0.5959 -0.0188 -0.1931
  172MPD1     N 2681   2.337   2.222  17.691  0.2965 -0.0287  0.3059
  172MPD1    H5 2682   2.372   2.165   0.021 -0.5241 -1.0657 -0.0946
  172MPD1    N1 2683   2.275   2.200  17.206  0.0933  0.3452  0.5830
  172MPD1    H6 2684   2.237   2.293  17.195 -0.7489 -0.0994 -0.2936
  172MPD1    H7 2685   2.247   2.143  17.126 -1.1165  2.5709 -0.5502
  173MPD1     C 2686   3.926   2.517  14.334  0.1820  0.2185 -0.0004
  173MPD1    C1 2687   4.003   2.408  14.316  0.5989 -0.2495  0.2444
  173MPD1    C2 2688   3.964   2.289  14.371 -0.0319  0.3785  0.0983
  173MPD1    C3 2689   3.853   2.275  14.452 -0.0791  0.7215 -0.4207
  173MPD1    C4 2690   3.764   2.380  14.466 -0.8750 -0.0530  0.3292
  173MPD1    C5 2691   3.802   2.499  14.401 -0.5467  0.9743 -0.5667
  173MPD1     H 2692   4.023   2.202  14.345  1.1356  1.3610 -0.5332
  173MPD1    H1 2693   3.671   2.377  14.522 -1.2742  0.6261 -0.2983
  173MPD1    H2 2694   3.952   2.612  14.288  0.1702 -0.4355 -1.3533
  173MPD1    H3 2695   3.739   2.586  14.418 -1.8854 -0.2516  0.6908
  173MPD1     N 2696   3.837   2.150  14.512  0.2700 -0.3426 -0.2265
  173MPD1    H5 2697   3.902   2.076  14.488  0.7785  1.4757 -4.5129
  173MPD1    N1 2698   4.120   2.429  14.245  0.5271 -0.1351 -0.3345
  173MPD1    H6 2699   4.208   2.398  14.286 -0.1289 -3.0233 -1.1252
  173MPD1    H7 2700   4.131   2.527  14.221  1.1189  0.2004  1.3278
  174MPD1     C 2701   4.507   1.805  14.646 -0.6394 -0.4161  0.1446
  174MPD1    C1 2702   4.441   1.735  14.747  0.4793  0.1533  0.7286
  174MPD1    C2 2703   4.304   1.730  14.747 -0.0035  0.5010 -0.5329
  174MPD1    C3 2704   4.236   1.771  14.636 -0.5659  0.0961  0.0018
  174MPD1    C4 2705   4.306   1.804  14.521 -0.0037  0.1778  0.2219
  174MPD1    C5 2706   4.440   1.823  14.535 -0.3925 -0.8275  0.8923
  174MPD1     H 2707   4.249   1.687  14.830 -0.8664 -0.5776 -1.6593
  174MPD1    H1 2708   4.254   1.819  14.427 -0.9118  1.4006  0.9241
  174MPD1    H2 2709   4.614   1.821  14.652 -0.4681 -1.7525  0.5806
  174MPD1    H3 2710   4.490   1.864  14.448  1.5115 -1.7766  1.5286
  174MPD1     N 2711   4.096   1.775  14.631 -0.4020  0.0833  0.2594
  174MPD1    H5 2712   4.060   1.816  14.546  0.3527  0.2552  0.0195
  174MPD1    N1 2713   4.505   1.700  14.869 -0.2892  0.0006  0.2536
  174MPD1    H6 2714   4.475   1.609  14.904  2.5538 -1.0543 -0.0479
  174MPD1    H7 2715   4.605   1.686  14.856 -0.1838  0.2053  0.8896
  175MPD1     C 2716   1.995   3.081  15.491  0.9913  0.3640  0.9725
  175MPD1    C1 2717   2.037   2.965  15.549  0.2764  0.0742 -0.7846
  175MPD1    C2 2718   2.039   2.956  15.692  0.5501 -0.6203  0.2557
  175MPD1    C3 2719   2.006   3.062  15.770 -0.2775 -0.0138 -0.1256
  175MPD1    C4 2720   1.954   3.172  15.711  1.0030 -0.3779 -0.9991
  175MPD1    C5 2721   1.951   3.180  15.576  0.0483  0.2898 -0.2290
  175MPD1     H 2722   2.078   2.867  15.740 -0.9760 -0.9581  0.8840
  175MPD1    H1 2723   1.906   3.255  15.760 -1.2036 -0.0093 -3.8004
  175MPD1    H2 2724   1.995   3.098  15.384 -0.1284  1.2407  1.1168
  175MPD1    H3 2725   1.903   3.269  15.539 -2.9147 -2.1774 -2.3359
  175MPD1     N 2726   2.010   3.057  15.911 -0.4979  0.6029  0.7038
  175MPD1    H5 2727   1.997   3.145  15.959 -0.7374  0.8511  0.1801
  175MPD1    N1 2728   2.063   2.850  15.471 -0.0875  0.5042 -0.4956
  175MPD1    H6 2729   2.109   2.774  15.521  1.4954  1.5789 -0.3186
  175MPD1    H7 2730   2.117   2.884  15.391 -0.2731  1.3076 -0.2733
  176MPD1     C 2731   4.214   0.402   0.840 -0.6345 -0.6571  0.4029
  176MPD1    C1 2732   4.147   0.401   0.724  0.2087  0.0170 -0.0876
  176MPD1    C2 2733   4.095   0.522   0.668 -0.1356  0.2509  0.5434
  176MPD1    C3 2734   4.130   0.643   0.721  0.5172 -0.1664 -0.1626
  176MPD1    C4 2735   4.210   0.640   0.830  0.1666 -0.0025  0.4026
  176MPD1    C5 2736   4.260   0.527   0.885 -0.0363  0.3450  0.0342
  176MPD1     H 2737   4.028   0.525   0.583 -0.0295 -1.4927  0.4028
  176MPD1    H1 2738   4.231   0.731   0.886  0.2001  0.2461 -0.0178
  176MPD1    H2 2739   4.258   0.308   0.871 -0.0474 -0.2438  0.8120
  176MPD1    H3 2740   4.328   0.538   0.969 -0.0306 -1.7133  0.3093
  176MPD1     N 2741   4.080   0.764   0.665 -0.2824 -0.3352  0.0453
  176MPD1    H5 2742   4.023   0.748   0.582  2.3200 -0.8749 -1.6116
  176MPD1    N1 2743   4.102   0.278   0.663  0.1042  0.5398 -0.0462
  176MPD1    H6 2744   4.078   0.280   0.564  0.9192  0.6893 -0.2395
  176MPD1    H7 2745   4.178   0.210   0.659 -1.8597 -1.6979  1.1416
  177MPD1     C 2746   2.328   0.158  10.580  0.0428  0.2516  0.3567
  177MPD1    C1 2747   2.258   0.045  10.538 -0.1356  0.1354  0.0700
  177MPD1    C2 2748   2.245   0.026  10.406  0.2420  0.4043 -1.0988
  177MPD1    C3 2749   2.271   0.130  10.318  0.0710 -0.4181  0.4920
  177MPD1    C4 2750   2.313   0.250  10.363 -0.4659  0.6261 -0.0726
  177MPD1    C5 2751   2.345   0.261  10.493  0.0171 -0.2558  0.7515
  177MPD1     H 2752   2.182   4.681  10.374  0.2293  0.2316 -0.6311
  177MPD1    H1 2753   2.324   0.335  10.297 -1.9813  2.0310  1.4966
  177MPD1    H2 2754   2.358   0.166  10.684  0.1003 -2.0064  0.5177
  177MPD1    H3 2755   2.384   0.356  10.528 -1.0193 -0.1076  1.4982
  177MPD1     N 2756   2.220   0.114  10.187  0.5989  0.2891 -0.5960
  177MPD1    H5 2757   2.155   0.039  10.166 -1.1648  2.0760 -1.4697
  177MPD1    N1 2758   2.230   4.685  10.641  0.3032  0.0588  0.6700
  177MPD1    H6 2759   2.156   4.623  10.608 -0.2099 -0.1759  2.2185
  177MPD1    H7 2760   2.189   4.734  10.721 -1.0456  0.6064 -0.3566
  178MPD1     C 2761   4.478   0.799   0.623  0.1461  0.2984  0.2702
  178MPD1    C1 2762   4.569   0.895   0.607 -0.5788 -0.6072 -0.7258
  178MPD1    C2 2763   4.633   0.911   0.490 -0.3128  0.0524 -0.0225
  178MPD1    C3 2764   4.611   0.825   0.380 -0.3084  0.3690 -0.2173
  178MPD1    C4 2765   4.510   0.733   0.397 -0.6094 -0.5334  0.7752
  178MPD1    C5 2766   4.451   0.712   0.520 -0.0116  0.1015  0.0226
  178MPD1     H 2767   4.723   0.971   0.482 -0.1628 -0.1290  0.3282
  178MPD1    H1 2768   4.483   0.683   0.305  0.0229  1.8486 -0.6987
  178MPD1    H2 2769   4.435   0.783   0.721  2.3851  0.0975  1.2141
  178MPD1    H3 2770   4.375   0.635   0.519  1.8858 -1.7986  4.6397
  178MPD1     N 2771   4.667   0.830   0.251  0.8884 -0.4775  0.1372
  178MPD1    H5 2772   4.618   0.774   0.182 -0.9101  0.5215  0.6071
  178MPD1    N1 2773   4.576   0.994   0.708  0.3192 -0.6735  0.0721
  178MPD1    H6 2774   4.554   0.962   0.802 -0.0955  0.5750  0.3939
  178MPD1    H7 2775   4.660   1.050   0.719  0.9360 -1.4777 -0.4863
  179MPD1     C 2776   0.077   4.132  15.970  0.4268  0.8842  0.1289
  179MPD1    C1 2777   4.687   4.186  15.964 -0.3181 -0.1894 -0.6102
  179MPD1    C2 2778   4.580   4.108  15.936 -0.2599 -0.6239  0.5438
  179MPD1    C3 2779   4.593   3.966  15.929 -0.4893  0.3957  0.2918
  179MPD1    C4 2780   4.721   3.917  15.958 -0.4553  0.0442 -0.1422
  179MPD1    C5 2781   0.090   3.995  15.969 -0.2370 -0.3213  0.3079
  179MPD1     H 2782   4.482   4.151  15.920 -0.4364 -0.6591  1.5520
  179MPD1    H1 2783   0.005   3.810  15.956  0.4611  0.2243  0.1503
  179MPD1    H2 2784   0.164   4.192  15.992  1.7045 -1.0762  0.5085
  179MPD1    H3 2785   0.191   3.956  15.969 -0.3696 -0.6574  0.1667
  179MPD1     N 2786   4.485   3.879  15.917  0.2564 -0.6169  0.1351
  179MPD1    H5 2787   4.511   3.783  15.896 -0.1165 -1.0066  1.4601
  179MPD1    N1 2788   4.661   4.317  16.015 -0.1843  0.4423 -0.3120
  179MPD1    H6 2789   4.730   4.386  15.984 -0.4762  0.7463 -0.2920
  179MPD1    H7 2790   4.574   4.361  15.988 -0.9643 -1.2813 -0.5784
  180MPD1     C 2791   4.466   4.729  15.566 -0.7061 -0.1502 -0.4981
  180MPD1    C1 2792   4.352   0.064  15.607 -0.5448 -0.8275 -0.1316
  180MPD1    C2 2793   4.328   0.175  15.529 -0.4088 -0.1690  0.4312
  180MPD1    C3 2794   4.397   0.206  15.410  0.2543  0.4523  0.9932
  180MPD1    C4 2795   4.510   0.133  15.379  0.0816 -0.1617 -0.2433
  180MPD1    C5 2796   4.536   0.016  15.446  0.1466  0.2787  0.5370
  180MPD1     H 2797   4.252   0.242  15.567  2.1188  3.1196 -0.3007
  180MPD1    H1 2798   4.569   0.167  15.295 -1.2855 -1.4274 -1.7030
  180MPD1    H2 2799   4.505   4.644  15.622  0.6316  0.3775 -0.6462
  180MPD1    H3 2800   4.612   4.685  15.410  0.7928  2.0428 -1.4659
  180MPD1     N 2801   4.351   0.317  15.337 -0.3080 -0.0057  0.1190
  180MPD1    H5 2802   4.272   0.369  15.374  1.4075  1.1287  2.1989
  180MPD1    N1 2803   4.298   0.037  15.730 -0.1266  0.3868 -0.0286
  180MPD1    H6 2804   4.205   0.079  15.732 -0.2766  0.1211 -1.7270
  180MPD1    H7 2805   4.280   4.674  15.736 -0.9924  0.7010  2.8485
  181MPD1     C 2806   0.115   1.255  10.522 -0.1792 -0.1421  0.3531
  181MPD1    C1 2807   0.174   1.249  10.396 -0.5764  0.1872 -0.0085
  181MPD1    C2 2808   0.247   1.358  10.352  0.3577 -0.2796 -0.1688
  181MPD1    C3 2809   0.249   1.475  10.424 -0.6453  0.7004 -0.6724
  181MPD1    C4 2810   0.182   1.484  10.544  0.3462 -0.3030 -0.0781
  181MPD1    C5 2811   0.115   1.375  10.594 -0.4611  0.6137  0.0073
  181MPD1     H 2812   0.308   1.350  10.263 -0.5326  2.7521 -1.0244
  181MPD1    H1 2813   0.173   1.577  10.600  1.3487  1.0485 -2.1468
  181MPD1    H2 2814   0.062   1.172  10.568 -0.0020  0.0808  0.9507
  181MPD1    H3 2815   0.063   1.384  10.689 -1.4041  1.7784 -0.6164
  181MPD1     N 2816   0.330   1.581  10.380  0.3944 -0.1424 -0.2860
  181MPD1    H5 2817   0.388   1.565  10.298  1.9233 -2.3761  1.2212
  181MPD1    N1 2818   0.193   1.123  10.339  0.5543 -0.4540 -0.0526
  181MPD1    H6 2819   0.192   1.131  10.238  0.8740  0.9067  0.0512
  181MPD1    H7 2820   0.126   1.055  10.374  1.0277 -0.1950  1.3660
  182MPD1     C 2821   2.066   0.802   1.720 -0.2445  0.9411  1.0493
  182MPD1    C1 2822   2.148   0.844   1.617  0.4333  0.3502  0.1672
  182MPD1    C2 2823   2.093   0.838   1.487  0.1445 -0.4778  0.7364
  182MPD1    C3 2824   1.955   0.826   1.460 -0.7396  0.1545  0.2357
  182MPD1    C4 2825   1.875   0.809   1.570 -0.4363  0.8408  0.7384
  182MPD1    C5 2826   1.934   0.793   1.692  0.1830  0.2217 -0.3958
  182MPD1     H 2827   2.163   0.844   1.405  0.3228 -0.0474  0.9175
  182MPD1    H1 2828   1.769   0.789   1.559  0.0330 -1.6221  0.7025
  182MPD1    H2 2829   2.098   0.775   1.820  1.4969 -2.1882 -0.3555
  182MPD1    H3 2830   1.880   0.757   1.779  0.0397  1.1872 -0.0847
  182MPD1     N 2831   1.903   0.814   1.330  0.5186  0.6384  0.3507
  182MPD1    H5 2832   1.805   0.790   1.322  1.5424 -2.4055 -2.9923
  182MPD1    N1 2833   2.282   0.851   1.647  0.1892 -0.7522 -0.3790
  182MPD1    H6 2834   2.331   0.908   1.578 -0.3363  0.6684  0.4183
  182MPD1    H7 2835   2.295   0.897   1.736 -2.0586  0.1393 -0.5080
  183MPD1     C 2836   2.626   2.219   9.653 -0.2701 -0.2236 -0.4628
  183MPD1    C1 2837   2.541   2.321   9.615  0.2779  0.0240  0.0580
  183MPD1    C2 2838   2.429   2.330   9.689  0.7671 -0.7371 -0.1106
  183MPD1    C3 2839   2.390   2.236   9.777 -0.4587 -0.1499 -0.0152
  183MPD1    C4 2840   2.479   2.134   9.816  0.3012 -0.6828 -0.1210
  183MPD1    C5 2841   2.594   2.118   9.740  0.1629  0.4475 -0.5923
  183MPD1     H 2842   2.375   2.420   9.664 -2.4659 -2.2319  1.4880
  183MPD1    H1 2843   2.462   2.063   9.895  1.4115  1.3820  1.9630
  183MPD1    H2 2844   2.723   2.208   9.606  0.7386 -0.2495  1.5755
  183MPD1    H3 2845   2.671   2.045   9.761  0.4722  0.8085 -0.4717
  183MPD1     N 2846   2.273   2.270   9.849 -0.4516 -0.3156  0.0102
  183MPD1    H5 2847   2.210   2.339   9.809 -0.1161  0.4210  0.7589
  183MPD1    N1 2848   2.594   2.426   9.535 -0.5036 -0.3430 -0.2119
  183MPD1    H6 2849   2.655   2.392   9.461 -0.2683 -0.0708 -0.1408
  183MPD1    H7 2850   2.517   2.470   9.485  1.0898  2.9412  0.2745
  184MPD1     C 2851   1.053   4.698  10.280  1.3525 -0.3181 -0.4751
  184MPD1    C1 2852   1.063   4.582  10.206  0.4957 -0.0395  0.3241
  184MPD1    C2 2853   1.168   4.566  10.120  0.2694 -0.0057 -0.7501
  184MPD1    C3 2854   1.250   4.679  10.097 -0.3328 -0.7748 -0.2216
  184MPD1    C4 2855   1.243   0.057  10.172  0.2173 -0.2540 -0.3000
  184MPD1    C5 2856   1.148   0.063  10.268 -0.1066  0.0979 -0.7851
  184MPD1     H 2857   1.181   4.472  10.068 -1.8022 -0.2864 -0.7869
  184MPD1    H1 2858   1.311   0.138  10.148  1.8504 -2.1181 -1.9622
  184MPD1    H2 2859   0.973   4.710  10.352  2.6965  0.7511  0.8310
  184MPD1    H3 2860   1.144   0.151  10.332 -2.0886 -0.3705 -0.2570
  184MPD1     N 2861   1.352   4.675   9.994 -0.0144  0.1813  0.7540
  184MPD1    H5 2862   1.416   0.016   9.986  1.0756 -0.4782  2.9283
  184MPD1    N1 2863   0.988   4.469  10.251 -0.4101  0.4324  0.3550
  184MPD1    H6 2864   0.897   4.488  10.291 -1.0691 -1.8282 -0.0965
  184MPD1    H7 2865   0.970   4.421  10.163  0.8939  0.3794  0.1180
  185MPD1     C 2866   1.447   4.103   9.133  0.0219 -0.1761  0.4352
  185MPD1    C1 2867   1.566   4.135   9.194 -0.5348  0.6790  0.5080
  185MPD1    C2 2868   1.584   4.232   9.293 -0.0268 -0.0365 -1.1951
  185MPD1    C3 2869   1.474   4.305   9.326 -0.6157  0.4933 -0.1529
  185MPD1    C4 2870   1.350   4.287   9.260  0.1340 -0.4429 -0.2205
  185MPD1    C5 2871   1.337   4.177   9.172 -0.1610 -0.1803 -0.5295
  185MPD1     H 2872   1.680   4.240   9.343 -0.9104  2.4881  0.1100
  185MPD1    H1 2873   1.268   4.355   9.281  2.2070  1.3336  2.1867
  185MPD1    H2 2874   1.439   4.018   9.067 -0.4040 -0.8596  1.3569
  185MPD1    H3 2875   1.243   4.151   9.124 -0.1324  1.1826 -1.3157
  185MPD1     N 2876   1.474   4.397   9.429 -0.3347 -0.2364  0.0699
  185MPD1    H5 2877   1.385   4.435   9.458  0.3421  0.6623  0.9256
  185MPD1    N1 2878   1.682   4.066   9.151 -0.3395  0.4260 -0.1023
  185MPD1    H6 2879   1.768   4.118   9.167 -0.5267  1.2965 -1.8740
  185MPD1    H7 2880   1.679   4.019   9.060  2.7800 -1.0760  0.5814
  186MPD1     C 2881   0.585   3.878  16.001  0.0529 -0.1152 -0.0924
  186MPD1    C1 2882   0.563   3.811  16.119 -0.0418  0.0454 -0.3359
  186MPD1    C2 2883   0.469   3.873  16.201  0.5231 -0.1353  0.0794
  186MPD1    C3 2884   0.417   4.003  16.165  0.3649  0.2529  0.3013
  186MPD1    C4 2885   0.455   4.065  16.049  0.1546 -0.3620 -0.4726
  186MPD1    C5 2886   0.536   4.001  15.963 -0.1334  0.1185 -0.2381
  186MPD1     H 2887   0.451   3.828  16.298 -1.4712  0.4049 -0.0578
  186MPD1    H1 2888   0.425   4.165  16.019 -0.2049 -0.0654  0.8682
  186MPD1    H2 2889   0.660   3.842  15.932 -1.7604 -0.6711 -1.7759
  186MPD1    H3 2890   0.564   4.044  15.867 -1.2144 -0.6079 -0.8740
  186MPD1     N 2891   0.339   4.078  16.252  0.1072 -0.0147 -0.0616
  186MPD1    H5 2892   0.305   4.170  16.224 -0.9784 -0.5018 -0.3528
  186MPD1    N1 2893   0.611   3.680  16.148  0.0467 -0.0797 -0.2711
  186MPD1    H6 2894   0.701   3.664  16.105 -1.2276 -0.2795 -2.8559
  186MPD1    H7 2895   0.608   3.676  16.250 -3.6774  2.8124 -0.2702
  187MPD1     C 2896   4.511   1.257   0.488  0.3017 -0.8663  0.4895
  187MPD1    C1 2897   4.378   1.247   0.529 -0.7436 -0.3062  0.2711
  187MPD1    C2 2898   4.286   1.313   0.451  0.1663 -0.8779  0.4485
  187MPD1    C3 2899   4.330   1.402   0.347  0.3287 -0.5329 -0.9576
  187MPD1    C4 2900   4.466   1.420   0.323 -0.4812 -0.4987 -0.4451
  187MPD1    C5 2901   4.556   1.345   0.397 -0.4634 -1.0498  0.3037
  187MPD1     H 2902   4.180   1.293   0.468 -0.2514  0.2804 -0.7955
  187MPD1    H1 2903   4.498   1.490   0.246 -1.0384 -0.3476 -0.5390
  187MPD1    H2 2904   4.592   1.198   0.530  0.0073  0.1621  2.5157
  187MPD1    H3 2905   4.663   1.355   0.383 -1.0441  3.2779 -1.0178
  187MPD1     N 2906   4.251   1.460   0.250  0.0587  0.2896  0.2756
  187MPD1    H5 2907   4.307   1.495   0.173  0.3015 -1.4138 -0.3329
  187MPD1    N1 2908   4.333   1.140   0.604 -0.6171  0.3257 -0.1559
  187MPD1    H6 2909   4.393   1.103   0.677  0.3515 -1.3062 -1.7597
  187MPD1    H7 2910   4.246   1.160   0.653  0.7193  1.0580  1.9113
  188MPD1     C 2911   2.842   1.580  10.516  0.5022  0.0788 -0.0972
  188MPD1    C1 2912   2.740   1.553  10.437 -0.1062 -0.4389 -0.1422
  188MPD1    C2 2913   2.750   1.440  10.352 -0.1372  0.1050  0.2078
  188MPD1    C3 2914   2.865   1.365  10.354  0.2711  0.6467  0.0310
  188MPD1    C4 2915   2.975   1.408  10.426 -0.6189 -0.5177 -0.0680
  188MPD1    C5 2916   2.955   1.503  10.522  0.3599 -0.7946 -0.3423
  188MPD1     H 2917   2.666   1.421  10.286 -0.5154  0.3632  0.6184
  188MPD1    H1 2918   3.072   1.359  10.425  0.0731  0.8474  0.3723
  188MPD1    H2 2919   2.848   1.660  10.590  2.1847 -1.4836  1.4793
  188MPD1    H3 2920   3.045   1.526  10.577  0.3279 -1.5376  0.0137
  188MPD1     N 2921   2.882   1.247  10.283  0.5912  0.6300 -0.1376
  188MPD1    H5 2922   2.968   1.193  10.286  0.4025  0.3172 -0.3604
  188MPD1    N1 2923   2.652   1.663  10.424 -0.2629  0.0316  0.1622
  188MPD1    H6 2924   2.553   1.644  10.409  0.3959 -0.3089 -3.7651
  188MPD1    H7 2925   2.650   1.720  10.508  0.2403 -0.0983  0.2624
  189MPD1     C 2926   1.409   2.078   0.842 -0.1924 -0.3386 -0.7055
  189MPD1    C1 2927   1.310   1.980   0.857 -0.0557  0.0663  0.1833
  189MPD1    C2 2928   1.185   2.006   0.811  0.0349  0.1005 -0.4455
  189MPD1    C3 2929   1.145   2.131   0.764  0.3483  0.0511  0.2311
  189MPD1    C4 2930   1.245   2.229   0.757 -0.1962 -0.2973  0.0796
  189MPD1    C5 2931   1.371   2.204   0.791  0.9680  0.0486 -0.2423
  189MPD1     H 2932   1.105   1.933   0.823  0.5678 -0.2775  0.7653
  189MPD1    H1 2933   1.222   2.329   0.722 -2.1722 -1.5048 -2.0379
  189MPD1    H2 2934   1.513   2.056   0.865  0.0045  0.4428 -0.8514
  189MPD1    H3 2935   1.442   2.285   0.777 -0.0053  0.7826 -0.9708
  189MPD1     N 2936   1.012   2.148   0.717  0.4879  0.4805 -0.1642
  189MPD1    H5 2937   0.956   2.064   0.712  0.8937  0.2283 -0.5095
  189MPD1    N1 2938   1.360   1.853   0.879 -0.4635  0.8047  0.6465
  189MPD1    H6 2939   1.284   1.793   0.909  0.9955 -1.5790 -0.4327
  189MPD1    H7 2940   1.435   1.855   0.947  0.2167  0.4303 -0.0839
  190MPD1     C 2941   3.846   0.684  15.906 -0.6329  0.3862 -0.0238
  190MPD1    C1 2942   3.898   0.627  16.025 -0.0859  0.0911  0.1343
  190MPD1    C2 2943   4.026   0.656  16.054 -0.4703  0.2072  0.2427
  190MPD1    C3 2944   4.105   0.730  15.968  0.5768 -1.3669  0.2649
  190MPD1    C4 2945   4.047   0.778  15.855 -0.1636  0.4552 -0.0814
  190MPD1    C5 2946   3.917   0.768  15.832 -0.3511 -0.1450  0.1218
  190MPD1     H 2947   4.059   0.612  16.147  1.5280  2.3843  0.5748
  190MPD1    H1 2948   4.109   0.846  15.798 -0.5939  0.9302  0.0132
  190MPD1    H2 2949   3.740   0.685  15.885 -0.1531  0.8892 -2.3854
  190MPD1    H3 2950   3.861   0.827  15.761 -1.5226 -1.7488 -0.2914
  190MPD1     N 2951   4.246   0.731  15.982  0.6244 -0.2125 -0.2309
  190MPD1    H5 2952   4.280   0.675  16.059  1.3726  1.9125  0.9606
  190MPD1    N1 2953   3.830   0.520  16.085 -0.0026 -1.0257  0.3035
  190MPD1    H6 2954   3.846   0.523  16.186  4.9806 -0.3326 -0.4984
  190MPD1    H7 2955   3.728   0.516  16.079  0.0309 -0.3009 -0.7184
  191MPD1     C 2956   3.575   1.914  13.840 -0.2467 -0.3663 -0.7396
  191MPD1    C1 2957   3.607   1.941  13.710  0.1721 -0.6735  1.0025
  191MPD1    C2 2958   3.504   1.980  13.625 -0.3732  0.6313 -0.0096
  191MPD1    C3 2959   3.376   2.001  13.670  0.5118  0.0230 -0.3407
  191MPD1    C4 2960   3.356   1.979  13.806 -0.4177  0.1076  0.5561
  191MPD1    C5 2961   3.456   1.932  13.893 -0.2767  0.3179  0.1353
  191MPD1     H 2962   3.531   1.989  13.521  0.9764 -0.7876  0.2112
  191MPD1    H1 2963   3.258   1.992  13.851 -0.8118  2.6515 -1.0693
  191MPD1    H2 2964   3.652   1.878  13.908  0.8503  0.9873 -1.2636
  191MPD1    H3 2965   3.444   1.915  13.999 -0.5171 -0.3197  0.0028
  191MPD1     N 2966   3.271   2.039  13.586  0.0814  0.4129 -0.1205
  191MPD1    H5 2967   3.300   2.058  13.491  1.6693  1.3595  0.5535
  191MPD1    N1 2968   3.731   1.907  13.664 -0.6143 -0.2804 -0.8106
  191MPD1    H6 2969   3.740   1.950  13.572  1.1331  2.1502  0.5116
  191MPD1    H7 2970   3.806   1.940  13.724 -0.7150 -1.1648 -0.2049
  192MPD1     C 2971   2.293   2.074  13.126 -0.0940 -0.6388  0.5990
  192MPD1    C1 2972   2.376   1.971  13.160 -0.3807 -0.4448  0.5842
  192MPD1    C2 2973   2.493   2.008  13.214  0.2181 -0.0197  0.1937
  192MPD1    C3 2974   2.529   2.136  13.245 -0.4691  0.0985  0.3237
  192MPD1    C4 2975   2.451   2.233  13.194 -0.0891  0.1133  0.0828
  192MPD1    C5 2976   2.327   2.202  13.134 -0.4193 -0.2330 -0.5037
  192MPD1     H 2977   2.568   1.932  13.231  0.0787  0.0207  1.0072
  192MPD1    H1 2978   2.465   2.338  13.213 -0.0986  0.1196  0.0553
  192MPD1    H2 2979   2.201   2.039  13.079 -0.1199 -1.5103  1.3092
  192MPD1    H3 2980   2.262   2.283  13.105 -0.1717  0.2329  0.2375
  192MPD1     N 2981   2.653   2.164  13.307 -0.3768 -0.3963  0.6421
  192MPD1    H5 2982   2.670   2.262  13.328  0.2916 -0.1052 -1.2180
  192MPD1    N1 2983   2.365   1.839  13.104  0.5562  0.2403 -0.1421
  192MPD1    H6 2984   2.393   1.769  13.173  0.0589  2.2156  2.0562
  192MPD1    H7 2985   2.268   1.817  13.086  0.4520  0.4171  0.2054
  193MPD1     C 2986   3.016   2.511  16.133 -0.9717 -0.5313  0.1399
  193MPD1    C1 2987   2.985   2.623  16.204 -0.0896  0.1605 -1.3035
  193MPD1    C2 2988   3.072   2.656  16.307  0.6548 -0.1071 -0.0879
  193MPD1    C3 2989   3.185   2.587  16.329  0.1713  0.1672  0.5455
  193MPD1    C4 2990   3.212   2.473  16.252 -0.3666 -0.4315  0.0148
  193MPD1    C5 2991   3.125   2.432  16.157 -0.9433  0.5427  0.1459
  193MPD1     H 2992   3.044   2.736  16.375  0.3522 -0.2271 -0.0739
  193MPD1    H1 2993   3.305   2.417  16.254 -0.1918 -0.1225  0.8526
  193MPD1    H2 2994   2.962   2.489  16.042  2.0393 -2.0071 -1.3095
  193MPD1    H3 2995   3.149   2.354  16.085  3.0692  1.2282  0.7512
  193MPD1     N 2996   3.283   2.618  16.427  0.7022 -0.1288  0.4352
  193MPD1    H5 2997   3.358   2.551  16.441  1.2477  0.7046  1.4448
  193MPD1    N1 2998   2.862   2.685  16.188 -0.5077 -0.3256  0.1954
  193MPD1    H6 2999   2.805   2.672  16.105 -0.5189  0.7888  0.0322
  193MPD1    H7 3000   2.866   2.778  16.230 -0.2318 -1.3378  2.4403
  194MPD1     C 3001   1.898   0.554  17.171 -0.6619 -0.7889  0.1549
  194MPD1    C1 3002   2.005   0.509  17.097  0.3120 -0.8939 -0.0988
  194MPD1    C2 3003   2.061   0.387  17.127 -0.5761 -0.3043  0.1046
  194MPD1    C3 3004   2.033   0.326  17.250  0.3472 -0.5606  0.2960
  194MPD1    C4 3005   1.930   0.377  17.328  0.1857 -0.3152 -0.1367
  194MPD1    C5 3006   1.867   0.487  17.289 -0.7877  0.3459 -0.5478
  194MPD1     H 3007   2.137   0.349  17.059 -2.7480 -3.1059 -0.7742
  194MPD1    H1 3008   1.901   0.329  17.421 -1.6609  0.4803 -0.3036
  194MPD1    H2 3009   1.841   0.642  17.142  0.4309 -1.0694 -2.9170
  194MPD1    H3 3010   1.784   0.525  17.348 -0.8618 -0.5963 -0.0508
  194MPD1     N 3011   2.098   0.207  17.300  0.1676  0.0539 -0.4170
  194MPD1    H5 3012   2.065   0.169  17.388 -1.4103  1.4126 -0.4378
  194MPD1    N1 3013   2.026   0.559  16.966  0.1357 -0.1599 -0.4865
  194MPD1    H6 3014   2.014   0.660  16.962 -0.7579 -0.3161 -1.7501
  194MPD1    H7 3015   2.119   0.540  16.928  0.5608  1.1264 -0.0788
  195MPD1     C 3016   2.221   1.693   0.972 -0.3434 -0.0994  0.0355
  195MPD1    C1 3017   2.331   1.749   1.030 -0.3189 -0.1257 -0.7998
  195MPD1    C2 3018   2.455   1.732   0.972 -0.2917 -0.8863  0.7732
  195MPD1    C3 3019   2.473   1.640   0.866 -0.6412  0.3776  0.2092
  195MPD1    C4 3020   2.358   1.570   0.819  0.5347 -0.0290 -0.6912
  195MPD1    C5 3021   2.231   1.598   0.873  0.0173  0.3970 -0.1021
  195MPD1     H 3022   2.537   1.788   1.014  0.3939 -0.4263 -1.1698
  195MPD1    H1 3023   2.360   1.491   0.745  1.3589 -1.0471  0.4119
  195MPD1    H2 3024   2.123   1.720   1.010  0.4364 -0.6615  2.4110
  195MPD1    H3 3025   2.138   1.550   0.842 -0.7261  0.6698  1.7159
  195MPD1     N 3026   2.602   1.612   0.804 -0.2396 -0.2278  0.6064
  195MPD1    H5 3027   2.599   1.543   0.730 -1.8789  1.2507 -0.7275
  195MPD1    N1 3028   2.320   1.856   1.118  0.2364  0.1727  0.3624
  195MPD1    H6 3029   2.402   1.883   1.172  0.3667  0.1482  0.1742
  195MPD1    H7 3030   2.240   1.836   1.179 -0.1883  0.5079 -0.0804
  196MPD1     C 3031   2.326   0.490   0.249  0.4979  0.2690 -0.6515
  196MPD1    C1 3032   2.421   0.589   0.236  0.1302  0.4849  0.3824
  196MPD1    C2 3033   2.496   0.618   0.348  0.4032 -0.0338 -0.0392
  196MPD1    C3 3034   2.479   0.554   0.472  0.5024 -0.2953 -0.6251
  196MPD1    C4 3035   2.372   0.461   0.478  0.2058 -0.3166  0.0318
  196MPD1    C5 3036   2.296   0.431   0.364 -0.5363  0.2841  0.2550
  196MPD1     H 3037   2.572   0.696   0.341  0.9923 -0.7446 -1.4966
  196MPD1    H1 3038   2.346   0.414   0.572  0.6149 -0.5640  0.0203
  196MPD1    H2 3039   2.256   0.468   0.169  0.5742 -1.3669 -0.2624
  196MPD1    H3 3040   2.216   0.358   0.363 -1.0756  0.8932 -2.0520
  196MPD1     N 3041   2.542   0.591   0.592 -0.6960 -0.7738  0.2915
  196MPD1    H5 3042   2.508   0.550   0.678 -0.1471  0.5580  1.1444
  196MPD1    N1 3043   2.449   0.647   0.112 -0.2906  0.1999  0.3329
  196MPD1    H6 3044   2.376   0.634   0.043 -0.9946  2.5059  0.6606
  196MPD1    H7 3045   2.502   0.734   0.102  1.8650 -1.2822 -1.0899
  197MPD1     C 3046   1.919   3.493   0.006 -0.2107  0.5382  0.0658
  197MPD1    C1 3047   1.893   3.601  17.673  0.1472 -0.5370 -0.2516
  197MPD1    C2 3048   1.965   3.629  17.560 -0.1184  0.3842  0.5198
  197MPD1    C3 3049   2.063   3.543  17.519 -0.0363  0.4127 -0.4646
  197MPD1    C4 3050   2.093   3.439  17.600  0.2309 -0.7512  0.1869
  197MPD1    C5 3051   2.018   3.408  17.714 -0.2215  0.2703  0.6691
  197MPD1     H 3052   1.946   3.724  17.511 -1.4055  0.5023  1.2676
  197MPD1    H1 3053   2.171   3.371  17.570  0.5548 -1.0904  1.7947
  197MPD1    H2 3054   1.854   3.463   0.088 -1.0317  1.2663 -0.3194
  197MPD1    H3 3055   2.050   3.326   0.031 -0.1499  0.0783  0.3903
  197MPD1     N 3056   2.146   3.554  17.410 -0.0369 -0.4771  0.1084
  197MPD1    H5 3057   2.213   3.479  17.394 -1.5827 -1.0372 -3.6771
  197MPD1    N1 3058   1.779   3.679  17.701 -0.2489  0.5054  0.1823
  197MPD1    H6 3059   1.691   3.626  17.702  0.8747 -1.3431  2.2485
  197MPD1    H7 3060   1.767   3.745  17.625 -0.9867 -0.0595 -0.2053
  198MPD1     C 3061   4.056   1.655  15.571 -0.2127  0.5810 -0.6073
  198MPD1    C1 3062   4.132   1.769  15.572 -0.0132 -0.7500  0.3065
  198MPD1    C2 3063   4.167   1.819  15.701 -0.4132 -0.8122  0.6198
  198MPD1    C3 3064   4.123   1.764  15.823 -0.1044  0.6634  0.5948
  198MPD1    C4 3065   4.069   1.641  15.817 -0.4728 -0.5743 -0.0596
  198MPD1    C5 3066   4.036   1.593  15.693  0.1831  0.2086  0.5771
  198MPD1     H 3067   4.229   1.908  15.707  0.8810 -1.5637 -1.8499
  198MPD1    H1 3068   4.039   1.582  15.903 -1.7751 -0.1468 -0.2174
  198MPD1    H2 3069   4.009   1.621  15.480  2.0100  1.3212 -2.0313
  198MPD1    H3 3070   3.955   1.521  15.701  3.2303 -3.2364  0.7021
  198MPD1     N 3071   4.145   1.829  15.945  0.0064 -0.4528  0.0590
  198MPD1    H5 3072   4.195   1.917  15.943  1.7342 -1.4647 -1.6236
  198MPD1    N1 3073   4.150   1.853  15.460  0.3047 -0.0745  0.0695
  198MPD1    H6 3074   4.166   1.801  15.374 -1.8650 -2.2561  0.9946
  198MPD1    H7 3075   4.237   1.906  15.465 -0.9320  1.9370  0.4318
  199MPD1     C 3076   1.018   1.898   9.529 -0.5512 -0.7639 -0.5597
  199MPD1    C1 3077   0.884   1.931   9.529 -0.5076  0.4407  0.5232
  199MPD1    C2 3078   0.850   2.048   9.601  0.0510 -0.2518  0.1731
  199MPD1    C3 3079   0.944   2.139   9.647  0.2620 -0.0584 -0.2315
  199MPD1    C4 3080   1.078   2.110   9.636  0.1473  0.5220  1.0324
  199MPD1    C5 3081   1.112   1.991   9.583 -0.1163 -0.8359  0.2161
  199MPD1     H 3082   0.743   2.058   9.615  0.5503 -0.4725  4.0175
  199MPD1    H1 3083   1.147   2.182   9.678 -1.6523  1.6824  2.0056
  199MPD1    H2 3084   1.059   1.802   9.500 -0.3957 -0.8188 -0.1642
  199MPD1    H3 3085   1.216   1.970   9.565 -0.6106 -2.7734 -0.3524
  199MPD1     N 3086   0.914   2.256   9.712 -0.3191  0.7410 -0.1676
  199MPD1    H5 3087   0.993   2.318   9.725 -1.0799  1.6854 -0.0706
  199MPD1    N1 3088   0.794   1.837   9.491 -0.3657 -0.0113 -0.2121
  199MPD1    H6 3089   0.702   1.876   9.471  0.2896  1.6498 -0.0244
  199MPD1    H7 3090   0.827   1.791   9.406 -0.3208 -1.1850  0.4415
  200MPD1     C 3091   4.646   2.902  15.453  0.3113 -0.4073  0.2179
  200MPD1    C1 3092   4.606   2.945  15.328  0.8525  0.2137 -0.1576
  200MPD1    C2 3093   4.697   2.931  15.221  0.5228  0.6382 -0.1293
  200MPD1    C3 3094   0.093   2.898  15.243 -0.4871 -0.1562 -0.0486
  200MPD1    C4 3095   0.133   2.869  15.366 -0.1023  0.1068  0.2100
  200MPD1    C5 3096   0.036   2.862  15.463 -0.5263  0.1108 -0.7533
  200MPD1     H 3097   4.671   2.966  15.122 -0.9620 -0.1197 -0.0006
  200MPD1    H1 3098   0.228   2.827  15.397 -0.0374  0.2926  0.2612
  200MPD1    H2 3099   4.582   2.897  15.540  0.7091 -0.3570  0.5134
  200MPD1    H3 3100   0.069   2.825  15.559  0.5740 -0.2327 -1.2581
  200MPD1     N 3101   0.190   2.912  15.137 -0.2138  0.3956 -0.1777
  200MPD1    H5 3102   0.142   2.925  15.049  1.1176  1.4948 -0.7561
  200MPD1    N1 3103   4.466   2.972  15.310 -0.4728 -0.7223  0.0237
  200MPD1    H6 3104   4.446   3.037  15.235 -0.2709  1.3025  1.7438
  200MPD1    H7 3105   4.422   3.007  15.395  0.3379 -1.7199  0.8624
  201MPD1     C 3106   2.169   2.100  13.664 -0.1639  0.0624 -0.4269
  201MPD1    C1 3107   2.209   2.052  13.545  0.3955  0.2852  0.0793
  201MPD1    C2 3108   2.273   1.928  13.546 -0.1522 -0.4033 -0.0743
  201MPD1    C3 3109   2.302   1.857  13.664  0.7297 -0.2150 -0.6480
  201MPD1    C4 3110   2.267   1.919  13.781 -0.4963  0.7364 -0.5003
  201MPD1    C5 3111   2.205   2.040  13.780  0.4162 -0.3186 -0.5049
  201MPD1     H 3112   2.303   1.877  13.455  1.4664 -1.7226  1.2198
  201MPD1    H1 3113   2.303   1.886  13.877  1.7389  2.6089 -0.7024
  201MPD1    H2 3114   2.128   2.201  13.663 -0.1057  0.0721 -1.6671
  201MPD1    H3 3115   2.184   2.090  13.874 -1.8260  0.3357 -1.3535
  201MPD1     N 3116   2.367   1.729  13.665  0.1505 -0.2801  0.6237
  201MPD1    H5 3117   2.431   1.704  13.590 -0.6646  1.1475 -0.5587
  201MPD1    N1 3118   2.178   2.117  13.424 -0.7378 -0.1020 -0.0704
  201MPD1    H6 3119   2.155   2.214  13.442  0.5182 -0.2332  2.2574
  201MPD1    H7 3120   2.264   2.107  13.369  0.2460 -1.1996  1.6498
  202MPD1     C 3121   1.780   1.136   9.340  0.1989 -0.4671 -0.1650
  202MPD1    C1 3122   1.914   1.127   9.324 -0.4062 -0.5497  0.2668
  202MPD1    C2 3123   1.981   1.118   9.446  0.8651  0.2890  0.4297
  202MPD1    C3 3124   1.917   1.159   9.570  0.4026 -0.0879  0.1792
  202MPD1    C4 3125   1.785   1.191   9.568 -0.4911 -0.2381 -0.2151
  202MPD1    C5 3126   1.716   1.168   9.454  0.3774  0.7406  0.4998
  202MPD1     H 3127   2.086   1.091   9.451  0.5488 -1.8111 -3.7688
  202MPD1    H1 3128   1.722   1.192   9.657  0.3119  0.5079  0.3473
  202MPD1    H2 3129   1.716   1.136   9.253  0.0268  1.0577 -0.0312
  202MPD1    H3 3130   1.608   1.175   9.453  0.4377  1.6254 -0.1772
  202MPD1     N 3131   1.973   1.175   9.697  0.6211 -1.0285 -0.4902
  202MPD1    H5 3132   1.916   1.204   9.776  0.6250  1.5479 -1.4215
  202MPD1    N1 3133   1.944   1.049   9.211  0.3071 -0.4988  0.1406
  202MPD1    H6 3134   2.044   1.042   9.192  0.3811 -0.7808  0.6212
  202MPD1    H7 3135   1.895   1.083   9.129 -0.7162  0.5350  1.1812
  203MPD1     C 3136   0.156   1.845  12.850  0.1152  0.2632  0.4238
  203MPD1    C1 3137   0.222   1.743  12.919 -0.3996 -0.0265 -0.2830
  203MPD1    C2 3138   0.363   1.739  12.907 -0.1801  0.7806 -0.3626
  203MPD1    C3 3139   0.433   1.843  12.843 -0.4103 -0.3402  0.1153
  203MPD1    C4 3140   0.365   1.957  12.797  0.4786  0.0036  1.0041
  203MPD1    C5 3141   0.228   1.946  12.791  0.4912 -0.3205  0.0457
  203MPD1     H 3142   0.410   1.646  12.939 -2.0903  0.4759  1.5717
  203MPD1    H1 3143   0.410   2.050  12.764 -0.0717 -0.0269  0.1630
  203MPD1    H2 3144   0.049   1.838  12.830  0.3070 -0.3198 -0.4190
  203MPD1    H3 3145   0.166   2.010  12.728  1.2075  0.0277 -0.3058
  203MPD1     N 3146   0.576   1.832  12.830  0.5846  0.6101 -0.1266
  203MPD1    H5 3147   0.614   1.747  12.871  0.1800  0.7679  0.5826
  203MPD1    N1 3148   0.151   1.626  12.953 -0.1744 -0.3204 -0.1883
  203MPD1    H6 3149   0.056   1.647  12.981  0.1395 -0.2005  0.7902
  203MPD1    H7 3150   0.196   1.576  13.030  0.3243  1.4655  0.6834
  204MPD1     C 3151   1.218   4.428  17.576 -0.7093 -0.4169 -0.3217
  204MPD1    C1 3152   1.178   4.384  17.450 -0.4801 -0.5827 -0.6702
  204MPD1    C2 3153   1.168   4.252  17.424 -0.4965  0.2084  0.3451
  204MPD1    C3 3154   1.181   4.161  17.533 -0.0037 -0.6397  0.1504
  204MPD1    C4 3155   1.209   4.198  17.664 -0.6811 -0.0344 -0.9933
  204MPD1    C5 3156   1.226   4.339  17.684 -0.2420  0.2391 -0.2697
  204MPD1     H 3157   1.150   4.217  17.323  1.1476  0.7302 -0.1255
  204MPD1    H1 3158   1.203   4.135   0.005  0.7366  0.1605 -0.7586
  204MPD1    H2 3159   1.231   4.532  17.602 -0.0886 -0.0465 -2.1466
  204MPD1    H3 3160   1.244   4.368   0.040  2.3471  0.4178 -0.7784
  204MPD1     N 3161   1.153   4.017  17.500 -0.0873 -0.4711 -0.2201
  204MPD1    H5 3162   1.127   4.002  17.403 -1.7092 -1.9875  0.4463
  204MPD1    N1 3163   1.169   4.479  17.345 -0.2612  0.3563 -0.0740
  204MPD1    H6 3164   1.149   4.574  17.374 -0.8041 -0.0396  0.8442
  204MPD1    H7 3165   1.097   4.457  17.276 -0.1126  0.0206 -0.1218
  205MPD1     C 3166   0.836   2.293  17.229 -0.3409  0.0189  0.5203
  205MPD1    C1 3167   0.920   2.221  17.302  0.1838 -0.4255 -0.1692
  205MPD1    C2 3168   1.002   2.291  17.394 -0.2174 -0.3393  0.2384
  205MPD1    C3 3169   0.985   2.433  17.415  0.0684  0.3187  0.0601
  205MPD1    C4 3170   0.884   2.498  17.345  0.3015 -0.0359  1.2001
  205MPD1    C5 3171   0.821   2.428  17.246  0.3040 -0.3852 -0.0615
  205MPD1     H 3172   1.076   2.233  17.449  0.1649 -1.4540 -1.4570
  205MPD1    H1 3173   0.860   2.603  17.362  2.1608  0.3377  1.5016
  205MPD1    H2 3174   0.772   2.246  17.155  0.5949 -0.0017 -0.2771
  205MPD1    H3 3175   0.741   2.476  17.191  0.2865 -2.8661 -2.1666
  205MPD1     N 3176   1.060   2.514  17.508  0.0436  0.1057 -0.1080
  205MPD1    H5 3177   1.051   2.615  17.500 -2.1591 -0.2780 -2.3836
  205MPD1    N1 3178   0.947   2.082  17.268  0.0224  0.1112 -0.6253
  205MPD1    H6 3179   0.857   2.039  17.245  0.4304  0.0526 -2.0827
  205MPD1    H7 3180   0.994   2.032  17.343 -1.4868 -0.3394  0.0288
  206MPD1     C 3181   0.519   0.877  17.144  0.4009  0.0506  0.1153
  206MPD1    C1 3182   0.618   0.828  17.232 -0.7254  0.1791 -0.2680
  206MPD1    C2 3183   0.720   0.748  17.172  0.4834  0.9855 -0.3306
  206MPD1    C3 3184   0.735   0.733  17.039  0.7460  1.2505  0.1934
  206MPD1    C4 3185   0.638   0.784  16.957  0.6917  0.0561  0.4416
  206MPD1    C5 3186   0.535   0.853  17.011  0.2633  0.7244  0.5298
  206MPD1     H 3187   0.782   0.696  17.244 -0.2866 -3.1632 -2.6781
  206MPD1    H1 3188   0.642   0.767  16.850  1.9383 -0.7186  0.6140
  206MPD1    H2 3189   0.429   0.928  17.176  0.1184 -0.9614  0.9237
  206MPD1    H3 3190   0.455   0.885  16.946  0.1859  0.2662  0.4001
  206MPD1     N 3191   0.837   0.656  16.974 -0.3911  0.0052 -0.1998
  206MPD1    H5 3192   0.834   0.658  16.872 -1.2838 -0.2550 -0.1753
  206MPD1    N1 3193   0.605   0.830  17.369  0.4997  0.3196 -0.5555
  206MPD1    H6 3194   0.690   0.849  17.422 -0.9335  0.3850  1.7079
  206MPD1    H7 3195   0.535   0.901  17.389 -0.1016  0.0512 -1.7234
  207MPD1     C 3196   2.986   2.150   9.868 -0.3145 -0.0288 -0.3032
  207MPD1    C1 3197   3.088   2.053   9.869 -0.8941 -0.0912 -0.4903
  207MPD1    C2 3198   3.196   2.088   9.954  0.3857  0.2142 -0.0612
  207MPD1    C3 3199   3.209   2.214  10.006 -0.0037 -0.3246 -0.1870
  207MPD1    C4 3200   3.132   2.317   9.948  0.3957  0.5919  0.1805
  207MPD1    C5 3201   3.015   2.275   9.891  0.2118 -0.0284  0.2963
  207MPD1     H 3202   3.268   2.013   9.980  1.5775  0.9241 -1.2998
  207MPD1    H1 3203   3.148   2.422   9.969 -3.0063  1.6232 -2.4769
  207MPD1    H2 3204   2.897   2.132   9.809 -0.2850  0.4948 -0.5097
  207MPD1    H3 3205   2.940   2.340   9.848  0.0997 -0.3059  0.0764
  207MPD1     N 3206   3.317   2.246  10.090 -0.1914 -0.1975  0.0966
  207MPD1    H5 3207   3.314   2.343  10.117  0.4982 -0.3828  0.8261
  207MPD1    N1 3208   3.071   1.921   9.836  0.0939  0.3481 -0.6607
  207MPD1    H6 3209   3.158   1.873   9.816  1.2392  2.4005 -0.5396
  207MPD1    H7 3210   3.033   1.923   9.741 -2.1439 -1.2913  0.2040
  208MPD1     C 3211   1.153   1.704  17.429 -0.0379 -0.4743 -0.1683
  208MPD1    C1 3212   1.206   1.817  17.486  0.5112 -0.0383  0.3571
  208MPD1    C2 3213   1.260   1.802  17.609  0.3448  0.8529 -0.0406
  208MPD1    C3 3214   1.284   1.681  17.673 -0.7168  0.1334  0.1765
  208MPD1    C4 3215   1.230   1.571  17.611  0.1674  0.1398 -0.2801
  208MPD1    C5 3216   1.173   1.581  17.488  0.0365 -0.5402 -0.1337
  208MPD1     H 3217   1.285   1.892  17.663  0.3537  1.2076 -0.6328
  208MPD1    H1 3218   1.251   1.471  17.648 -1.3421  0.6662  2.0254
  208MPD1    H2 3219   1.089   1.715  17.343  0.6718 -1.3580 -0.8098
  208MPD1    H3 3220   1.145   1.489  17.438 -0.5474  0.5156 -1.7620
  208MPD1     N 3221   1.357   1.670   0.047 -0.1101 -0.2818 -0.3410
  208MPD1    H5 3222   1.381   1.757   0.092 -0.1937 -0.2039 -0.4463
  208MPD1    N1 3223   1.170   1.943  17.428  0.5476  0.0834  0.2449
  208MPD1    H6 3224   1.239   2.016  17.443  0.2380  0.1388  1.4073
  208MPD1    H7 3225   1.169   1.942  17.326 -0.6684  2.0552  0.2256
  209MPD1     C 3226   3.762   1.105  11.413 -0.4602 -0.3742  0.4263
  209MPD1    C1 3227   3.751   1.142  11.284 -0.4836  0.7666 -0.2939
  209MPD1    C2 3228   3.806   1.263  11.239  0.6054 -0.0445  0.0213
  209MPD1    C3 3229   3.843   1.356  11.327  0.4124  0.0339 -0.0124
  209MPD1    C4 3230   3.850   1.324  11.462  0.3457 -0.1447  0.2539
  209MPD1    C5 3231   3.804   1.198  11.503 -0.3208  0.0631 -0.4631
  209MPD1     H 3232   3.812   1.287  11.134 -2.5155 -2.8473 -0.8137
  209MPD1    H1 3233   3.864   1.402  11.537 -3.6800 -1.1439  2.0713
  209MPD1    H2 3234   3.719   1.011  11.446 -0.5653 -0.3309  0.4137
  209MPD1    H3 3235   3.801   1.171  11.608 -2.0395  0.2766 -0.4555
  209MPD1     N 3236   3.886   1.484  11.277  0.1142  0.0515 -0.0654
  209MPD1    H5 3237   3.882   1.501  11.177 -1.4036  1.3607  0.2230
  209MPD1    N1 3238   3.723   1.047  11.181  0.0467 -0.3396  0.1964
  209MPD1    H6 3239   3.652   0.977  11.203 -3.8102  2.6008 -3.0496
  209MPD1    H7 3240   3.702   1.087  11.090 -0.0757 -2.3152 -0.6479
  210MPD1     C 3241   4.457   2.191  11.686  0.3559 -0.0126  0.0672
  210MPD1    C1 3242   4.426   2.251  11.566  0.2536  0.1607  0.2329
  210MPD1    C2 3243   4.329   2.188  11.489  0.1144 -0.3119 -0.0039
  210MPD1    C3 3244   4.279   2.064  11.528  0.1664  0.3957  0.5041
  210MPD1    C4 3245   4.321   2.005  11.644 -0.6891 -0.1163 -0.0882
  210MPD1    C5 3246   4.404   2.076  11.722 -0.1795 -0.6375  0.6017
  210MPD1     H 3247   4.299   2.227  11.392 -0.7815  0.4900  0.5906
  210MPD1    H1 3248   4.275   1.912  11.676 -0.0553 -0.3924  0.0094
  210MPD1    H2 3249   4.528   2.228  11.759  0.5359  0.9359 -0.5966
  210MPD1    H3 3250   4.433   2.036  11.819 -0.2331  0.8270  1.2191
  210MPD1     N 3251   4.186   1.997  11.456 -0.1565  0.0004 -0.3368
  210MPD1    H5 3252   4.158   1.905  11.490 -0.1597  0.2594  0.3556
  210MPD1    N1 3253   4.494   2.366  11.522 -0.4378 -0.5326 -0.6025
  210MPD1    H6 3254   4.593   2.351  11.540 -0.2372  1.0232 -0.4108
  210MPD1    H7 3255   4.482   2.369  11.421 -3.3378  0.5481 -0.2364
  211MPD1     C 3256   2.299   1.826  16.587  0.4301 -0.1699 -0.1654
  211MPD1    C1 3257   2.282   1.965  16.546  0.4704  0.0394  0.6853
  211MPD1    C2 3258   2.152   2.004  16.507 -0.6645  0.4983  0.2500
  211MPD1    C3 3259   2.046   1.917  16.531  0.0752  0.7749  0.5163
  211MPD1    C4 3260   2.068   1.792  16.582 -0.2691 -0.2330 -0.2268
  211MPD1    C5 3261   2.190   1.748  16.612 -0.2687  0.2323 -0.4927
  211MPD1     H 3262   2.131   2.101  16.464 -0.3410 -0.3970 -1.9337
  211MPD1    H1 3263   1.982   1.734  16.611 -0.2382 -0.7210 -1.1055
  211MPD1    H2 3264   2.396   1.786  16.616  0.7283 -0.6302 -1.8086
  211MPD1    H3 3265   2.189   1.656  16.670  1.7020  0.1601 -0.6024
  211MPD1     N 3266   1.916   1.969  16.506  0.4011 -0.5044 -0.2438
  211MPD1    H5 3267   1.908   2.068  16.485  0.2750 -0.4957 -0.1501
  211MPD1    N1 3268   2.391   2.052  16.529 -0.4763  0.0025 -0.0550
  211MPD1    H6 3269   2.373   2.149  16.554  1.9430 -0.3904  3.2531
  211MPD1    H7 3270   2.470   2.016  16.583 -0.2321 -0.3565 -0.6575
  212MPD1     C 3271   0.170   0.806  16.999  0.1132 -0.2643 -0.1611
  212MPD1    C1 3272   0.224   0.717  16.914  0.8693 -0.7569 -0.2507
  212MPD1    C2 3273   0.245   0.589  16.955  0.0627 -0.5555 -0.7302
  212MPD1    C3 3274   0.234   0.557  17.090  0.3019  0.7676  0.2891
  212MPD1    C4 3275   0.186   0.655  17.176 -0.2687  0.7675 -0.0495
  212MPD1    C5 3276   0.163   0.783  17.130 -0.2391  0.5211 -0.0097
  212MPD1     H 3277   0.288   0.515  16.888 -1.6327 -0.0254 -2.3896
  212MPD1    H1 3278   0.170   0.628  17.280  2.7047 -2.8293 -0.5355
  212MPD1    H2 3279   0.152   0.902  16.950 -1.0229 -0.0876  0.6013
  212MPD1    H3 3280   0.120   0.854  17.201  0.8870  1.6272 -0.4258
  212MPD1     N 3281   0.265   0.427  17.144  0.8650  0.0585  0.3795
  212MPD1    H5 3282   0.233   0.401  17.237 -0.5988  0.4019 -0.0333
  212MPD1    N1 3283   0.217   0.748  16.778 -1.0280  0.1136  0.1482
  212MPD1    H6 3284   0.275   0.689  16.718  1.9211  2.6286  0.5031
  212MPD1    H7 3285   0.245   0.845  16.761  0.6223 -0.3667  0.1410
  213MPD1     C 3286   3.825   0.772  16.439  0.6096  0.4929 -0.0048
  213MPD1    C1 3287   3.708   0.697  16.426 -1.0409  0.0193  0.7682
  213MPD1    C2 3288   3.632   0.738  16.320 -0.2279 -0.7062 -0.2648
  213MPD1    C3 3289   3.668   0.818  16.213  0.3130  0.2075  0.4453
  213MPD1    C4 3290   3.794   0.867  16.224  0.9044  0.9592  0.9069
  213MPD1    C5 3291   3.873   0.842  16.334  1.5815  0.5315 -0.4400
  213MPD1     H 3292   3.532   0.698  16.305 -0.9647  0.3987  1.6527
  213MPD1    H1 3293   3.834   0.936  16.150  1.6171 -1.4066 -0.9052
  213MPD1    H2 3294   3.890   0.766  16.526  1.2536 -0.5180 -0.5628
  213MPD1    H3 3295   3.963   0.900  16.348 -0.0990  2.9184  0.3281
  213MPD1     N 3296   3.583   0.845  16.111  0.6837  0.2160  0.3531
  213MPD1    H5 3297   3.499   0.788  16.123 -0.5952  1.8147 -0.9220
  213MPD1    N1 3298   3.644   0.637  16.541 -0.5352  0.0470  0.5455
  213MPD1    H6 3299   3.586   0.558  16.515 -0.5422 -0.5503  2.3640
  213MPD1    H7 3300   3.716   0.602  16.605  0.4904  0.9518 -0.1118
  214MPD1     C 3301   3.232   0.246  15.438 -0.2704  0.3850 -0.3168
  214MPD1    C1 3302   3.215   0.257  15.570 -0.0435 -0.1937  0.2462
  214MPD1    C2 3303   3.244   0.383  15.630 -0.2649 -0.3817  0.0195
  214MPD1    C3 3304   3.304   0.480  15.557 -0.3398  0.2158  0.4558
  214MPD1    C4 3305   3.332   0.457  15.420 -0.1259 -0.7136  0.5248
  214MPD1    C5 3306   3.296   0.340  15.363  0.8133 -0.2352  0.8725
  214MPD1     H 3307   3.220   0.399  15.735  1.2841  1.3479  0.1070
  214MPD1    H1 3308   3.371   0.529  15.349 -1.5636 -0.0994  0.3616
  214MPD1    H2 3309   3.189   0.159  15.389  0.0644 -0.3558  0.6911
  214MPD1    H3 3310   3.317   0.314  15.259  0.8667  1.6380  0.4288
  214MPD1     N 3311   3.338   0.606  15.611  0.0271 -0.5265 -0.4802
  214MPD1    H5 3312   3.386   0.670  15.549  0.7364  0.0985  0.7259
  214MPD1    N1 3313   3.137   0.160  15.633 -0.0301 -0.0321 -0.4074
  214MPD1    H6 3314   3.152   0.070  15.587  3.0436  0.6273 -0.6627
  214MPD1    H7 3315   3.157   0.148  15.732 -2.6955 -3.3428 -0.2458
  215MPD1     C 3316   3.443   1.285  10.382  0.3195 -0.3153 -0.5136
  215MPD1    C1 3317   3.363   1.402  10.361  0.3858  0.0738  0.6770
  215MPD1    C2 3318   3.329   1.473  10.476 -0.1297  0.4552 -0.5346
  215MPD1    C3 3319   3.380   1.452  10.601  0.2024 -0.6335  0.2040
  215MPD1    C4 3320   3.461   1.339  10.623 -0.1459  0.6253 -0.6448
  215MPD1    C5 3321   3.489   1.262  10.509 -0.4549 -0.3561 -0.6778
  215MPD1     H 3322   3.258   1.554  10.466  0.9025  1.2943 -1.1655
  215MPD1    H1 3323   3.510   1.310  10.716 -0.2408 -1.0566 -1.1185
  215MPD1    H2 3324   3.470   1.206  10.314 -2.9131 -0.0220 -2.1232
  215MPD1    H3 3325   3.546   1.175  10.536 -0.3798 -0.3697 -0.8827
  215MPD1     N 3326   3.368   1.554  10.699  0.0138 -0.2616 -0.0677
  215MPD1    H5 3327   3.317   1.634  10.662  1.0670  1.1960  1.6651
  215MPD1    N1 3328   3.285   1.420  10.249  0.3547 -0.0487  0.5055
  215MPD1    H6 3329   3.254   1.515  10.230 -0.8034 -0.3826  0.7790
  215MPD1    H7 3330   3.337   1.386  10.167  0.8964  0.1624  0.7591
  216MPD1     C 3331   0.780   0.251  17.086 -0.1816  0.3165  0.1231
  216MPD1    C1 3332   0.775   0.125  17.026  0.1632  0.2958 -0.0516
  216MPD1    C2 3333   0.783   0.011  17.101 -0.2891  0.0670 -0.1688
  216MPD1    C3 3334   0.812   0.020  17.241  0.3728  0.6170  0.0544
  216MPD1    C4 3335   0.812   0.145  17.300 -0.0806  0.1570  0.1624
  216MPD1    C5 3336   0.802   0.256  17.225  0.5619 -0.6839  0.0494
  216MPD1     H 3337   0.768   4.651  17.055  1.1477  0.3204 -1.1525
  216MPD1    H1 3338   0.814   0.156  17.408 -0.1869 -1.6965  0.3484
  216MPD1    H2 3339   0.768   0.346  17.037  0.0459  1.3476  2.0691
  216MPD1    H3 3340   0.810   0.356  17.266 -1.1393 -1.0362  1.2064
  216MPD1     N 3341   0.802   4.635  17.318 -0.7280  0.0048 -0.3440
  216MPD1    H5 3342   0.814   4.553  17.258 -1.4593  0.0727 -0.5773
  216MPD1    N1 3343   0.727   0.117  16.894 -0.0950 -0.0136  0.3405
  216MPD1    H6 3344   0.769   0.038  16.846  0.7922  0.7277 -0.0994
  216MPD1    H7 3345   0.759   0.205  16.855  0.7175 -1.3030 -1.8559
  217MPD1     C 3346   0.850   0.020   8.984  0.2431 -0.3555 -0.2698
  217MPD1    C1 3347   0.863   0.055   9.122  0.4899  0.4485  0.6737
  217MPD1    C2 3348   0.864   0.186   9.163 -0.8881  0.4722 -0.1384
  217MPD1    C3 3349   0.867   0.286   9.068 -0.4174  0.2946  0.3890
  217MPD1    C4 3350   0.853   0.252   8.935 -0.4045 -0.1343 -0.1632
  217MPD1    C5 3351   0.844   0.125   8.895  0.3866  0.3778  0.4811
  217MPD1     H 3352   0.884   0.220   9.264 -1.4171 -0.9268  0.4358
  217MPD1    H1 3353   0.847   0.327   8.856 -0.0208 -0.2618 -0.3115
  217MPD1    H2 3354   0.834   4.655   8.950  0.4642 -0.6857  0.6139
  217MPD1    H3 3355   0.831   0.097   8.791  0.1114  1.3542  0.2528
  217MPD1     N 3356   0.868   0.428   9.104  0.8981  0.3953  0.5662
  217MPD1    H5 3357   0.875   0.497   9.030  1.8912  0.3723  0.6426
  217MPD1    N1 3358   0.854   4.690   9.221  0.0079  0.0459  0.1306
  217MPD1    H6 3359   0.904   4.723   9.303 -1.2410 -0.2163  0.9991
  217MPD1    H7 3360   0.898   4.607   9.181  0.3114 -0.1151  0.8091
  218MPD1     C 3361   2.929   2.778  12.485 -0.0639  0.1297  0.1097
  218MPD1    C1 3362   2.871   2.679  12.562  0.4414  0.1051  0.4169
  218MPD1    C2 3363   2.953   2.581  12.619 -0.0743  0.1039  0.1845
  218MPD1    C3 3364   3.084   2.580  12.606 -0.2499  0.5393 -0.6034
  218MPD1    C4 3365   3.145   2.685  12.539 -0.2274  0.1739  0.1275
  218MPD1    C5 3366   3.062   2.779  12.478  0.5975  0.2790 -0.3483
  218MPD1     H 3367   2.900   2.503  12.673 -0.3225 -0.0739 -0.3125
  218MPD1    H1 3368   3.250   2.702  12.519 -0.2674  0.6061  0.2754
  218MPD1    H2 3369   2.875   2.863  12.448 -1.1306  0.6390  2.8143
  218MPD1    H3 3370   3.120   2.855  12.427  2.8737  0.0863  1.9684
  218MPD1     N 3371   3.155   2.464  12.648  0.3668  0.0041 -0.4299
  218MPD1    H5 3372   3.101   2.387  12.687  1.5980  0.0894  1.4202
  218MPD1    N1 3373   2.731   2.658  12.551 -0.1719  0.4965  0.3151
  218MPD1    H6 3374   2.692   2.623  12.639 -0.3017 -2.9381 -1.1036
  218MPD1    H7 3375   2.687   2.748  12.533  1.1651  1.1617  0.3216
  219MPD1     C 3376   4.064   2.265  12.385 -0.4252  0.0553 -0.4222
  219MPD1    C1 3377   4.051   2.224  12.521 -0.2243 -0.2547 -0.2562
  219MPD1    C2 3378   3.921   2.188  12.561 -0.6778 -0.1141 -0.1092
  219MPD1    C3 3379   3.811   2.210  12.483 -0.0038 -0.5695 -0.4610
  219MPD1    C4 3380   3.831   2.267  12.357 -0.6991 -0.1983 -0.2282
  219MPD1    C5 3381   3.952   2.295  12.307  0.2929  0.0927  0.5477
  219MPD1     H 3382   3.916   2.142  12.659  1.3249  2.3484  1.1393
  219MPD1    H1 3383   3.746   2.300  12.298 -1.4230 -1.5218  0.0643
  219MPD1    H2 3384   4.164   2.267  12.342  0.1974  2.3616  1.1467
  219MPD1    H3 3385   3.973   2.345  12.213  2.1011 -1.1730  0.2819
  219MPD1     N 3386   3.678   2.182  12.516  0.2301 -0.3919 -0.1865
  219MPD1    H5 3387   3.609   2.226  12.455 -0.3839  0.1439  0.8828
  219MPD1    N1 3388   4.163   2.166  12.586 -0.2247 -0.3310  0.2847
  219MPD1    H6 3389   4.185   2.078  12.539 -2.7312 -1.7864  1.8705
  219MPD1    H7 3390   4.243   2.229  12.578 -2.0184  2.1050  1.8292
  220MPD1     C 3391   2.233   2.787   9.835 -0.0776  0.0770 -0.0889
  220MPD1    C1 3392   2.185   2.718   9.941 -0.0477 -0.3477 -0.8908
  220MPD1    C2 3393   2.270   2.626  10.010  0.4505 -0.0829 -0.6095
  220MPD1    C3 3394   2.400   2.605   9.966  0.0811 -0.4029 -0.0837
  220MPD1    C4 3395   2.448   2.691   9.870  0.2741 -0.0186  0.1203
  220MPD1    C5 3396   2.369   2.781   9.811 -0.0119  0.4598 -0.3176
  220MPD1     H 3397   2.226   2.579  10.097  0.2810 -0.4691 -0.9041
  220MPD1    H1 3398   2.549   2.689   9.830 -0.1638 -0.8158 -0.9432
  220MPD1    H2 3399   2.170   2.853   9.777 -0.3282  0.7817  0.9803
  220MPD1    H3 3400   2.405   2.849   9.734 -0.0308  0.2706 -0.4922
  220MPD1     N 3401   2.478   2.506  10.037 -0.4104 -0.0198  0.5942
  220MPD1    H5 3402   2.430   2.442  10.100  0.1945 -1.6834 -0.6165
  220MPD1    N1 3403   2.066   2.760  10.002  0.0565  0.6155  0.5737
  220MPD1    H6 3404   2.025   2.709  10.079  2.1918 -0.4024  1.0563
  220MPD1    H7 3405   1.988   2.784   9.941 -0.2885 -1.4278  0.2132
  221MPD1     C 3406   0.673   2.407  16.038  0.2542 -0.0682 -0.7349
  221MPD1    C1 3407   0.701   2.313  15.939 -0.4167 -0.4184 -0.3292
  221MPD1    C2 3408   0.791   2.213  15.960 -0.1191 -0.4986 -0.2803
  221MPD1    C3 3409   0.864   2.219  16.081  0.5014  0.4460  0.1806
  221MPD1    C4 3410   0.846   2.319  16.171 -0.5209  0.8963  0.2610
  221MPD1    C5 3411   0.742   2.406  16.150 -0.4116  0.0738 -1.3379
  221MPD1     H 3412   0.808   2.132  15.890  1.0305 -0.8744  0.4338
  221MPD1    H1 3413   0.899   2.322  16.265  0.0556  2.8211 -0.1161
  221MPD1    H2 3414   0.586   2.471  16.037  1.3631  1.4251 -1.2691
  221MPD1    H3 3415   0.706   2.469  16.230  0.4875 -1.1884  0.0626
  221MPD1     N 3416   0.956   2.123  16.116  0.6039  0.2308  0.3202
  221MPD1    H5 3417   1.019   2.139  16.195  0.6581 -0.5301  0.4287
  221MPD1    N1 3418   0.612   2.296  15.833  0.6024  0.3301  0.2291
  221MPD1    H6 3419   0.539   2.367  15.826  2.9017  2.6827 -0.1615
  221MPD1    H7 3420   0.661   2.278  15.745  0.2978  0.0147  0.1231
  222MPD1     C 3421   0.466   4.273  17.620  0.0716 -0.1040  0.1285
  222MPD1    C1 3422   0.527   4.260  17.742  1.2276  0.6239 -0.0852
  222MPD1    C2 3423   0.563   4.375   0.069 -0.7068 -0.1506  0.1738
  222MPD1    C3 3424   0.553   4.506   0.012 -0.1053 -0.1310 -0.0455
  222MPD1    C4 3425   0.495   4.516  17.630 -0.1660  0.3905  0.6273
  222MPD1    C5 3426   0.450   4.401  17.565 -0.1471  0.5487 -0.3199
  222MPD1     H 3427   0.626   4.353   0.155  0.7626 -1.2039 -1.1813
  222MPD1    H1 3428   0.485   4.618  17.593 -0.3898  0.5344  1.0714
  222MPD1    H2 3429   0.435   4.182  17.568 -0.9161  0.4895 -0.3221
  222MPD1    H3 3430   0.415   4.401  17.463 -4.1898 -2.5509  1.0621
  222MPD1     N 3431   0.596   4.624   0.079 -0.2939  0.1804 -0.2350
  222MPD1    H5 3432   0.603   4.709   0.022  1.5064 -0.1069 -0.4477
  222MPD1    N1 3433   0.570   4.132   0.035  0.7432  0.0057 -0.1038
  222MPD1    H6 3434   0.493   4.068   0.017  0.4980  0.4254 -0.5647
  222MPD1    H7 3435   0.582   4.126   0.136  0.1207  2.3332  0.1173
  223MPD1     C 3436   0.391   0.554   0.911 -1.1271 -0.0780 -0.4780
  223MPD1    C1 3437   0.493   0.609   0.833  0.7272  0.2048  0.0522
  223MPD1    C2 3438   0.550   0.531   0.737 -0.4278 -0.0407  0.8404
  223MPD1    C3 3439   0.503   0.405   0.701 -0.5861  0.7438  0.2312
  223MPD1    C4 3440   0.388   0.364   0.760 -0.4705 -0.3299 -0.1419
  223MPD1    C5 3441   0.330   0.432   0.863 -0.6932  0.0073 -0.5723
  223MPD1     H 3442   0.627   0.571   0.673 -0.8452  1.1491  1.0843
  223MPD1    H1 3443   0.338   0.271   0.738  0.6844 -0.5080 -1.9919
  223MPD1    H2 3444   0.337   0.609   0.987  2.3138 -1.2356  2.8312
  223MPD1    H3 3445   0.240   0.392   0.907 -1.5377  0.6824 -1.6659
  223MPD1     N 3446   0.567   0.347   0.590  0.1718 -0.2592  0.2338
  223MPD1    H5 3447   0.638   0.403   0.544 -0.6380  0.5460 -0.0213
  223MPD1    N1 3448   0.552   0.733   0.860  0.6131  0.3181  0.5391
  223MPD1    H6 3449   0.491   0.804   0.899 -1.3350  0.0832 -2.0733
  223MPD1    H7 3450   0.577   0.774   0.770  2.4769 -2.5473 -0.2597
  224MPD1     C 3451   1.976   2.119   9.632 -0.2545 -0.3236  0.6278
  224MPD1    C1 3452   1.838   2.131   9.659  0.0886 -0.2147  0.4863
  224MPD1    C2 3453   1.773   2.029   9.726  0.1394 -0.1651  0.4756
  224MPD1    C3 3454   1.831   1.912   9.769  0.6811 -0.2987 -0.0184
  224MPD1    C4 3455   1.963   1.898   9.736 -0.5586 -0.0953 -0.1238
  224MPD1    C5 3456   2.027   2.000   9.670 -0.4239  0.7943 -0.5725
  224MPD1     H 3457   1.666   2.035   9.740  0.2519  1.2380  0.7409
  224MPD1    H1 3458   2.020   1.806   9.736 -1.3232 -0.5755  0.4295
  224MPD1    H2 3459   2.035   2.196   9.584  0.9552  0.0639  2.7260
  224MPD1    H3 3460   2.126   1.982   9.629  0.6852 -1.8424  3.2642
  224MPD1     N 3461   1.762   1.796   9.820  0.6966  0.0195 -0.5232
  224MPD1    H5 3462   1.816   1.712   9.836 -0.6893 -0.3773  2.0694
  224MPD1    N1 3463   1.775   2.248   9.609  0.4750 -0.2457  0.1214
  224MPD1    H6 3464   1.690   2.281   9.655  1.2386  1.8265  0.0539
  224MPD1    H7 3465   1.841   2.325   9.607 -1.2087  1.2408  1.3443
  225MPD1     C 3466   3.013   3.074  12.800  0.3784  0.1158 -0.2973
  225MPD1    C1 3467   2.994   2.942  12.805 -0.5707 -0.6692 -0.4150
  225MPD1    C2 3468   2.866   2.897  12.823 -0.5466  0.1773  0.6621
  225MPD1    C3 3469   2.755   2.978  12.828  0.6260  1.0272 -0.4838
  225MPD1    C4 3470   2.784   3.112  12.828  0.1193  0.4406  0.0216
  225MPD1    C5 3471   2.917   3.165  12.819 -0.0614 -0.3385  0.2605
  225MPD1     H 3472   2.851   2.790  12.832  1.0058 -0.0274  0.7391
  225MPD1    H1 3473   2.706   3.187  12.835  0.6374  0.9721  0.1455
  225MPD1    H2 3474   3.111   3.115  12.777  0.5659  0.4154  1.0242
  225MPD1    H3 3475   2.950   3.268  12.835 -0.8217 -0.1111  0.3507
  225MPD1     N 3476   2.622   2.937  12.863 -0.5631 -0.1056  0.5772
  225MPD1    H5 3477   2.558   3.007  12.899  0.9390  2.0225 -0.9079
  225MPD1    N1 3478   3.098   2.853  12.806  0.5197  0.0751  0.2416
  225MPD1    H6 3479   3.187   2.894  12.779  0.5294 -0.1473 -0.0710
  225MPD1    H7 3480   3.083   2.769  12.750 -1.4203 -0.5212  1.6448
  226MPD1     C 3481   0.601   2.586   9.598 -0.7097  0.2471  0.6171
  226MPD1    C1 3482   0.595   2.691   9.695 -0.0752 -0.4409  0.0087
  226MPD1    C2 3483   0.704   2.766   9.712 -0.1458  0.1491 -0.1755
  226MPD1    C3 3484   0.821   2.744   9.643 -0.1253 -0.5962  0.7453
  226MPD1    C4 3485   0.833   2.649   9.546 -0.3733  1.0379 -0.4854
  226MPD1    C5 3486   0.728   2.564   9.534 -0.3065  0.2749  0.4846
  226MPD1     H 3487   0.699   2.843   9.788 -1.1229 -0.5675  0.4823
  226MPD1    H1 3488   0.924   2.621   9.493 -2.1255 -0.2668 -2.8374
  226MPD1    H2 3489   0.511   2.528   9.581 -0.4109 -0.1236  0.3113
  226MPD1    H3 3490   0.726   2.469   9.480 -0.2083  0.1147  0.7625
  226MPD1     N 3491   0.927   2.835   9.677 -0.5890  0.2017 -0.3593
  226MPD1    H5 3492   0.907   2.903   9.750  1.1752 -0.0986  0.4031
  226MPD1    N1 3493   0.472   2.724   9.748  0.8822  0.1088  0.7660
  226MPD1    H6 3494   0.403   2.650   9.738  0.3373  0.4299  2.0929
  226MPD1    H7 3495   0.473   2.759   9.844 -0.1209  3.0008 -0.2643
  227MPD1     C 3496   0.770   3.661   9.789  0.3662  0.0522 -0.3468
  227MPD1    C1 3497   0.708   3.537   9.789 -0.2273 -0.2264 -0.0147
  227MPD1    C2 3498   0.780   3.422   9.781  0.6741 -0.1257 -0.1709
  227MPD1    C3 3499   0.918   3.426   9.772 -0.4745  0.3275 -0.1331
  227MPD1    C4 3500   0.983   3.544   9.787 -0.2549  0.4058 -0.2692
  227MPD1    C5 3501   0.905   3.657   9.790 -0.3538  0.1456 -0.1223
  227MPD1     H 3502   0.728   3.328   9.768 -1.1153  0.9561 -0.9042
  227MPD1    H1 3503   1.090   3.558   9.799 -0.5275  0.6528  1.8336
  227MPD1    H2 3504   0.724   3.759   9.799 -1.5805 -0.7741 -1.1354
  227MPD1    H3 3505   0.959   3.750   9.797  0.2680 -0.2973  0.9353
  227MPD1     N 3506   0.991   3.310   9.744  0.1474 -0.0458 -0.4214
  227MPD1    H5 3507   0.943   3.222   9.761  0.4668 -0.2089 -0.3660
  227MPD1    N1 3508   0.569   3.527   9.784  0.1152  0.2888 -0.6355
  227MPD1    H6 3509   0.534   3.448   9.839  3.0338 -0.1480  0.5901
  227MPD1    H7 3510   0.522   3.608   9.823  0.2421  0.1180 -0.1139
  228MPD1     C 3511   4.214   0.629  12.911  0.3539 -0.7650 -0.3824
  228MPD1    C1 3512   4.085   0.670  12.898  0.0026 -0.6990 -0.1526
  228MPD1    C2 3513   3.992   0.615  12.983  0.3047 -0.0247  0.1782
  228MPD1    C3 3514   4.030   0.542  13.095 -1.0171 -0.3285 -0.0505
  228MPD1    C4 3515   4.162   0.508  13.110 -0.7459 -0.2992 -0.0383
  228MPD1    C5 3516   4.250   0.558  13.015  0.5800  0.2332  0.1924
  228MPD1     H 3517   3.885   0.621  12.964  0.0270 -0.4943  1.5518
  228MPD1    H1 3518   4.205   0.451  13.192 -0.7677 -1.0027 -0.5169
  228MPD1    H2 3519   4.293   0.652  12.840  0.6567  4.2035  1.5737
  228MPD1    H3 3520   4.355   0.536  13.036  0.0815  1.7654  4.2097
  228MPD1     N 3521   3.930   0.482  13.181  0.4386 -0.2467 -0.2498
  228MPD1    H5 3522   3.832   0.488  13.156  0.9076  2.7765 -1.2865
  228MPD1    N1 3523   4.041   0.746  12.795  0.3206 -0.1237 -0.2156
  228MPD1    H6 3524   3.952   0.793  12.810  0.8697  0.9196 -0.2169
  228MPD1    H7 3525   4.110   0.813  12.762  1.2426 -0.8480  0.2180
  229MPD1     C 3526   4.520   4.486  14.744 -0.5685 -0.3016 -0.1839
  229MPD1    C1 3527   4.420   4.395  14.746  0.0388  0.3776  0.2670
  229MPD1    C2 3528   4.448   4.275  14.812 -0.7166  0.6693  0.4204
  229MPD1    C3 3529   4.567   4.252  14.874  0.7449  0.6284  0.0625
  229MPD1    C4 3530   4.664   4.348  14.869 -0.1859  0.0669  0.1155
  229MPD1    C5 3531   4.639   4.471  14.810  0.7942  0.1703 -0.3302
  229MPD1     H 3532   4.375   4.195  14.801  1.5217 -1.1113 -1.5375
  229MPD1    H1 3533   0.022   4.341  14.920 -0.8701 -0.5439  1.3067
  229MPD1    H2 3534   4.509   4.576  14.685  0.4613 -0.7299 -1.0247
  229MPD1    H3 3535   4.708   4.554  14.804 -0.8154  1.5366 -0.0089
  229MPD1     N 3536   4.599   4.126  14.930  0.7434  0.2118  0.1103
  229MPD1    H5 3537   4.694   4.110  14.959  0.9953 -1.5288 -1.6533
  229MPD1    N1 3538   4.312   4.418  14.662 -0.6795  0.2219  0.2636
  229MPD1    H6 3539   4.290   4.517  14.672 -0.6820  0.3260 -0.8038
  229MPD1    H7 3540   4.228   4.369  14.692 -1.4935  0.3718 -1.7781
  230MPD1     C 3541   4.048   3.544  15.555  0.0153  0.5483 -0.2246
  230MPD1    C1 3542   4.013   3.639  15.466 -0.1189 -0.6005  0.2970
  230MPD1    C2 3543   4.110   3.723  15.421  0.3300  0.5145 -0.1686
  230MPD1    C3 3544   4.242   3.683  15.424 -0.1573  0.0742  0.0985
  230MPD1    C4 3545   4.275   3.573  15.497 -0.3670  0.6569 -0.2319
  230MPD1    C5 3546   4.178   3.505  15.562  0.5965 -0.1064  0.1369
  230MPD1     H 3547   4.084   3.810  15.361  1.5223  1.4211  0.6321
  230MPD1    H1 3548   4.376   3.537  15.517 -0.4206  0.3737 -0.4792
  230MPD1    H2 3549   3.983   3.459  15.574 -0.0041  0.4844 -0.5772
  230MPD1    H3 3550   4.218   3.414  15.605 -0.5220 -1.0948 -0.9050
  230MPD1     N 3551   4.339   3.752  15.347  0.2566  0.1517 -0.3063
  230MPD1    H5 3552   4.297   3.826  15.292 -1.9871 -0.9838 -0.1395
  230MPD1    N1 3553   3.873   3.671  15.459 -0.7547  0.1453 -0.3563
  230MPD1    H6 3554   3.815   3.591  15.481  3.1490 -2.6438 -0.1021
  230MPD1    H7 3555   3.839   3.710  15.372  0.8210 -0.3088 -1.1843
  231MPD1     C 3556   2.493   1.273  15.722 -0.0265  0.4044  0.6550
  231MPD1    C1 3557   2.488   1.348  15.606  0.2049  0.2735  1.0748
  231MPD1    C2 3558   2.574   1.314  15.506 -0.5721 -0.0652 -0.3394
  231MPD1    C3 3559   2.665   1.215  15.522  0.1524 -0.6170 -0.3176
  231MPD1    C4 3560   2.671   1.138  15.636 -0.0445  0.6409  0.5178
  231MPD1    C5 3561   2.580   1.167  15.737 -0.0836  0.2191 -0.5476
  231MPD1     H 3562   2.573   1.377  15.418 -0.2270 -0.7740 -0.8469
  231MPD1    H1 3563   2.753   1.069  15.649 -1.0877 -0.7485 -0.2961
  231MPD1    H2 3564   2.426   1.292  15.804  0.3253  2.3673  0.4836
  231MPD1    H3 3565   2.603   1.127  15.836  3.8279 -0.0315 -1.5631
  231MPD1     N 3566   2.764   1.195  15.417 -0.2802 -0.3000 -0.2063
  231MPD1    H5 3567   2.794   1.272  15.358 -1.8337  1.3804  1.1806
  231MPD1    N1 3568   2.407   1.468  15.610  0.5527 -0.2991  0.5469
  231MPD1    H6 3569   2.325   1.458  15.668 -0.8384 -0.7498 -1.5064
  231MPD1    H7 3570   2.384   1.514  15.523  1.3048 -0.9351  0.0070
  232MPD1     C 3571   0.218   3.088   0.470  0.1523 -0.6445 -0.5746
  232MPD1    C1 3572   0.088   3.109   0.522 -0.4638 -0.0153  0.1791
  232MPD1    C2 3573   4.720   3.114   0.425 -0.0445  0.3751  0.9117
  232MPD1    C3 3574   0.014   3.110   0.289  0.1128  0.2234 -0.7679
  232MPD1    C4 3575   0.142   3.119   0.247 -0.4218  0.4494 -0.8176
  232MPD1    C5 3576   0.250   3.097   0.339 -0.0262  0.9128  0.0170
  232MPD1     H 3577   4.615   3.108   0.451 -0.4766 -2.8309 -1.5058
  232MPD1    H1 3578   0.161   3.130   0.141  0.8885 -2.1086 -0.8645
  232MPD1    H2 3579   0.301   3.076   0.539 -1.1079 -1.2601  0.8266
  232MPD1    H3 3580   0.353   3.083   0.310 -0.2997  0.6729 -0.8449
  232MPD1     N 3581   4.641   3.118   0.198 -0.1979 -0.2417 -0.1728
  232MPD1    H5 3582   4.554   3.144   0.243  0.3177 -1.6557  1.6175
  232MPD1    N1 3583   0.066   3.090   0.661  0.1204  0.0996 -0.4093
  232MPD1    H6 3584   4.709   3.127   0.676  0.0017 -0.1864 -0.4598
  232MPD1    H7 3585   0.140   3.137   0.714 -0.6573 -0.3123  1.0476
  233MPD1     C 3586   0.326   0.863   1.808 -0.4955 -0.3729  0.3066
  233MPD1    C1 3587   0.358   0.892   1.679  0.5097 -0.2551  0.1926
  233MPD1    C2 3588   0.465   0.827   1.618  0.0965 -0.2204 -0.9215
  233MPD1    C3 3589   0.546   0.742   1.689 -0.5656  0.3145 -0.9502
  233MPD1    C4 3590   0.522   0.718   1.821 -0.4770 -0.0216 -0.4312
  233MPD1    C5 3591   0.406   0.771   1.875 -0.0689  0.2876 -0.1074
  233MPD1     H 3592   0.491   0.849   1.515  0.4735  1.5276 -0.4616
  233MPD1    H1 3593   0.570   0.643   1.883 -0.3443  1.0187  0.7193
  233MPD1    H2 3594   0.239   0.896   1.864 -0.7030  0.3577 -0.4524
  233MPD1    H3 3595   0.396   0.745   1.980 -2.6561 -1.7995 -0.8756
  233MPD1     N 3596   0.651   0.669   1.643 -0.0232 -1.0004  0.1838
  233MPD1    H5 3597   0.709   0.619   1.710  1.2571 -0.3174 -0.4113
  233MPD1    N1 3598   0.271   0.966   1.596 -0.1000 -0.0344 -0.0378
  233MPD1    H6 3599   0.315   1.019   1.520 -1.9087 -1.3046 -1.9601
  233MPD1    H7 3600   0.230   1.036   1.658 -1.4344 -0.0155 -0.9569
  234MPD1     C 3601   2.612   1.075   9.351  0.2625  0.6014  0.3121
  234MPD1    C1 3602   2.594   1.035   9.485  0.1079  0.1049  0.8913
  234MPD1    C2 3603   2.482   0.963   9.522  0.0688  0.2273  0.4582
  234MPD1    C3 3604   2.397   0.926   9.420 -0.4649  0.2084 -0.5229
  234MPD1    C4 3605   2.415   0.964   9.286  0.0611 -0.4967 -0.0500
  234MPD1    C5 3606   2.522   1.039   9.251 -0.1105  0.6599 -0.1290
  234MPD1     H 3607   2.463   0.936   9.625 -0.1767  1.2598  0.6868
  234MPD1    H1 3608   2.350   0.948   9.201 -0.9842  0.6902  0.5160
  234MPD1    H2 3609   2.706   1.120   9.322 -0.3202  0.5758 -1.5844
  234MPD1    H3 3610   2.542   1.051   9.145  3.3209  0.3915  0.4743
  234MPD1     N 3611   2.270   0.871   9.452 -0.7880  0.1985  0.9854
  234MPD1    H5 3612   2.245   0.864   9.550  0.1061 -1.8836  1.0653
  234MPD1    N1 3613   2.682   1.074   9.590 -0.4999 -0.0362 -0.2787
  234MPD1    H6 3614   2.775   1.095   9.555  0.6459 -3.3604  0.8379
  234MPD1    H7 3615   2.701   1.008   9.664 -1.1220  0.4641  0.3316
  235MPD1     C 3616   3.515   2.775  10.118  0.5151 -0.0456  0.4014
  235MPD1    C1 3617   3.430   2.880  10.147 -0.0512 -0.3495  0.9246
  235MPD1    C2 3618   3.481   2.999  10.190 -0.3430  0.0431  0.0865
  235MPD1    C3 3619   3.613   3.015  10.218 -0.5114 -0.2394 -0.4564
  235MPD1    C4 3620   3.696   2.907  10.201  0.3873  0.0477 -0.1304
  235MPD1    C5 3621   3.647   2.799  10.143 -0.6958  0.2348 -0.1401
  235MPD1     H 3622   3.409   3.080  10.197 -0.8266 -0.5300  1.8864
  235MPD1    H1 3623   3.801   2.901  10.226  1.4484 -0.1530 -4.5280
  235MPD1    H2 3624   3.484   2.676  10.086 -0.0190  1.0984 -2.5883
  235MPD1    H3 3625   3.713   2.714  10.128 -0.1529  0.9769 -2.0288
  235MPD1     N 3626   3.657   3.142  10.267 -0.2904  0.7681  0.5173
  235MPD1    H5 3627   3.584   3.210  10.246  0.8750  1.3989 -1.4642
  235MPD1    N1 3628   3.291   2.872  10.107 -0.2606  0.2928  0.1426
  235MPD1    H6 3629   3.221   2.919  10.164  1.8255  2.3400  1.0086
  235MPD1    H7 3630   3.263   2.775  10.098  1.2906 -0.3085  1.7628
  236MPD1     C 3631   2.093   4.129  10.003  0.0068  0.3603  0.7203
  236MPD1    C1 3632   2.203   4.210   9.976  0.4387 -0.0004  0.2222
  236MPD1    C2 3633   2.311   4.199  10.068  0.5092 -0.7734 -0.1100
  236MPD1    C3 3634   2.307   4.105  10.172  0.3530 -0.4874  0.5382
  236MPD1    C4 3635   2.202   4.008  10.190 -0.5512 -0.4575  0.2418
  236MPD1    C5 3636   2.094   4.030  10.096 -0.0706 -0.3641  0.1481
  236MPD1     H 3637   2.404   4.255  10.058 -0.7111  1.3744  0.6534
  236MPD1    H1 3638   2.201   3.923  10.259  0.1820  0.7099  1.6975
  236MPD1    H2 3639   1.998   4.142   9.953  0.5268 -1.2448 -0.6807
  236MPD1    H3 3640   2.021   3.950  10.097 -3.0154  2.2917  0.3425
  236MPD1     N 3641   2.410   4.073  10.262 -0.8187 -0.1434 -0.0506
  236MPD1    H5 3642   2.391   3.998  10.328  0.9603  0.9022  1.6522
  236MPD1    N1 3643   2.189   4.309   9.884 -0.3887  0.6453 -0.1201
  236MPD1    H6 3644   2.278   4.351   9.859  0.7384 -1.3326  0.6582
  236MPD1    H7 3645   2.135   4.278   9.803 -0.1234 -0.5439  0.1625
  237MPD1     C 3646   3.522   2.664  15.574 -0.1391 -0.2938 -0.7377
  237MPD1    C1 3647   3.502   2.543  15.516  0.3631 -0.2994 -0.0529
  237MPD1    C2 3648   3.370   2.519  15.479 -0.4393  0.3103  0.2621
  237MPD1    C3 3649   3.277   2.618  15.480 -1.1858 -0.1237 -0.1829
  237MPD1    C4 3650   3.308   2.739  15.528 -0.6405  0.1257 -0.8939
  237MPD1    C5 3651   3.429   2.761  15.586  0.0123 -0.2303  0.0221
  237MPD1     H 3652   3.347   2.419  15.443  0.3603 -0.8022  2.8094
  237MPD1    H1 3653   3.230   2.814  15.524 -0.3780  0.3931 -0.9443
  237MPD1    H2 3654   3.624   2.693  15.599 -0.2763 -1.7782  1.5351
  237MPD1    H3 3655   3.453   2.856  15.632 -0.4687 -0.3101  0.4442
  237MPD1     N 3656   3.144   2.595  15.453  0.2581 -0.3297 -0.6774
  237MPD1    H5 3657   3.091   2.680  15.467  1.0234 -0.1544  1.2194
  237MPD1    N1 3658   3.606   2.444  15.501 -0.0314 -0.1096 -0.1373
  237MPD1    H6 3659   3.589   2.355  15.455  1.0008  0.5247 -1.7502
  237MPD1    H7 3660   3.699   2.483  15.483  0.8784 -3.0287 -1.6268
  238MPD1     C 3661   0.438   0.987  15.165  0.1634 -0.2019 -0.5696
  238MPD1    C1 3662   0.393   0.867  15.108 -0.2897 -0.0748  0.2635
  238MPD1    C2 3663   0.261   0.856  15.076 -0.0943 -0.0782  0.8879
  238MPD1    C3 3664   0.165   0.937  15.137  0.0728  0.0314  0.5051
  238MPD1    C4 3665   0.213   1.049  15.199 -0.8657  0.5465  0.0257
  238MPD1    C5 3666   0.345   1.080  15.211  0.8610 -0.2349  0.2069
  238MPD1     H 3667   0.228   0.764  15.029 -0.4691  1.3951 -1.7011
  238MPD1    H1 3668   0.146   1.118  15.249  0.1001  0.4137  1.5103
  238MPD1    H2 3669   0.545   0.998  15.179 -0.0548  1.9609 -0.6011
  238MPD1    H3 3670   0.364   1.174  15.260 -1.0812  0.6731 -0.7871
  238MPD1     N 3671   0.027   0.912  15.133  0.1842  0.6708 -0.1563
  238MPD1    H5 3672   4.704   0.962  15.198  0.5028  1.4044 -0.4269
  238MPD1    N1 3673   0.489   0.783  15.051 -0.6650  1.0458  0.4270
  238MPD1    H6 3674   0.448   0.694  15.025 -0.4641  1.2014 -0.4177
  238MPD1    H7 3675   0.579   0.778  15.099  0.5923  1.5435 -1.8632
  239MPD1     C 3676   0.111   1.697  15.176 -0.3126 -0.9244  0.3188
  239MPD1    C1 3677   0.206   1.743  15.085  0.4801  0.3616  0.2633
  239MPD1    C2 3678   0.189   1.858  15.012 -0.7770 -0.1858  0.5385
  239MPD1    C3 3679   0.071   1.928  15.018  0.0726 -0.5972  0.0161
  239MPD1    C4 3680   4.716   1.891  15.113 -0.5604  0.5256 -0.3725
  239MPD1    C5 3681   0.002   1.778  15.196 -0.4761 -0.2223 -0.8288
  239MPD1     H 3682   0.268   1.890  14.944 -0.7974  0.3872  0.7804
  239MPD1    H1 3683   4.622   1.944  15.123  0.7345  2.3440  2.1907
  239MPD1    H2 3684   0.124   1.619  15.250 -0.5612  1.7930  3.2002
  239MPD1    H3 3685   4.676   1.753  15.281 -1.0082  0.3762 -1.0531
  239MPD1     N 3686   0.032   2.023  14.924 -0.9521  0.6144 -0.4300
  239MPD1    H5 3687   4.668   2.036  14.925 -1.0592 -0.3427  0.6221
  239MPD1    N1 3688   0.324   1.661  15.064  0.2035  0.4987 -0.1485
  239MPD1    H6 3689   0.329   1.568  15.104 -2.3732 -0.3943 -1.9753
  239MPD1    H7 3690   0.338   1.640  14.966  0.9262  1.1804 -0.1917
  240MPD1     C 3691   4.004   1.737  13.998  0.2954  0.2309  0.3418
  240MPD1    C1 3692   3.899   1.657  14.050 -0.0547  0.0109 -0.3983
  240MPD1    C2 3693   3.927   1.600  14.174 -0.1313  0.4589  0.1080
  240MPD1    C3 3694   4.054   1.602  14.233  0.9704  0.9569 -0.0517
  240MPD1    C4 3695   4.151   1.690  14.185  0.0702 -0.0103 -0.2447
  240MPD1    C5 3696   4.120   1.751  14.066  0.5106  0.2136  0.0702
  240MPD1     H 3697   3.843   1.549  14.221  1.1949  0.4534  2.4700
  240MPD1    H1 3698   4.245   1.714  14.233 -1.6926  2.9931  1.7272
  240MPD1    H2 3699   3.986   1.808  13.918  1.0323  2.2086  1.9135
  240MPD1    H3 3700   4.190   1.828  14.034 -1.1868  1.8181  0.2202
  240MPD1     N 3701   4.058   1.538  14.358  0.1754 -0.4562 -0.6630
  240MPD1    H5 3702   3.970   1.517  14.405  1.5136  0.3075  2.2075
  240MPD1    N1 3703   3.767   1.671  14.003 -0.3014  0.0105 -0.3300
  240MPD1    H6 3704   3.699   1.602  14.034  0.6434 -0.1399  1.4125
  240MPD1    H7 3705   3.763   1.669  13.902 -0.7772 -0.5993 -0.3036
  241MPD1     C 3706   4.533   1.464  15.305  0.1570 -1.0384  0.2694
  241MPD1    C1 3707   4.599   1.411  15.192  0.3446  0.3476  0.7067
  241MPD1    C2 3708   4.531   1.397  15.077 -0.3137 -0.1091 -0.0027
  241MPD1    C3 3709   4.395   1.447  15.059 -0.4682 -0.6465 -0.1886
  241MPD1    C4 3710   4.338   1.499  15.171  0.6972 -0.8187 -0.4643
  241MPD1    C5 3711   4.403   1.511  15.292 -0.0474 -1.1088  0.2215
  241MPD1     H 3712   4.576   1.330  15.005  1.7774 -0.4149  1.5946
  241MPD1    H1 3713   4.234   1.531  15.169  1.3464  1.2486 -1.0475
  241MPD1    H2 3714   4.588   1.467  15.399 -0.6303  2.0900  0.6198
  241MPD1    H3 3715   4.352   1.552  15.379  0.6330  0.6044 -0.1814
  241MPD1     N 3716   4.320   1.421  14.943  0.2417  0.2240 -0.1057
  241MPD1    H5 3717   4.221   1.439  14.955 -0.6139 -5.3427  1.3910
  241MPD1    N1 3718   4.734   1.360  15.206 -0.0113  0.3805  0.5439
  241MPD1    H6 3719   0.044   1.373  15.117  2.6534 -0.8684  1.7695
  241MPD1    H7 3720   0.057   1.399  15.279 -0.5375  1.2764  0.4985
  242MPD1     C 3721   3.908   0.237  15.773 -0.1645  0.7083  0.2388
  242MPD1    C1 3722   3.963   0.311  15.669 -0.1854 -0.2202  0.1933
  242MPD1    C2 3723   3.987   0.255  15.549  0.4141 -0.0119 -0.2508
  242MPD1    C3 3724   3.974   0.117  15.529  0.0687  0.3215  0.2850
  242MPD1    C4 3725   3.920   0.037  15.633 -0.1133 -0.4050  0.4905
  242MPD1    C5 3726   3.883   0.102  15.748 -0.1632  0.1257 -0.0850
  242MPD1     H 3727   4.021   0.316  15.466 -2.3808  0.9705 -0.6776
  242MPD1    H1 3728   3.900   4.669  15.620 -0.7926 -0.5452  2.5687
  242MPD1    H2 3729   3.909   0.273  15.875  0.0820 -1.5289  1.0114
  242MPD1    H3 3730   3.842   0.040  15.827 -1.1326  2.4896  1.2811
  242MPD1     N 3731   4.035   0.042  15.424 -0.3889  0.3243  0.3524
  242MPD1    H5 3732   4.044   4.679  15.437  1.9762  0.6099  1.0170
  242MPD1    N1 3733   3.994   0.439  15.689  0.3469  0.0745 -0.4611
  242MPD1    H6 3734   4.019   0.498  15.610  0.0530  3.8987  2.2745
  242MPD1    H7 3735   3.926   0.491  15.745  1.2439  0.4730  0.2609
  243MPD1     C 3736   0.915   3.736   0.215 -0.1649  1.1652  0.2978
  243MPD1    C1 3737   0.990   3.650   0.292 -1.0555  0.0429  0.1522
  243MPD1    C2 3738   0.985   3.511   0.265  0.0428  0.2044 -0.2157
  243MPD1    C3 3739   0.914   3.462   0.157 -0.1478  0.1814  0.2444
  243MPD1    C4 3740   0.845   3.545   0.076 -0.1615  0.0332 -0.7993
  243MPD1    C5 3741   0.847   3.675   0.106  1.0505 -0.0389 -0.4056
  243MPD1     H 3742   1.046   3.443   0.323  1.2562  1.3117 -0.1815
  243MPD1    H1 3743   0.784   3.513  17.740 -0.4084  0.6912 -0.8670
  243MPD1    H2 3744   0.914   3.844   0.224  1.0970  1.2026  0.0434
  243MPD1    H3 3745   0.788   3.738   0.041 -2.5861 -1.5471  1.4217
  243MPD1     N 3746   0.922   3.326   0.133 -0.4523  0.0331 -0.4065
  243MPD1    H5 3747   0.974   3.271   0.200 -1.0861  0.6863  0.6119
  243MPD1    N1 3748   1.088   3.703   0.380 -0.4230  0.3652  0.4890
  243MPD1    H6 3749   1.122   3.641   0.453 -1.4982 -0.1858  0.5254
  243MPD1    H7 3750   1.063   3.799   0.405 -3.0538 -0.0350 -0.5536
  244MPD1     C 3751   1.178   2.406   0.444 -0.4889 -0.2002  0.4468
  244MPD1    C1 3752   1.098   2.367   0.335  1.2715 -0.1396  0.1325
  244MPD1    C2 3753   1.035   2.465   0.268  0.2746 -0.1178  0.3309
  244MPD1    C3 3754   1.067   2.598   0.298  0.1336 -0.1661  0.1822
  244MPD1    C4 3755   1.144   2.639   0.410  0.4430 -0.0426  0.5791
  244MPD1    C5 3756   1.205   2.540   0.480  0.6637  0.2557 -0.7296
  244MPD1     H 3757   0.965   2.441   0.189  0.0893  0.8554  0.2030
  244MPD1    H1 3758   1.164   2.741   0.439  4.5364 -1.0413  1.2041
  244MPD1    H2 3759   1.218   2.327   0.506 -1.0765 -0.7694  0.1061
  244MPD1    H3 3760   1.272   2.558   0.563 -0.3349 -2.5785  0.7027
  244MPD1     N 3761   1.003   2.695   0.214  0.3603  0.6580 -0.0839
  244MPD1    H5 3762   0.946   2.643   0.148 -0.2388  0.3597  0.6805
  244MPD1    N1 3763   1.047   2.231   0.325 -0.7188 -0.2390  0.5741
  244MPD1    H6 3764   1.033   2.193   0.232  1.3132  2.6965 -0.9165
  244MPD1    H7 3765   1.110   2.159   0.360  0.9295  1.3294  0.8276
  245MPD1     C 3766   2.316   4.111  13.177  0.5253  0.2757 -0.4257
  245MPD1    C1 3767   2.391   4.025  13.254 -0.3409  0.0319  0.4601
  245MPD1    C2 3768   2.449   4.078  13.367 -0.3544 -0.1457  0.1409
  245MPD1    C3 3769   2.463   4.209  13.387  0.1906 -0.3554 -0.3801
  245MPD1    C4 3770   2.410   4.295  13.290  0.7118 -0.0044 -0.4222
  245MPD1    C5 3771   2.331   4.246  13.193 -0.0356  0.0484 -0.1644
  245MPD1     H 3772   2.500   4.008  13.432  1.5927  0.9448 -0.2213
  245MPD1    H1 3773   2.419   4.402  13.295  0.6618 -0.0706  1.2171
  245MPD1    H2 3774   2.264   4.079  13.087  2.4339 -2.3739 -0.5876
  245MPD1    H3 3775   2.269   4.321  13.146  1.1567  1.7058  0.9318
  245MPD1     N 3776   2.523   4.266  13.498  0.2659 -0.5537  0.6414
  245MPD1    H5 3777   2.531   4.367  13.498 -0.3262 -0.5245 -2.0005
  245MPD1    N1 3778   2.397   3.883  13.231  0.3426 -0.1553  0.9642
  245MPD1    H6 3779   2.407   3.871  13.130  2.0664  0.5455  1.0412
  245MPD1    H7 3780   2.464   3.829  13.284  1.6929 -1.2408 -1.8220
  246MPD1     C 3781   2.928   1.540   9.853  0.4505  0.1011 -0.0066
  246MPD1    C1 3782   2.978   1.450   9.947  0.6286 -0.0787  0.6908
  246MPD1    C2 3783   3.019   1.327   9.897  0.3995  0.5303 -0.5579
  246MPD1    C3 3784   2.999   1.289   9.759 -0.9138  0.0977 -0.0216
  246MPD1    C4 3785   2.943   1.381   9.681  0.3236 -0.0682  0.2732
  246MPD1    C5 3786   2.925   1.507   9.722  0.4095  0.0354  0.0808
  246MPD1     H 3787   3.073   1.264   9.967 -1.3015 -0.4512 -0.1403
  246MPD1    H1 3788   2.922   1.353   9.578  1.2089  2.4628 -0.5767
  246MPD1    H2 3789   2.900   1.642   9.875 -2.5001 -0.0905 -2.8539
  246MPD1    H3 3790   2.865   1.568   9.655 -0.0805  0.6355  1.0770
  246MPD1     N 3791   3.031   1.159   9.713  0.8809  0.1170  0.8541
  246MPD1    H5 3792   3.075   1.104   9.786 -1.6752 -0.8244  1.6644
  246MPD1    N1 3793   3.005   1.497  10.075 -0.1850 -0.1499 -0.2438
  246MPD1    H6 3794   2.942   1.567  10.114  1.6235  0.5482  1.4375
  246MPD1    H7 3795   3.010   1.428  10.149  1.4024  1.6032  1.2983
  247MPD1     C 3796   2.328   3.156  16.388  0.2083 -0.0209 -0.0072
  247MPD1    C1 3797   2.332   3.165  16.256 -0.1630  0.1538 -0.3393
  247MPD1    C2 3798   2.235   3.238  16.194  0.6948  1.0159  0.0883
  247MPD1    C3 3799   2.149   3.324  16.261 -0.3819 -0.0040  0.1428
  247MPD1    C4 3800   2.157   3.324  16.395  0.2780 -0.9028 -0.1071
  247MPD1    C5 3801   2.242   3.240  16.460 -0.6692 -0.1658  0.1036
  247MPD1     H 3802   2.222   3.227  16.087  3.2585  3.0124 -0.4123
  247MPD1    H1 3803   2.081   3.381  16.448 -1.4521 -0.7040 -2.8282
  247MPD1    H2 3804   2.388   3.084  16.442  1.6551  1.8949  0.9340
  247MPD1    H3 3805   2.260   3.243  16.567 -0.0417  0.4899 -0.0182
  247MPD1     N 3806   2.058   3.419  16.207 -0.1364 -0.2998  0.5281
  247MPD1    H5 3807   2.018   3.495  16.261 -0.5823  0.8257 -1.3536
  247MPD1    N1 3808   2.407   3.071  16.174  0.0425  0.1275  1.0437
  247MPD1    H6 3809   2.422   3.112  16.082 -0.9451 -1.2196  0.2833
  247MPD1    H7 3810   2.504   3.061  16.204  0.3580  1.5965  0.5143
  248MPD1     C 3811   2.647   2.506  17.499  0.6339 -0.4308 -0.1198
  248MPD1    C1 3812   2.771   2.510  17.566  0.1744 -0.5569  0.0726
  248MPD1    C2 3813   2.777   2.599  17.669  0.1266 -0.1469  0.5102
  248MPD1    C3 3814   2.686   2.704  17.690 -0.6238  0.4819 -0.3709
  248MPD1    C4 3815   2.577   2.710  17.609  0.5402 -0.4729  0.2026
  248MPD1    C5 3816   2.558   2.612  17.515 -0.2835  0.0098 -0.2252
  248MPD1     H 3817   2.857   2.592  17.743 -1.2261  0.9253  2.0745
  248MPD1    H1 3818   2.492   2.775  17.630  1.3989  0.7525 -0.1118
  248MPD1    H2 3819   2.629   2.447  17.410 -1.7894 -0.4873  0.4021
  248MPD1    H3 3820   2.467   2.605  17.455  0.0870 -2.2750 -0.5183
  248MPD1     N 3821   2.695   2.795   0.058  0.0626  0.0397 -0.3394
  248MPD1    H5 3822   2.776   2.784   0.119 -1.6731  1.1401  2.1460
  248MPD1    N1 3823   2.850   2.395  17.561 -0.6707 -0.1310  0.4595
  248MPD1    H6 3824   2.943   2.408  17.601 -0.9748  1.5968  0.6088
  248MPD1    H7 3825   2.857   2.357  17.467 -1.6504 -1.0212  0.7385
  249MPD1     C 3826   4.460   1.587   9.998 -0.0035  0.3583  0.2397
  249MPD1    C1 3827   4.423   1.690  10.088  0.2691 -0.3507  0.5178
  249MPD1    C2 3828   4.479   1.814  10.068 -0.3286 -0.7982 -0.7438
  249MPD1    C3 3829   4.564   1.831   9.964  0.4938  0.1242 -0.6017
  249MPD1    C4 3830   4.602   1.731   9.877 -0.3801 -0.3560  0.3797
  249MPD1    C5 3831   4.547   1.609   9.894  0.7886 -0.0655 -0.5621
  249MPD1     H 3832   4.443   1.901  10.123 -0.6946 -1.2620 -0.2553
  249MPD1    H1 3833   4.673   1.745   9.796 -0.2373 -0.0405  0.5602
  249MPD1    H2 3834   4.411   1.490  10.001 -1.3140  0.9975 -0.2286
  249MPD1    H3 3835   4.577   1.532   9.825  0.4787  0.8065 -1.6762
  249MPD1     N 3836   4.618   1.963   9.951 -0.2266 -0.3800 -0.3290
  249MPD1    H5 3837   4.594   2.032  10.022 -0.9824 -2.4153  1.3755
  249MPD1    N1 3838   4.321   1.682  10.185  0.1855  0.0205 -0.1972
  249MPD1    H6 3839   4.333   1.602  10.247 -1.0782 -0.7411 -0.9291
  249MPD1    H7 3840   4.312   1.768  10.239  2.2183 -0.7644  1.3927
  250MPD2     C 3841   0.805   2.191  12.989 -0.2503 -0.6586  0.1964
  250MPD2    C1 3842   0.665   2.214  12.961 -0.2639 -0.3802 -0.0405
  250MPD2    C2 3843   0.568   2.138  13.022  0.7275  0.4285  0.3818
  250MPD2    C3 3844   0.612   2.046  13.119 -0.5432  0.3818 -0.0344
  250MPD2    C4 3845   0.745   2.019  13.138  0.5125  0.0413 -1.1155
  250MPD2    C5 3846   0.840   2.085  13.072  0.0658 -0.1742 -0.3535
  250MPD2     H 3847   0.465   2.152  12.993 -0.0058 -2.5113  1.5136
  250MPD2    H1 3848   0.784   1.945  13.207 -2.4784  0.6085  1.1819
  250MPD2    H2 3849   0.887   2.246  12.943 -0.3523 -0.3011  0.4486
  250MPD2    H3 3850   0.946   2.067  13.085  0.6073  2.4822 -1.1760
  250MPD2     N 3851   0.529   1.961  13.190 -0.2696  0.3297  0.2237
  250MPD2    H5 3852   0.573   1.884  13.238 -1.6695  0.5105  1.7954
  250MPD2    N1 3853   0.630   2.327  12.884 -0.7104 -0.2967  0.4252
  250MPD2    H7 3854   0.702   2.368  12.825 -1.0030  1.1945  1.0924
  251TMC3    C1 3855   0.519   2.536  12.846  0.1608 -0.2340  0.2097
  251TMC3    C2 3856   0.403   2.607  12.856  0.5777 -0.3674  0.4716
  251TMC3    C3 3857   0.404   2.737  12.801  0.0877 -0.0611 -0.4531
  251TMC3    C4 3858   0.638   2.600  12.804 -0.3091 -0.5837  0.7022
  251TMC3    C5 3859   0.637   2.724  12.752 -0.4972  0.5311  1.1445
  251TMC3    C6 3860   0.516   2.797  12.744  0.0126 -0.0308 -0.3122
  251TMC3     C 3861   0.512   2.397  12.898 -0.7825 -0.7100 -0.2396
  251TMC3     O 3862   0.412   2.375  12.959 -0.6201  0.0994 -0.1170
  251TMC3     H 3863   0.311   2.557  12.881 -0.3191  0.6702 -0.7900
  251TMC3    H1 3864   0.733   2.547  12.811  1.4946  2.4276 -1.2988
  251TMC3    H2 3865   0.500   2.900  12.715 -2.0616 -0.3453 -0.2926
  251TMC3    C7 3866   0.762   2.795  12.735 -0.1885  0.8923 -0.7264
  251TMC3    C8 3867   0.275   2.808  12.807 -0.3918 -0.0274 -0.2213
  251TMC3    O1 3868   0.859   2.727  12.753  0.4883  0.0756 -0.0590
  251TMC3    O2 3869   0.192   2.754  12.874 -0.7105 -0.1364  0.5555
  252TMC3    C1 3870   1.221   3.461  10.099  0.1212 -0.4992  0.8426
  252TMC3    C2 3871   1.298   3.567  10.049  0.3759  0.8666 -0.4440
  252TMC3    C3 3872   1.418   3.533   9.991 -0.3638 -0.1765 -0.1527
  252TMC3    C4 3873   1.259   3.333  10.102  0.3334 -0.4865  0.3695
  252TMC3    C5 3874   1.382   3.307  10.052 -0.3110 -0.1963  0.4388
  252TMC3    C6 3875   1.467   3.402   9.991 -0.3296  0.4056  0.1671
  252TMC3     C 3876   1.084   3.475  10.125 -0.2162  0.1281  0.2093
  252TMC3     O 3877   1.019   3.375  10.152 -0.2923 -0.7462 -0.2392
  252TMC3     H 3878   1.258   3.666  10.031 -0.2913  0.6401 -0.1911
  252TMC3    H1 3879   1.196   3.253  10.140 -0.9458 -0.6640 -2.1346
  252TMC3    H2 3880   1.564   3.382   9.948 -0.4369 -0.5953  0.3765
  252TMC3    C7 3881   1.421   3.167  10.026 -0.4003  0.4769 -0.1672
  252TMC3    C8 3882   1.515   3.638  10.002  0.0237 -0.8519 -0.8085
  252TMC3    O1 3883   1.533   3.157   9.976 -0.1046 -0.0432 -0.3063
  252TMC3    O2 3884   1.623   3.631   9.940 -0.1974 -0.2579 -0.1746
  253MPD2     C 3885   2.261   2.523  15.351  0.2692 -0.1378 -0.6122
  253MPD2    C1 3886   2.128   2.494  15.358 -0.0245 -0.1193 -0.9771
  253MPD2    C2 3887   2.076   2.470  15.485  0.2882 -0.2455 -0.3498
  253MPD2    C3 3888   2.150   2.517  15.593 -0.1256  0.5515 -0.2180
  253MPD2    C4 3889   2.279   2.564  15.588  0.4358 -0.2805 -0.1408
  253MPD2    C5 3890   2.337   2.551  15.467  0.2799  0.3038  0.0305
  253MPD2     H 3891   1.976   2.435  15.504  0.1189 -0.1114 -1.0031
  253MPD2    H1 3892   2.341   2.577  15.676 -1.8599  0.6557  1.3459
  253MPD2    H2 3893   2.311   2.542  15.257 -0.5200  0.0363 -0.9927
  253MPD2    H3 3894   2.441   2.578  15.449  0.1219  0.8003 -0.1585
  253MPD2     N 3895   2.091   2.528  15.725 -0.1455 -0.3972  0.0697
  253MPD2    H5 3896   2.151   2.553  15.803  1.8472 -0.0300 -1.6152
  253MPD2    N1 3897   2.040   2.471  15.247  0.6682  0.1813  0.4482
  253MPD2    H7 3898   1.942   2.481  15.271  0.3809  0.7777 -0.9977
  254TMC3    C1 3899   1.941   2.547  15.902 -0.2484 -0.5688  0.5135
  254TMC3    C2 3900   1.823   2.610  15.931 -0.1568 -0.3108  0.1336
  254TMC3    C3 3901   1.802   2.644  16.064  0.1089 -0.1567 -0.6358
  254TMC3    C4 3902   2.032   2.505  15.999  0.2051  1.0483  0.1100
  254TMC3    C5 3903   2.000   2.536  16.126 -0.4379 -1.0197  0.5386
  254TMC3    C6 3904   1.894   2.611  16.160  0.2109 -0.2749  0.3060
  254TMC3     C 3905   1.957   2.516  15.761 -0.6325  0.3195  0.0284
  254TMC3     O 3906   1.855   2.506  15.691 -0.2084  0.4254  0.1425
  254TMC3     H 3907   1.754   2.627  15.849 -1.1056 -0.7916  0.8213
  254TMC3    H1 3908   2.115   2.440  15.976 -0.1643  0.4314  0.5265
  254TMC3    H2 3909   1.878   2.635  16.264 -2.6805 -1.8738  0.2412
  254TMC3    C7 3910   2.082   2.503  16.236 -0.6515  0.3450 -0.5405
  254TMC3    C8 3911   1.714   2.759  16.088  0.3658  0.5180 -0.7327
  254TMC3    O1 3912   2.040   2.480  16.349  0.3255  0.2093 -0.4769
  254TMC3    O2 3913   1.694   2.788  16.203 -0.0118 -0.0044  0.1171
  255MPD2     C 3914   0.073   4.499  10.456  0.8121 -0.3539  0.0650
  255MPD2    C1 3915   0.205   4.464  10.456 -0.0964 -0.9153  0.3669
  255MPD2    C2 3916   0.248   4.381  10.358 -0.7875  1.0307 -0.0518
  255MPD2    C3 3917   0.164   4.349  10.254 -0.0426 -0.0629 -0.1615
  255MPD2    C4 3918   0.038   4.404  10.251  0.2127 -0.2916  0.7430
  255MPD2    C5 3919   4.732   4.480  10.355 -0.3527  0.5288 -0.3850
  255MPD2     H 3920   0.349   4.343  10.365 -1.5019 -1.1297 -1.4659
  255MPD2    H1 3921   4.706   4.391  10.168 -0.1240  1.0351  0.8239
  255MPD2    H2 3922   0.026   4.555  10.536  3.4065  0.2049  1.1856
  255MPD2    H3 3923   4.630   4.515  10.352 -0.9895 -1.4812 -2.4362
  255MPD2     N 3924   0.207   4.267  10.155  0.0896  0.1181  0.2640
  255MPD2    H5 3925   0.300   4.227  10.152 -0.0401 -0.1157 -0.4582
  255MPD2    N1 3926   0.283   4.507  10.565 -0.3299  0.2847  0.8865
  255MPD2    H7 3927   0.233   4.556  10.639 -1.7766  0.6479 -0.3481
  256TMC3    C1 3928   0.479   4.596  10.672  0.3928 -1.2051 -1.0311
  256TMC3    C2 3929   0.598   4.650  10.629 -0.2667  0.0171  0.0141
  256TMC3    C3 3930   0.634   0.041  10.655 -0.3359  0.5841  0.8288
  256TMC3    C4 3931   0.394   4.670  10.754  0.0141  0.2045  0.1869
  256TMC3    C5 3932   0.440   0.059  10.788 -0.0845  0.8103  0.6771
  256TMC3    C6 3933   0.546   0.114  10.731 -0.0012 -0.8302 -0.5463
  256TMC3     C 3934   0.417   4.489  10.584  0.4631  0.5351  0.1505
  256TMC3     O 3935   0.494   4.416  10.527 -0.5891 -0.2586 -0.0405
  256TMC3     H 3936   0.655   4.595  10.555  2.0590  1.2346  0.9068
  256TMC3    H1 3937   0.305   4.627  10.798  0.8012  0.5582  2.1286
  256TMC3    H2 3938   0.561   0.216  10.763 -1.6050 -0.2181 -1.7443
  256TMC3    C7 3939   0.321   0.143  10.794  0.1181 -0.3988  0.5623
  256TMC3    C8 3940   0.725   0.109  10.571  0.4477  1.0086  0.1705
  256TMC3    O1 3941   0.218   0.100  10.742  0.7783 -0.6120 -0.4832
  256TMC3    O2 3942   0.809   0.033  10.522 -0.3122 -0.4609  0.1466
  257MPD2     C 3943   4.141   2.457  13.460  0.4815 -0.6160 -0.3193
  257MPD2    C1 3944   4.109   2.344  13.390 -0.5936  0.1034 -0.1285
  257MPD2    C2 3945   4.122   2.223  13.453 -0.8037  1.1221  0.2880
  257MPD2    C3 3946   4.194   2.219  13.570  0.2010  0.0641  0.0022
  257MPD2    C4 3947   4.237   2.328  13.634 -0.6883 -0.2850  0.7384
  257MPD2    C5 3948   4.209   2.444  13.575  0.4514 -0.2600  0.6709
  257MPD2     H 3949   4.085   2.136  13.400  1.8234  0.8659 -1.1216
  257MPD2    H1 3950   4.286   2.319  13.730 -0.2428 -0.2716  0.5120
  257MPD2    H2 3951   4.114   2.551  13.414 -0.3228 -1.2114 -1.0716
  257MPD2    H3 3952   4.246   2.538  13.613 -0.7618  0.2841  0.5258
  257MPD2     N 3953   4.226   2.085  13.617 -0.6531  0.2515  0.1556
  257MPD2    H5 3954   4.210   2.004  13.557 -1.1250  0.3170  0.1941
  257MPD2    N1 3955   4.051   2.341  13.262  0.5632  0.3437 -0.1674
  257MPD2    H7 3956   4.019   2.253  13.223 -0.1858  0.4799  0.1275
  258TMC3    C1 3957   4.323   1.913  13.743 -0.1934 -0.0941 -0.4426
  258TMC3    C2 3958   4.247   1.823  13.667 -0.0221 -0.3711  0.6430
  258TMC3    C3 3959   4.262   1.694  13.701 -0.4909  0.0966 -0.5013
  258TMC3    C4 3960   4.419   1.873  13.832  0.1308  0.0617 -0.2178
  258TMC3    C5 3961   4.443   1.736  13.840  0.1555 -0.3661  0.0402
  258TMC3    C6 3962   4.373   1.644  13.763 -0.7615 -0.4397 -0.0219
  258TMC3     C 3963   4.286   2.055  13.737 -0.3699 -0.1566  0.4198
  258TMC3     O 3964   4.321   2.113  13.838 -0.9126  0.3863  0.3470
  258TMC3     H 3965   4.150   1.850  13.627  0.1992  0.3967  0.6237
  258TMC3    H1 3966   4.474   1.942  13.896  0.8249  0.1228 -0.8730
  258TMC3    H2 3967   4.388   1.537  13.766 -1.1448 -0.4680  0.8768
  258TMC3    C7 3968   4.466   1.684  13.969  1.2546 -0.4085  0.3163
  258TMC3    C8 3969   4.173   1.605  13.623 -0.4323 -0.2391 -0.5718
  258TMC3    O1 3970   4.419   1.577  13.995  0.3710 -0.0962 -0.6299
  258TMC3    O2 3971   4.057   1.644  13.611  0.3413  0.0814  0.5275
  259MPD2     C 3972   3.509   4.129   0.592  0.3230 -0.3382 -0.0327
  259MPD2    C1 3973   3.634   4.110   0.649  0.5238  0.4696  1.0434
  259MPD2    C2 3974   3.737   4.080   0.565 -0.1478  0.3950  0.4882
  259MPD2    C3 3975   3.730   4.074   0.427 -0.2695  0.1313 -0.3633
  259MPD2    C4 3976   3.603   4.088   0.372  0.3359 -0.2019 -0.0592
  259MPD2    C5 3977   3.493   4.111   0.454  0.2889  0.2387 -0.4433
  259MPD2     H 3978   3.829   4.040   0.607 -0.7227 -0.0547  1.3165
  259MPD2    H1 3979   3.593   4.082   0.264 -0.4457 -2.0589  0.1098
  259MPD2    H2 3980   3.421   4.155   0.650  0.6652 -2.6200  1.4769
  259MPD2    H3 3981   3.392   4.125   0.416 -0.8796  0.0316  2.6085
  259MPD2     N 3982   3.845   4.045   0.350  0.2377 -0.0074 -0.4494
  259MPD2    H5 3983   3.929   4.017   0.399  0.5677  1.2181 -0.3101
  259MPD2    N1 3984   3.649   4.115   0.788  0.4652  0.3436  0.6444
  259MPD2    H7 3985   3.560   4.097   0.832 -0.5845  2.4169 -0.6225
  260TMC3    C1 3986   3.992   4.005   0.187 -0.2682  0.5982  0.0354
  260TMC3    C2 3987   4.035   4.049   0.069  0.3122  0.3183 -0.5209
  260TMC3    C3 3988   4.152   3.987   0.028 -0.3158  0.2560 -0.4871
  260TMC3    C4 3989   4.062   3.916   0.264 -0.0979  0.6398 -0.3525
  260TMC3    C5 3990   4.180   3.868   0.227  0.0629 -0.0488  0.2344
  260TMC3    C6 3991   4.233   3.915   0.110 -0.4576 -0.4171  0.5257
  260TMC3     C 3992   3.859   4.054   0.215 -0.6643  0.3181  0.1251
  260TMC3     O 3993   3.786   4.096   0.127 -0.2134  0.8948  0.2847
  260TMC3     H 3994   3.988   4.120   0.002  0.6803  0.8899 -0.1782
  260TMC3    H1 3995   4.014   3.872   0.350 -1.2338 -1.1749 -1.9086
  260TMC3    H2 3996   4.330   3.891   0.068 -0.2984  2.1945 -0.5977
  260TMC3    C7 3997   4.218   3.727   0.247  0.0164  0.9471  0.7148
  260TMC3    C8 3998   4.147   3.940  17.638  0.2402  0.4733 -0.0194
  260TMC3    O1 3999   4.277   3.673   0.153 -1.0130  0.2554 -0.1319
  260TMC3    O2 4000   4.088   4.010  17.557 -0.0587  0.5748  0.1059
  261MPD2     C 4001   4.522   1.887  13.019  0.4132  0.1012 -0.1354
  261MPD2    C1 4002   4.639   1.962  13.041 -0.9460 -0.0872  0.4554
  261MPD2    C2 4003   4.666   2.065  12.948 -0.5170  0.1399  0.5670
  261MPD2    C3 4004   4.596   2.085  12.830  0.1910 -1.1835  0.0349
  261MPD2    C4 4005   4.487   2.003  12.807 -0.1969 -0.7170  0.3557
  261MPD2    C5 4006   4.451   1.909  12.903 -0.0951  0.0185 -0.0669
  261MPD2     H 4007   0.019   2.121  12.967 -1.3998  2.3551 -1.8041
  261MPD2    H1 4008   4.425   2.004  12.719 -0.8999  2.3084  0.8818
  261MPD2    H2 4009   4.508   1.796  13.077  0.8571 -0.8205 -1.4816
  261MPD2    H3 4010   4.374   1.835  12.883  1.0437 -1.6990  1.8971
  261MPD2     N 4011   4.644   2.173  12.732  0.1951  0.3936  0.0941
  261MPD2    H5 4012   4.726   2.229  12.754 -0.2256  1.1943 -0.3957
  261MPD2    N1 4013   4.735   1.927  13.148  0.8601 -0.2205  0.0586
  261MPD2    H7 4014   0.085   1.977  13.168 -0.2472  1.5909  0.3448
  262TMC3    C1 4015   4.661   2.284  12.530 -0.0937 -0.1227  0.9080
  262TMC3    C2 4016   4.602   2.386  12.455  0.2945  0.1221  0.1802
  262TMC3    C3 4017   4.658   2.410  12.336 -0.2467 -0.0069 -0.3033
  262TMC3    C4 4018   0.042   2.229  12.497  0.8591 -0.0769 -0.5061
  262TMC3    C5 4019   0.097   2.263  12.379  0.1711 -0.1506  0.2217
  262TMC3    C6 4020   0.042   2.359  12.299 -0.3531  0.1783 -0.7513
  262TMC3     C 4021   4.576   2.211  12.616 -0.3147  0.7597  0.3643
  262TMC3     O 4022   4.469   2.170  12.571 -0.2084  0.0876 -0.3561
  262TMC3     H 4023   4.507   2.433  12.482 -0.7832 -2.6750  1.2330
  262TMC3    H1 4024   0.094   2.155  12.557 -0.5986  0.0504  0.8918
  262TMC3    H2 4025   0.080   2.378  12.199 -2.2538 -0.3267 -1.5778
  262TMC3    C7 4026   0.192   2.169  12.319 -0.0948 -0.4423  0.6890
  262TMC3    C8 4027   4.574   2.464  12.232 -0.2842  0.0818 -0.1321
  262TMC3    O1 4028   0.265   2.094  12.386 -0.4307 -0.1644  0.0271
  262TMC3    O2 4029   4.622   2.546  12.155  0.8722  0.3733  0.0734
  263MPD2     C 4030   0.960   1.222  11.477  0.6175 -0.4116  0.1611
  263MPD2    C1 4031   1.057   1.322  11.474 -0.7461  1.0536 -0.3776
  263MPD2    C2 4032   1.031   1.430  11.388 -0.5056 -0.2756  0.4378
  263MPD2    C3 4033   0.915   1.439  11.313 -0.5036  0.1744 -0.0823
  263MPD2    C4 4034   0.822   1.341  11.319  0.0387 -0.0766 -0.2688
  263MPD2    C5 4035   0.849   1.232  11.399  0.4790 -0.3007 -0.2524
  263MPD2     H 4036   1.091   1.521  11.383 -0.7888 -0.0753  0.6814
  263MPD2    H1 4037   0.724   1.343  11.271 -0.5962  0.2696  1.0361
  263MPD2    H2 4038   0.966   1.138  11.546  4.0233 -0.4706 -0.1939
  263MPD2    H3 4039   0.767   1.162  11.414  1.0891 -0.7033  1.2237
  263MPD2     N 4040   0.908   1.559  11.236 -0.1375 -0.2004  0.5779
  263MPD2    H5 4041   0.989   1.621  11.232 -0.3008 -0.0080  0.2494
  263MPD2    N1 4042   1.171   1.317  11.561 -0.0916  0.4727 -0.7004
  263MPD2    H7 4043   1.187   1.227  11.607  1.3429  1.1896  0.1895
  264TMC3    C1 4044   0.828   1.729  11.107  0.0484  0.2980 -0.3586
  264TMC3    C2 4045   0.732   1.834  11.114 -0.8879 -0.7978  0.2218
  264TMC3    C3 4046   0.744   1.932  11.014 -0.2337 -0.0338 -0.6902
  264TMC3    C4 4047   0.918   1.718  11.014 -0.7277 -0.5893 -0.0549
  264TMC3    C5 4048   0.917   1.814  10.916  0.2290  0.5901 -0.1114
  264TMC3    C6 4049   0.831   1.917  10.917 -0.2339  0.3450 -0.0535
  264TMC3     C 4050   0.796   1.615  11.189 -0.2548  0.8105  0.5162
  264TMC3     O 4051   0.682   1.586  11.220  0.6485  0.1515  0.4713
  264TMC3     H 4052   0.650   1.848  11.184  0.9583  1.3427  1.9466
  264TMC3    H1 4053   0.985   1.633  11.010 -0.5239 -0.5553  2.5263
  264TMC3    H2 4054   0.816   1.978  10.828 -0.1637 -1.1160 -1.0669
  264TMC3    C7 4055   1.047   1.855  10.860  0.0621 -0.7880  0.2741
  264TMC3    C8 4056   0.760   2.070  11.056 -0.3450  1.3570  0.4196
  264TMC3    O1 4057   1.135   1.765  10.856  0.2604  0.3144  0.1818
  264TMC3    O2 4058   0.873   2.113  11.046 -0.1413 -0.0281 -0.3054
  265MPD2     C 4059   3.308   2.054  15.773  0.1527 -0.3508  0.1126
  265MPD2    C1 4060   3.380   2.153  15.712  0.0680  0.7311 -0.5986
  265MPD2    C2 4061   3.473   2.122  15.615  0.1088  0.1455 -0.2530
  265MPD2    C3 4062   3.491   1.994  15.579  0.5095 -0.1109  0.9524
  265MPD2    C4 4063   3.418   1.899  15.631 -0.1739  0.4212 -0.3514
  265MPD2    C5 4064   3.330   1.927  15.734  0.2629  0.5971  0.2024
  265MPD2     H 4065   3.537   2.199  15.573 -0.5765  0.5671 -0.5375
  265MPD2    H1 4066   3.433   1.795  15.606  0.7967  0.2424  0.9625
  265MPD2    H2 4067   3.234   2.066  15.851  0.3705  0.9500  0.1188
  265MPD2    H3 4068   3.273   1.851  15.785 -0.7727  1.7500  0.7461
  265MPD2     N 4069   3.577   1.955  15.467 -0.2965  0.3614 -0.4337
  265MPD2    H5 4070   3.578   1.857  15.440  0.7537 -0.0581  1.1308
  265MPD2    N1 4071   3.355   2.294  15.733  0.1658  0.2705 -0.5917
  265MPD2    H7 4072   3.417   2.359  15.685 -0.9985  0.8619 -1.3001
  266TMC3    C1 4073   3.272   2.483  15.841  0.0378 -0.2248 -0.3463
  266TMC3    C2 4074   3.385   2.527  15.906  0.6253  0.4376  0.5282
  266TMC3    C3 4075   3.381   2.650  15.966 -0.2751  1.1456 -0.0671
  266TMC3    C4 4076   3.166   2.557  15.820  0.1604  0.4805  0.2931
  266TMC3    C5 4077   3.179   2.689  15.854 -0.2251  0.3580 -0.2993
  266TMC3    C6 4078   3.278   2.734  15.939  0.1542  0.1788 -0.2069
  266TMC3     C 4079   3.260   2.346  15.810  0.1557 -0.3135 -0.1444
  266TMC3     O 4080   3.156   2.297  15.851  0.3578  0.3221 -0.1229
  266TMC3     H 4081   3.463   2.457  15.932  1.1062  0.3717 -1.0993
  266TMC3    H1 4082   3.083   2.524  15.757  0.7062  0.1651 -0.2615
  266TMC3    H2 4083   3.275   2.834  15.981 -0.9776  0.9990 -2.2833
  266TMC3    C7 4084   3.078   2.774  15.813  0.1257 -0.1348 -0.0554
  266TMC3    C8 4085   3.500   2.700  16.043 -0.1260  0.2169  0.3523
  266TMC3    O1 4086   2.976   2.722  15.776  0.4445 -0.0235  0.3257
  266TMC3    O2 4087   3.595   2.622  16.044  0.0889 -0.2662 -0.1782
  267MPD2     C 4088   1.027   4.036   0.472 -0.3767  0.0030 -0.1417
  267MPD2    C1 4089   1.117   4.113   0.408 -0.1408 -0.1638 -0.3732
  267MPD2    C2 4090   1.067   4.190   0.302 -0.1332 -0.4300  0.4922
  267MPD2    C3 4091   0.933   4.182   0.257  0.1774 -0.4307 -0.4871
  267MPD2    C4 4092   0.853   4.091   0.327  0.5925  0.1372  0.2637
  267MPD2    C5 4093   0.896   4.024   0.433  0.5251  0.3080  0.8977
  267MPD2     H 4094   1.135   4.251   0.243 -2.3320  1.4720 -0.0879
  267MPD2    H1 4095   0.747   4.087   0.304  0.2466  0.6460  1.7640
  267MPD2    H2 4096   1.059   3.973   0.555  0.0810 -0.5767 -0.7563
  267MPD2    H3 4097   0.824   3.959   0.482 -0.2599 -1.0315 -2.0823
  267MPD2     N 4098   0.880   4.240   0.141 -0.0153  0.1055 -0.1837
  267MPD2    H5 4099   0.794   4.204   0.101 -1.0817  1.4986  0.8406
  267MPD2    N1 4100   1.255   4.098   0.439  0.2829  0.6740 -0.1888
  267MPD2    H7 4101   1.280   4.043   0.520  3.4402  2.1021 -0.1778
  268TMC3    C1 4102   1.483   4.082   0.411 -0.4066 -0.1353 -0.0535
  268TMC3    C2 4103   1.594   4.123   0.339  0.1942 -0.1738 -0.3819
  268TMC3    C3 4104   1.709   4.058   0.357 -0.4473  0.9425  0.7912
  268TMC3    C4 4105   1.490   3.987   0.509  0.5735  0.1470 -0.2067
  268TMC3    C5 4106   1.609   3.920   0.520 -0.1570 -0.2213 -0.5541
  268TMC3    C6 4107   1.720   3.958   0.449 -0.3506  0.1018  0.1072
  268TMC3     C 4108   1.357   4.157   0.376  0.1090 -0.2934  0.6067
  268TMC3     O 4109   1.364   4.243   0.291 -0.6862  0.1475 -0.1776
  268TMC3     H 4110   1.583   4.192   0.256  1.6562  0.6261  0.0805
  268TMC3    H1 4111   1.405   3.943   0.560  0.6276  2.0717  1.5309
  268TMC3    H2 4112   1.817   3.915   0.472  0.2203  0.9782 -0.6620
  268TMC3    C7 4113   1.623   3.822   0.620 -0.4585  0.4721  0.9195
  268TMC3    C8 4114   1.837   4.121   0.330  0.4147 -0.3490  0.3154
  268TMC3    O1 4115   1.568   3.844   0.726 -0.0490 -0.3724 -0.4767
  268TMC3    O2 4116   1.936   4.075   0.387 -0.0967  0.1942  0.1776
  269MPD2     C 4117   1.287   3.000  15.539  0.6345 -0.6596  0.4039
  269MPD2    C1 4118   1.257   3.050  15.660  0.6822 -0.5003  0.3879
  269MPD2    C2 4119   1.276   3.185  15.691  1.2214 -0.8517  0.4962
  269MPD2    C3 4120   1.329   3.268  15.594  0.0002  0.6190 -0.8347
  269MPD2    C4 4121   1.358   3.214  15.466 -0.2372  0.1579 -0.1346
  269MPD2    C5 4122   1.340   3.082  15.448 -0.4345 -0.3547 -0.3007
  269MPD2     H 4123   1.262   3.227  15.790  1.7844  1.7651 -0.5498
  269MPD2    H1 4124   1.374   3.280  15.381 -1.6568 -1.7081 -1.8690
  269MPD2    H2 4125   1.260   2.898  15.513  2.9780 -0.7362 -1.7014
  269MPD2    H3 4126   1.345   3.050  15.345 -0.0777 -0.6965 -0.1779
  269MPD2     N 4127   1.344   3.412  15.622  0.2983  0.0356  0.2020
  269MPD2    H5 4128   1.308   3.450  15.709  0.1324 -1.5132  0.8000
  269MPD2    N1 4129   1.200   2.959  15.758 -0.2260  0.5604 -0.4075
  269MPD2    H7 4130   1.181   2.864  15.729 -1.5041  1.1874 -1.7058
  270TMC3    C1 4131   1.081   2.877  15.933  0.5397  0.3653  0.2421
  270TMC3    C2 4132   0.946   2.858  15.926 -0.3958 -0.1169  0.3965
  270TMC3    C3 4133   0.892   2.731  15.928  0.4477 -0.3203  0.1268
  270TMC3    C4 4134   1.160   2.770  15.920  0.1412  0.3398 -0.8720
  270TMC3    C5 4135   1.106   2.647  15.928 -0.1441 -0.1621 -0.4381
  270TMC3    C6 4136   0.973   2.625  15.943 -0.7268 -0.5020  0.0631
  270TMC3     C 4137   1.128   2.996  15.866  0.0788 -0.2470 -0.5992
  270TMC3     O 4138   1.079   3.102  15.903  0.1195 -0.2349  0.3167
  270TMC3     H 4139   0.877   2.927  15.879 -0.1911 -2.8075 -3.8487
  270TMC3    H1 4140   1.268   2.779  15.931  0.1427 -0.6344 -0.0933
  270TMC3    H2 4141   0.934   2.525  15.956 -0.8185 -0.2875  1.5139
  270TMC3    C7 4142   1.197   2.537  15.906 -0.3119 -0.4822  0.6488
  270TMC3    C8 4143   0.781   2.716  15.832  0.2868 -0.8431 -0.1753
  270TMC3    O1 4144   1.320   2.546  15.900  0.2803  0.0771  0.8617
  270TMC3    O2 4145   0.686   2.794  15.843 -0.6435  0.4177  0.2162
  271MPD2     C 4146   0.368   2.413  13.983 -0.1277  0.7829 -0.4787
  271MPD2    C1 4147   0.321   2.457  14.105  0.3901 -0.2920  0.2186
  271MPD2    C2 4148   0.212   2.542  14.105 -0.0110 -0.2706 -0.1372
  271MPD2    C3 4149   0.162   2.597  13.987 -0.0908  0.3050 -0.3067
  271MPD2    C4 4150   0.219   2.553  13.866 -0.7520 -0.0742 -0.3875
  271MPD2    C5 4151   0.328   2.469  13.871 -0.9854 -0.1172 -0.0220
  271MPD2     H 4152   0.174   2.576  14.201 -0.4264 -0.0028 -0.3966
  271MPD2    H1 4153   0.179   2.591  13.773 -1.0771 -0.7145 -0.5031
  271MPD2    H2 4154   0.435   2.329  13.970 -1.5806 -0.5568  0.7409
  271MPD2    H3 4155   0.360   2.437  13.773  0.1319  1.0599 -0.0403
  271MPD2     N 4156   0.047   2.683  13.986 -0.0732  0.5265 -0.3821
  271MPD2    H5 4157   0.001   2.715  13.902 -0.3134 -0.2988 -0.5639
  271MPD2    N1 4158   0.378   2.410  14.232  0.0042 -0.3339 -0.1413
  271MPD2    H7 4159   0.334   2.451  14.314  0.2437 -2.4155  1.0371
  272TMC3    C1 4160   0.550   2.327  14.376  0.1410 -0.6156 -1.2445
  272TMC3    C2 4161   0.680   2.308  14.389  0.5830 -0.8958  0.3491
  272TMC3    C3 4162   0.731   2.275  14.510  0.1240 -0.0929 -0.0893
  272TMC3    C4 4163   0.455   2.336  14.485  0.0788  0.9358  0.6528
  272TMC3    C5 4164   0.518   2.324  14.606 -0.5374 -0.1846  0.0680
  272TMC3    C6 4165   0.652   2.299  14.623  0.5283 -0.8975 -0.0037
  272TMC3     C 4166   0.503   2.351  14.243 -0.4174  0.5629  0.0636
  272TMC3     O 4167   0.587   2.336  14.155  0.6822 -0.3229  0.4887
  272TMC3     H 4168   0.744   2.302  14.301  0.3288  4.0997 -0.1780
  272TMC3    H1 4169   0.347   2.323  14.478  0.3551 -0.5924 -0.7643
  272TMC3    H2 4170   0.696   2.294  14.722  0.0677  0.4561  0.2630
  272TMC3    C7 4171   0.431   2.364  14.723 -0.2179  0.4473  0.0054
  272TMC3    C8 4172   0.875   2.252  14.524  0.1439  0.6392  0.2058
  272TMC3    O1 4173   0.311   2.383  14.701  0.2065  0.4870 -0.1497
  272TMC3    O2 4174   0.949   2.263  14.422  0.3940 -0.2492  0.0198
  273MPD2     C 4175   2.174   0.161  12.377 -0.5055  0.3954 -0.0550
  273MPD2    C1 4176   2.246   0.275  12.351  0.7555 -0.1645 -0.0875
  273MPD2    C2 4177   2.246   0.333  12.230 -0.4344 -0.2690 -0.7056
  273MPD2    C3 4178   2.178   0.276  12.123  0.0434  0.1327  0.2469
  273MPD2    C4 4179   2.124   0.150  12.145  0.4022  0.1131 -0.0104
  273MPD2    C5 4180   2.125   0.094  12.267 -0.8339  0.3965  0.3342
  273MPD2     H 4181   2.293   0.430  12.228 -1.2651  0.1873  2.4727
  273MPD2    H1 4182   2.079   0.099  12.060 -2.4172  0.3199  1.3698
  273MPD2    H2 4183   2.162   0.116  12.475 -0.0881  0.1431 -0.1196
  273MPD2    H3 4184   2.078   4.734  12.274 -1.3362  0.5503 -0.7799
  273MPD2     N 4185   2.165   0.334  11.999  0.5700 -0.1257 -0.3288
  273MPD2    H5 4186   2.097   0.282  11.945  0.4927 -0.8899  0.5038
  273MPD2    N1 4187   2.298   0.359  12.460  0.0762 -0.6658 -0.0767
  273MPD2    H7 4188   2.346   0.446  12.438  1.1833 -0.8186  1.8413
  274TMC3    C1 4189   2.137   0.504  11.837  1.0877 -0.6717 -0.1472
  274TMC3    C2 4190   2.086   0.417  11.749  0.3137 -0.8332 -0.1354
  274TMC3    C3 4191   1.983   0.473  11.677 -0.4107 -0.1716 -0.1705
  274TMC3    C4 4192   2.109   0.638  11.831 -1.0653  0.2155 -0.6623
  274TMC3    C5 4193   2.017   0.690  11.752  0.1189 -0.5004 -0.4197
  274TMC3    C6 4194   1.962   0.607  11.654  0.1867  0.0234 -0.6982
  274TMC3     C 4195   2.196   0.463  11.960 -0.2374 -0.6822  0.2152
  274TMC3     O 4196   2.242   0.553  12.032 -0.3714  0.0148 -0.1594
  274TMC3     H 4197   2.101   0.311  11.764 -0.7523 -0.8940  0.5342
  274TMC3    H1 4198   2.155   0.714  11.893 -1.3881  0.0891 -0.2683
  274TMC3    H2 4199   1.863   0.634  11.621  0.5890  1.5465 -0.6473
  274TMC3    C7 4200   1.936   0.806  11.782 -0.6207 -0.8364  0.0964
  274TMC3    C8 4201   1.934   0.374  11.579 -0.0656 -0.5987 -0.3566
  274TMC3    O1 4202   1.897   0.877  11.688  0.1692 -0.0236 -0.0782
  274TMC3    O2 4203   1.998   0.271  11.567  0.3839  0.0983  0.5157
  275MPD2     C 4204   1.768   3.626  14.385  0.4604 -0.1834  0.3740
  275MPD2    C1 4205   1.747   3.538  14.487  0.7274 -0.1313 -0.3281
  275MPD2    C2 4206   1.623   3.495  14.515  0.5105 -0.0690  0.2360
  275MPD2    C3 4207   1.515   3.538  14.442  0.0956 -0.2490 -0.3851
  275MPD2    C4 4208   1.537   3.626  14.336 -0.4064  0.8064  0.1014
  275MPD2    C5 4209   1.665   3.664  14.302  0.4961  0.3136 -0.3393
  275MPD2     H 4210   1.615   3.424  14.596 -1.5797  1.7668  1.6354
  275MPD2    H1 4211   1.458   3.687  14.293  0.6594  2.1545  0.0346
  275MPD2    H2 4212   1.864   3.668  14.356  0.2830 -1.1265 -1.5136
  275MPD2    H3 4213   1.682   3.732  14.219  0.6984  0.1968 -0.3930
  275MPD2     N 4214   1.380   3.503  14.468  0.8616 -0.3458  0.0854
  275MPD2    H5 4215   1.307   3.551  14.417  0.0144 -1.5244  0.1716
  275MPD2    N1 4216   1.845   3.520  14.597 -0.1442  0.3734  0.6275
  275MPD2    H7 4217   1.815   3.470  14.679 -0.3049  0.5637  0.6868
  276TMC3    C1 4218   2.009   3.597  14.752  0.1846 -0.0074  0.3118
  276TMC3    C2 4219   1.927   3.566  14.849  0.1945  0.4224 -0.2160
  276TMC3    C3 4220   1.979   3.591  14.973 -0.1949 -0.1934 -0.3513
  276TMC3    C4 4221   2.124   3.671  14.770 -0.1107 -0.4356 -0.1673
  276TMC3    C5 4222   2.168   3.688  14.895  0.7942  0.0845 -0.0050
  276TMC3    C6 4223   2.095   3.644  15.006  0.0540  0.6327  0.3087
  276TMC3     C 4224   1.958   3.591  14.615  0.1450  0.0610 -0.5934
  276TMC3     O 4225   2.005   3.669  14.533  0.2100  0.1916 -0.2076
  276TMC3     H 4226   1.823   3.540  14.839  0.0846  1.3958 -1.7402
  276TMC3    H1 4227   2.178   3.697  14.680 -0.0024  1.0381  0.3142
  276TMC3    H2 4228   2.129   3.660  15.108 -0.2526 -1.9515  0.8076
  276TMC3    C7 4229   2.304   3.720  14.907  0.0284  0.1837  0.4936
  276TMC3    C8 4230   1.927   3.506  15.075 -0.5741 -0.0303 -0.3461
  276TMC3    O1 4231   2.349   3.755  14.799 -0.1739 -0.3741  0.8182
  276TMC3    O2 4232   1.948   3.544  15.189 -0.6293  0.4037  0.1563
  277MPD2     C 4233   3.358   2.434  13.530 -0.1602  0.7322  0.4109
  277MPD2    C1 4234   3.229   2.467  13.541 -0.6707 -0.6216 -0.4940
  277MPD2    C2 4235   3.149   2.436  13.650 -0.4604 -0.1743  0.1001
  277MPD2    C3 4236   3.210   2.375  13.760  0.3572  0.1429  0.3526
  277MPD2    C4 4237   3.345   2.336  13.749  0.4321 -0.7643  0.2461
  277MPD2    C5 4238   3.410   2.363  13.632 -1.0455 -0.0663  0.0392
  277MPD2     H 4239   3.044   2.462  13.649 -0.6296 -0.8592  0.2645
  277MPD2    H1 4240   3.408   2.303  13.831  0.0639 -0.6352  0.5798
  277MPD2    H2 4241   3.413   2.451  13.438  1.3256  0.8705  1.3332
  277MPD2    H3 4242   3.506   2.315  13.621 -1.3626 -0.7866  0.3823
  277MPD2     N 4243   3.135   2.358  13.880 -0.0137 -0.1031  0.8234
  277MPD2    H5 4244   3.035   2.369  13.875  0.0350 -0.4982 -0.9445
  277MPD2    N1 4245   3.195   2.544  13.431 -0.1547 -0.0085 -0.2722
  277MPD2    H7 4246   3.274   2.561  13.369  0.3778  0.4732  0.5362
  278TMC3    C1 4247   3.068   2.277  14.078 -0.2245  0.0198 -0.4220
  278TMC3    C2 4248   3.097   2.177  14.170 -0.2025 -0.1679  0.3188
  278TMC3    C3 4249   3.002   2.106  14.229  0.5077  0.6152  0.2837
  278TMC3    C4 4250   2.943   2.318  14.068 -0.2450  0.0452 -0.6225
  278TMC3    C5 4251   2.843   2.241  14.126  0.6663 -0.0569  0.5423
  278TMC3    C6 4252   2.868   2.138  14.215 -0.5381 -0.9664  0.3398
  278TMC3     C 4253   3.185   2.308  13.993  0.7429  0.2995  1.0161
  278TMC3     O 4254   3.298   2.271  14.021 -0.2403 -0.1657 -0.4465
  278TMC3     H 4255   3.190   2.123  14.151  0.6096  1.6111 -0.8246
  278TMC3    H1 4256   2.916   2.399  14.001 -0.6465  0.6971  0.3242
  278TMC3    H2 4257   2.792   2.065  14.242 -0.5356 -0.3807  1.9301
  278TMC3    C7 4258   2.707   2.296  14.109  0.4315 -0.1643  0.9271
  278TMC3    C8 4259   3.034   1.969  14.254 -0.4413 -0.0839 -0.3768
  278TMC3    O1 4260   2.676   2.370  14.017 -0.3658  0.1949 -0.3854
  278TMC3    O2 4261   3.091   1.947  14.359 -0.0743 -0.2002  0.1317
  279MPD2     C 4262   2.876   2.008   0.177 -0.3691  0.2608 -0.2349
  279MPD2    C1 4263   2.869   2.146   0.154 -0.1010 -0.1977 -0.0812
  279MPD2    C2 4264   2.965   2.204   0.080  0.6401  0.1079  0.3151
  279MPD2    C3 4265   3.058   2.128   0.013 -1.1222 -0.4029 -0.4474
  279MPD2    C4 4266   3.059   1.987   0.024 -0.4212 -0.8302 -0.4066
  279MPD2    C5 4267   2.968   1.930   0.111  0.0046  0.2034 -0.8414
  279MPD2     H 4268   2.968   2.312   0.076 -1.5825  0.0602 -2.0740
  279MPD2    H1 4269   3.134   1.923  17.725 -0.5911 -1.6838  0.4928
  279MPD2    H2 4270   2.797   1.957   0.231 -1.4452 -1.0204 -2.9912
  279MPD2    H3 4271   2.978   1.824   0.132  0.5712  0.0449 -1.8755
  279MPD2     N 4272   3.142   2.182  17.664 -0.0849  0.2295  0.0945
  279MPD2    H5 4273   3.189   2.113  17.606  1.9318 -0.0657  2.0408
  279MPD2    N1 4274   2.760   2.221   0.204 -0.3704 -0.0122 -0.2913
  279MPD2    H7 4275   2.678   2.166   0.225  1.1213 -2.2211 -0.2333
  280TMC3    C1 4276   2.617   2.415   0.190 -0.4643  0.0695  0.1609
  280TMC3    C2 4277   2.533   2.354   0.105 -0.4007 -0.8078 -0.1258
  280TMC3    C3 4278   2.409   2.409   0.084  0.7612 -0.2184  0.5174
  280TMC3    C4 4279   2.578   2.540   0.242  0.2261 -0.1618 -0.4416
  280TMC3    C5 4280   2.458   2.586   0.217 -0.1228 -0.3546 -0.4051
  280TMC3    C6 4281   2.365   2.518   0.146  0.2185  0.0986 -0.2801
  280TMC3     C 4282   2.750   2.365   0.210 -0.2562  0.6696 -0.0204
  280TMC3     O 4283   2.837   2.445   0.225  0.3694  0.2532  0.1505
  280TMC3     H 4284   2.569   2.267   0.051 -1.4697 -0.8103 -0.8445
  280TMC3    H1 4285   2.644   2.598   0.305  1.4945 -1.2594 -0.7541
  280TMC3    H2 4286   2.264   2.554   0.127 -0.4726 -1.3782  0.5494
  280TMC3    C7 4287   2.417   2.704   0.295 -0.0841 -0.0699  0.3643
  280TMC3    C8 4288   2.330   2.364  17.708  0.5841 -0.1209 -0.4267
  280TMC3    O1 4289   2.475   2.724   0.403 -0.5705  0.1056 -0.1804
  280TMC3    O2 4290   2.290   2.446  17.627 -0.6560  0.1714 -0.3623
  281TMC3    C1 4291   1.361   2.955  13.286  0.1600 -0.0062 -0.2365
  281TMC3    C2 4292   1.287   2.994  13.172 -0.1122  0.4088  0.0552
  281TMC3    C3 4293   1.322   2.944  13.053 -0.3007 -0.2920  0.3712
  281TMC3    C4 4294   1.461   2.864  13.279  0.1833 -0.4121  0.3420
  281TMC3    C5 4295   1.489   2.816  13.154 -0.0576  0.0412 -0.0014
  281TMC3    C6 4296   1.418   2.846  13.042 -0.5494 -1.0005  0.4545
  281TMC3     C 4297   1.347   3.017  13.417  0.0869  0.1719  0.7677
  281TMC3     O 4298   1.446   3.018  13.487 -0.5174  0.2101  0.4865
  281TMC3     H 4299   1.216   3.074  13.184 -0.9529 -0.5477  1.4147
  281TMC3    H1 4300   1.536   2.853  13.357  0.7969 -0.0207 -0.1881
  281TMC3    H2 4301   1.433   2.799  12.945  0.0059 -1.1127  0.5961
  281TMC3    C7 4302   1.539   2.676  13.142 -0.0260  0.1825  0.1634
  281TMC3    C8 4303   1.221   2.935  12.958 -0.6584 -0.1949  0.6076
  281TMC3    O1 4304   1.591   2.640  13.036  0.3253 -0.3454 -0.3526
  281TMC3    O2 4305   1.197   2.826  12.908  0.2447 -0.1463 -0.2539
  282MPD2     C 4306   3.275   4.130  15.168  0.0274  0.4415  0.4656
  282MPD2    C1 4307   3.144   4.151  15.171 -0.3588  0.0353  0.3239
  282MPD2    C2 4308   3.061   4.133  15.064  0.2892 -0.7081  0.0352
  282MPD2    C3 4309   3.115   4.108  14.938  0.7051 -0.5053 -0.0775
  282MPD2    C4 4310   3.252   4.087  14.931 -0.1971 -0.3022 -0.6190
  282MPD2    C5 4311   3.328   4.091  15.048 -0.0303  0.4263  0.5435
  282MPD2     H 4312   2.954   4.151  15.070  0.2494 -0.8124 -0.3426
  282MPD2    H1 4313   3.306   4.057  14.842  1.0489 -1.5175  0.5531
  282MPD2    H2 4314   3.344   4.131  15.252  0.4107 -3.9345  0.2376
  282MPD2    H3 4315   3.435   4.077  15.032 -0.3788  0.6158 -1.9348
  282MPD2     N 4316   3.025   4.096  14.822 -0.3467 -0.2981 -0.5408
  282MPD2    H5 4317   2.925   4.087  14.840 -0.7348  1.0312 -2.0370
  282MPD2    N1 4318   3.080   4.182  15.296  0.0415 -0.0037 -0.8052
  282MPD2    H7 4319   2.986   4.148  15.307  1.6938 -3.5093  2.2160
  283TMC3    C1 4320   3.073   4.239  15.528 -0.4217  0.3236 -0.1162
  283TMC3    C2 4321   3.111   4.337  15.615  0.3095  0.2525  0.1965
  283TMC3    C3 4322   3.086   4.325  15.754  0.3858  0.1804  0.7802
  283TMC3    C4 4323   3.025   4.123  15.578  0.4857  0.6325  0.7318
  283TMC3    C5 4324   2.992   4.113  15.708 -0.0023 -0.4491  0.5661
  283TMC3    C6 4325   3.019   4.217  15.797  0.0323 -0.0255  0.1861
  283TMC3     C 4326   3.145   4.241  15.399 -0.0972  0.0640 -0.0584
  283TMC3     O 4327   3.243   4.309  15.390  0.0093  0.1769  0.5009
  283TMC3     H 4328   3.146   4.434  15.582 -2.1655  0.8643 -0.6168
  283TMC3    H1 4329   3.002   4.036  15.516  0.0953  2.0815 -1.1711
  283TMC3    H2 4330   3.005   4.210  15.905 -2.4288 -1.1462 -0.2121
  283TMC3    C7 4331   2.939   3.989  15.767 -0.2798 -0.1006  0.7660
  283TMC3    C8 4332   3.112   4.436  15.848  0.2170  1.1585  0.1205
  283TMC3    O1 4333   2.850   4.008  15.849 -0.0189  0.4672 -0.1964
  283TMC3    O2 4334   3.042   4.443  15.951  0.3095  0.0730  0.5254
  284MPD2     C 4335   1.505   3.629  12.365  0.1150  0.6850 -0.1858
  284MPD2    C1 4336   1.500   3.517  12.288  0.1808  0.2417  0.5163
  284MPD2    C2 4337   1.587   3.409  12.315  0.0046 -1.0145  0.0275
  284MPD2    C3 4338   1.661   3.417  12.429 -0.4018  0.0427 -0.3329
  284MPD2    C4 4339   1.661   3.526  12.514 -0.0457 -0.8437  0.4609
  284MPD2    C5 4340   1.582   3.634  12.473  0.3253 -0.1720  0.7295
  284MPD2     H 4341   1.593   3.326  12.246  2.4873 -0.2938 -0.6031
  284MPD2    H1 4342   1.719   3.533  12.605  0.0320 -0.7054  0.4009
  284MPD2    H2 4343   1.447   3.719  12.347  0.3069  0.8892  0.2207
  284MPD2    H3 4344   1.581   3.721  12.538 -1.7048 -0.5925  1.2421
  284MPD2     N 4345   1.766   3.322  12.471  0.2309 -0.5350 -0.3299
  284MPD2    H5 4346   1.808   3.343  12.561 -0.3117 -0.9645  0.0254
  284MPD2    N1 4347   1.410   3.499  12.177 -0.5056 -0.2044  0.4425
  284MPD2    H7 4348   1.404   3.401  12.153 -0.6311  0.3105 -1.7167
  285TMC3    C1 4349   1.263   3.550  12.003  0.4332 -0.0660 -0.0722
  285TMC3    C2 4350   1.293   3.431  11.943  0.1980  0.4591 -0.9100
  285TMC3    C3 4351   1.228   3.408  11.822 -0.3522  0.6804  0.1706
  285TMC3    C4 4352   1.181   3.645  11.956  0.7963 -0.1291  0.2381
  285TMC3    C5 4353   1.108   3.611  11.845  0.5649 -0.3284 -0.1665
  285TMC3    C6 4354   1.129   3.492  11.777  0.2892  0.1680 -0.3902
  285TMC3     C 4355   1.344   3.601  12.113  0.4899 -0.1613 -0.0205
  285TMC3     O 4356   1.352   3.720  12.129  0.0559 -0.4125 -0.1994
  285TMC3     H 4357   1.374   3.366  11.974  0.9266  2.8506  2.2488
  285TMC3    H1 4358   1.166   3.742  12.003  0.3831 -0.0116 -0.1325
  285TMC3    H2 4359   1.069   3.466  11.691 -0.8292  2.8080 -0.3824
  285TMC3    C7 4360   1.076   3.726  11.763  0.2300  0.1138  0.7718
  285TMC3    C8 4361   1.229   3.272  11.769 -0.4318  1.1563 -0.4751
  285TMC3    O1 4362   1.125   3.836  11.797 -0.1733 -0.0145  0.4185
  285TMC3    O2 4363   1.145   3.237  11.686 -0.0309 -0.2842 -0.4042
  286MPD2     C 4364   1.710   1.653   1.277  0.0775  0.1867  0.3677
  286MPD2    C1 4365   1.814   1.721   1.336  0.1904 -0.0143 -0.1418
  286MPD2    C2 4366   1.946   1.673   1.343 -0.2388  0.9058 -0.4353
  286MPD2    C3 4367   1.982   1.560   1.274  0.0763  0.2123  0.1751
  286MPD2    C4 4368   1.880   1.492   1.214  0.1247 -0.9063 -0.1661
  286MPD2    C5 4369   1.751   1.538   1.203 -0.1589 -0.0192 -0.4425
  286MPD2     H 4370   2.023   1.733   1.390  1.4526 -1.1021 -0.6564
  286MPD2    H1 4371   1.909   1.400   1.165 -1.8034 -0.9799 -1.1774
  286MPD2    H2 4372   1.612   1.697   1.261 -0.2139 -1.2202 -1.6693
  286MPD2    H3 4373   1.675   1.486   1.146 -1.3792  0.0401  1.1494
  286MPD2     N 4374   2.114   1.510   1.273 -0.1730  0.0967 -0.7428
  286MPD2    H5 4375   2.135   1.427   1.220  0.6858 -2.1411  3.1419
  286MPD2    N1 4376   1.801   1.850   1.387  0.1974  0.7055 -0.6030
  286MPD2    H7 4377   1.882   1.910   1.396 -0.4683  1.5399 -0.2081
  287TMC3    C1 4378   2.340   1.492   1.303  0.0746  0.3634  0.3683
  287TMC3    C2 4379   2.342   1.426   1.189  0.0877  0.1309 -0.8245
  287TMC3    C3 4380   2.463   1.362   1.164  0.6092 -0.4337  0.6182
  287TMC3    C4 4381   2.437   1.498   1.395  0.5225  0.0486  0.4425
  287TMC3    C5 4382   2.559   1.436   1.371 -0.4286 -0.5184  0.2056
  287TMC3    C6 4383   2.572   1.371   1.256  0.1787  0.0908 -0.3048
  287TMC3     C 4384   2.223   1.568   1.329 -0.3154 -0.5484  0.4426
  287TMC3     O 4385   2.239   1.672   1.391  0.3416 -0.6153 -0.4737
  287TMC3     H 4386   2.272   1.430   1.106 -2.4258  2.9755  1.4321
  287TMC3    H1 4387   2.412   1.554   1.484  1.2968  0.7128  0.2398
  287TMC3    H2 4388   2.665   1.320   1.232 -0.9180 -1.3922 -1.3882
  287TMC3    C7 4389   2.650   1.404   1.486 -0.2270  0.2179  0.9594
  287TMC3    C8 4390   2.462   1.268   1.056  0.4111 -0.0347  0.1164
  287TMC3    O1 4391   2.766   1.382   1.453  0.6983 -0.3036 -0.1230
  287TMC3    O2 4392   2.351   1.250   1.009 -0.4812  0.3559 -0.4621
  288TMC3    C1 4393   3.892   1.802  14.737 -0.2597  1.0049  0.5587
  288TMC3    C2 4394   3.796   1.749  14.818 -0.5476  0.9255  0.3409
  288TMC3    C3 4395   3.683   1.831  14.820 -0.5100 -0.3309 -0.1039
  288TMC3    C4 4396   3.879   1.928  14.676  0.6322  0.6000 -0.3026
  288TMC3    C5 4397   3.760   1.993  14.670  0.1479 -0.4335  0.4562
  288TMC3    C6 4398   3.666   1.951  14.755  0.0489 -0.1009  0.4848
  288TMC3     C 4399   4.024   1.741  14.741 -0.0491  0.3393 -0.5165
  288TMC3     O 4400   4.032   1.646  14.821  0.2133 -0.1285 -0.5462
  288TMC3     H 4401   3.807   1.652  14.864  0.8619 -0.0130 -1.9989
  288TMC3    H1 4402   3.967   1.970  14.630  0.2142 -0.1674 -1.8032
  288TMC3    H2 4403   3.575   2.009  14.766  1.1109  1.5504  0.5499
  288TMC3    C7 4404   3.751   2.131  14.618 -0.0658 -0.0922  0.8025
  288TMC3    C8 4405   3.599   1.825  14.935  0.7292  0.1745  0.1675
  288TMC3    O1 4406   3.675   2.207  14.676 -0.1328  0.1968  0.2553
  288TMC3    O2 4407   3.586   1.935  14.985  0.5474 -0.3821  0.1976
  289MPD2     C 4408   3.883   0.960  14.984 -0.3698  0.1487  0.9475
  289MPD2    C1 4409   3.838   1.048  14.889 -0.0610 -0.4071  0.3158
  289MPD2    C2 4410   3.709   1.061  14.855  0.3397  0.1797  0.1574
  289MPD2    C3 4411   3.618   0.987  14.925  0.4640  0.0535  0.1069
  289MPD2    C4 4412   3.657   0.886  15.017 -0.1298  0.1691 -0.0432
  289MPD2    C5 4413   3.792   0.874  15.044  0.2079  0.7009 -0.1363
  289MPD2     H 4414   3.680   1.131  14.777 -0.3506  1.3291  1.4318
  289MPD2    H1 4415   3.591   0.813  15.063  0.0143 -0.8349 -1.4231
  289MPD2    H2 4416   3.987   0.945  15.014 -1.0218 -2.5907  1.8784
  289MPD2    H3 4417   3.816   0.795  15.114 -0.3423 -1.2362 -2.1198
  289MPD2     N 4418   3.481   0.996  14.893 -0.0728 -0.0668  0.6248
  289MPD2    H5 4419   3.417   0.919  14.912  0.4210 -0.1918  1.8048
  289MPD2    N1 4420   3.940   1.118  14.822 -0.6410 -0.2066 -0.1514
  289MPD2    H7 4421   4.035   1.086  14.836 -1.2181 -0.7691  2.5585
  290TMC3    C1 4422   3.278   1.095  14.837  0.4785  0.5851 -0.3370
  290TMC3    C2 4423   3.224   1.215  14.803 -0.2608  0.1457 -0.1890
  290TMC3    C3 4424   3.178   1.237  14.673  0.1722 -0.1039  0.0616
  290TMC3    C4 4425   3.249   0.986  14.757 -0.5003 -0.0296 -0.3496
  290TMC3    C5 4426   3.189   1.011  14.639  0.9212  0.6244 -0.1315
  290TMC3    C6 4427   3.165   1.131  14.589 -0.1408 -0.3270  0.1997
  290TMC3     C 4428   3.423   1.113  14.859  0.6525  0.6201  0.1701
  290TMC3     O 4429   3.468   1.229  14.859 -0.7629 -0.2235  0.7579
  290TMC3     H 4430   3.252   1.292  14.874 -1.2081 -0.4751  0.8579
  290TMC3    H1 4431   3.265   0.883  14.789  0.7741  0.5822  0.9606
  290TMC3    H2 4432   3.146   1.156  14.486  3.4892  2.0756  0.1104
  290TMC3    C7 4433   3.116   0.906  14.562 -0.0718 -0.8528 -0.0050
  290TMC3    C8 4434   3.218   1.359  14.609  0.9067 -0.3923  0.1257
  290TMC3    O1 4435   3.018   0.941  14.496 -0.6340 -0.2346 -0.4692
  290TMC3    O2 4436   3.249   1.353  14.492 -0.2990 -0.0875 -0.1511
  291MPD2     C 4437   2.679   1.158   0.108 -0.0269  0.0619  0.7721
  291MPD2    C1 4438   2.759   1.117   0.214  0.3055  0.3309  0.6679
  291MPD2    C2 4439   2.808   1.217   0.301 -0.3103 -0.5790  0.3680
  291MPD2    C3 4440   2.766   1.350   0.292 -1.1024 -0.1320 -0.7893
  291MPD2    C4 4441   2.668   1.383   0.195 -0.2055  0.8547  0.3006
  291MPD2    C5 4442   2.631   1.285   0.101 -0.1166 -0.9980 -0.6709
  291MPD2     H 4443   2.873   1.191   0.383  2.0073  1.2118 -0.9141
  291MPD2    H1 4444   2.628   1.484   0.194 -0.4796  0.7380 -0.5904
  291MPD2    H2 4445   2.652   1.089   0.029 -1.9593  0.5628  1.0040
  291MPD2    H3 4446   2.562   1.312   0.021 -1.2078  0.8987  0.8937
  291MPD2     N 4447   2.816   1.454   0.374 -0.3129  0.6419 -0.9072
  291MPD2    H5 4448   2.763   1.539   0.391  2.2352  2.4670 -2.0800
  291MPD2    N1 4449   2.798   0.987   0.234  0.0673 -0.3239  0.4728
  291MPD2    H7 4450   2.862   0.971   0.311  1.1747 -0.3529 -0.4505
  292TMC3    C1 4451   2.837   0.758   0.210  0.0721  0.9455  0.1817
  292TMC3    C2 4452   2.927   0.756   0.313  0.3328 -0.5200  0.0434
  292TMC3    C3 4453   2.986   0.642   0.336  0.1936  0.6823  0.1848
  292TMC3    C4 4454   2.818   0.649   0.132  0.2209 -0.4855  0.2713
  292TMC3    C5 4455   2.902   0.541   0.144 -0.0891  0.0940 -0.5466
  292TMC3    C6 4456   2.989   0.539   0.244  0.2628  0.5409  0.7380
  292TMC3     C 4457   2.754   0.875   0.179 -1.5301  0.4734 -0.7415
  292TMC3     O 4458   2.673   0.859   0.091  0.0533  0.0894 -0.2085
  292TMC3     H 4459   2.933   0.831   0.391  0.5189 -0.9410  0.4343
  292TMC3    H1 4460   2.737   0.653   0.060  0.8062  0.2673 -0.3413
  292TMC3    H2 4461   3.065   0.463   0.261 -1.2857 -0.9980  0.8415
  292TMC3    C7 4462   2.858   0.418   0.094  0.3156 -0.2667 -0.6499
  292TMC3    C8 4463   3.031   0.622   0.476  0.5051  0.7025  0.4524
  292TMC3    O1 4464   2.933   0.327   0.118 -0.4096  0.2335  0.2110
  292TMC3    O2 4465   3.065   0.724   0.537  0.4009 -0.0140 -0.0225
  293MPD2     C 4466   4.323   2.352  12.848  0.3654 -0.1328  0.4267
  293MPD2    C1 4467   4.283   2.273  12.951  0.2385  0.8160  0.6642
  293MPD2    C2 4468   4.330   2.293  13.077  0.0805  1.1457  0.4065
  293MPD2    C3 4469   4.421   2.390  13.098 -0.3539  0.1629 -0.3038
  293MPD2    C4 4470   4.478   2.459  12.990 -0.0266 -0.1905  0.5564
  293MPD2    C5 4471   4.426   2.437  12.864 -0.8419  0.5154  0.4477
  293MPD2     H 4472   4.296   2.227  13.156  2.4385 -0.4598  0.0801
  293MPD2    H1 4473   4.558   2.531  12.999  1.1853 -1.4922  0.0895
  293MPD2    H2 4474   4.296   2.328  12.745  0.5426 -1.4620  0.6902
  293MPD2    H3 4475   4.449   2.503  12.781 -1.8607  1.9236  1.2853
  293MPD2     N 4476   4.468   2.420  13.225  0.4245  0.5378  0.5875
  293MPD2    H5 4477   4.466   2.340  13.288 -1.4278 -0.9852 -1.3714
  293MPD2    N1 4478   4.206   2.160  12.912  0.6418 -0.0559  0.0124
  293MPD2    H7 4479   4.192   2.140  12.814 -1.9538  0.9463  0.1782
  294TMC3    C1 4480   4.071   1.970  12.920 -0.1330 -0.5090 -0.5490
  294TMC3    C2 4481   3.960   1.911  12.973  0.5149 -0.0272 -0.2351
  294TMC3    C3 4482   3.884   1.834  12.887  0.4484 -0.3556 -0.2039
  294TMC3    C4 4483   4.108   1.946  12.791 -0.1216  0.1980 -0.7416
  294TMC3    C5 4484   4.019   1.873  12.714  0.1645 -0.1877  0.4281
  294TMC3    C6 4485   3.910   1.810  12.760  0.5192 -0.9115  0.0962
  294TMC3     C 4486   4.145   2.070  12.996 -0.5628 -0.2009  0.7188
  294TMC3     O 4487   4.132   2.056  13.119 -0.1042  0.5525  0.2101
  294TMC3     H 4488   3.935   1.917  13.078 -0.5720  4.0229 -0.7098
  294TMC3    H1 4489   4.199   1.993  12.754  0.3191 -0.6074 -0.6872
  294TMC3    H2 4490   3.844   1.759  12.690 -0.1800 -0.9011  0.7441
  294TMC3    C7 4491   4.065   1.829  12.587  0.6712  0.1694 -0.3260
  294TMC3    C8 4492   3.761   1.781  12.944  0.0473  0.0759  0.3085
  294TMC3    O1 4493   3.980   1.809  12.499 -0.1244 -0.2216 -0.0362
  294TMC3    O2 4494   3.738   1.806  13.061 -0.0568  0.0147 -0.3944
  295MPD2     C 4495   0.943   1.104   1.049  0.1635  0.2854  0.1613
  295MPD2    C1 4496   0.838   1.084   0.962 -0.1490 -0.1379 -0.0014
  295MPD2    C2 4497   0.726   1.022   1.009 -0.2082 -0.7226 -0.2730
  295MPD2    C3 4498   0.721   0.967   1.133  0.4475  0.0682 -0.5786
  295MPD2    C4 4499   0.830   0.967   1.211  0.2902  0.3395  0.2981
  295MPD2    C5 4500   0.929   1.047   1.170 -0.3040 -0.0628  0.3292
  295MPD2     H 4501   0.651   0.999   0.935  0.2657 -1.7683 -0.4204
  295MPD2    H1 4502   0.821   0.919   1.308  0.8202  0.5328  0.4443
  295MPD2    H2 4503   1.039   1.149   1.028  0.3236 -0.3846 -0.5487
  295MPD2    H3 4504   1.008   1.052   1.244  1.3702 -0.6695 -1.4155
  295MPD2     N 4505   0.612   0.897   1.185 -0.1226  0.0833  0.4361
  295MPD2    H5 4506   0.624   0.843   1.270 -0.9226  0.3914  0.7410
  295MPD2    N1 4507   0.857   1.121   0.822 -0.0274  0.1288  0.5715
  295MPD2    H7 4508   0.775   1.104   0.765  0.3526 -1.0600  0.3804
  296TMC3    C1 4509   0.402   0.794   1.192  0.2478  0.0966  0.2318
  296TMC3    C2 4510   0.276   0.839   1.224 -0.2260 -0.5335  0.3902
  296TMC3    C3 4511   0.198   0.762   1.303  0.3946  0.9990 -0.2588
  296TMC3    C4 4512   0.455   0.675   1.240 -0.6210 -0.0839 -0.4744
  296TMC3    C5 4513   0.374   0.604   1.317 -0.6225  0.1972  0.0840
  296TMC3    C6 4514   0.247   0.642   1.354 -0.0919 -0.1139  0.7553
  296TMC3     C 4515   0.485   0.899   1.137 -0.6221 -0.6611 -0.4973
  296TMC3     O 4516   0.439   0.981   1.061  0.0937 -0.3563  0.0062
  296TMC3     H 4517   0.257   0.943   1.198 -0.8018 -0.9122 -0.6734
  296TMC3    H1 4518   0.548   0.635   1.203  1.3523  3.5560  0.5408
  296TMC3    H2 4519   0.195   0.565   1.411 -2.4222  0.7094 -0.2404
  296TMC3    C7 4520   0.435   0.494   1.381 -0.0015  0.7839  0.4766
  296TMC3    C8 4521   0.095   0.818   1.388 -0.8401  0.5043  0.4226
  296TMC3    O1 4522   0.528   0.445   1.316 -0.1366  0.4275  0.5965
  296TMC3    O2 4523   0.074   0.765   1.495  0.2697  0.2998  0.1287
  297MPD2     C 4524   2.435   2.761  16.580  0.1681 -0.4503 -0.2105
  297MPD2    C1 4525   2.434   2.808  16.452  0.5888 -0.3710  0.2080
  297MPD2    C2 4526   2.554   2.849  16.397 -0.5643 -0.3965  0.2570
  297MPD2    C3 4527   2.666   2.872  16.480 -0.1709 -0.0174 -0.3311
  297MPD2    C4 4528   2.658   2.824  16.612 -0.0455 -0.0508  0.1414
  297MPD2    C5 4529   2.547   2.775  16.660 -0.0633  0.8883 -0.1868
  297MPD2     H 4530   2.553   2.885  16.295 -0.0864  1.2742  0.8366
  297MPD2    H1 4531   2.735   2.837  16.687 -0.6372  0.3827  0.6672
  297MPD2    H2 4532   2.346   2.727  16.632  1.1419  2.3124  3.3043
  297MPD2    H3 4533   2.544   2.743  16.764  0.7216  0.7099 -0.2155
  297MPD2     N 4534   2.778   2.939  16.429 -0.7735 -0.5591  0.0487
  297MPD2    H5 4535   2.776   2.979  16.336  0.9933 -0.3541  0.1134
  297MPD2    N1 4536   2.323   2.816  16.369  0.4871 -0.0659  0.5343
  297MPD2    H7 4537   2.339   2.861  16.279 -1.6887 -0.5216 -0.0758
  298TMC3    C1 4538   2.095   2.858  16.332  1.1000 -0.0166 -0.2557
  298TMC3    C2 4539   2.124   2.873  16.202 -0.0723  0.3436 -0.1651
  298TMC3    C3 4540   2.047   2.954  16.125  0.5080 -0.0732  0.0788
  298TMC3    C4 4541   1.983   2.919  16.377  0.3190  0.0302 -0.5412
  298TMC3    C5 4542   1.897   2.996  16.299 -0.6372  0.8666 -0.2802
  298TMC3    C6 4543   1.930   3.013  16.159  0.2315  0.3633 -0.5633
  298TMC3     C 4544   2.197   2.810  16.417  1.1340  0.1349 -0.0882
  298TMC3     O 4545   2.164   2.800  16.531  0.4953  0.9710  0.5254
  298TMC3     H 4546   2.207   2.815  16.162  0.6043  0.1238  1.5492
  298TMC3    H1 4547   1.962   2.914  16.483 -0.5452 -0.5139 -0.7425
  298TMC3    H2 4548   1.862   3.061  16.090 -0.9725 -1.5075 -0.6714
  298TMC3    C7 4549   1.843   3.111  16.371  0.0266 -0.3980 -0.0978
  298TMC3    C8 4550   2.065   2.950  15.981  0.6439 -0.1077 -0.1823
  298TMC3    O1 4551   1.855   3.119  16.491  0.2551  0.3682  0.0845
  298TMC3    O2 4552   2.114   2.844  15.946  0.0994 -0.0126  0.1298
  299MPD2     C 4553   2.659   2.175  10.571  0.2277  0.3175  0.6741
  299MPD2    C1 4554   2.624   2.294  10.511 -0.2991  0.4153  0.3316
  299MPD2    C2 4555   2.493   2.309  10.455 -0.1610 -0.3066 -0.0970
  299MPD2    C3 4556   2.393   2.213  10.472  0.6459 -0.3870  0.6667
  299MPD2    C4 4557   2.427   2.104  10.551  0.3644 -0.3039  0.3106
  299MPD2    C5 4558   2.555   2.080  10.579 -0.1695 -0.1779 -0.5826
  299MPD2     H 4559   2.462   2.398  10.401  1.0721  1.9624  2.9503
  299MPD2    H1 4560   2.358   2.025  10.577  0.2488 -0.6323 -0.9951
  299MPD2    H2 4561   2.760   2.155  10.606  0.2229 -0.3639  0.2999
  299MPD2    H3 4562   2.583   1.992  10.637  2.0303 -0.4754 -2.0539
  299MPD2     N 4563   2.258   2.223  10.433 -0.3990  0.5040 -0.1813
  299MPD2    H5 4564   2.194   2.147  10.454 -1.4378  1.0195 -1.4850
  299MPD2    N1 4565   2.727   2.390  10.500  0.4211  0.1146  0.6365
  299MPD2    H7 4566   2.815   2.369  10.546  0.7369 -0.1292 -0.0820
  300TMC3    C1 4567   2.068   2.348  10.395  0.7224  0.4708  0.4390
  300TMC3    C2 4568   2.005   2.438  10.321 -0.1966  0.2669 -0.2096
  300TMC3    C3 4569   1.902   2.506  10.373  0.3217 -0.9682 -0.8365
  300TMC3    C4 4570   2.027   2.314  10.527 -0.6768 -0.1261 -0.5886
  300TMC3    C5 4571   1.925   2.388  10.575  0.2319  0.4279  1.0875
  300TMC3    C6 4572   1.874   2.492  10.510  0.3375 -1.0169 -0.0794
  300TMC3     C 4573   2.212   2.329  10.362  0.1979 -0.0276 -0.3067
  300TMC3     O 4574   2.269   2.389  10.274 -0.6928 -0.5010 -0.3218
  300TMC3     H 4575   2.039   2.460  10.220  1.2185 -0.5211  0.1023
  300TMC3    H1 4576   2.085   2.251  10.593 -0.2116  0.3130 -0.5765
  300TMC3    H2 4577   1.788   2.546  10.549  0.0492 -0.8530 -0.9293
  300TMC3    C7 4578   1.895   2.370  10.714 -0.6729 -0.5204 -0.3382
  300TMC3    C8 4579   1.847   2.616  10.297 -0.7617 -0.0209  0.0664
  300TMC3    O1 4580   1.973   2.297  10.774  0.2412  0.3090 -0.5950
  300TMC3    O2 4581   1.876   2.620  10.180 -0.7328 -0.0849 -0.2012
  301MPD2     C 4582   0.710   4.603   1.540 -0.4159 -0.7196 -0.1597
  301MPD2    C1 4583   0.726   4.544   1.420  0.0862  0.0093 -0.0850
  301MPD2    C2 4584   0.735   4.410   1.415  0.6649 -0.1695 -0.1336
  301MPD2    C3 4585   0.737   4.328   1.528 -0.4565  0.8056 -0.2937
  301MPD2    C4 4586   0.724   4.392   1.645  0.1469 -0.4501  0.8155
  301MPD2    C5 4587   0.704   4.526   1.655  0.6156  0.0697  0.1429
  301MPD2     H 4588   0.747   4.353   1.323  0.1227  0.2372 -0.4593
  301MPD2    H1 4589   0.731   4.338   1.739  0.5490  0.6168  1.3878
  301MPD2    H2 4590   0.708   4.711   1.546 -0.2751 -0.7846  1.0505
  301MPD2    H3 4591   0.699   4.576   1.751  1.2701  1.4046 -0.5230
  301MPD2     N 4592   0.747   4.186   1.537 -0.4545 -0.0897 -0.1991
  301MPD2    H5 4593   0.750   4.146   1.630 -0.5960 -0.5856 -0.4029
  301MPD2    N1 4594   0.713   4.621   1.305 -0.0765  0.8549 -0.0665
  301MPD2    H7 4595   0.715   4.720   1.330 -0.6649  0.3258  2.0567
  302TMC3    C1 4596   0.766   3.959   1.472 -0.9110  0.3287  0.4028
  302TMC3    C2 4597   0.817   3.933   1.593 -0.2779 -0.4207  0.0133
  302TMC3    C3 4598   0.788   3.805   1.646 -0.0882 -0.8923  0.2021
  302TMC3    C4 4599   0.693   3.860   1.407 -0.2020  0.2350  0.0061
  302TMC3    C5 4600   0.662   3.743   1.464  0.9338  0.1499  0.2529
  302TMC3    C6 4601   0.716   3.710   1.587 -0.1117 -0.3135 -0.9887
  302TMC3     C 4602   0.744   4.100   1.431 -0.1493 -0.0296 -0.7457
  302TMC3     O 4603   0.714   4.122   1.313 -1.1606  0.0794 -0.2606
  302TMC3     H 4604   0.886   3.996   1.649 -1.4660  0.1464  0.8370
  302TMC3    H1 4605   0.649   3.897   1.315  0.4004  1.1581  0.0922
  302TMC3    H2 4606   0.703   3.616   1.639 -1.6946  0.4166 -0.0369
  302TMC3    C7 4607   0.580   3.638   1.395 -0.1739 -0.0937 -0.0490
  302TMC3    C8 4608   0.863   3.773   1.771 -0.3476  0.0508  0.3935
  302TMC3    O1 4609   0.564   3.531   1.459  0.2567  0.0978  0.0363
  302TMC3    O2 4610   0.955   3.849   1.790 -0.0873  0.3587 -0.5145
  303MPD2     C 4611   4.496   1.478  10.972 -0.3479 -0.1030 -0.1863
  303MPD2    C1 4612   4.459   1.417  10.858 -0.8448 -0.1482  0.2016
  303MPD2    C2 4613   4.474   1.480  10.736  0.4180 -0.0585  0.5701
  303MPD2    C3 4614   4.537   1.603  10.730  0.0786  0.4890  0.4210
  303MPD2    C4 4615   4.578   1.660  10.850 -0.1101  0.3596 -0.5322
  303MPD2    C5 4616   4.546   1.609  10.967  0.1963 -0.0099  1.0876
  303MPD2     H 4617   4.435   1.435  10.646 -0.5417 -1.9308  1.9189
  303MPD2    H1 4618   4.630   1.755  10.847 -1.1114  0.8959 -0.7340
  303MPD2    H2 4619   4.485   1.420  11.063  0.7973  0.4926  0.3374
  303MPD2    H3 4620   4.577   1.656  11.060  0.6437 -1.0578  1.4826
  303MPD2     N 4621   4.575   1.663  10.608 -0.8675  0.3800  0.2695
  303MPD2    H5 4622   4.615   1.756  10.614  2.7457 -1.0397 -1.9241
  303MPD2    N1 4623   4.407   1.282  10.866  0.0228 -0.0133 -1.0055
  303MPD2    H7 4624   4.417   1.243  10.959  2.4687 -2.3262 -2.2474
  304TMC3    C1 4625   4.319   1.071  10.816 -0.1554 -0.7843 -0.0154
  304TMC3    C2 4626   4.210   1.012  10.755  1.1209  0.3879 -0.2936
  304TMC3    C3 4627   4.215   0.880  10.742 -0.2703  0.0479  0.2586
  304TMC3    C4 4628   4.430   1.000  10.856 -0.3903  0.0167  0.4947
  304TMC3    C5 4629   4.425   0.867  10.838  0.6545  0.1837 -0.8300
  304TMC3    C6 4630   4.321   0.805  10.786 -0.2737 -0.1276 -0.0973
  304TMC3     C 4631   4.345   1.204  10.768 -0.0948  0.8094 -0.5743
  304TMC3     O 4632   4.306   1.242  10.659  0.3030 -0.2588 -0.2403
  304TMC3     H 4633   4.137   1.075  10.706  0.6394  1.8101  2.2522
  304TMC3    H1 4634   4.525   1.050  10.866 -0.7256  1.1457 -1.8827
  304TMC3    H2 4635   4.311   0.697  10.782  2.7613 -0.4110  0.2926
  304TMC3    C7 4636   4.545   0.801  10.781  0.0039  0.1319  0.1157
  304TMC3    C8 4637   4.169   0.841  10.616 -0.4674  0.1252 -0.1366
  304TMC3    O1 4638   4.520   0.711  10.705 -0.7605 -0.2112 -0.0156
  304TMC3    O2 4639   4.055   0.865  10.579 -0.3313 -0.7239  0.4329
  305MPD2     C 4640   3.393   4.384  13.819  0.0614  0.7005  0.4845
  305MPD2    C1 4641   3.419   4.270  13.887  0.3284  0.1475  0.6546
  305MPD2    C2 4642   3.354   4.151  13.847  0.4232 -0.3867  0.0422
  305MPD2    C3 4643   3.281   4.143  13.734  0.0190  0.1265 -0.4471
  305MPD2    C4 4644   3.250   4.260  13.667  0.1958  0.1163 -0.5519
  305MPD2    C5 4645   3.318   4.375  13.699 -0.0172 -0.2111 -0.2511
  305MPD2     H 4646   3.367   4.063  13.909  1.2137  1.7378  2.9033
  305MPD2    H1 4647   3.189   4.263  13.577  1.3552  0.5103 -1.3272
  305MPD2    H2 4648   3.443   4.476  13.845 -0.4201  0.9728  0.4417
  305MPD2    H3 4649   3.291   4.463  13.643 -0.5560 -1.0365 -1.2772
  305MPD2     N 4650   3.227   4.017  13.677 -0.2997 -0.3162  0.5370
  305MPD2    H5 4651   3.172   4.033  13.593 -1.3053 -1.4601  0.9877
  305MPD2    N1 4652   3.496   4.277  14.011  0.4254 -0.0741 -0.1690
  305MPD2    H7 4653   3.532   4.366  14.043  1.7040  0.3347 -2.7568
  306TMC3    C1 4654   3.625   4.225  14.205  0.3645  0.0117 -0.5749
  306TMC3    C2 4655   3.621   4.148  14.319 -0.5436  0.0393  0.0891
  306TMC3    C3 4656   3.672   4.197  14.434 -1.0064  0.0496  0.9471
  306TMC3    C4 4657   3.675   4.351  14.208 -0.6312  0.5996 -0.0216
  306TMC3    C5 4658   3.738   4.393  14.324 -1.0701 -0.3507  0.9447
  306TMC3    C6 4659   3.736   4.317  14.437 -0.4713  0.2091 -0.3146
  306TMC3     C 4660   3.535   4.178  14.099 -0.2155 -0.5516 -0.1886
  306TMC3     O 4661   3.479   4.071  14.115  0.0099  0.0186 -0.8043
  306TMC3     H 4662   3.556   4.062  14.330  0.4689 -1.1781 -3.5088
  306TMC3    H1 4663   3.675   4.414  14.120  1.8031  1.0984  0.3206
  306TMC3    H2 4664   3.798   4.337  14.524  0.0696 -1.5110 -0.2881
  306TMC3    C7 4665   3.807   4.526  14.324  0.3385  0.7407  0.0875
  306TMC3    C8 4666   3.703   4.102  14.535  0.3168  0.0881 -0.2523
  306TMC3    O1 4667   3.801   4.596  14.227 -0.0396  0.4586 -0.1016
  306TMC3    O2 4668   3.694   3.987  14.502 -0.2751 -0.6356 -0.4682
  307MPD2     C 4669   1.788   2.351   0.896  0.1457 -0.1654 -0.1464
  307MPD2    C1 4670   1.703   2.455   0.892  0.3982  0.7860  0.9371
  307MPD2    C2 4671   1.594   2.451   0.976 -0.2466  0.2390 -0.0211
  307MPD2    C3 4672   1.564   2.338   1.051  0.0344 -0.1921  0.3962
  307MPD2    C4 4673   1.652   2.231   1.056  0.1879  0.1803 -0.2515
  307MPD2    C5 4674   1.765   2.239   0.980 -0.1636 -0.0491  0.1430
  307MPD2     H 4675   1.518   2.528   0.981  0.4790  1.0048 -0.8903
  307MPD2    H1 4676   1.640   2.140   1.114  0.9576  0.0249 -0.3321
  307MPD2    H2 4677   1.878   2.346   0.836  0.6186  0.1986  0.5330
  307MPD2    H3 4678   1.833   2.154   0.978  0.1988  0.2733 -1.1728
  307MPD2     N 4679   1.444   2.337   1.125  0.0344  0.1224 -0.1714
  307MPD2    H5 4680   1.380   2.413   1.104  0.5244  0.0225 -2.0294
  307MPD2    N1 4681   1.717   2.561   0.799  0.3384 -0.3774  0.6765
  307MPD2    H7 4682   1.646   2.632   0.812 -0.7914 -1.0074 -1.9484
  308TMC3    C1 4683   1.059   2.310   1.135 -0.1164 -0.0322  0.7029
  308TMC3    C2 4684   1.047   2.433   1.192  0.1050  0.2268 -0.2460
  308TMC3    C3 4685   1.149   2.483   1.272 -0.0076 -0.0278  0.0826
  308TMC3    C4 4686   1.171   2.230   1.153  0.1955 -0.1793  0.2141
  308TMC3    C5 4687   1.267   2.270   1.239  0.0245  0.1113  0.0455
  308TMC3    C6 4688   1.257   2.400   1.295  0.1677 -0.0009 -0.1714
  308TMC3     C 4689   0.953   2.245   1.054 -0.4167 -0.6744  0.0761
  308TMC3     O 4690   0.951   2.130   1.051 -0.4665 -0.0435 -0.1317
  308TMC3     H 4691   0.955   2.488   1.172 -0.3001 -0.1883  0.4859
  308TMC3    H1 4692   1.194   2.147   1.088  2.5013  1.8346 -1.5569
  308TMC3    H2 4693   1.342   2.436   1.352 -0.9032  2.6923 -0.2664
  308TMC3    C7 4694   1.385   2.234   1.180  0.5424  0.5941  0.4074
  308TMC3    C8 4695   1.147   2.614   1.316  0.1319 -0.1521  0.0118
  308TMC3    O1 4696   1.438   2.125   1.208  0.4080  0.2376 -0.3450
  308TMC3    O2 4697   1.236   2.629   1.404 -0.4401 -0.6315  0.0919
  309MPD2     C 4698   0.654   2.739  17.084  0.0943 -0.0564 -1.2758
  309MPD2    C1 4699   0.568   2.782  16.988  0.6241 -0.0120  0.1423
  309MPD2    C2 4700   0.438   2.814  17.017 -0.4277 -0.5044 -0.6403
  309MPD2    C3 4701   0.397   2.811  17.144  0.2633  0.1507  0.3712
  309MPD2    C4 4702   0.488   2.793  17.238 -0.0797  0.5014  0.1150
  309MPD2    C5 4703   0.609   2.747  17.213  0.3986 -0.6451 -0.1465
  309MPD2     H 4704   0.380   2.843  16.930 -1.1617  0.5293  0.1883
  309MPD2    H1 4705   0.473   2.801  17.345  1.5981  0.7204  0.3200
  309MPD2    H2 4706   0.758   2.720  17.060 -0.0592 -1.6806 -0.6605
  309MPD2    H3 4707   0.677   2.725  17.294  0.0840 -0.2212  0.2281
  309MPD2     N 4708   0.264   2.840  17.176  0.4943  0.3848  0.5874
  309MPD2    H5 4709   0.200   2.847  17.097  0.4155 -1.1376  0.5088
  309MPD2    N1 4710   0.615   2.807  16.861 -0.0930  0.0273  0.0751
  309MPD2    H7 4711   0.564   2.871  16.800  1.0348 -0.0046 -0.9184
  310TMC3    C1 4712   0.782   2.829  16.693  0.5927 -0.4505 -0.1500
  310TMC3    C2 4713   0.699   2.830  16.587  0.1414 -0.0016  0.4902
  310TMC3    C3 4714   0.750   2.820  16.458  1.1287  0.1268 -0.2451
  310TMC3    C4 4715   0.918   2.804  16.672  0.6087  0.0821 -0.7274
  310TMC3    C5 4716   0.968   2.782  16.546 -0.4756  0.0605  0.4041
  310TMC3    C6 4717   0.882   2.799  16.437  0.6614  0.6043  0.4719
  310TMC3     C 4718   0.743   2.769  16.822 -0.0575 -0.2022 -0.0952
  310TMC3     O 4719   0.816   2.675  16.860 -0.4329 -0.0990  0.3376
  310TMC3     H 4720   0.592   2.846  16.596 -0.1721 -1.2474 -0.9168
  310TMC3    H1 4721   0.979   2.795  16.761 -0.6770 -0.2438  0.1393
  310TMC3    H2 4722   0.917   2.778  16.337  1.0501  1.5378  0.4200
  310TMC3    C7 4723   1.082   2.701  16.526  0.7368  0.2974 -0.4269
  310TMC3    C8 4724   0.668   2.852  16.350 -0.1599  0.0553  0.6319
  310TMC3    O1 4725   1.093   2.627  16.434 -0.2506 -0.2947 -0.1647
  310TMC3    O2 4726   0.551   2.836  16.371  0.3963 -0.0705 -0.8585
  311MPD2     C 4727   2.192   4.047  12.519  0.7970  0.1229  1.1676
  311MPD2    C1 4728   2.228   4.048  12.656 -0.3040 -0.2038 -0.4657
  311MPD2    C2 4729   2.142   3.995  12.753 -0.0216  0.0432 -0.4238
  311MPD2    C3 4730   2.016   3.945  12.722 -0.5989  0.5161  0.5074
  311MPD2    C4 4731   1.982   3.949  12.587  0.4234  0.7510 -0.2822
  311MPD2    C5 4732   2.059   4.000  12.489  0.5699  0.0603 -0.5822
  311MPD2     H 4733   2.171   3.990  12.858 -0.1007  1.7033 -0.3343
  311MPD2    H1 4734   1.887   3.913  12.549  0.7928  0.6974 -1.1468
  311MPD2    H2 4735   2.252   4.090  12.439  0.1824  0.3793  0.8447
  311MPD2    H3 4736   2.021   4.006  12.387  1.8631 -1.1171 -1.1220
  311MPD2     N 4737   1.939   3.895  12.831 -0.3510  0.0195  0.7507
  311MPD2    H5 4738   1.987   3.898  12.920 -2.0863 -0.8891  1.7176
  311MPD2    N1 4739   2.355   4.091  12.695  0.4954 -0.6810  0.5555
  311MPD2    H7 4740   2.372   4.089  12.795  2.4270  0.9791  0.2472
  312TMC3    C1 4741   1.791   3.751  12.942 -0.0667 -0.9541  0.3092
  312TMC3    C2 4742   1.658   3.730  12.965  0.3933  0.0804 -0.4868
  312TMC3    C3 4743   1.627   3.648  13.066 -0.3781  0.7486  0.1693
  312TMC3    C4 4744   1.890   3.687  13.014 -0.7271 -0.0779 -0.8666
  312TMC3    C5 4745   1.852   3.602  13.116  0.2574  0.3349 -0.7693
  312TMC3    C6 4746   1.719   3.583  13.143 -1.2814 -0.5348 -0.2430
  312TMC3     C 4747   1.830   3.812  12.819  0.4978  0.0150  0.0999
  312TMC3     O 4748   1.755   3.808  12.722 -0.1897  0.0063  0.6568
  312TMC3     H 4749   1.583   3.766  12.896  0.1045 -0.4390 -0.4473
  312TMC3    H1 4750   1.996   3.690  12.992 -0.2204 -5.2904  0.9389
  312TMC3    H2 4751   1.692   3.523  13.229 -0.6694 -0.1219  0.2395
  312TMC3    C7 4752   1.946   3.503  13.172  0.4778  0.4921  0.3231
  312TMC3    C8 4753   1.486   3.617  13.089  0.9309  0.6367  0.0524
  312TMC3    O1 4754   1.881   3.406  13.210  0.6173 -0.0254 -0.0570
  312TMC3    O2 4755   1.451   3.502  13.121  0.9028 -0.2486  0.2231
  313MPD2     C 4756   1.524   2.996  11.075  0.3071 -0.7337 -0.0682
  313MPD2    C1 4757   1.401   3.018  11.015 -0.1928 -0.5535 -0.1987
  313MPD2    C2 4758   1.377   2.974  10.884 -0.1569  0.1208  0.0994
  313MPD2    C3 4759   1.458   2.882  10.823 -0.7816 -0.0409 -0.7942
  313MPD2    C4 4760   1.584   2.876  10.877 -1.0783  0.2379 -0.5974
  313MPD2    C5 4761   1.618   2.922  11.000 -0.2439  0.0667 -0.5146
  313MPD2     H 4762   1.280   3.001  10.844 -0.6079 -2.2067 -0.4019
  313MPD2    H1 4763   1.667   2.821  10.832 -2.9424 -2.2326 -1.0348
  313MPD2    H2 4764   1.557   3.034  11.171  0.0663 -0.4009 -0.1164
  313MPD2    H3 4765   1.718   2.898  11.034  0.0167 -0.9753 -2.0156
  313MPD2     N 4766   1.416   2.816  10.701 -0.5618 -0.1089 -0.0538
  313MPD2    H5 4767   1.318   2.814  10.675 -1.1014 -3.5078  2.3134
  313MPD2    N1 4768   1.306   3.097  11.085  0.3015 -0.0208 -0.2941
  313MPD2    H7 4769   1.209   3.098  11.055 -0.0021  0.4410  0.6893
  314TMC3    C1 4770   1.201   3.235  11.247  0.2485 -0.3251 -0.0287
  314TMC3    C2 4771   1.232   3.276  11.372  0.4530 -0.2180 -0.1490
  314TMC3    C3 4772   1.217   3.410  11.406 -0.5351 -0.5715  0.2370
  314TMC3    C4 4773   1.146   3.322  11.156 -0.6309  0.8332 -0.1622
  314TMC3    C5 4774   1.113   3.446  11.198 -0.4130  0.6609 -0.5171
  314TMC3    C6 4775   1.149   3.488  11.323  0.0411  0.4073 -0.7423
  314TMC3     C 4776   1.323   3.163  11.206 -0.6287 -0.7166 -0.7527
  314TMC3     O 4777   1.421   3.174  11.279 -0.0847  0.0112  0.0068
  314TMC3     H 4778   1.279   3.203  11.436  1.0672 -0.1235 -0.5006
  314TMC3    H1 4779   1.145   3.300  11.050  0.5704  0.5083 -0.1094
  314TMC3    H2 4780   1.129   3.592  11.346 -0.7434  0.3279 -1.0594
  314TMC3    C7 4781   1.134   3.545  11.099  0.2313  0.0480  0.4946
  314TMC3    C8 4782   1.328   3.480  11.470  0.2351  0.6033  0.0533
  314TMC3    O1 4783   1.250   3.546  11.055  0.3094 -0.0241  0.6561
  314TMC3    O2 4784   1.315   3.598  11.481 -0.0298 -0.1316 -0.2026
  315MPD2     C 4785   1.583   2.472  17.497  0.5425  0.4541  0.4416
  315MPD2    C1 4786   1.638   2.510  17.621 -0.6199 -0.0905  0.6339
  315MPD2    C2 4787   1.645   2.644  17.650  0.2256  0.2286  0.5302
  315MPD2    C3 4788   1.614   2.737  17.552 -0.6093  0.1924 -0.2430
  315MPD2    C4 4789   1.565   2.701  17.423 -0.4078  0.0042 -0.9977
  315MPD2    C5 4790   1.549   2.567  17.398  0.2694  0.8264 -0.1743
  315MPD2     H 4791   1.684   2.672   0.000  0.0813 -1.0838  0.9665
  315MPD2    H1 4792   1.551   2.769  17.340  1.6973 -1.3768 -2.4789
  315MPD2    H2 4793   1.570   2.367  17.475 -2.3062  1.0134 -0.5902
  315MPD2    H3 4794   1.525   2.528  17.300  0.4120 -1.4462  0.6992
  315MPD2     N 4795   1.633   2.870  17.593  0.6005  0.0748 -0.4395
  315MPD2    H5 4796   1.668   2.883  17.687 -1.4574 -0.9605  0.4888
  315MPD2    N1 4797   1.684   2.414  17.720 -0.1534 -0.2311  0.2414
  315MPD2    H7 4798   1.723   2.458   0.055 -0.2234 -0.5298  0.4347
  316TMC3    C1 4799   1.665   3.095  17.599 -0.1074 -0.1485 -0.4477
  316TMC3    C2 4800   1.751   3.074  17.705  0.2387  0.0705 -0.3196
  316TMC3    C3 4801   1.745   3.158   0.066 -0.7321 -0.2593  0.3148
  316TMC3    C4 4802   1.584   3.204  17.586  0.2459 -0.4803 -0.0496
  316TMC3    C5 4803   1.579   3.282  17.703 -0.1607  0.0669  0.0454
  316TMC3    C6 4804   1.662   3.268   0.068  0.0045 -0.3226  0.9670
  316TMC3     C 4805   1.624   2.985  17.522 -0.2562 -1.1472 -0.2609
  316TMC3     O 4806   1.574   3.008  17.412 -1.2414  0.1704 -0.5855
  316TMC3     H 4807   1.815   2.987  17.696 -1.2307 -1.3057  2.6032
  316TMC3    H1 4808   1.513   3.205  17.504  1.1944  1.2671 -0.8432
  316TMC3    H2 4809   1.665   3.342   0.147  1.4540  0.5853  0.0410
  316TMC3    C7 4810   1.554   3.419  17.664 -0.1751  0.0953 -0.4769
  316TMC3    C8 4811   1.829   3.142   0.181  0.3303  0.9944  0.3377
  316TMC3    O1 4812   1.544   3.501   0.010 -0.4041 -0.3675  0.4979
  316TMC3    O2 4813   1.787   3.183   0.287  0.3305 -0.2201  0.1988
  317MPD2     C 4814   3.091   1.258  13.725  0.1441 -0.2563 -0.0952
  317MPD2    C1 4815   3.098   1.132  13.674 -0.1054  0.1093  0.2371
  317MPD2    C2 4816   3.190   1.048  13.722 -0.5334 -0.9537 -0.7791
  317MPD2    C3 4817   3.269   1.080  13.833 -0.7576 -0.5087 -0.2068
  317MPD2    C4 4818   3.244   1.201  13.895  0.5772  0.0050 -0.3909
  317MPD2    C5 4819   3.156   1.287  13.841 -0.1879 -0.1368 -0.5225
  317MPD2     H 4820   3.219   0.953  13.676  0.1022 -0.6033 -1.1118
  317MPD2    H1 4821   3.297   1.238  13.983 -0.1633 -2.0131  0.9090
  317MPD2    H2 4822   3.006   1.324  13.710  1.1619  1.1897  0.4529
  317MPD2    H3 4823   3.128   1.377  13.896  2.1760  0.8151 -0.8858
  317MPD2     N 4824   3.345   0.980  13.898  0.3761 -0.2207  0.0039
  317MPD2    H5 4825   3.339   0.890  13.851 -1.3212  0.0189 -0.2276
  317MPD2    N1 4826   3.030   1.084  13.563 -0.2625  0.0633 -0.2248
  317MPD2    H7 4827   3.051   0.987  13.541 -0.1177  0.0752 -0.1387
  318TMC3    C1 4828   3.514   0.870  14.013  0.4017 -0.4093  0.2238
  318TMC3    C2 4829   3.460   0.746  13.995  0.5908 -0.1906 -1.6060
  318TMC3    C3 4830   3.545   0.644  14.000 -0.0950  0.0230  0.2054
  318TMC3    C4 4831   3.645   0.895  14.038  0.1331 -0.5531 -0.4350
  318TMC3    C5 4832   3.728   0.792  14.049  0.2898 -0.2151  0.4295
  318TMC3    C6 4833   3.683   0.667  14.025  0.2745  0.5100  0.1553
  318TMC3     C 4834   3.440   0.990  13.994 -0.1320  0.2145  0.3753
  318TMC3     O 4835   3.488   1.094  14.031  0.3171 -0.4203  0.1237
  318TMC3     H 4836   3.355   0.732  13.976 -0.1237  0.3317  1.9646
  318TMC3    H1 4837   3.692   0.992  14.037  1.0473 -0.9906 -0.1202
  318TMC3    H2 4838   3.749   0.585  14.053  0.2090 -0.0444 -1.3288
  318TMC3    C7 4839   3.867   0.823  14.084  0.0189  0.6466 -0.7046
  318TMC3    C8 4840   3.510   0.516  13.929 -0.7757 -0.0510  0.3451
  318TMC3    O1 4841   3.890   0.928  14.147 -0.0364 -0.2762 -0.1874
  318TMC3    O2 4842   3.601   0.447  13.895  0.4288  0.4734 -0.4821
  319MPD2     C 4843   4.693   2.256  16.737  0.7824 -0.4872  0.1004
  319MPD2    C1 4844   4.590   2.213  16.820 -0.9939  0.5151 -0.9157
  319MPD2    C2 4845   4.464   2.199  16.762 -0.2100 -0.2882 -0.7232
  319MPD2    C3 4846   4.428   2.237  16.635  0.1211 -0.1436  0.7498
  319MPD2    C4 4847   4.528   2.285  16.552 -0.8857  0.4217  0.5630
  319MPD2    C5 4848   4.659   2.288  16.607  0.3122 -0.0181  0.1672
  319MPD2     H 4849   4.396   2.159  16.836 -0.0735 -1.5100 -1.2591
  319MPD2    H1 4850   4.509   2.313  16.449 -1.0730 -0.2672  0.4133
  319MPD2    H2 4851   0.062   2.257  16.762  0.0578 -0.6515  3.0998
  319MPD2    H3 4852   4.734   2.322  16.536 -1.3062  1.8996 -0.6158
  319MPD2     N 4853   4.295   2.234  16.585 -0.7657  0.1250 -0.1020
  319MPD2    H5 4854   4.283   2.252  16.486  1.9805 -1.5301 -0.7404
  319MPD2    N1 4855   4.607   2.192  16.960 -0.0303  0.3305  0.0318
  319MPD2    H7 4856   4.536   2.140  17.011 -0.3544  1.5384  0.8069
  320TMC3    C1 4857   4.072   2.158  16.565 -0.3245  0.3185  0.2425
  320TMC3    C2 4858   4.064   2.233  16.448  0.7888 -1.0200  0.7871
  320TMC3    C3 4859   3.965   2.211  16.358  0.4127 -0.1351 -0.0306
  320TMC3    C4 4860   4.000   2.048  16.585  0.2049 -0.3089  0.9723
  320TMC3    C5 4861   3.911   2.012  16.481  0.0454 -0.5241 -0.0445
  320TMC3    C6 4862   3.899   2.085  16.364  0.3611  0.2212 -0.0469
  320TMC3     C 4863   4.190   2.183  16.656 -0.3758  0.9127  0.4481
  320TMC3     O 4864   4.181   2.136  16.767 -0.4622  0.1683 -0.1153
  320TMC3     H 4865   4.118   2.326  16.435  1.3833 -1.5131 -0.2954
  320TMC3    H1 4866   4.012   1.985  16.672 -1.5484  1.3713  2.4209
  320TMC3    H2 4867   3.839   2.039  16.286  0.2123  1.4032 -0.6335
  320TMC3    C7 4868   3.881   1.870  16.458  0.5045 -1.0489  0.1096
  320TMC3    C8 4869   3.981   2.276  16.226 -0.3073  0.5755 -0.2557
  320TMC3    O1 4870   3.794   1.845  16.379 -0.0796  0.2036  0.3422
  320TMC3    O2 4871   4.089   2.326  16.196 -0.1436 -0.1112 -0.3596
  321TMC3    C1 4872   4.694   2.210  17.167 -0.2641  0.2736  0.0910
  321TMC3    C2 4873   4.688   2.083  17.222  0.9311 -0.6360  0.2384
  321TMC3    C3 4874   4.684   2.064  17.355 -0.0784 -0.7216 -0.1040
  321TMC3    C4 4875   4.673   2.319  17.244  0.4802 -0.0715 -0.1024
  321TMC3    C5 4876   4.664   2.302  17.383  0.7711 -0.7210 -0.4991
  321TMC3    C6 4877   4.656   2.173  17.436  0.4957 -0.5684 -1.4529
  321TMC3     C 4878   4.720   2.225  17.025 -0.4677  0.2158  0.0478
  321TMC3     O 4879   0.074   2.300  16.993 -0.0344  0.6684 -0.1629
  321TMC3     H 4880   0.001   2.012  17.159  0.0219 -0.5530 -0.5836
  321TMC3    H1 4881   4.699   2.413  17.198  2.7177  0.5937  2.4821
  321TMC3    H2 4882   4.649   2.174  17.544  2.2090 -0.3171 -1.3365
  321TMC3    C7 4883   0.008   2.395  17.459 -0.3274 -0.2679  0.0432
  321TMC3    C8 4884   0.064   2.001  17.414 -0.3259  0.1086 -0.7900
  321TMC3    O1 4885   4.726   2.511  17.429 -0.8378 -0.3560  0.5210
  321TMC3    O2 4886   0.117   2.058  17.508  0.4172  0.5919 -0.0301
  322MPD2     C 4887   3.201   3.339  13.847 -0.0634 -0.3999 -0.7742
  322MPD2    C1 4888   3.260   3.321  13.971 -0.1189 -0.3655 -0.2422
  322MPD2    C2 4889   3.273   3.191  14.023 -0.5118 -0.6378  0.1489
  322MPD2    C3 4890   3.237   3.078  13.951 -0.2232 -0.2171 -0.0733
  322MPD2    C4 4891   3.177   3.105  13.830  0.4839  0.3851 -0.0412
  322MPD2    C5 4892   3.162   3.227  13.775 -0.1040 -0.0602 -0.0782
  322MPD2     H 4893   3.322   3.169  14.118 -0.7105  1.8173  0.8270
  322MPD2    H1 4894   3.131   3.020  13.780  1.5547 -0.7681  0.9071
  322MPD2    H2 4895   3.184   3.437  13.804  1.1550 -0.3167 -1.0478
  322MPD2    H3 4896   3.121   3.236  13.675  0.6557  1.5912 -0.2282
  322MPD2     N 4897   3.253   2.954  14.009  0.8968  0.5842  0.1961
  322MPD2    H5 4898   3.294   2.958  14.101 -1.1104  3.5262  0.9643
  322MPD2    N1 4899   3.302   3.438  14.042 -0.9377 -0.1777 -0.1897
  322MPD2    H7 4900   3.305   3.527  13.993 -1.3212 -1.1435 -1.9609
  323TMC3    C1 4901   3.368   3.580  14.221  0.3882 -0.7194  0.2739
  323TMC3    C2 4902   3.468   3.646  14.155  1.0906  0.0902 -0.2577
  323TMC3    C3 4903   3.544   3.729  14.236  0.1031 -0.4558  0.5337
  323TMC3    C4 4904   3.346   3.594  14.354 -0.4502  0.2956 -0.5714
  323TMC3    C5 4905   3.427   3.677  14.430 -0.4630  0.4342 -0.5040
  323TMC3    C6 4906   3.530   3.748  14.373  1.4337 -0.1946  0.0916
  323TMC3     C 4907   3.325   3.445  14.174 -0.3421  0.8998  0.6302
  323TMC3     O 4908   3.311   3.359  14.255 -0.3241 -0.1141 -0.6390
  323TMC3     H 4909   3.481   3.637  14.047  0.1351  0.0205 -0.3741
  323TMC3    H1 4910   3.264   3.535  14.393  0.4798 -0.7316 -0.1591
  323TMC3    H2 4911   3.604   3.790  14.440  1.1797  0.5515 -0.0913
  323TMC3    C7 4912   3.446   3.628  14.556 -0.3256  0.0723  0.6388
  323TMC3    C8 4913   3.676   3.752  14.177 -0.8393  0.0854 -0.7554
  323TMC3    O1 4914   3.399   3.516  14.579  0.4672 -0.5238 -0.2767
  323TMC3    O2 4915   3.706   3.671  14.089 -0.2228  0.0559  0.1088
  324MPD2     C 4916   0.399   4.566  14.648  0.5749  0.0905 -0.2586
  324MPD2    C1 4917   0.377   4.669  14.566 -0.3962 -0.1575 -0.6341
  324MPD2    C2 4918   0.255   4.686  14.516 -0.6855  0.3484  0.7267
  324MPD2    C3 4919   0.149   4.594  14.531 -0.5772  0.6382 -0.0986
  324MPD2    C4 4920   0.177   4.479  14.597  0.0577  0.2661 -0.1447
  324MPD2    C5 4921   0.304   4.467  14.657 -0.1434 -0.3952  0.1027
  324MPD2     H 4922   0.243   0.032  14.448  0.3420 -0.6461 -0.6872
  324MPD2    H1 4923   0.103   4.402  14.614 -1.2841  1.6305  0.2706
  324MPD2    H2 4924   0.487   4.556  14.711 -1.5259 -0.9867  2.5397
  324MPD2    H3 4925   0.327   4.373  14.705  0.5449 -1.3793 -2.1606
  324MPD2     N 4926   0.016   4.610  14.475 -0.0646 -1.0730  0.4808
  324MPD2    H5 4927   4.682   4.539  14.486 -1.1160 -0.0084  0.4701
  324MPD2    N1 4928   0.476   0.031  14.533 -0.2627 -0.0069 -0.0441
  324MPD2    H7 4929   0.450   0.109  14.473 -1.7227 -0.4946 -0.0469
  325TMC3    C1 4930   4.567   4.714  14.368  0.0292  0.0894 -0.0919
  325TMC3    C2 4931   4.505   4.602  14.318  0.6210 -0.5210  0.3579
  325TMC3    C3 4932   4.384   4.601  14.253  0.1539 -0.2126 -0.0557
  325TMC3    C4 4933   4.498   0.095  14.364 -0.3969 -0.0470 -0.1222
  325TMC3    C5 4934   4.370   0.095  14.302  0.3769  0.8066 -0.3366
  325TMC3    C6 4935   4.312   4.722  14.242  0.0105  0.2251 -0.4571
  325TMC3     C 4936   4.706   4.721  14.410  0.5938 -0.3658  0.4522
  325TMC3     O 4937   0.025   0.090  14.399  0.2856  0.4405 -0.7166
  325TMC3     H 4938   4.552   4.506  14.334  1.1927  0.0371  2.0400
  325TMC3    H1 4939   4.546   0.175  14.419 -1.4235  0.5332 -0.0655
  325TMC3    H2 4940   4.229   4.726  14.172 -0.5766 -1.2921  0.1676
  325TMC3    C7 4941   4.294   0.221  14.297  0.0863  0.0935  0.2263
  325TMC3    C8 4942   4.309   4.479  14.223  0.0666 -0.0237  0.1048
  325TMC3    O1 4943   4.202   0.231  14.216 -0.2717 -0.3602  0.4288
  325TMC3    O2 4944   4.362   4.381  14.273 -0.2776  0.4280 -0.0001
  326MPD2     C 4945   1.202   0.659  11.730  0.1264  0.6342 -0.0562
  326MPD2    C1 4946   1.245   0.633  11.602  0.2462 -0.2837  0.5497
  326MPD2    C2 4947   1.362   0.690  11.556 -0.0857 -1.1044  0.1749
  326MPD2    C3 4948   1.440   0.774  11.633  0.1324  1.0034 -0.5346
  326MPD2    C4 4949   1.400   0.784  11.765  0.0452 -0.3115 -0.4088
  326MPD2    C5 4950   1.285   0.727  11.813  0.2564 -0.2174  0.0948
  326MPD2     H 4951   1.387   0.674  11.451  0.2732  0.5337  0.0217
  326MPD2    H1 4952   1.459   0.849  11.829  1.0537 -1.5292 -0.1159
  326MPD2    H2 4953   1.105   0.635  11.771 -0.3915  2.8839  0.0295
  326MPD2    H3 4954   1.253   0.747  11.915 -0.0382  1.0972 -0.2515
  326MPD2     N 4955   1.551   0.848  11.591 -0.3556 -0.8074 -0.1237
  326MPD2    H5 4956   1.588   0.925  11.646 -0.9763  0.9351 -2.1518
  326MPD2    N1 4957   1.159   0.561  11.514 -0.2062  0.0049 -0.5924
  326MPD2    H7 4958   1.201   0.546  11.423 -0.5509  1.3096 -0.9775
  327TMC3    C1 4959   1.006   0.408  11.428 -0.7718  0.6395  0.0454
  327TMC3    C2 4960   0.937   0.466  11.324  0.8684 -0.5226 -0.2817
  327TMC3    C3 4961   0.969   0.429  11.193  0.3815 -0.0896 -0.0611
  327TMC3    C4 4962   1.120   0.339  11.401 -0.2430 -0.8477 -0.1037
  327TMC3    C5 4963   1.155   0.302  11.275  0.3329 -0.3491  0.4671
  327TMC3    C6 4964   1.075   0.344  11.172  0.1955 -0.0161 -0.3483
  327TMC3     C 4965   1.035   0.494  11.536 -0.1162  0.0055  0.0393
  327TMC3     O 4966   0.961   0.502  11.636  0.0474  0.1635  0.0107
  327TMC3     H 4967   0.855   0.534  11.347 -0.4448 -1.4524 -2.1890
  327TMC3    H1 4968   1.180   0.299  11.482  0.9949 -0.5014 -0.8599
  327TMC3    H2 4969   1.112   0.319  11.073  0.5434 -0.9305  0.0120
  327TMC3    C7 4970   1.290   0.253  11.243  0.3722  0.0341  0.5440
  327TMC3    C8 4971   0.945   0.526  11.095  0.5623 -0.4109  0.0177
  327TMC3    O1 4972   1.316   0.219  11.124 -0.7538  0.7587  0.1403
  327TMC3    O2 4973   1.047   0.574  11.044  0.3284  0.0432 -0.1997
  328MPD2     C 4974   4.253   1.115   0.071 -0.3898  0.0556  0.4293
  328MPD2    C1 4975   4.121   1.083   0.100  0.2707  0.0594 -0.1092
  328MPD2    C2 4976   4.037   1.067  17.734 -0.1948 -0.5775  0.9649
  328MPD2    C3 4977   4.070   1.095  17.606 -0.0412 -0.1935 -0.0143
  328MPD2    C4 4978   4.201   1.128  17.579  0.1779  0.2311  0.5761
  328MPD2    C5 4979   4.293   1.122  17.685  0.1363 -0.2989 -0.4463
  328MPD2     H 4980   3.934   1.040   0.011  0.3392 -2.9986  0.5925
  328MPD2    H1 4981   4.230   1.165  17.481  1.1292 -2.3899 -0.1272
  328MPD2    H2 4982   4.323   1.130   0.152 -2.6036 -2.5315  2.8030
  328MPD2    H3 4983   4.396   1.147  17.660  0.4175 -0.3907  0.6156
  328MPD2     N 4984   3.974   1.080  17.501  0.0379 -0.5945  0.2402
  328MPD2    H5 4985   3.997   1.123  17.411 -1.9363  0.0346  0.0481
  328MPD2    N1 4986   4.082   1.062   0.235 -0.0595  0.3073  0.3056
  328MPD2    H7 4987   4.155   1.056   0.305  2.0450 -2.7826 -2.1373
  329TMC3    C1 4988   3.952   1.078   0.432  0.1302  0.1921 -0.3791
  329TMC3    C2 4989   3.887   1.179   0.497  0.1104  0.6386  0.1608
  329TMC3    C3 4990   3.911   1.189   0.630  0.3923 -0.3866 -0.0674
  329TMC3    C4 4991   4.019   0.979   0.501 -0.1119  0.3574  0.0270
  329TMC3    C5 4992   4.028   0.991   0.633 -0.3465  0.3820  0.2400
  329TMC3    C6 4993   3.981   1.094   0.701 -0.0705  0.5496  0.4480
  329TMC3     C 4994   3.956   1.085   0.281  0.0637 -0.5494 -0.2674
  329TMC3     O 4995   3.869   1.146   0.219 -0.5126  0.1065 -0.2048
  329TMC3     H 4996   3.845   1.263   0.442  2.2802  2.0132  0.6001
  329TMC3    H1 4997   4.068   0.900   0.446 -1.1965  0.8051 -1.5999
  329TMC3    H2 4998   3.981   1.086   0.809  1.8498 -0.1142  0.3969
  329TMC3    C7 4999   4.094   0.891   0.717 -0.1155  0.6037 -0.0777
  329TMC3    C8 5000   3.839   1.281   0.718 -0.0706 -0.1620  0.4189
  329TMC3    O1 5001   4.138   0.926   0.819 -0.0630  0.2215  0.2933
  329TMC3    O2 5002   3.884   1.292   0.831  0.0485  0.3054  0.2465
  330TMC3    C1 5003   2.242   0.140   9.715 -0.3395 -0.1501 -0.2660
  330TMC3    C2 5004   2.154   0.037   9.702 -0.0376  0.5979 -0.1278
  330TMC3    C3 5005   2.108   4.711   9.813  0.0269 -0.0080 -0.7215
  330TMC3    C4 5006   2.281   0.183   9.843 -0.3023 -0.1893 -0.5328
  330TMC3    C5 5007   2.230   0.120   9.951  0.4009 -0.2217 -0.4579
  330TMC3    C6 5008   2.142   0.014   9.942  0.1053 -0.1996 -1.0582
  330TMC3     C 5009   2.260   0.237   9.611 -0.1210 -0.2258  0.0005
  330TMC3     O 5010   2.364   0.294   9.595 -0.1365 -0.1800  0.1680
  330TMC3     H 5011   2.133   0.006   9.600 -0.1747  1.0788 -0.2474
  330TMC3    H1 5012   2.346   0.267   9.861  0.0490 -0.1683 -1.8972
  330TMC3    H2 5013   2.092   4.709  10.029 -0.5459  0.3541 -1.1607
  330TMC3    C7 5014   2.273   0.179  10.079  0.4139  0.0110 -0.0821
  330TMC3    C8 5015   2.023   4.597   9.785  0.5669  0.0372 -0.2370
  330TMC3    O1 5016   2.365   0.259  10.079 -0.2804 -0.4766  0.2625
  330TMC3    O2 5017   2.001   4.563   9.665  0.0675 -0.4714 -0.0976
  331MPD2     C 5018   4.086   4.189  13.098  0.4115  0.1792  0.6108
  331MPD2    C1 5019   4.190   4.187  13.009 -0.5624 -0.5357  0.0068
  331MPD2    C2 5020   4.261   4.067  12.999  0.0699 -0.5579 -0.4004
  331MPD2    C3 5021   4.221   3.956  13.065 -0.4971  0.0553  0.0514
  331MPD2    C4 5022   4.118   3.958  13.152 -0.7747  0.4042  0.6039
  331MPD2    C5 5023   4.056   4.077  13.175 -0.3498 -0.0349  0.2028
  331MPD2     H 5024   4.358   4.052  12.954  0.4947 -0.3007  0.4312
  331MPD2    H1 5025   4.082   3.868  13.201  0.2956  0.6074  1.7580
  331MPD2    H2 5026   4.023   4.275  13.117  0.2258  0.6241 -1.9877
  331MPD2    H3 5027   3.973   4.089  13.244  1.5021  0.6929  2.3248
  331MPD2     N 5028   4.278   3.830  13.023  0.0071  0.0191  0.6222
  331MPD2    H5 5029   4.342   3.843  12.946  0.7620 -0.3287  1.1895
  331MPD2    N1 5030   4.221   4.296  12.922 -0.6710  0.3413 -0.1771
  331MPD2    H7 5031   4.153   4.372  12.922 -0.0517  0.8895  1.3862
  332TMC3    C1 5032   4.351   3.625  12.998  0.1239  0.9790 -0.1398
  332TMC3    C2 5033   4.359   3.646  12.862  0.4009  0.4138 -0.1707
  332TMC3    C3 5034   4.460   3.580  12.798 -0.5529  0.0452  0.2910
  332TMC3    C4 5035   4.433   3.542  13.065 -0.1613  0.0600 -0.1180
  332TMC3    C5 5036   4.530   3.476  12.993  0.3543 -0.2477 -0.1894
  332TMC3    C6 5037   4.550   3.494  12.855 -0.1921  0.1060 -0.5835
  332TMC3     C 5038   4.277   3.711  13.083 -0.0268  0.2455 -0.1266
  332TMC3     O 5039   4.245   3.679  13.197  0.0616 -0.1368  0.2928
  332TMC3     H 5040   4.295   3.710  12.803 -1.0890 -1.6879 -0.8119
  332TMC3    H1 5041   4.433   3.530  13.172  1.7635  4.2575  0.3511
  332TMC3    H2 5042   4.623   3.440  12.796 -0.8872  0.2320 -1.5405
  332TMC3    C7 5043   4.587   3.365  13.063  0.3340 -0.5547 -0.3325
  332TMC3    C8 5044   4.459   3.585  12.655  0.3354  0.2268 -0.3768
  332TMC3    O1 5045   4.517   3.322  13.152 -0.1956  0.3463  0.3859
  332TMC3    O2 5046   4.566   3.614  12.598 -0.2051  0.5585 -0.0929
  333MPD2     C 5047   4.444   3.845  11.072  0.1882 -0.7240  0.2389
  333MPD2    C1 5048   4.452   3.783  10.949  0.0159 -0.2993  1.1713
  333MPD2    C2 5049   4.422   3.647  10.947  0.2446  0.2659 -0.2012
  333MPD2    C3 5050   4.383   3.578  11.055  0.2722  0.0379 -0.5442
  333MPD2    C4 5051   4.351   3.650  11.172  0.4832 -0.6526 -0.4287
  333MPD2    C5 5052   4.395   3.780  11.182  0.3589  0.1963  0.0618
  333MPD2     H 5053   4.437   3.591  10.856 -1.0854  1.1114 -0.9362
  333MPD2    H1 5054   4.316   3.608  11.265  1.1101  2.1334  1.0488
  333MPD2    H2 5055   4.463   3.952  11.073  0.6969 -0.8181  0.8905
  333MPD2    H3 5056   4.367   3.827  11.276 -0.8015 -1.0967  0.3629
  333MPD2     N 5057   4.364   3.434  11.045 -0.4578  0.5368  0.6518
  333MPD2    H5 5058   4.392   3.396  10.955 -0.0627 -1.3925  1.5896
  333MPD2    N1 5059   4.520   3.852  10.850 -0.1141  0.1101  0.2068
  333MPD2    H7 5060   4.535   3.951  10.868 -1.4692  0.4250 -0.4010
  334TMC3    C1 5061   4.673   3.892  10.680  0.2551  0.0825  0.0474
  334TMC3    C2 5062   0.065   3.853  10.680  0.2206 -0.5156 -0.1937
  334TMC3    C3 5063   0.160   3.948  10.677  0.7442 -0.1904  0.3598
  334TMC3    C4 5064   4.634   4.022  10.672 -0.0780  0.7707 -0.0080
  334TMC3    C5 5065   4.736   4.111  10.675  0.0197  0.1319 -0.4584
  334TMC3    C6 5066   0.129   4.079  10.669 -0.2392  0.7950  0.2707
  334TMC3     C 5067   4.586   3.796  10.745 -0.1725  0.0633  0.6267
  334TMC3     O 5068   4.599   3.679  10.708  0.2801 -0.3558 -0.0451
  334TMC3     H 5069   0.096   3.749  10.678  2.8225  0.2608 -1.2129
  334TMC3    H1 5070   4.530   4.053  10.681 -0.1884  1.1486 -2.7263
  334TMC3    H2 5071   0.206   4.155  10.659 -0.7247  1.4715  1.7134
  334TMC3    C7 5072   4.708   4.245  10.702  0.1799 -0.7316  0.2574
  334TMC3    C8 5073   0.258   3.920  10.789 -0.3159 -0.2319 -0.2499
  334TMC3    O1 5074   0.059   4.297  10.771 -0.4104  0.7234  0.4376
  334TMC3    O2 5075   0.213   3.832  10.863  0.1006  0.0437 -0.0263
  335TMC3    C1 5076   0.052   0.917   0.065 -0.3654  0.1266  0.1966
  335TMC3    C2 5077   4.704   0.870  17.717 -0.2000 -0.8101 -0.1335
  335TMC3    C3 5078   0.006   0.869  17.584 -0.3014 -0.3808 -0.7270
  335TMC3    C4 5079   0.180   0.955   0.030  0.0251 -0.0720 -0.0892
  335TMC3    C5 5080   0.210   0.969  17.643  0.4578 -0.2470  0.5763
  335TMC3    C6 5081   0.128   0.925  17.549 -0.9455  0.6076  0.7643
  335TMC3     C 5082   0.026   0.923   0.212 -0.4991 -0.3265  0.3263
  335TMC3     O 5083   0.099   0.987   0.285  0.0776 -0.1959  0.1034
  335TMC3     H 5084   4.602   0.840  17.740 -0.1974 -0.4679  0.3306
  335TMC3    H1 5085   0.240   1.002   0.106  0.0561  1.3846 -1.0138
  335TMC3    H2 5086   0.156   0.931  17.444 -1.1253  0.5812  0.7147
  335TMC3    C7 5087   0.346   1.001  17.615 -0.4015  0.4941  0.5050
  335TMC3    C8 5088   4.664   0.828  17.467 -0.4149  0.1938 -0.0210
  335TMC3    O1 5089   0.389   0.951  17.512 -0.0922  0.0841 -0.6006
  335TMC3    O2 5090   4.685   0.886  17.362  0.5182 -0.7033  0.3397
  336MPD2     C 5091   4.466   3.339  16.178 -0.1602 -0.2290 -0.6717
  336MPD2    C1 5092   4.379   3.316  16.077 -0.0412  0.4234  0.1275
  336MPD2    C2 5093   4.335   3.190  16.053 -0.3215 -0.2576  0.1733
  336MPD2    C3 5094   4.378   3.093  16.140  0.0667  0.6162  0.4338
  336MPD2    C4 5095   4.448   3.122  16.246  0.4080 -0.4889  0.5922
  336MPD2    C5 5096   4.503   3.246  16.265 -0.5419 -0.6838 -0.0392
  336MPD2     H 5097   4.254   3.162  15.987  1.2509  0.6588 -2.1349
  336MPD2    H1 5098   4.464   3.049  16.325  2.4914  0.4285  1.0424
  336MPD2    H2 5099   4.500   3.439  16.205 -0.6431 -0.4512  0.7679
  336MPD2    H3 5100   4.565   3.277  16.348 -1.4033  3.1755 -0.8605
  336MPD2     N 5101   4.347   2.963  16.115  0.5030  0.1467 -0.2095
  336MPD2    H5 5102   4.369   2.898  16.189  1.9086  1.2366  0.3181
  336MPD2    N1 5103   4.331   3.435  16.007 -0.1461  0.7877 -0.0235
  336MPD2    H7 5104   4.371   3.525  16.031 -1.2280  1.1102  0.5738
  337TMC3    C1 5105   4.188   3.590  15.899 -0.3785 -0.5734 -0.8499
  337TMC3    C2 5106   4.057   3.628  15.879  0.0492  0.3185  0.7872
  337TMC3    C3 5107   4.036   3.754  15.840 -0.4767 -0.4124 -0.0760
  337TMC3    C4 5108   4.291   3.672  15.893 -0.4782 -0.1109 -0.0956
  337TMC3    C5 5109   4.265   3.804  15.862 -0.2714 -0.0798 -0.1264
  337TMC3    C6 5110   4.138   3.842  15.827  0.2334  0.3820  0.2206
  337TMC3     C 5111   4.212   3.452  15.946  0.3338  0.2885 -0.3341
  337TMC3     O 5112   4.120   3.371  15.943 -0.7827 -0.2096 -0.0359
  337TMC3     H 5113   3.970   3.564  15.892  0.2525 -0.1614 -0.2903
  337TMC3    H1 5114   4.395   3.642  15.896  0.0044  1.8377  2.3177
  337TMC3    H2 5115   4.106   3.946  15.825 -2.6161 -0.4626  2.5506
  337TMC3    C7 5116   4.357   3.917  15.887  0.5740 -0.4067  1.1284
  337TMC3    C8 5117   3.902   3.796  15.863 -0.5133 -0.4314 -0.3763
  337TMC3    O1 5118   4.313   4.028  15.857 -0.2101 -0.6195  0.7852
  337TMC3    O2 5119   3.888   3.882  15.951 -0.3118 -0.3754 -0.5466
  338MPD2     C 5120   4.644   2.780   1.050 -0.3952 -0.4205 -0.0221
  338MPD2    C1 5121   4.627   2.853   0.931 -0.1894  0.0783  0.2466
  338MPD2    C2 5122   4.511   2.930   0.917 -0.3226 -0.7869  0.2455
  338MPD2    C3 5123   4.427   2.955   1.022 -0.2344  0.2524  0.0276
  338MPD2    C4 5124   4.447   2.878   1.139 -0.2470  0.1073 -0.2232
  338MPD2    C5 5125   4.554   2.794   1.149  0.4811 -0.1771  0.0434
  338MPD2     H 5126   4.489   2.981   0.823 -0.0886  1.8217  1.5964
  338MPD2    H1 5127   4.391   2.900   1.230  1.3764  0.4035  0.6959
  338MPD2    H2 5128   4.715   2.703   1.079 -2.6266 -2.9495 -1.3949
  338MPD2    H3 5129   4.570   2.735   1.238  0.6164  0.0130  0.1465
  338MPD2     N 5130   4.314   3.036   1.008 -0.2404 -0.9915 -0.3506
  338MPD2    H5 5131   4.298   3.059   0.910 -0.7844 -0.5755 -0.1612
  338MPD2    N1 5132   4.716   2.844   0.822 -0.7318 -0.2320 -0.1695
  338MPD2    H7 5133   4.688   2.888   0.735  0.1922 -1.5600 -1.1426
  339TMC3    C1 5134   4.086   3.095   1.042 -0.3762 -0.0617 -0.6410
  339TMC3    C2 5135   3.989   3.017   1.093  0.3896 -0.1466 -0.0775
  339TMC3    C3 5136   3.902   2.948   1.010  0.7896 -0.0737 -0.3624
  339TMC3    C4 5137   4.090   3.106   0.905 -0.0207  0.6470 -0.1522
  339TMC3    C5 5138   4.005   3.038   0.825 -0.4235  0.1207 -0.4767
  339TMC3    C6 5139   3.902   2.954   0.872  0.3072 -0.1120  0.5024
  339TMC3     C 5140   4.218   3.068   1.104  0.3465  1.1465  0.3530
  339TMC3     O 5141   4.214   3.043   1.224  0.1559 -0.3944 -0.5967
  339TMC3     H 5142   3.974   3.003   1.199 -1.7163 -1.3889 -0.5390
  339TMC3    H1 5143   4.172   3.163   0.865  0.4935 -1.1468 -1.6760
  339TMC3    H2 5144   3.837   2.895   0.808  2.0571 -2.0685  0.5222
  339TMC3    C7 5145   4.035   3.044   0.687 -0.2406  0.1155  0.1065
  339TMC3    C8 5146   3.779   2.898   1.068 -0.5002  0.2343  0.2760
  339TMC3    O1 5147   4.141   3.093   0.657 -0.0781 -0.1720  0.1205
  339TMC3    O2 5148   3.723   2.972   1.148 -0.0401 -0.4293 -0.0942
  340MPD2     C 5149   0.045   0.551  10.912 -0.6385  0.0274  0.0782
  340MPD2    C1 5150   0.034   0.461  10.805 -0.0058  0.6545 -0.1169
  340MPD2    C2 5151   0.139   0.374  10.781 -0.3549 -0.7095  0.4020
  340MPD2    C3 5152   0.248   0.368  10.858 -0.6934  0.0946 -0.1679
  340MPD2    C4 5153   0.266   0.462  10.952  0.3167 -0.0226  0.3676
  340MPD2    C5 5154   0.164   0.546  10.973  0.5149  0.0460 -0.1956
  340MPD2     H 5155   0.137   0.303  10.699  4.1224 -1.0638  0.5640
  340MPD2    H1 5156   0.359   0.467  11.007  0.4374 -3.0543  0.4254
  340MPD2    H2 5157   4.710   0.627  10.939 -1.2658 -1.7352  3.3315
  340MPD2    H3 5158   0.173   0.612  11.059 -2.3813  1.3828 -0.9212
  340MPD2     N 5159   0.341   0.262  10.857  0.2379  0.4839  0.5006
  340MPD2    H5 5160   0.416   0.277  10.923  1.4768  1.2798 -1.0811
  340MPD2    N1 5161   4.649   0.457  10.733 -0.6040 -0.2724  0.5658
  340MPD2    H7 5162   4.579   0.528  10.750  1.1298  1.2129  1.5656
  341TMC3    C1 5163   4.498   0.394  10.568  0.1974 -0.3548 -0.0134
  341TMC3    C2 5164   4.395   0.425  10.646  0.3098  0.1463  0.6249
  341TMC3    C3 5165   4.269   0.437  10.586 -0.1282 -0.9791 -0.1259
  341TMC3    C4 5166   4.479   0.372  10.427  0.3991  0.2545 -0.1507
  341TMC3    C5 5167   4.356   0.391  10.383 -0.2358 -0.0680  0.2789
  341TMC3    C6 5168   4.249   0.428  10.452  0.3249  0.6577 -0.5242
  341TMC3     C 5169   4.633   0.386  10.612  0.0451  0.9030 -0.3211
  341TMC3     O 5170   4.719   0.333  10.542 -0.3743  0.8549  0.0836
  341TMC3     H 5171   4.398   0.431  10.754  0.1196 -0.8472  0.6877
  341TMC3    H1 5172   4.559   0.347  10.359  0.9724  0.8381  0.3052
  341TMC3    H2 5173   4.154   0.463  10.413 -0.9436 -2.6259 -0.3808
  341TMC3    C7 5174   4.328   0.312  10.267 -0.5125  0.2661 -0.3580
  341TMC3    C8 5175   4.162   0.359  10.649  0.1144 -0.5803 -0.1655
  341TMC3    O1 5176   4.424   0.291  10.190 -0.4969  0.0026 -0.2152
  341TMC3    O2 5177   4.076   0.320  10.570 -0.3667 -0.5069  0.1416
  342MPD2     C 5178   2.420   3.747  17.550  0.0139  0.0926 -0.1610
  342MPD2    C1 5179   2.549   3.748  17.510  0.0009  0.1967 -0.4643
  342MPD2    C2 5180   2.613   3.864  17.502  0.4458 -0.2315 -0.7511
  342MPD2    C3 5181   2.560   3.976  17.561  0.0625 -0.3386  0.4079
  342MPD2    C4 5182   2.437   3.969  17.621  0.0085  0.0557 -0.1800
  342MPD2    C5 5183   2.373   3.851  17.619  0.1129  0.0334 -0.2809
  342MPD2     H 5184   2.696   3.880  17.434 -0.0842  2.5850 -0.7547
  342MPD2    H1 5185   2.390   4.064  17.648 -0.5741 -0.8155  1.8205
  342MPD2    H2 5186   2.363   3.655  17.558 -1.0905  0.7202 -0.8203
  342MPD2    H3 5187   2.282   3.837  17.677 -0.7911  3.5707 -0.8384
  342MPD2     N 5188   2.628   4.107  17.550 -0.3353 -0.6467  0.8129
  342MPD2    H5 5189   2.563   4.182  17.571  0.9810  1.5762 -3.0852
  342MPD2    N1 5190   2.618   3.635  17.453  0.3578 -0.3007  0.4915
  342MPD2    H7 5191   2.716   3.645  17.425 -1.2250  5.1365 -3.1075
  343TMC3    C1 5192   2.646   3.412  17.368 -0.2335 -0.3285 -0.3236
  343TMC3    C2 5193   2.779   3.434  17.329  0.0784  0.0788  0.0136
  343TMC3    C3 5194   2.835   3.330  17.251 -0.2541 -0.4049  0.9148
  343TMC3    C4 5195   2.583   3.292  17.351  0.4894  0.4810 -0.1522
  343TMC3    C5 5196   2.651   3.190  17.285  0.2055 -0.3593 -0.2514
  343TMC3    C6 5197   2.770   3.215  17.233 -0.6692 -0.1782 -0.1841
  343TMC3     C 5198   2.566   3.509  17.445  0.2242 -0.1533 -0.0759
  343TMC3     O 5199   2.452   3.468  17.476  0.1807 -0.2044 -0.4072
  343TMC3     H 5200   2.829   3.527  17.356  0.9359 -0.0626 -1.0614
  343TMC3    H1 5201   2.479   3.270  17.370  1.4957 -3.4609  0.6358
  343TMC3    H2 5202   2.838   3.133  17.211  0.8263  1.3643 -1.2770
  343TMC3    C7 5203   2.585   3.062  17.282 -0.2565  0.0988  0.2055
  343TMC3    C8 5204   2.973   3.351  17.223 -0.4617 -0.3984 -0.5208
  343TMC3    O1 5205   2.496   3.044  17.364 -0.0229  0.0015  0.7703
  343TMC3    O2 5206   3.029   3.435  17.293 -0.1049 -0.0871  0.0483
  344MPD2     C 5207   3.030   3.082  10.075  0.1171 -0.7610  0.9383
  344MPD2    C1 5208   3.040   3.094  10.213  0.3258  0.2126 -0.0153
  344MPD2    C2 5209   3.070   3.222  10.261 -0.9266 -0.0904  0.6028
  344MPD2    C3 5210   3.082   3.333  10.171 -0.6126  0.3497 -0.0282
  344MPD2    C4 5211   3.061   3.318  10.037  0.9914  0.4846 -0.6012
  344MPD2    C5 5212   3.043   3.190   9.993 -0.3548  0.6094 -0.4892
  344MPD2     H 5213   3.062   3.231  10.369  2.8547  2.3454  0.6740
  344MPD2    H1 5214   3.074   3.398   9.965  1.3866  0.4741 -0.5469
  344MPD2    H2 5215   3.013   2.989  10.022  1.7708 -0.4518 -0.1275
  344MPD2    H3 5216   3.033   3.185   9.885 -0.5054  0.5327 -0.4714
  344MPD2     N 5217   3.108   3.469  10.215  0.1172  0.1036 -0.3318
  344MPD2    H5 5218   3.123   3.536  10.140 -2.1471  0.9894 -0.0071
  344MPD2    N1 5219   3.011   2.989  10.300 -0.3652 -0.3686  0.1536
  344MPD2    H7 5220   3.029   3.002  10.399  0.0746 -1.6077  0.2322
  345TMC3    C1 5221   3.143   3.646  10.365  0.0763 -0.0637 -0.1612
  345TMC3    C2 5222   3.202   3.674  10.482 -0.4976 -0.1075  0.0745
  345TMC3    C3 5223   3.162   3.791  10.539  0.4153  0.5900 -0.5701
  345TMC3    C4 5224   3.040   3.721  10.310  0.5623  0.5363  0.4832
  345TMC3    C5 5225   3.002   3.837  10.378 -0.1928  0.2363  0.1924
  345TMC3    C6 5226   3.066   3.874  10.488 -0.1246  0.2528  0.3075
  345TMC3     C 5227   3.144   3.507  10.338  0.0893 -0.0880 -0.0356
  345TMC3     O 5228   3.170   3.434  10.431  1.2080 -0.2157  0.3485
  345TMC3     H 5229   3.284   3.613  10.519 -0.7360  0.8644  2.2295
  345TMC3    H1 5230   2.994   3.700  10.214  0.5391  1.8112  0.2142
  345TMC3    H2 5231   3.046   3.972  10.531 -1.9476 -0.5749  1.3444
  345TMC3    C7 5232   2.974   3.952  10.292  0.6514 -0.2630 -0.2444
  345TMC3    C8 5233   3.233   3.844  10.655  0.0358 -0.3080  0.1979
  345TMC3    O1 5234   3.023   4.058  10.323  0.1773 -0.1102  0.3606
  345TMC3    O2 5235   3.187   3.943  10.708  0.5371  0.2237  0.2335
  346MPD2     C 5236   3.497   0.477  14.905  0.3921 -0.3724  0.2740
  346MPD2    C1 5237   3.588   0.463  14.800 -0.1207 -0.1007 -0.3436
  346MPD2    C2 5238   3.722   0.498  14.820 -0.6310 -0.7255  0.3118
  346MPD2    C3 5239   3.764   0.529  14.949 -0.3598 -0.2472  0.2556
  346MPD2    C4 5240   3.671   0.548  15.041  0.3770  0.3708 -0.2711
  346MPD2    C5 5241   3.540   0.532  15.018  0.4242  0.2417 -0.0083
  346MPD2     H 5242   3.781   0.493  14.730 -0.5234  1.4731  0.2668
  346MPD2    H1 5243   3.695   0.581  15.141 -2.5616  1.0171  0.2183
  346MPD2    H2 5244   3.390   0.459  14.893  0.1489  0.0179  1.9103
  346MPD2    H3 5245   3.468   0.549  15.097 -1.0778  1.0754 -1.5592
  346MPD2     N 5246   3.900   0.542  14.975 -0.0072 -0.2403  0.0375
  346MPD2    H5 5247   3.964   0.522  14.899  0.3691  0.2707  0.2162
  346MPD2    N1 5248   3.562   0.399  14.682 -0.2164  0.7924  0.4687
  346MPD2    H7 5249   3.637   0.394  14.614 -0.0028  0.8048  0.7048
  347TMC3    C1 5250   4.101   0.553  15.088  0.7432 -0.3818  0.5150
  347TMC3    C2 5251   4.161   0.616  14.987 -0.2247  0.1069  0.4552
  347TMC3    C3 5252   4.296   0.606  14.964 -0.0105  0.2222 -0.4463
  347TMC3    C4 5253   4.177   0.482  15.174 -0.0316  0.4845  0.5383
  347TMC3    C5 5254   4.313   0.473  15.150 -0.6719 -0.5229  0.5411
  347TMC3    C6 5255   4.373   0.530  15.044  0.4019  0.2651  0.0685
  347TMC3     C 5256   3.957   0.538  15.097  0.6233 -0.4264 -0.1651
  347TMC3     O 5257   3.917   0.521  15.214  0.6767  0.1588  0.3308
  347TMC3     H 5258   4.105   0.675  14.915 -2.0418 -1.9580  0.1850
  347TMC3    H1 5259   4.124   0.427  15.250 -0.9857  1.9698  0.9329
  347TMC3    H2 5260   4.481   0.527  15.040  0.4259 -2.0770  2.6053
  347TMC3    C7 5261   4.394   0.364  15.214 -0.5631 -0.3221 -0.0892
  347TMC3    C8 5262   4.330   0.593  14.827 -0.1013  0.0527 -0.1722
  347TMC3    O1 5263   4.479   0.317  15.137  0.1059 -0.2129  0.0120
  347TMC3    O2 5264   4.424   0.511  14.814  0.1808  0.3058 -0.2569
  348MPD2     C 5265   2.476   4.705  12.124 -0.0365  0.2538  0.4905
  348MPD2    C1 5266   2.410   4.665  12.012  0.0030  0.4030 -0.2915
  348MPD2    C2 5267   2.405   0.015  11.908  0.2164  0.0989  0.1871
  348MPD2    C3 5268   2.446   0.144  11.916 -0.2200  0.4506  0.1789
  348MPD2    C4 5269   2.500   0.186  12.030  0.3252 -0.3741 -0.4259
  348MPD2    C5 5270   2.527   0.094  12.129  0.3765 -0.3675  0.3640
  348MPD2     H 5271   2.367   4.728  11.810  2.1007 -0.0746 -0.5027
  348MPD2    H1 5272   2.522   0.290  12.048  1.6435 -0.6941 -0.1541
  348MPD2    H2 5273   2.489   4.648  12.216 -1.1596 -0.0993  0.4368
  348MPD2    H3 5274   2.567   0.136  12.221 -0.7225 -0.5731  0.9318
  348MPD2     N 5275   2.431   0.231  11.803 -0.6527  0.0297 -0.4960
  348MPD2    H5 5276   2.376   0.192  11.727 -1.0685 -2.6124  1.1541
  348MPD2    N1 5277   2.355   4.536  11.991 -0.1370  0.6966  0.0661
  348MPD2    H7 5278   2.326   4.511  11.897  2.3500 -1.9983  0.0349
  349TMC3    C1 5279   2.285   4.318  12.027 -0.2825 -0.4098  0.1085
  349TMC3    C2 5280   2.280   4.198  12.088 -0.2720 -0.9499 -0.2507
  349TMC3    C3 5281   2.186   4.104  12.051 -0.4791 -0.7443 -0.0120
  349TMC3    C4 5282   2.178   4.338  11.942  0.3412 -0.0796 -0.2330
  349TMC3    C5 5283   2.075   4.255  11.916  0.5302 -0.9761  0.1220
  349TMC3    C6 5284   2.078   4.136  11.978 -1.1435 -0.1637 -0.2464
  349TMC3     C 5285   2.355   4.434  12.083 -0.5072 -0.9316  0.0572
  349TMC3     O 5286   2.379   4.428  12.203 -0.3370 -0.3889  0.0583
  349TMC3     H 5287   2.350   4.175  12.168  1.7375  0.4945 -1.5977
  349TMC3    H1 5288   2.170   4.437  11.898 -0.1539  1.0085  2.3266
  349TMC3    H2 5289   2.013   4.055  11.946 -1.7637  0.5796 -0.8736
  349TMC3    C7 5290   1.978   4.282  11.808  0.2119 -0.6645 -0.1040
  349TMC3    C8 5291   2.196   3.973  12.123  0.7824 -0.0893  0.2655
  349TMC3    O1 5292   1.871   4.220  11.822 -0.3314 -0.1133  0.1058
  349TMC3    O2 5293   2.302   3.951  12.177 -0.3147 -0.3894 -0.6321
  350MPD2     C 5294   0.656   2.411  10.413  0.4315 -0.3269  0.3298
  350MPD2    C1 5295   0.737   2.323  10.346 -0.8735  0.2680  0.3823
  350MPD2    C2 5296   0.860   2.373  10.302  0.4148 -0.5285 -0.1798
  350MPD2    C3 5297   0.906   2.498  10.341  0.6254  1.2786  0.5902
  350MPD2    C4 5298   0.822   2.588  10.407 -0.4324 -0.1129  0.3650
  350MPD2    C5 5299   0.693   2.541  10.437  0.4394 -0.2387 -0.4977
  350MPD2     H 5300   0.926   2.298  10.259  0.1975 -0.7032 -0.2110
  350MPD2    H1 5301   0.853   2.684  10.447  2.9636 -0.4763 -1.3580
  350MPD2    H2 5302   0.559   2.382  10.451  1.1069 -0.5581  1.9137
  350MPD2    H3 5303   0.629   2.603  10.498 -0.6099  0.0681 -1.9236
  350MPD2     N 5304   1.045   2.529  10.319  0.8043 -0.1235 -0.4299
  350MPD2    H5 5305   1.103   2.456  10.280  1.9381  0.9606 -0.7808
  350MPD2    N1 5306   0.704   2.185  10.329 -0.3273  0.3554  0.5456
  350MPD2    H7 5307   0.768   2.136  10.268  0.6552  1.0974  0.9704
  351TMC3    C1 5308   0.582   1.983  10.358  0.0429  0.0679  0.0228
  351TMC3    C2 5309   0.695   1.904  10.320 -0.0687  0.7417  0.4176
  351TMC3    C3 5310   0.693   1.768  10.321 -0.1610 -0.3626 -0.5620
  351TMC3    C4 5311   0.473   1.912  10.400  0.1322 -0.6593  0.0523
  351TMC3    C5 5312   0.475   1.775  10.399 -0.2460 -0.4805  0.5115
  351TMC3    C6 5313   0.579   1.697  10.364 -0.1181  0.5454 -0.2905
  351TMC3     C 5314   0.601   2.119  10.395 -1.3409 -0.1558  0.4172
  351TMC3     O 5315   0.515   2.163  10.470  0.4437  0.1121 -0.2339
  351TMC3     H 5316   0.784   1.959  10.291 -0.2615 -0.4713 -2.4788
  351TMC3    H1 5317   0.386   1.967  10.434  2.5945  1.4600  2.9372
  351TMC3    H2 5318   0.573   1.590  10.376 -1.7676  0.6627 -0.1320
  351TMC3    C7 5319   0.348   1.711  10.433  0.2589  0.2799  0.2347
  351TMC3    C8 5320   0.807   1.691  10.269 -0.0682  0.4406  0.2773
  351TMC3    O1 5321   0.282   1.777  10.517 -0.1761 -0.4495  0.1433
  351TMC3    O2 5322   0.903   1.764  10.251 -0.8720 -0.4119  0.3730
  352MPD2     C 5323   0.011   0.213   1.423 -0.2599 -0.0576  0.6738
  352MPD2    C1 5324   0.001   0.202   1.285 -0.8674  0.1838  0.1959
  352MPD2    C2 5325   0.112   0.183   1.201  0.5928  0.1286  0.3066
  352MPD2    C3 5326   0.238   0.181   1.256  0.4223 -0.1139  0.4294
  352MPD2    C4 5327   0.248   0.195   1.396 -0.0094 -0.9972  0.3808
  352MPD2    C5 5328   0.136   0.212   1.473 -0.6344 -0.1630 -0.6627
  352MPD2     H 5329   0.107   0.180   1.092 -0.7827  1.3281  0.3462
  352MPD2    H1 5330   0.339   0.187   1.453  0.6301  2.2846 -0.2037
  352MPD2    H2 5331   4.664   0.203   1.491 -1.3241 -1.1249 -0.8021
  352MPD2    H3 5332   0.145   0.213   1.581 -1.4632  0.8246 -0.5982
  352MPD2     N 5333   0.351   0.154   1.183 -0.1096 -0.0866  0.0811
  352MPD2    H5 5334   0.436   0.158   1.239 -0.3665 -0.2428  0.4856
  352MPD2    N1 5335   4.614   0.216   1.237  0.6035  0.6144 -0.0702
  352MPD2    H7 5336   4.538   0.214   1.304 -1.0650 -0.3309 -1.9696
  353TMC3    C1 5337   0.499   0.086   1.008  0.1495 -0.6433 -0.4783
  353TMC3    C2 5338   0.587   0.029   1.102  0.1768  0.0440  0.7665
  353TMC3    C3 5339   0.677   4.665   1.069  0.5078  0.2183 -0.3134
  353TMC3    C4 5340   0.510   0.033   0.880 -0.5075 -0.2112 -0.1613
  353TMC3    C5 5341   0.589   4.659   0.849 -0.0098 -0.2392 -0.0658
  353TMC3    C6 5342   0.679   4.614   0.942 -1.0536 -0.2593 -0.2778
  353TMC3     C 5343   0.362   0.121   1.050 -0.2489 -0.9058 -0.1332
  353TMC3     O 5344   0.277   0.091   0.967  0.2796 -0.4900  0.0654
  353TMC3     H 5345   0.584   0.071   1.201  0.5317  0.4662  0.5980
  353TMC3    H1 5346   0.444   0.066   0.801 -1.0063  2.7758  1.5178
  353TMC3    H2 5347   0.743   4.529   0.919 -0.1321 -0.0704  1.5932
  353TMC3    C7 5348   0.537   4.549   0.772  0.7517 -0.0502  0.9846
  353TMC3    C8 5349   0.728   4.577   1.175  0.3045  0.1822  0.2963
  353TMC3    O1 5350   0.553   4.439   0.815 -0.0205 -0.0263 -0.1364
  353TMC3    O2 5351   0.760   4.465   1.135 -0.0788 -0.0398  0.1440
  354TMC3    C1 5352   1.170   1.656  13.827 -0.4996 -0.6457  0.0992
  354TMC3    C2 5353   1.165   1.680  13.689  0.2022 -0.1020  0.0338
  354TMC3    C3 5354   1.268   1.648  13.608 -0.4171  0.2255  0.1240
  354TMC3    C4 5355   1.283   1.624  13.885 -0.2047 -0.3655 -0.5531
  354TMC3    C5 5356   1.384   1.593  13.795 -0.5709  0.7900  1.1406
  354TMC3    C6 5357   1.380   1.596  13.658 -0.5836  0.2673  0.6495
  354TMC3     C 5358   1.045   1.632  13.901  0.1489 -0.1865 -0.3353
  354TMC3     O 5359   1.060   1.571  14.005  0.3173  0.7672  0.3316
  354TMC3     H 5360   1.069   1.692  13.641 -0.3293 -1.4351  0.7431
  354TMC3    H1 5361   1.280   1.569  13.978  2.5784 -2.2434 -1.5826
  354TMC3    H2 5362   1.468   1.585  13.596 -0.5345 -0.6884  0.8793
  354TMC3    C7 5363   1.491   1.508  13.843  0.6318  0.0354  0.0236
  354TMC3    C8 5364   1.238   1.642  13.462  0.4422  0.9392 -0.4517
  354TMC3    O1 5365   1.508   1.504  13.964  0.3989 -0.0631 -0.0691
  354TMC3    O2 5366   1.140   1.703  13.427  0.4205 -0.3241 -0.3751
  355MPD2     C 5367   2.119   1.271  12.306  0.0855 -0.0437 -0.0373
  355MPD2    C1 5368   2.088   1.394  12.361 -0.7918  0.0629 -0.3073
  355MPD2    C2 5369   2.112   1.415  12.491  0.0518 -0.0335 -0.2863
  355MPD2    C3 5370   2.174   1.322  12.568 -0.3889 -0.0807  0.2988
  355MPD2    C4 5371   2.219   1.209  12.509 -0.5839 -0.1637  0.3115
  355MPD2    C5 5372   2.181   1.180  12.381 -0.1867  0.1309 -0.1700
  355MPD2     H 5373   2.085   1.509  12.539 -1.6354 -0.7803  0.2213
  355MPD2    H1 5374   2.269   1.128  12.559 -1.8337 -0.9529  0.2897
  355MPD2    H2 5375   2.099   1.251  12.201 -0.8781 -2.0550  0.5260
  355MPD2    H3 5376   2.208   1.082  12.344  3.0430  1.1983 -0.6269
  355MPD2     N 5377   2.210   1.339  12.696  0.5358  0.0041  0.7349
  355MPD2    H5 5378   2.233   1.254  12.747  3.0672  0.1935 -0.0983
  355MPD2    N1 5379   2.060   1.498  12.268  0.2017 -0.4662  0.0509
  355MPD2    H7 5380   2.047   1.474  12.170  2.6364  1.1097 -0.6594
  356TMC3    C1 5381   2.211   1.578  12.730 -1.3027  0.7971 -0.8790
  356TMC3    C2 5382   2.307   1.614  12.647 -0.0053 -0.2381  0.6358
  356TMC3    C3 5383   2.322   1.746  12.607  0.2514  0.3126 -0.5328
  356TMC3    C4 5384   2.142   1.669  12.795 -0.5095 -0.0225 -0.4273
  356TMC3    C5 5385   2.162   1.800  12.760 -0.3899 -0.1419 -0.0893
  356TMC3    C6 5386   2.239   1.842  12.657 -0.3371 -0.0232  0.6029
  356TMC3     C 5387   2.204   1.443  12.781  0.1215 -0.0339  0.1054
  356TMC3     O 5388   2.227   1.447  12.902 -0.1872 -0.2537 -0.0947
  356TMC3     H 5389   2.347   1.538  12.579  0.3214  0.3023  0.2224
  356TMC3    H1 5390   2.068   1.644  12.871  0.3712  0.5532  0.6249
  356TMC3    H2 5391   2.264   1.947  12.644  2.9234 -0.5175  2.9741
  356TMC3    C7 5392   2.053   1.881  12.802  0.0150  0.0006 -0.1029
  356TMC3    C8 5393   2.368   1.763  12.473  0.5910 -0.2427 -0.0001
  356TMC3    O1 5394   1.951   1.834  12.843 -0.3613 -0.0457 -0.2846
  356TMC3    O2 5395   2.452   1.683  12.431  0.2502 -0.1190  0.5885
  357MPD2     C 5396   1.250   0.819   0.843  0.5303  0.5451  0.1614
  357MPD2    C1 5397   1.324   0.750   0.941 -0.3117 -0.0809  0.1737
  357MPD2    C2 5398   1.260   0.684   1.044  0.3765 -0.3439 -0.1821
  357MPD2    C3 5399   1.125   0.673   1.042 -0.5779  0.0099 -0.3446
  357MPD2    C4 5400   1.055   0.749   0.950  0.3494  0.9305 -0.0590
  357MPD2    C5 5401   1.114   0.807   0.846  0.1209 -0.0327 -0.3577
  357MPD2     H 5402   1.314   0.641   1.129 -1.4681  4.5355  3.4745
  357MPD2    H1 5403   0.947   0.754   0.942  0.2137 -0.3973  0.9099
  357MPD2    H2 5404   1.287   0.886   0.766  0.4873  1.6500  1.1014
  357MPD2    H3 5405   1.059   0.851   0.764  0.2089  2.0708  0.7094
  357MPD2     N 5406   1.039   0.618   1.147  0.0175 -0.0317  0.1867
  357MPD2    H5 5407   0.945   0.606   1.111  0.1139 -0.7074  0.1605
  357MPD2    N1 5408   1.462   0.765   0.932 -0.5216  0.2502  0.1645
  357MPD2    H7 5409   1.508   0.810   0.853 -0.6327 -1.5872 -0.9519
  358TMC3    C1 5410   1.688   0.738   0.986  0.4244  0.0467  0.4345
  358TMC3    C2 5411   1.720   0.807   0.871 -0.0063  0.5851 -0.6501
  358TMC3    C3 5412   1.830   0.886   0.871  0.0478  0.1358  0.0345
  358TMC3    C4 5413   1.778   0.730   1.095 -0.0694  0.2658 -0.0622
  358TMC3    C5 5414   1.887   0.818   1.094  1.0828 -0.3614  0.2328
  358TMC3    C6 5415   1.911   0.890   0.978 -0.6501 -0.0347  0.2410
  358TMC3     C 5416   1.556   0.700   1.012 -0.4001  0.2084 -0.4440
  358TMC3     O 5417   1.532   0.621   1.101  0.1374 -0.4395 -0.4152
  358TMC3     H 5418   1.662   0.805   0.779  2.1927  1.0163 -2.0624
  358TMC3    H1 5419   1.750   0.678   1.186  1.8831  0.5016  0.6963
  358TMC3    H2 5420   1.972   0.978   0.999  0.4075 -0.3009 -1.7844
  358TMC3    C7 5421   1.970   0.840   1.216 -0.2154 -0.5281  0.2568
  358TMC3    C8 5422   1.847   0.992   0.768 -0.5236  0.1145  0.0056
  358TMC3    O1 5423   2.085   0.882   1.205  0.5658  0.3493  0.2199
  358TMC3    O2 5424   1.756   1.003   0.690  0.1583 -0.3329  0.6904
  359MPD2     C 5425   2.019   0.932  12.640  0.1765 -0.4821 -0.2215
  359MPD2    C1 5426   1.995   0.823  12.729  0.0435 -0.9356  0.7105
  359MPD2    C2 5427   1.868   0.776  12.756  0.5924 -0.2942  0.5624
  359MPD2    C3 5428   1.757   0.831  12.688  0.2549 -0.5330  0.7453
  359MPD2    C4 5429   1.778   0.933  12.596  0.8189 -0.4506 -0.1071
  359MPD2    C5 5430   1.904   0.979  12.574 -0.5949 -0.1425  0.3014
  359MPD2     H 5431   1.866   0.696  12.829 -2.6523  0.0432  0.8590
  359MPD2    H1 5432   1.695   0.984  12.549  1.3067  1.9417  1.6139
  359MPD2    H2 5433   2.114   0.974  12.611 -0.1244 -0.1121 -0.6818
  359MPD2    H3 5434   1.914   1.057  12.499 -0.3658  0.7351  1.2431
  359MPD2     N 5435   1.628   0.777  12.701  0.0091 -0.6294  0.2574
  359MPD2    H5 5436   1.553   0.821  12.648  0.8399 -0.0733 -0.4654
  359MPD2    N1 5437   2.094   0.751  12.779 -0.2866  0.2103  0.3692
  359MPD2    H7 5438   2.066   0.670  12.835  2.9310 -2.1282 -1.3665
  360TMC3    C1 5439   2.309   0.663  12.769  0.1395  0.2312  0.5607
  360TMC3    C2 5440   2.446   0.692  12.759 -0.4716  0.2591 -0.0495
  360TMC3    C3 5441   2.520   0.598  12.695 -0.5761 -0.1327  0.1117
  360TMC3    C4 5442   2.251   0.544  12.730 -0.2181  0.3457  0.4098
  360TMC3    C5 5443   2.333   0.459  12.665 -0.3412  0.1108  0.8943
  360TMC3    C6 5444   2.471   0.482  12.652 -0.4395 -0.8831 -0.4942
  360TMC3     C 5445   2.228   0.775  12.751  0.2191 -0.6108 -0.5076
  360TMC3     O 5446   2.290   0.863  12.690  0.0025  0.0691  0.0904
  360TMC3     H 5447   2.484   0.785  12.800  0.4696  0.5898 -1.6623
  360TMC3    H1 5448   2.145   0.523  12.730 -0.4246  1.3844 -1.0702
  360TMC3    H2 5449   2.530   0.396  12.624 -1.7869 -2.3156  1.0293
  360TMC3    C7 5450   2.283   0.345  12.595 -0.6590  0.0940 -0.2830
  360TMC3    C8 5451   2.652   0.635  12.649 -0.2136 -0.6852  0.9404
  360TMC3    O1 5452   2.208   0.276  12.662  0.2585 -0.2846 -0.0295
  360TMC3    O2 5453   2.681   0.753  12.673 -0.1679  0.1128 -0.1810
  361MPD2     C 5454   3.346   4.004  16.972 -0.3405  0.0266 -0.1409
  361MPD2    C1 5455   3.440   4.076  17.038  0.2709  0.2240  0.2723
  361MPD2    C2 5456   3.576   4.042  17.023  0.0353  0.1421  0.0173
  361MPD2    C3 5457   3.612   3.937  16.942  0.5327  0.2749  0.6785
  361MPD2    C4 5458   3.512   3.873  16.880 -0.2148 -0.2987 -0.5842
  361MPD2    C5 5459   3.380   3.905  16.891  0.0922 -0.0336  0.4936
  361MPD2     H 5460   3.642   4.106  17.081 -0.2867 -1.7844  2.5141
  361MPD2    H1 5461   3.538   3.801  16.803 -0.0593 -0.7375 -0.1241
  361MPD2    H2 5462   3.241   4.032  16.964 -0.4025 -0.6722 -1.5858
  361MPD2    H3 5463   3.307   3.841  16.842  0.7096 -2.1285  2.3295
  361MPD2     N 5464   3.741   3.876  16.946  0.0851 -0.6568 -0.3058
  361MPD2    H5 5465   3.747   3.790  16.894  0.1648 -0.8213 -0.0273
  361MPD2    N1 5466   3.411   4.189  17.120 -0.0384  0.9504  0.8604
  361MPD2    H7 5467   3.488   4.248  17.153 -1.0732  2.8209 -0.0597
  362TMC3    C1 5468   3.298   4.373  17.190  0.2439  0.8256  0.2690
  362TMC3    C2 5469   3.210   4.409  17.290  0.2963 -0.3045  0.1190
  362TMC3    C3 5470   3.192   4.547  17.300 -0.4008 -0.4515  0.0638
  362TMC3    C4 5471   3.361   4.464  17.113  0.3851  0.2756 -0.3044
  362TMC3    C5 5472   3.326   4.596  17.121  0.0800 -0.0163 -0.3692
  362TMC3    C6 5473   3.250   4.646  17.227 -0.2321 -0.5613 -0.7878
  362TMC3     C 5474   3.288   4.237  17.150 -0.2314 -0.0784  0.0798
  362TMC3     O 5475   3.176   4.187  17.142  0.0579 -0.4561  0.2538
  362TMC3     H 5476   3.172   4.331  17.355 -0.8684 -0.4087 -0.6984
  362TMC3    H1 5477   3.412   4.428  17.025 -0.0733 -3.6596  1.0462
  362TMC3    H2 5478   3.229   0.015  17.220  0.9447 -0.4376 -2.5380
  362TMC3    C7 5479   3.349   4.689  17.007 -0.3596  0.4153  0.0440
  362TMC3    C8 5480   3.059   4.572  17.337  0.3321  0.0204 -0.5390
  362TMC3    O1 5481   3.287   0.061  17.014 -0.1382  0.5306  0.7726
  362TMC3    O2 5482   2.988   4.476  17.354  0.1955 -0.5359 -0.9893
  363TMC3    C1 5483   2.084   2.243  10.007  0.4810  0.8741 -0.0865
  363TMC3    C2 5484   2.026   2.164  10.098 -0.4442  0.0135 -0.4801
  363TMC3    C3 5485   1.891   2.166  10.104 -0.3854  0.0910  0.3625
  363TMC3    C4 5486   2.017   2.344   9.947 -0.6229  0.2047 -0.0777
  363TMC3    C5 5487   1.876   2.345   9.963  0.6908 -0.2214  0.4933
  363TMC3    C6 5488   1.806   2.259  10.040  0.0896 -0.0472  0.1200
  363TMC3     C 5489   2.225   2.213   9.965 -0.1646  0.6291  0.2460
  363TMC3     O 5490   2.284   2.136  10.039  0.0573  0.2638  0.4057
  363TMC3     H 5491   2.084   2.088  10.150 -0.1976  1.2250  0.9926
  363TMC3    H1 5492   2.077   2.429   9.919 -1.2501  0.9907  0.9892
  363TMC3    H2 5493   1.699   2.255  10.058  0.3796  0.5125  1.9609
  363TMC3    C7 5494   1.801   2.459   9.900 -0.2760 -0.2065 -0.0606
  363TMC3    C8 5495   1.829   2.037  10.136  0.2280 -0.3520  0.5488
  363TMC3    O1 5496   1.683   2.468   9.935 -0.5584  0.2442  0.0836
  363TMC3    O2 5497   1.713   2.051  10.174 -0.1958 -0.3743 -0.1086
  364MPD2     C 5498   0.618   0.827  10.832 -0.7367 -0.7999 -0.1378
  364MPD2    C1 5499   0.754   0.815  10.813  0.6243  0.0168 -0.3307
  364MPD2    C2 5500   0.818   0.719  10.888  1.0791 -0.4780  0.1456
  364MPD2    C3 5501   0.750   0.647  10.988  0.1653 -0.1850  0.9181
  364MPD2    C4 5502   0.612   0.651  11.000  0.0440 -0.0105 -0.0229
  364MPD2    C5 5503   0.553   0.741  10.912 -0.2763 -0.5569 -0.4735
  364MPD2     H 5504   0.927   0.715  10.891  1.1267 -0.0978 -1.2522
  364MPD2    H1 5505   0.551   0.601  11.074 -0.9211  0.8082 -0.2706
  364MPD2    H2 5506   0.569   0.902  10.771  1.2280  2.0218  1.7210
  364MPD2    H3 5507   0.445   0.744  10.915 -0.2597  0.9059 -0.9924
  364MPD2     N 5508   0.812   0.554  11.077  0.4738 -0.2423  0.3084
  364MPD2    H5 5509   0.740   0.507  11.131  1.5434 -2.0344  0.1644
  364MPD2    N1 5510   0.812   0.902  10.720 -0.0873  0.0245  0.4292
  364MPD2    H7 5511   0.747   0.967  10.678 -1.2891 -1.6169 -0.2700
  365TMC3    C1 5512   0.983   0.980  10.569 -0.2445 -0.0598  0.0548
  365TMC3    C2 5513   1.089   0.946  10.492 -0.4521  0.5416 -0.4226
  365TMC3    C3 5514   1.151   1.046  10.419 -0.0428 -0.4724 -0.0497
  365TMC3    C4 5515   0.928   1.106  10.568 -0.2288  0.2695 -0.9338
  365TMC3    C5 5516   0.993   1.202  10.497  0.0656  0.2283  0.0920
  365TMC3    C6 5517   1.108   1.178  10.422  0.0253 -0.6304  0.0138
  365TMC3     C 5518   0.933   0.879  10.668  0.0096 -0.5157  0.2823
  365TMC3     O 5519   1.010   0.790  10.691 -0.1773  0.1802 -0.0291
  365TMC3     H 5520   1.130   0.846  10.499  0.0839  0.7435 -0.6927
  365TMC3    H1 5521   0.852   1.133  10.639  1.7486 -0.6710  1.5570
  365TMC3    H2 5522   1.148   1.260  10.364  0.8554 -0.5838  0.6514
  365TMC3    C7 5523   0.971   1.356  10.529 -0.1748 -0.7822  0.2929
  365TMC3    C8 5524   1.264   1.010  10.342  0.5803  0.3685  0.6638
  365TMC3    O1 5525   1.068   1.427  10.497 -0.4853 -0.1439 -0.1136
  365TMC3    O2 5526   1.347   1.090  10.311  0.3396  0.0585 -0.1734
  366MPD2     C 5527   4.020   2.385  15.400 -0.3570  0.3516  0.3651
  366MPD2    C1 5528   4.056   2.497  15.320 -0.3471  0.1480  0.7891
  366MPD2    C2 5529   4.156   2.481  15.223 -0.6566  0.2009 -0.0947
  366MPD2    C3 5530   4.224   2.359  15.212  0.3933  0.4392  0.1380
  366MPD2    C4 5531   4.189   2.253  15.298 -0.1935 -0.1059  0.3480
  366MPD2    C5 5532   4.087   2.271  15.385 -1.2539 -0.0796  0.1678
  366MPD2     H 5533   4.186   2.562  15.158  1.5410 -1.4027 -1.0753
  366MPD2    H1 5534   4.236   2.155  15.299  0.0719  0.0191  0.3293
  366MPD2    H2 5535   3.936   2.389  15.467 -0.8953 -0.3433 -0.2702
  366MPD2    H3 5536   4.058   2.184  15.442  0.0292 -0.4640  0.2308
  366MPD2     N 5537   4.338   2.363  15.129 -0.3813 -0.6381  0.9372
  366MPD2    H5 5538   4.348   2.450  15.077  1.1002 -2.7723 -2.3520
  366MPD2    N1 5539   4.003   2.629  15.323 -0.6322  0.0372  0.4698
  366MPD2    H7 5540   4.042   2.690  15.253 -2.6338  0.7802 -0.0124
  367TMC3    C1 5541   3.920   2.828  15.417 -0.3159  0.1984  0.9223
  367TMC3    C2 5542   4.048   2.886  15.412 -0.0696  0.1790  0.3213
  367TMC3    C3 5543   4.063   3.022  15.442 -0.7776  0.5819  0.2286
  367TMC3    C4 5544   3.813   2.890  15.455  0.0350  0.3768  0.0441
  367TMC3    C5 5545   3.825   3.023  15.479  0.0095  0.1392  0.2541
  367TMC3    C6 5546   3.951   3.091  15.482 -0.6186  0.4358 -0.4624
  367TMC3     C 5547   3.927   2.683  15.422  1.0172  0.3085 -0.9441
  367TMC3     O 5548   3.857   2.631  15.510 -0.0495  0.0055  0.3648
  367TMC3     H 5549   4.133   2.818  15.410  0.6290  1.1249 -1.5405
  367TMC3    H1 5550   3.729   2.836  15.497 -1.8867  2.9515 -0.5186
  367TMC3    H2 5551   3.958   3.194  15.516  1.4516  0.4443 -0.8965
  367TMC3    C7 5552   3.718   3.102  15.430  0.3067 -0.1418  0.2125
  367TMC3    C8 5553   4.181   3.051  15.518  0.5086 -0.5338 -0.5751
  367TMC3    O1 5554   3.730   3.222  15.450  0.5027 -0.1858 -0.0698
  367TMC3    O2 5555   4.226   2.952  15.568  0.2204  0.0721  0.1407
  368MPD2     C 5556   0.829   4.296  13.436  0.3054 -0.2924 -0.7276
  368MPD2    C1 5557   0.788   4.341  13.316  0.3095 -0.3708 -0.5391
  368MPD2    C2 5558   0.864   4.310  13.204 -0.1652 -0.2530 -0.2467
  368MPD2    C3 5559   0.981   4.239  13.216 -0.4039 -0.7326 -0.2545
  368MPD2    C4 5560   1.014   4.194  13.343 -0.1107  0.3439  0.4030
  368MPD2    C5 5561   0.942   4.219  13.451 -0.0966  0.2598  0.7340
  368MPD2     H 5562   0.831   4.342  13.106 -0.8799  0.0794  0.1088
  368MPD2    H1 5563   1.098   4.127  13.360 -2.7739 -1.8099  5.0906
  368MPD2    H2 5564   0.764   4.310  13.522  0.2939  2.2915 -1.1845
  368MPD2    H3 5565   0.971   4.174  13.545 -4.8802 -2.0905  1.0740
  368MPD2     N 5566   1.066   4.199  13.111 -0.0063  0.0461  0.0522
  368MPD2    H5 5567   1.153   4.155  13.139  0.8568  2.7599  1.6983
  368MPD2    N1 5568   0.669   4.414  13.310  0.7623 -0.8982 -0.5244
  368MPD2    H7 5569   0.619   4.407  13.398 -0.4322  0.2831 -1.1123
  369TMC3    C1 5570   0.495   4.523  13.211  0.6793 -0.4588  0.7198
  369TMC3    C2 5571   0.460   4.636  13.137  0.1208  0.4497 -0.2312
  369TMC3    C3 5572   0.331   4.678  13.143 -1.0481  0.1193 -0.0209
  369TMC3    C4 5573   0.403   4.451  13.278 -0.1826  0.5673  0.3394
  369TMC3    C5 5574   0.271   4.488  13.261 -0.0791  0.3576  0.0484
  369TMC3    C6 5575   0.231   4.605  13.204 -0.4218  0.2296 -0.1625
  369TMC3     C 5576   0.631   4.492  13.208  0.0689  0.4293 -0.1267
  369TMC3     O 5577   0.691   4.535  13.109  0.3637 -0.4532 -0.2939
  369TMC3     H 5578   0.529   4.691  13.074 -0.7327  1.7475 -0.0170
  369TMC3    H1 5579   0.421   4.352  13.318  1.0233  0.5730 -0.1832
  369TMC3    H2 5580   0.125   4.629  13.199 -0.2234  0.9950 -0.7700
  369TMC3    C7 5581   0.167   4.408  13.324 -0.1084  0.3547  0.0030
  369TMC3    C8 5582   0.308   0.064  13.067 -0.6646 -0.4311  0.1846
  369TMC3    O1 5583   0.201   4.337  13.416  0.6831  0.3944 -0.4957
  369TMC3    O2 5584   0.207   0.056  12.998  0.2687  0.1528  0.7848
  370TMC3    C1 5585   0.144   0.496  16.481  0.1274  0.5458  0.6034
  370TMC3    C2 5586   0.123   0.412  16.582 -0.0763 -1.3275  0.5249
  370TMC3    C3 5587   0.068   0.286  16.558  0.0442  0.3475 -0.6792
  370TMC3    C4 5588   0.118   0.462  16.350  0.3836 -0.0783 -0.3717
  370TMC3    C5 5589   0.075   0.331  16.333  0.3413 -0.2742  0.1718
  370TMC3    C6 5590   0.041   0.244  16.436 -0.2319  0.7576 -0.2967
  370TMC3     C 5591   0.253   0.589  16.510  0.7977 -0.4995  0.5156
  370TMC3     O 5592   0.336   0.551  16.587 -0.0597  0.7680 -0.2974
  370TMC3     H 5593   0.151   0.451  16.679 -1.9456  0.1727  0.4518
  370TMC3    H1 5594   0.132   0.524  16.262  1.2934 -1.6350 -1.3152
  370TMC3    H2 5595   0.002   0.144  16.423 -0.1320  0.7165 -0.2804
  370TMC3    C7 5596   0.119   0.271  16.207 -0.3371  0.4524  0.0021
  370TMC3    C8 5597   0.038   0.203  16.666  0.1275  0.8101  0.0454
  370TMC3    O1 5598   0.113   0.347  16.115 -0.4923 -0.5590  0.3660
  370TMC3    O2 5599   0.034   0.085  16.632 -0.1348  0.1609  0.3159
  371TMC3    C1 5600   1.398   3.633  15.552  0.1666 -0.0382  0.3601
  371TMC3    C2 5601   1.292   3.686  15.624 -0.2632 -0.6886 -0.1807
  371TMC3    C3 5602   1.273   3.822  15.636 -0.3644 -0.6081  0.0476
  371TMC3    C4 5603   1.489   3.721  15.498 -0.1148 -0.1541  0.5869
  371TMC3    C5 5604   1.464   3.858  15.507  0.6053  0.2635  0.4306
  371TMC3    C6 5605   1.357   3.914  15.576  0.1832 -0.7317  0.0974
  371TMC3     C 5606   1.415   3.487  15.532  0.1903  0.6336  0.0993
  371TMC3     O 5607   1.506   3.452  15.455 -0.1253 -0.2189  0.1686
  371TMC3     H 5608   1.213   3.620  15.655 -0.1025  0.0551  1.8201
  371TMC3    H1 5609   1.576   3.691  15.442 -0.7171 -1.3292  0.2760
  371TMC3    H2 5610   1.349   4.022  15.583 -2.0691 -0.8923  0.2011
  371TMC3    C7 5611   1.499   3.934  15.384  0.3655 -0.5221 -0.2079
  371TMC3    C8 5612   1.203   3.873  15.750 -0.2568  0.6460 -0.7015
  371TMC3    O1 5613   1.508   4.055  15.405 -0.0045 -0.5096  0.1057
  371TMC3    O2 5614   1.180   3.994  15.747 -0.5215  0.0181  0.4631
  372MPD2     C 5615   0.442   0.138  13.414 -0.2395 -0.1184 -0.4598
  372MPD2    C1 5616   0.531   0.044  13.457 -0.7209 -0.8528 -0.2838
  372MPD2    C2 5617   0.484   4.696  13.551  0.2689  0.0680  0.3096
  372MPD2    C3 5618   0.353   4.700  13.591 -0.4226 -0.2833  0.5263
  372MPD2    C4 5619   0.262   0.051  13.535 -0.1877 -0.4808 -0.2071
  372MPD2    C5 5620   0.310   0.143  13.444 -0.7596  1.4143 -0.0615
  372MPD2     H 5621   0.544   4.611  13.582 -2.3942 -0.8364  3.0222
  372MPD2    H1 5622   0.158   0.045  13.566 -0.2853  1.9999 -0.0576
  372MPD2    H2 5623   0.478   0.224  13.359  0.7270 -0.5225 -0.4665
  372MPD2    H3 5624   0.248   0.217  13.397 -1.0221  0.7506 -0.7491
  372MPD2     N 5625   0.315   4.595  13.678  0.5141 -0.3891 -0.3590
  372MPD2    H5 5626   0.389   4.542  13.721  0.3927  0.5631  1.0387
  372MPD2    N1 5627   0.668   0.035  13.415  0.3228 -0.0661  0.6038
  372MPD2    H7 5628   0.721   4.695  13.455  0.0323 -1.2115 -1.2536
  373TMC3    C1 5629   0.175   4.443  13.783  0.4084 -0.2364  0.3618
  373TMC3    C2 5630   0.238   4.442  13.901  0.2619  0.0103  0.1872
  373TMC3    C3 5631   0.272   4.318  13.954 -0.4374  0.5954 -0.2272
  373TMC3    C4 5632   0.129   4.332  13.729  0.3480  0.4660  0.1619
  373TMC3    C5 5633   0.173   4.214  13.784 -0.2685  0.3415 -0.0012
  373TMC3    C6 5634   0.247   4.200  13.901  0.2188 -0.6263 -0.4290
  373TMC3     C 5635   0.181   4.563  13.702 -0.3892 -0.1054  0.3144
  373TMC3     O 5636   0.079   4.605  13.654  0.1218  0.7076  0.4283
  373TMC3     H 5637   0.258   4.539  13.946  1.0504 -0.3984  0.6910
  373TMC3    H1 5638   0.066   4.327  13.641  0.6028  4.0990 -0.2533
  373TMC3    H2 5639   0.279   4.106  13.945  1.3477  0.8433  1.8948
  373TMC3    C7 5640   0.168   4.089  13.710  0.3902  0.2729 -0.1800
  373TMC3    C8 5641   0.363   4.331  14.061  0.0751  0.5350  0.1316
  373TMC3    O1 5642   0.159   3.991  13.779 -0.4684 -0.6820 -0.0337
  373TMC3    O2 5643   0.437   4.428  14.061 -0.5036  0.3161  0.0289
  374TMC3    C1 5644   1.460   4.598   9.801  0.2735 -0.3026 -0.6664
  374TMC3    C2 5645   1.552   4.705   9.821  0.8717  0.0844 -0.1546
  374TMC3    C3 5646   1.655   4.718   9.729  0.2627  0.1233  0.6049
  374TMC3    C4 5647   1.470   4.522   9.689 -1.0863 -0.1957 -0.1541
  374TMC3    C5 5648   1.567   4.540   9.597 -0.0762  0.1935 -0.8965
  374TMC3    C6 5649   1.662   4.637   9.619  0.5671  0.3082 -0.0164
  374TMC3     C 5650   1.350   4.577   9.893 -0.3285 -0.6844 -0.2592
  374TMC3     O 5651   1.264   4.495   9.863  0.5613 -0.4281  0.0019
  374TMC3     H 5652   1.565   0.037   9.904 -1.1370 -1.0141  1.0958
  374TMC3    H1 5653   1.417   4.427   9.688  1.5942 -1.7333  0.7050
  374TMC3    H2 5654   1.741   4.655   9.547 -1.1121  0.6791 -1.7710
  374TMC3    C7 5655   1.588   4.446   9.484  0.2109  0.6605 -0.5856
  374TMC3    C8 5656   1.752   0.089   9.739 -0.0795  0.5472  0.5368
  374TMC3    O1 5657   1.688   4.472   9.418  0.3012  0.7224  0.4389
  374TMC3    O2 5658   1.806   0.122   9.638 -0.5154 -0.1077 -0.0407
  375MPD2     C 5659   1.384   0.536  17.278 -0.1692  0.1470  0.4443
  375MPD2    C1 5660   1.371   0.638  17.186  0.0412 -0.6846 -0.5553
  375MPD2    C2 5661   1.457   0.645  17.082 -0.5255 -0.5067  0.0747
  375MPD2    C3 5662   1.548   0.544  17.055  0.0323 -0.4080 -0.0366
  375MPD2    C4 5663   1.548   0.434  17.136 -0.4039 -0.1230  0.2146
  375MPD2    C5 5664   1.466   0.430  17.244 -0.3281  0.9030 -0.0742
  375MPD2     H 5665   1.451   0.733  17.018 -0.5384 -0.1058  0.6318
  375MPD2    H1 5666   1.606   0.345  17.113  1.3858  1.0330  0.2654
  375MPD2    H2 5667   1.317   0.530  17.363  1.3005 -0.4845  1.5561
  375MPD2    H3 5668   1.465   0.341  17.306 -1.2538  0.2145 -1.0601
  375MPD2     N 5669   1.630   0.542  16.940 -0.2691  0.0511  0.1289
  375MPD2    H5 5670   1.682   0.459  16.915  0.5214  0.3767  0.6809
  375MPD2    N1 5671   1.273   0.740  17.196  0.3736  0.2750  0.0990
  375MPD2    H7 5672   1.270   0.802  17.115  1.0718 -1.1829 -1.0351
  376TMC3    C1 5673   1.713   0.628  16.742 -0.0171  0.0643  0.0335
  376TMC3    C2 5674   1.809   0.715  16.711 -0.2415  0.2584  0.1098
  376TMC3    C3 5675   1.853   0.724  16.581  0.7695  0.2698  0.2887
  376TMC3    C4 5676   1.662   0.532  16.660 -0.7606  0.0484  0.2324
  376TMC3    C5 5677   1.699   0.550  16.535 -0.5231 -0.3483  0.9887
  376TMC3    C6 5678   1.786   0.641  16.488 -0.0814 -0.1417  0.3716
  376TMC3     C 5679   1.649   0.654  16.863 -0.2242 -0.0936  0.3009
  376TMC3     O 5680   1.637   0.770  16.891 -0.1349 -1.0958  0.6398
  376TMC3     H 5681   1.834   0.786  16.789  0.4882  0.8508 -0.6562
  376TMC3    H1 5682   1.597   0.453  16.696 -2.4276  0.0567 -2.7255
  376TMC3    H2 5683   1.836   0.627  16.393  0.4810 -0.7095  0.7478
  376TMC3    C7 5684   1.618   0.486  16.433 -0.1174 -0.5422 -0.4910
  376TMC3    C8 5685   1.968   0.795  16.546 -0.0273  0.3077 -1.0500
  376TMC3    O1 5686   1.565   0.383  16.464  0.5367 -0.4486  0.1485
  376TMC3    O2 5687   1.969   0.836  16.428 -0.1305 -0.2164 -0.2593
  377MPD2     C 5688   3.847   0.068  13.065 -0.1424  0.5134 -0.1280
  377MPD2    C1 5689   3.975   0.062  13.107 -0.0756 -0.0949  0.0297
  377MPD2    C2 5690   3.997   4.734  13.228  0.2099  0.7883 -0.3535
  377MPD2    C3 5691   3.890   4.663  13.291  0.0108 -0.2523  0.1527
  377MPD2    C4 5692   3.767   4.659  13.233 -0.3956  0.0780  0.2245
  377MPD2    C5 5693   3.740   0.002  13.121  0.0924 -0.5348  0.5269
  377MPD2     H 5694   4.101   4.724  13.258  0.3186 -0.0337 -0.9902
  377MPD2    H1 5695   3.683   4.610  13.281  0.2998 -0.9018  0.4450
  377MPD2    H2 5696   3.835   0.124  12.973 -1.5497 -0.7622 -0.7303
  377MPD2    H3 5697   3.640   0.025  13.086  0.5914  2.5561  1.1274
  377MPD2     N 5698   3.910   4.593  13.413 -0.5857  0.2190 -1.2746
  377MPD2    H5 5699   3.832   4.543  13.454  0.9197 -1.1974 -0.1376
  377MPD2    N1 5700   4.069   0.115  13.017  0.0094  0.2047  0.8752
  377MPD2    H7 5701   4.027   0.162  12.937 -1.6874  1.2315  2.3672
  378TMC3    C1 5702   4.225   0.293  12.723 -0.2990 -0.0309  0.2233
  378TMC3    C2 5703   4.184   0.261  12.850 -0.0387  0.2391 -0.5267
  378TMC3    C3 5704   4.262   0.177  12.922  0.1579  0.0807 -0.2139
  378TMC3    C4 5705   4.336   0.239  12.664  0.2054 -0.5045  0.2000
  378TMC3    C5 5706   4.401   0.146  12.746  0.2656  1.3599  0.5413
  378TMC3    C6 5707   4.377   0.113  12.878 -0.4634  0.1693  0.7275
  378TMC3     C 5708   4.122   0.359  12.639  0.1830 -0.0910  0.4634
  378TMC3     O 5709   4.007   0.359  12.684  0.4194 -0.0779  0.0590
  378TMC3     H 5710   4.106   0.315  12.903  0.4974 -0.8149  1.3545
  378TMC3    H1 5711   4.349   0.237  12.557  0.8049 -2.0183  0.2910
  378TMC3    H2 5712   4.428   0.042  12.942  0.1191  1.1130  1.2932
  378TMC3    C7 5713   4.522   0.088  12.699  0.4905  0.0855  0.2613
  378TMC3    C8 5714   4.203   0.119  13.043  0.5504 -0.3765  0.9859
  378TMC3    O1 5715   4.605   0.035  12.779  0.1889 -0.0213  0.6576
  378TMC3    O2 5716   4.268   0.059  13.129  0.9084 -0.2401 -0.4726
  379MPD2     C 5717   0.580   3.253  16.052 -0.1160 -0.2656 -0.6280
  379MPD2    C1 5718   0.500   3.186  16.136  0.3023 -0.9151 -0.0645
  379MPD2    C2 5719   0.544   3.075  16.202  0.0527 -0.0865  0.3278
  379MPD2    C3 5720   0.676   3.041  16.193  0.2114 -0.6382 -0.1940
  379MPD2    C4 5721   0.767   3.112  16.119 -0.2003 -0.7883  0.7452
  379MPD2    C5 5722   0.717   3.220  16.051 -0.0217  0.4149 -0.1205
  379MPD2     H 5723   0.469   3.021  16.258 -3.2268  1.0718 -3.0073
  379MPD2    H1 5724   0.871   3.086  16.107 -0.5111 -1.5049 -0.3998
  379MPD2    H2 5725   0.546   3.339  15.995 -2.3911 -1.0122 -0.3869
  379MPD2    H3 5726   0.778   3.286  15.990 -1.3566  0.3402 -1.5212
  379MPD2     N 5727   0.736   2.936  16.267  0.6666  0.3896  0.1772
  379MPD2    H5 5728   0.837   2.928  16.256  0.4544  0.9902 -2.1300
  379MPD2    N1 5729   0.358   3.221  16.130  0.5097  0.0403  0.0831
  379MPD2    H7 5730   0.325   3.264  16.044  1.8066  1.4915  0.3027
  380TMC3    C1 5731   0.134   3.159  16.189  0.0945  0.9184  0.0077
  380TMC3    C2 5732   0.083   3.041  16.235 -0.2590  0.5244  0.4163
  380TMC3    C3 5733   0.005   2.974  16.149 -0.0350 -0.6405  0.1590
  380TMC3    C4 5734   0.102   3.208  16.066 -0.5823  0.3001 -0.4897
  380TMC3    C5 5735   0.007   3.141  15.992  0.1973 -0.7814 -0.0451
  380TMC3    C6 5736   4.687   3.025  16.030 -0.1908 -0.5540  0.0352
  380TMC3     C 5737   0.271   3.183  16.233 -0.5640  0.1080  0.1638
  380TMC3     O 5738   0.299   3.157  16.348  0.2564 -0.3223  0.3456
  380TMC3     H 5739   0.126   3.005  16.328  0.1399  1.7643  0.7011
  380TMC3    H1 5740   0.137   3.307  16.040 -2.8476  1.0354 -0.7266
  380TMC3    H2 5741   4.617   2.962  15.975 -0.5777  0.9960 -1.2388
  380TMC3    C7 5742   4.725   3.189  15.863 -0.3194  0.5509  0.2982
  380TMC3    C8 5743   4.707   2.841  16.183 -0.2211 -0.1427  0.1355
  380TMC3    O1 5744   0.069   3.276  15.837  0.2833  0.2893 -0.1990
  380TMC3    O2 5745   4.587   2.833  16.210  0.6840 -0.5986  0.3064
  381TMC3    C1 5746   0.243   4.143  16.448 -0.3759 -0.5924 -0.0022
  381TMC3    C2 5747   0.320   4.256  16.461 -0.7511 -0.0135  0.0397
  381TMC3    C3 5748   0.282   4.355  16.549 -1.4122 -0.4324  0.4397
  381TMC3    C4 5749   0.130   4.125  16.522 -0.3268 -0.6084  0.0515
  381TMC3    C5 5750   0.100   4.220  16.612 -0.7505  0.0578  0.3084
  381TMC3    C6 5751   0.176   4.330  16.628 -0.2311 -0.7956  0.2904
  381TMC3     C 5752   0.275   4.030  16.356 -0.5193 -0.1096 -0.1814
  381TMC3     O 5753   0.268   3.921  16.406 -0.1186  0.4038 -0.2764
  381TMC3     H 5754   0.404   4.274  16.396 -0.4098  0.5410  0.6339
  381TMC3    H1 5755   0.084   4.028  16.512 -2.0608  0.3547 -1.3149
  381TMC3    H2 5756   0.155   4.409  16.699 -2.1998 -0.9015 -0.1684
  381TMC3    C7 5757   0.031   4.180  16.731  0.1727 -0.3362  0.1941
  381TMC3    C8 5758   0.341   4.484  16.520  0.0010  0.4353  0.0378
  381TMC3    O1 5759   0.007   4.062  16.752  0.0235 -0.2981 -0.6204
  381TMC3    O2 5760   0.390   4.497  16.408 -0.1139  0.0523  0.1769
  382MPD2     C 5761   4.283   1.897  17.128  0.1724 -0.6690  0.1905
  382MPD2    C1 5762   4.259   1.943  17.252  0.2930  0.3683  0.1782
  382MPD2    C2 5763   4.219   1.852  17.350 -0.6096 -0.1175 -0.3970
  382MPD2    C3 5764   4.199   1.714  17.321  0.6327 -0.1640 -0.6143
  382MPD2    C4 5765   4.224   1.669  17.197  0.0114  0.4088  0.3870
  382MPD2    C5 5766   4.280   1.761  17.107 -0.1460 -0.1967  0.4159
  382MPD2     H 5767   4.202   1.883  17.453  1.8421  0.5088 -0.1641
  382MPD2    H1 5768   4.204   1.571  17.156  2.1900  0.6934 -1.3986
  382MPD2    H2 5769   4.334   1.948  17.048  0.5853  0.0319  0.9038
  382MPD2    H3 5770   4.316   1.730  17.009 -0.4474  0.7949 -0.0119
  382MPD2     N 5771   4.166   1.618  17.417 -0.4402 -0.0553 -0.0699
  382MPD2    H5 5772   4.146   1.523  17.387  2.6214 -0.7298  0.0609
  382MPD2    N1 5773   4.284   2.072  17.292  0.5033 -0.2572 -0.2494
  382MPD2    H7 5774   4.268   2.082  17.392 -1.0172  1.1487 -0.6460
  383TMC3    C1 5775   4.110   1.534  17.629 -0.2558 -0.2845 -1.0129
  383TMC3    C2 5776   3.989   1.494  17.584  0.5607 -0.9920 -0.1290
  383TMC3    C3 5777   3.917   1.419  17.672 -0.8095 -0.2127  0.4245
  383TMC3    C4 5778   4.160   1.526   0.006  0.2038  0.2378  1.0352
  383TMC3    C5 5779   4.079   1.458   0.092  0.5385 -0.0244  1.0710
  383TMC3    C6 5780   3.965   1.395   0.050 -0.1950  0.9162 -0.6398
  383TMC3     C 5781   4.177   1.637  17.551 -0.1466 -0.1324  0.2144
  383TMC3     O 5782   4.224   1.728  17.617 -0.1705 -0.2982 -0.4601
  383TMC3     H 5783   3.960   1.519  17.483 -2.1825  1.9774  1.4168
  383TMC3    H1 5784   4.256   1.570   0.034  1.2696 -1.0089 -0.6851
  383TMC3    H2 5785   3.902   1.352   0.127  0.5556  0.1127 -0.4710
  383TMC3    C7 5786   4.115   1.440   0.231  0.3936 -0.0606  0.5867
  383TMC3    C8 5787   3.783   1.394  17.637 -0.5514  0.9231 -0.2804
  383TMC3    O1 5788   4.032   1.416   0.317 -0.0251 -1.0358  0.1613
  383TMC3    O2 5789   3.745   1.445  17.530  0.0220  0.3673  0.0470
  384MPD2     C 5790   4.607   2.727  11.815 -0.6948  0.5231 -0.2562
  384MPD2    C1 5791   4.700   2.792  11.902  0.1680 -0.1518 -0.5509
  384MPD2    C2 5792   0.100   2.768  11.879 -0.1087  0.0957 -0.4304
  384MPD2    C3 5793   0.137   2.694  11.767 -0.1746 -0.0928  0.4873
  384MPD2    C4 5794   0.040   2.652  11.680  0.4529 -0.1533  0.3400
  384MPD2    C5 5795   4.646   2.665  11.700 -0.0556  0.7823  0.6042
  384MPD2     H 5796   0.176   2.815  11.939  0.0359 -0.5658 -0.1020
  384MPD2    H1 5797   0.069   2.609  11.585  3.1532  0.5015  0.8366
  384MPD2    H2 5798   4.501   2.737  11.833 -1.3917 -3.1203 -2.3308
  384MPD2    H3 5799   4.567   2.643  11.629 -0.4232 -1.8718  1.8425
  384MPD2     N 5800   0.270   2.648  11.760 -0.0030 -0.3546  0.0335
  384MPD2    H5 5801   0.321   2.665  11.846  1.0499  0.3779 -0.7338
  384MPD2    N1 5802   4.651   2.862  12.014 -0.2308  0.2074 -0.0003
  384MPD2    H7 5803   4.553   2.855  12.041 -0.7496  1.3700 -1.5961
  385TMC3    C1 5804   0.444   2.508  11.729 -0.3792  0.2146  0.0036
  385TMC3    C2 5805   0.470   2.380  11.695 -0.2369  0.0068 -0.4266
  385TMC3    C3 5806   0.506   2.303  11.797 -0.5305 -0.0003 -0.4853
  385TMC3    C4 5807   0.456   2.557  11.858  0.5167 -0.2025  0.4582
  385TMC3    C5 5808   0.508   2.478  11.955 -0.1172  0.2758 -0.1494
  385TMC3    C6 5809   0.536   2.342  11.923 -1.0066 -0.3260  0.0127
  385TMC3     C 5810   0.327   2.556  11.671 -0.6266  0.0043 -0.0950
  385TMC3     O 5811   0.302   2.520  11.555 -0.7396 -0.3911  0.8076
  385TMC3     H 5812   0.456   2.353  11.591 -0.4610  1.9057 -0.8862
  385TMC3    H1 5813   0.469   2.663  11.875 -2.4934  0.1797  0.3780
  385TMC3    H2 5814   0.559   2.272  12.003  3.4783  0.4071 -0.6149
  385TMC3    C7 5815   0.446   2.514  12.075 -0.0851  0.6659 -0.4305
  385TMC3    C8 5816   0.573   2.177  11.761  0.1721  1.0332 -0.4613
  385TMC3    O1 5817   0.355   2.594  12.060  0.1767 -0.1407 -0.1287
  385TMC3    O2 5818   0.669   2.144  11.833  0.0423  0.5627  0.7579
  386TMC3    C1 5819   0.825   4.623  11.685 -0.4711 -0.3958 -0.5902
  386TMC3    C2 5820   0.825   4.672  11.557  0.0635 -0.5229  0.0104
  386TMC3    C3 5821   0.799   0.068  11.535  0.4188  0.2626 -0.3171
  386TMC3    C4 5822   0.774   4.695  11.785 -0.0353  1.2346  0.9318
  386TMC3    C5 5823   0.741   0.090  11.767 -0.3278 -0.2044 -0.1218
  386TMC3    C6 5824   0.764   0.141  11.646  0.6576  0.2248  0.8176
  386TMC3     C 5825   0.841   4.476  11.686 -0.1560  0.1294  0.2783
  386TMC3     O 5826   0.810   4.428  11.579 -0.3268  0.3873 -0.0568
  386TMC3     H 5827   0.831   4.604  11.473  2.3226 -1.3099  0.8306
  386TMC3    H1 5828   0.743   4.646  11.877 -1.8613 -0.6352 -0.6580
  386TMC3    H2 5829   0.749   0.246  11.623 -0.2030 -0.0291  0.2106
  386TMC3    C7 5830   0.623   0.134  11.841  0.5180 -0.3452  0.2234
  386TMC3    C8 5831   0.721   0.106  11.415  0.0365  0.0447 -0.0191
  386TMC3    O1 5832   0.617   0.116  11.963  0.4584  0.4475  0.1681
  386TMC3    O2 5833   0.635   0.199  11.426  0.6302 -0.7640  0.0533
  387MPD2     C 5834   2.734   0.656   9.692  0.2316 -0.1080  0.0245
  387MPD2    C1 5835   2.852   0.642   9.763 -0.1445  0.5724  0.2676
  387MPD2    C2 5836   2.907   0.514   9.785 -0.2345  0.6023  0.7421
  387MPD2    C3 5837   2.851   0.397   9.728  0.3519  0.3639 -0.2059
  387MPD2    C4 5838   2.736   0.414   9.653  0.2384  0.3946 -0.7127
  387MPD2    C5 5839   2.679   0.545   9.633 -0.1747  0.6640  0.4229
  387MPD2     H 5840   2.998   0.507   9.844 -1.3028 -1.8532  2.0642
  387MPD2    H1 5841   2.690   0.333   9.598  0.2517 -0.2826  0.2850
  387MPD2    H2 5842   2.688   0.752   9.671  0.9198 -0.0401 -1.1746
  387MPD2    H3 5843   2.595   0.566   9.568  0.3484 -1.8201 -1.0815
  387MPD2     N 5844   2.920   0.277   9.744  0.0184  0.2381 -0.3025
  387MPD2    H5 5845   3.014   0.283   9.780 -0.1266  1.0437 -0.0550
  387MPD2    N1 5846   2.914   0.754   9.825  0.2581 -0.8141 -0.2743
  387MPD2    H7 5847   2.992   0.732   9.886 -0.6189 -1.2394  0.6927
  388TMC3    C1 5848   2.898   0.922   9.981 -0.0229 -0.7085 -0.4705
  388TMC3    C2 5849   2.840   1.041  10.020 -0.1735 -0.1331 -0.3803
  388TMC3    C3 5850   2.822   1.074  10.151 -0.2712 -0.0570 -0.0494
  388TMC3    C4 5851   2.945   0.836  10.077 -0.0022 -0.2111  0.0731
  388TMC3    C5 5852   2.939   0.874  10.202 -0.0837 -0.0655 -0.2069
  388TMC3    C6 5853   2.877   0.994  10.246 -0.1089 -0.8612 -0.6476
  388TMC3     C 5854   2.851   0.876   9.851  0.3396  0.5489 -0.3871
  388TMC3     O 5855   2.770   0.941   9.794 -0.8957  0.1858  0.0554
  388TMC3     H 5856   2.812   1.113   9.944  0.5231 -0.3808 -0.8675
  388TMC3    H1 5857   3.003   0.749  10.050 -1.2665 -0.1640 -2.8134
  388TMC3    H2 5858   2.869   1.021  10.350 -3.5096  0.2650 -1.2015
  388TMC3    C7 5859   2.972   0.777  10.308  0.1687 -0.0814  0.1720
  388TMC3    C8 5860   2.803   1.219  10.172  0.0964 -0.4959  0.0515
  388TMC3    O1 5861   3.049   0.804  10.400  0.2762  0.3155  0.2083
  388TMC3    O2 5862   2.715   1.284  10.115 -0.0310 -0.5072 -0.3980
  389MPD2     C 5863   2.000   2.794  10.893  0.1682  0.7088 -0.3151
  389MPD2    C1 5864   2.038   2.896  10.975 -0.9304  0.0545  0.0760
  389MPD2    C2 5865   2.103   2.868  11.098  0.2917  0.2051 -0.3002
  389MPD2    C3 5866   2.144   2.742  11.125  0.2225  0.4784  0.4077
  389MPD2    C4 5867   2.105   2.638  11.044  0.1439 -0.0024  0.1082
  389MPD2    C5 5868   2.029   2.664  10.931  0.3148  0.2225 -0.5258
  389MPD2     H 5869   2.130   2.952  11.161 -2.0228 -0.5746  1.7500
  389MPD2    H1 5870   2.108   2.534  11.073 -0.0930 -0.2911 -0.8907
  389MPD2    H2 5871   1.949   2.804  10.797  0.6186 -3.5143 -0.9627
  389MPD2    H3 5872   1.986   2.583  10.874  1.5446  0.2028 -1.4326
  389MPD2     N 5873   2.218   2.712  11.247  0.2691  0.7266  0.1351
  389MPD2    H5 5874   2.221   2.615  11.275  0.5771  0.9641  0.9279
  389MPD2    N1 5875   2.001   3.030  10.948  0.2231 -0.0804  0.6022
  389MPD2    H7 5876   2.023   3.099  11.019 -1.1169  1.7761 -0.7563
  390TMC3    C1 5877   2.322   2.770  11.453  0.4736  0.5012  0.3812
  390TMC3    C2 5878   2.253   2.674  11.521  0.1829 -0.3378 -0.1096
  390TMC3    C3 5879   2.244   2.672  11.654  0.8554  0.9724 -0.3170
  390TMC3    C4 5880   2.386   2.870  11.521  0.2742 -0.7773 -0.5556
  390TMC3    C5 5881   2.389   2.854  11.655 -0.0879 -0.6982 -0.7752
  390TMC3    C6 5882   2.314   2.763  11.727 -1.0391  0.0183 -0.3798
  390TMC3     C 5883   2.286   2.807  11.319  0.6159  0.4271  0.1533
  390TMC3     O 5884   2.312   2.924  11.292  0.1940 -0.0788 -0.3542
  390TMC3     H 5885   2.201   2.599  11.463 -2.2106  1.2106  0.0064
  390TMC3    H1 5886   2.448   2.940  11.467  1.5255 -0.5168  1.2322
  390TMC3    H2 5887   2.329   2.751  11.834 -1.7552  0.8251 -0.1957
  390TMC3    C7 5888   2.466   2.950  11.733 -0.1135  0.0990  0.5991
  390TMC3    C8 5889   2.176   2.563  11.722 -0.5010  0.2139 -0.5559
  390TMC3    O1 5890   2.571   2.995  11.690 -0.2769  0.6623 -0.8625
  390TMC3    O2 5891   2.174   2.456  11.667 -0.1737  0.6143 -0.1410
  391MPD2     C 5892   2.149   0.038  11.270 -0.7713  0.1769  0.6362
  391MPD2    C1 5893   2.165   0.177  11.263  0.3846 -0.2488  0.5245
  391MPD2    C2 5894   2.120   0.233  11.145  0.0879  0.6375  0.2911
  391MPD2    C3 5895   2.072   0.163  11.041  0.3814 -0.1669  0.1660
  391MPD2    C4 5896   2.064   0.026  11.046  0.3515 -0.1876  0.6935
  391MPD2    C5 5897   2.095   4.701  11.166  0.0429 -0.6885 -0.0390
  391MPD2     H 5898   2.136   0.340  11.133 -0.6796  0.9635  2.1623
  391MPD2    H1 5899   2.034   4.703  10.961 -0.4946  0.2239  0.6965
  391MPD2    H2 5900   2.181   4.719  11.357  0.0908 -2.2624 -1.2455
  391MPD2    H3 5901   2.103   4.593  11.168  0.0965 -0.6868 -0.1425
  391MPD2     N 5902   2.051   0.238  10.921  0.4476 -0.5529 -0.0868
  391MPD2    H5 5903   2.054   0.340  10.920 -4.4039 -0.3946 -0.4351
  391MPD2    N1 5904   2.227   0.250  11.365  0.0354 -0.0868  0.0406
  391MPD2    H7 5905   2.243   0.195  11.449  0.0272  2.8827  1.9840
  392TMC3    C1 5906   2.041   0.294  10.692 -0.3700  0.6182 -0.5253
  392TMC3    C2 5907   2.007   0.260  10.564  0.2605 -0.1558 -0.0443
  392TMC3    C3 5908   2.012   0.346  10.459 -0.5346  0.6412  0.5953
  392TMC3    C4 5909   2.111   0.412  10.701  0.1198 -0.4151 -0.4625
  392TMC3    C5 5910   2.128   0.496  10.591  0.4934  0.0005  0.0183
  392TMC3    C6 5911   2.058   0.472  10.476 -0.6534 -0.1794  0.3997
  392TMC3     C 5912   2.043   0.189  10.795 -0.2851 -0.1662 -1.2145
  392TMC3     O 5913   2.017   0.073  10.764 -0.3255  0.1080 -0.1272
  392TMC3     H 5914   1.990   0.156  10.540  4.1050 -0.4924 -1.3675
  392TMC3    H1 5915   2.144   0.456  10.795 -0.6151  0.4964 -0.6279
  392TMC3    H2 5916   2.058   0.546  10.396 -1.8794 -0.7843 -0.1637
  392TMC3    C7 5917   2.211   0.616  10.603 -0.1205  0.6147  0.1856
  392TMC3    C8 5918   1.967   0.300  10.327  0.7055  0.1432  0.4272
  392TMC3    O1 5919   2.286   0.609  10.695 -0.4640 -0.0206 -0.1467
  392TMC3    O2 5920   1.890   0.205  10.327  0.0477 -0.5372 -0.5734
  393TMC3    C1 5921   0.768   2.590  10.796  0.1818  0.1003 -0.1027
  393TMC3    C2 5922   0.646   2.560  10.855  0.1642 -0.2398  0.6531
  393TMC3    C3 5923   0.603   2.430  10.862 -0.2157  0.3898 -0.1719
  393TMC3    C4 5924   0.842   2.496  10.730  0.0431 -0.5687  0.4430
  393TMC3    C5 5925   0.796   2.366  10.733 -0.4051  0.1133 -0.2095
  393TMC3    C6 5926   0.674   2.332  10.795  0.6584 -0.6336  0.4651
  393TMC3     C 5927   0.799   2.726  10.774 -0.7088  0.0041 -0.6152
  393TMC3     O 5928   0.912   2.761  10.787  0.2199 -0.1767 -0.2935
  393TMC3     H 5929   0.602   2.644  10.906 -0.1922 -1.3131  2.0878
  393TMC3    H1 5930   0.921   2.532  10.665 -0.6662 -0.3740 -0.3007
  393TMC3    H2 5931   0.645   2.227  10.787 -0.2366 -0.2546 -1.2054
  393TMC3    C7 5932   0.853   2.255  10.653 -0.2872  0.1720 -0.2103
  393TMC3    C8 5933   0.460   2.409  10.882  0.0529  0.9457  0.1242
  393TMC3    O1 5934   0.798   2.144  10.647  0.8322 -0.5216  0.5204
  393TMC3    O2 5935   0.422   2.309  10.823 -0.1635  0.1236 -0.0565
  394TMC3    C1 5936   1.907   3.221  10.824  0.5617  0.0080 -0.1600
  394TMC3    C2 5937   1.797   3.251  10.753  0.3852 -1.0585  0.1616
  394TMC3    C3 5938   1.793   3.351  10.655  0.2222 -0.0482  0.5760
  394TMC3    C4 5939   2.022   3.301  10.808 -0.1756  0.0814 -0.3289
  394TMC3    C5 5940   2.016   3.395  10.698 -0.0768  0.3365 -0.3781
  394TMC3    C6 5941   1.903   3.426  10.634 -0.4302  0.1687 -0.0479
  394TMC3     C 5942   1.929   3.074  10.835 -0.1851  0.5101 -0.9659
  394TMC3     O 5943   1.882   3.013  10.737  0.2443  0.0107  0.4246
  394TMC3     H 5944   1.709   3.188  10.761 -0.2852 -0.3421 -1.3659
  394TMC3    H1 5945   2.113   3.281  10.862 -0.0725 -3.4335 -1.7915
  394TMC3    H2 5946   1.895   3.509  10.565 -1.6185 -0.0069 -0.1332
  394TMC3    C7 5947   2.139   3.470  10.672  0.5858 -0.6919  0.4409
  394TMC3    C8 5948   1.747   3.294  10.535  0.3802 -0.8666  0.4484
  394TMC3    O1 5949   2.120   3.574  10.620 -0.3818  0.0998  0.3629
  394TMC3    O2 5950   1.730   3.367  10.437 -0.3915 -0.1735  0.0360
  395TMC3    C1 5951   2.473   0.216  14.677 -0.0664 -0.1789 -0.2167
  395TMC3    C2 5952   2.376   0.282  14.605  0.0261 -0.0517 -0.3039
  395TMC3    C3 5953   2.384   0.419  14.592 -0.5385  0.3193  0.1504
  395TMC3    C4 5954   2.582   0.286  14.725  0.1544  0.3873 -0.6634
  395TMC3    C5 5955   2.583   0.422  14.715  0.0477 -0.8188 -0.3454
  395TMC3    C6 5956   2.482   0.489  14.653 -0.3147  0.1531  0.7893
  395TMC3     C 5957   2.429   0.108  14.751 -0.2352  0.7320 -0.0842
  395TMC3     O 5958   2.467   0.118  14.869 -0.2511 -0.0636  0.2788
  395TMC3     H 5959   2.283   0.237  14.571 -0.9298  2.2149 -0.6721
  395TMC3    H1 5960   2.657   0.229  14.778 -1.9668 -2.2916 -0.4960
  395TMC3    H2 5961   2.486   0.596  14.636 -1.8561 -0.6213 -4.3678
  395TMC3    C7 5962   2.687   0.509  14.783  0.4770 -0.0808 -0.0057
  395TMC3    C8 5963   2.273   0.503  14.548 -0.4066  0.6296 -0.2202
  395TMC3    O1 5964   2.659   0.628  14.796  0.1517  0.2099  0.2820
  395TMC3    O2 5965   2.266   0.612  14.603 -0.0889  0.6959  0.6123
  396MPD2     C 5966   2.128   1.508  17.156  0.7229 -0.4505 -0.3474
  396MPD2    C1 5967   2.264   1.505  17.148  0.1454 -0.1861 -0.8966
  396MPD2    C2 5968   2.327   1.618  17.094 -0.4100  0.1330 -0.8601
  396MPD2    C3 5969   2.261   1.738  17.062 -0.8573 -0.3205 -0.1082
  396MPD2    C4 5970   2.121   1.733  17.079  0.1855 -0.6587  0.2146
  396MPD2    C5 5971   2.056   1.625  17.128  0.3561 -0.7036 -0.0720
  396MPD2     H 5972   2.431   1.611  17.065 -0.5846  2.0025 -1.9182
  396MPD2    H1 5973   2.063   1.820  17.050  0.2331 -0.4663  0.6926
  396MPD2    H2 5974   2.071   1.420  17.183 -2.2279  1.4078 -0.5027
  396MPD2    H3 5975   1.947   1.622  17.130  0.4682 -2.8430  3.2588
  396MPD2     N 5976   2.331   1.845  16.997  0.0356 -0.3582  0.3581
  396MPD2    H5 5977   2.425   1.818  16.970 -0.5863 -1.5064 -0.6609
  396MPD2    N1 5978   2.324   1.374  17.159 -0.6101  0.3658 -0.3677
  396MPD2    H7 5979   2.255   1.300  17.162 -0.2543  0.0441  0.1099
  397TMC3    C1 5980   2.478   1.189  17.173 -0.1137 -0.3697 -0.4298
  397TMC3    C2 5981   2.500   1.158  17.041  0.2794 -0.1447 -0.8585
  397TMC3    C3 5982   2.433   1.054  16.976  0.5692  0.3116  0.0619
  397TMC3    C4 5983   2.392   1.116  17.245 -0.0528  0.0965  0.2687
  397TMC3    C5 5984   2.330   1.005  17.180 -0.1554  0.4444 -0.2584
  397TMC3    C6 5985   2.350   0.975  17.046 -0.4568  0.0179 -0.1368
  397TMC3     C 5986   2.455   1.338  17.174 -0.0215 -0.4282  0.0386
  397TMC3     O 5987   2.552   1.411  17.200 -0.2528 -0.2754  0.3240
  397TMC3     H 5988   2.540   1.246  16.992  0.0462 -0.3835 -1.4856
  397TMC3    H1 5989   2.363   1.154  17.342 -2.9066  0.8561 -0.8716
  397TMC3    H2 5990   2.292   0.897  16.998 -0.0128  0.9916 -2.2457
  397TMC3    C7 5991   2.222   0.938  17.250 -0.3316  0.2785  0.7980
  397TMC3    C8 5992   2.379   1.112  16.853 -0.0044 -0.7641 -0.1973
  397TMC3    O1 5993   2.147   0.875  17.181 -0.6219  0.1364 -0.2669
  397TMC3    O2 5994   2.453   1.185  16.795 -0.3052  0.2376  0.5276
  398MPD2     C 5995   0.581   2.774   0.313  0.4145 -0.0938 -1.1378
  398MPD2    C1 5996   0.670   2.742   0.413 -0.0231  0.6082  0.2134
  398MPD2    C2 5997   0.720   2.846   0.489 -0.1516 -0.3306 -0.0497
  398MPD2    C3 5998   0.692   2.977   0.472  0.4745 -1.0310 -0.0303
  398MPD2    C4 5999   0.612   3.011   0.362  0.2046  0.0536 -0.3525
  398MPD2    C5 6000   0.551   2.906   0.291 -0.2892  0.0656 -0.1606
  398MPD2     H 6001   0.787   2.822   0.571 -1.3736 -4.0148 -0.1490
  398MPD2    H1 6002   0.591   3.115   0.339 -1.4699 -0.6734 -2.0746
  398MPD2    H2 6003   0.525   2.705   0.251 -0.1030  2.1364 -3.1451
  398MPD2    H3 6004   0.487   2.932   0.208  0.4450 -1.2400 -1.1356
  398MPD2     N 6005   0.758   3.074   0.555 -0.1227  0.5815 -0.0529
  398MPD2    H5 6006   0.815   3.030   0.627  1.0861  0.8240 -0.8651
  398MPD2    N1 6007   0.698   2.608   0.457 -0.1667 -0.3447  0.2950
  398MPD2    H7 6008   0.753   2.591   0.540  1.7137 -1.7028 -1.2295
  399TMC3    C1 6009   0.713   2.363   0.438 -0.0231  0.0804  0.7005
  399TMC3    C2 6010   0.780   2.366   0.562  0.4244 -0.4009  0.4897
  399TMC3    C3 6011   0.833   2.249   0.617 -1.0487  0.0755 -0.2117
  399TMC3    C4 6012   0.685   2.252   0.368  0.5533  0.3193 -0.5994
  399TMC3    C5 6013   0.741   2.142   0.427  0.1526  0.0742 -0.4850
  399TMC3    C6 6014   0.804   2.136   0.552  0.4841  0.4713  0.5608
  399TMC3     C 6015   0.670   2.492   0.378  0.4245  0.8048  0.4626
  399TMC3     O 6016   0.647   2.483   0.256  0.5157 -0.0618  0.0162
  399TMC3     H 6017   0.801   2.453   0.624 -3.6395  1.3605 -0.6061
  399TMC3    H1 6018   0.628   2.252   0.275 -0.8837 -3.5778  0.2612
  399TMC3    H2 6019   0.842   2.041   0.585  0.3204  1.0697  2.4355
  399TMC3    C7 6020   0.731   2.012   0.354 -0.6817 -0.5189  0.3085
  399TMC3    C8 6021   0.957   2.265   0.680  0.0711  0.1811  0.1889
  399TMC3    O1 6022   0.825   1.932   0.361 -0.3030  0.1649 -0.4803
  399TMC3    O2 6023   0.990   2.380   0.711  0.4108 -0.5182 -0.3775
  400TMC3    C1 6024   3.756   1.059  17.411  0.4791  0.0153 -0.2539
  400TMC3    C2 6025   3.646   0.975  17.391 -0.0126 -0.0218 -1.0176
  400TMC3    C3 6026   3.553   1.001  17.295 -0.5218 -0.1452  0.2703
  400TMC3    C4 6027   3.770   1.174  17.346 -0.1445  0.9177 -0.1195
  400TMC3    C5 6028   3.664   1.205  17.265  0.5300  0.6017  0.7005
  400TMC3    C6 6029   3.556   1.124  17.234 -0.5063  0.0253  0.9501
  400TMC3     C 6030   3.851   1.025  17.515  0.0015  0.1372  0.9859
  400TMC3     O 6031   3.820   0.926  17.578 -0.7826 -0.0535  0.3407
  400TMC3     H 6032   3.651   0.880  17.444  0.2405  0.8503  0.5163
  400TMC3    H1 6033   3.860   1.233  17.361  0.8715  0.2297 -3.4505
  400TMC3    H2 6034   3.465   1.157  17.185  0.2047 -0.0435 -0.3998
  400TMC3    C7 6035   3.680   1.326  17.188 -0.5515  0.7122 -0.3065
  400TMC3    C8 6036   3.446   0.909  17.268 -0.1884 -0.5563  0.1665
  400TMC3    O1 6037   3.601   1.346  17.092  0.7832  0.1518 -0.0680
  400TMC3    O2 6038   3.439   0.821  17.353  0.1800  0.0633  0.5014
  401MPD2     C 6039   2.288   4.519   0.907 -0.8048  0.5977  0.0320
  401MPD2    C1 6040   2.369   4.422   0.854  0.2802 -0.9183 -0.2040
  401MPD2    C2 6041   2.309   4.303   0.821 -0.6744 -0.3187 -0.3130
  401MPD2    C3 6042   2.167   4.281   0.832  0.1329 -0.4951  0.3405
  401MPD2    C4 6043   2.095   4.388   0.885 -0.4201 -0.2035 -0.0091
  401MPD2    C5 6044   2.155   4.502   0.926 -0.5121 -0.1400 -0.2403
  401MPD2     H 6045   2.370   4.220   0.786  1.2057  0.5862  0.8409
  401MPD2    H1 6046   1.988   4.376   0.889 -0.6552  0.9425 -2.9126
  401MPD2    H2 6047   2.333   4.614   0.935 -1.3622  1.0678 -0.6844
  401MPD2    H3 6048   2.098   4.589   0.955  0.6905  0.0716  1.4516
  401MPD2     N 6049   2.115   4.146   0.805 -0.1617  0.5235 -0.2829
  401MPD2    H5 6050   2.178   4.069   0.785 -1.1567 -0.1085 -0.9615
  401MPD2    N1 6051   2.500   4.434   0.830 -0.1470 -0.2138 -0.4278
  401MPD2    H7 6052   2.548   4.349   0.802 -0.2006  0.0544 -1.3426
  402TMC3    C1 6053   1.986   3.968   0.825 -0.0560 -0.4509 -0.4796
  402TMC3    C2 6054   2.034   3.911   0.939 -0.0441  0.7922  0.1180
  402TMC3    C3 6055   2.100   3.793   0.931  0.3350  0.1654 -0.4638
  402TMC3    C4 6056   2.013   3.908   0.702  0.3276  0.3197  0.4203
  402TMC3    C5 6057   2.086   3.790   0.694  0.1914  0.6990  0.3844
  402TMC3    C6 6058   2.125   3.723   0.810 -0.3933  0.1685 -0.1095
  402TMC3     C 6059   1.988   4.112   0.823  0.0678 -0.2320  0.4995
  402TMC3     O 6060   1.886   4.178   0.850 -0.0797  0.1860  0.0731
  402TMC3     H 6061   2.037   3.968   1.031  1.8937 -0.5599  0.8657
  402TMC3    H1 6062   1.984   3.965   0.615 -1.4866  1.1395  1.5507
  402TMC3    H2 6063   2.155   3.619   0.815 -0.7883  0.0169 -1.0214
  402TMC3    C7 6064   2.095   3.710   0.574  0.0406 -0.6737 -0.7281
  402TMC3    C8 6065   2.155   3.728   1.049 -0.7468 -0.3203 -0.4784
  402TMC3    O1 6066   2.050   3.766   0.478  0.6964 -0.2447  0.0522
  402TMC3    O2 6067   2.224   3.629   1.028  0.3834  0.1852  0.2241
  403MPD2     C 6068   4.624   3.144  13.505  0.1811  0.0562  0.2417
  403MPD2    C1 6069   4.683   3.042  13.584 -0.5562  0.1302  0.6174
  403MPD2    C2 6070   0.034   3.073  13.685  0.1913  0.1508 -0.6023
  403MPD2    C3 6071   0.075   3.206  13.695 -0.6657  0.3735 -0.0331
  403MPD2    C4 6072   0.022   3.306  13.611  0.3010  0.4555  0.0411
  403MPD2    C5 6073   4.672   3.271  13.515 -0.1014  0.4190 -0.1484
  403MPD2     H 6074   0.075   2.992  13.744 -1.5840 -2.5141 -2.9925
  403MPD2    H1 6075   0.047   3.412  13.614 -1.7123  0.9036  0.8464
  403MPD2    H2 6076   4.553   3.122  13.426 -0.7748 -0.7374  1.3242
  403MPD2    H3 6077   4.638   3.352  13.451  1.1705  1.8948  1.0580
  403MPD2     N 6078   0.169   3.236  13.793  0.0130 -0.3550 -0.4579
  403MPD2    H5 6079   0.212   3.159  13.844 -0.3483  0.3748  0.9640
  403MPD2    N1 6080   4.624   2.911  13.563  0.4062  0.3978  0.3762
  403MPD2    H7 6081   4.552   2.895  13.494  1.4645 -1.1042 -0.3665
  404TMC3    C1 6082   4.578   2.684  13.601  0.5370 -0.1560 -0.7232
  404TMC3    C2 6083   4.598   2.573  13.677  0.0572  0.0674 -1.0132
  404TMC3    C3 6084   4.567   2.455  13.621  0.3606  1.1169 -0.3816
  404TMC3    C4 6085   4.534   2.680  13.468  0.9299 -0.3090  0.2421
  404TMC3    C5 6086   4.509   2.556  13.420  0.2036  0.9196  0.5120
  404TMC3    C6 6087   4.522   2.437  13.493 -0.2416  0.0110  0.5964
  404TMC3     C 6088   4.644   2.801  13.643  0.0750  0.2978 -0.2614
  404TMC3     O 6089   4.716   2.789  13.743  0.1845 -0.1647 -0.0991
  404TMC3     H 6090   4.658   2.577  13.767 -1.0828 -2.1889 -0.1572
  404TMC3    H1 6091   4.513   2.765  13.404  3.0469 -0.3386 -0.4956
  404TMC3    H2 6092   4.499   2.337  13.458 -1.3371  0.5294 -0.1899
  404TMC3    C7 6093   4.500   2.543  13.270  0.1766 -0.0313  0.3140
  404TMC3    C8 6094   4.635   2.347  13.676 -0.4291  0.0882 -0.0048
  404TMC3    O1 6095   4.489   2.647  13.207 -0.1732 -0.2211  0.1264
  404TMC3    O2 6096   4.710   2.287  13.594 -0.8142  0.5143 -0.3470
  405MPD2     C 6097   0.674   3.461  15.031  0.8676  0.6248  0.0198
  405MPD2    C1 6098   0.662   3.356  14.936  0.2931  0.1682 -0.5865
  405MPD2    C2 6099   0.615   3.387  14.811  0.3978 -0.5433 -0.1816
  405MPD2    C3 6100   0.604   3.528  14.782 -0.4755  0.1297  0.0893
  405MPD2    C4 6101   0.626   3.622  14.875  0.6429 -0.2324  0.1070
  405MPD2    C5 6102   0.653   3.591  14.999 -0.2967  0.9099 -0.5133
  405MPD2     H 6103   0.587   3.319  14.732 -1.3743  0.0503 -0.0719
  405MPD2    H1 6104   0.614   3.726  14.847  0.6648 -0.1894  0.2589
  405MPD2    H2 6105   0.689   3.448  15.138  1.2458 -0.5012 -0.1642
  405MPD2    H3 6106   0.662   3.666  15.077 -0.0594 -0.3216  0.6466
  405MPD2     N 6107   0.549   3.566  14.658  0.5079  0.3754  0.1298
  405MPD2    H5 6108   0.518   3.491  14.598 -0.5029 -1.5127  2.9791
  405MPD2    N1 6109   0.679   3.225  14.983  0.0713 -0.0411  0.0103
  405MPD2    H7 6110   0.702   3.210  15.080  0.6419 -1.6375 -0.3753
  406TMC3    C1 6111   0.220   3.707  14.420 -0.1938  0.1557  0.1695
  406TMC3    C2 6112   0.201   3.585  14.362 -0.2870 -0.0745 -0.1574
  406TMC3    C3 6113   0.315   3.511  14.356  0.3813 -0.3908  0.5105
  406TMC3    C4 6114   0.335   3.748  14.495  0.2130 -0.4753  0.3455
  406TMC3    C5 6115   0.447   3.675  14.480 -0.6657 -0.1591 -0.3181
  406TMC3    C6 6116   0.440   3.550  14.416  0.3491  0.3751 -0.3139
  406TMC3     C 6117   0.106   3.789  14.439 -0.4698 -0.0640 -0.2688
  406TMC3     O 6118   0.125   3.907  14.431  0.0498  0.5341 -0.0832
  406TMC3     H 6119   0.108   3.551  14.319 -0.7394  1.1161 -0.1152
  406TMC3    H1 6120   0.337   3.839  14.553  0.3199 -0.7267  0.7353
  406TMC3    H2 6121   0.535   3.498  14.426  0.7722  0.9757 -1.1755
  406TMC3    C7 6122   0.533   3.687  14.591 -0.0649  0.1375  0.2910
  406TMC3    C8 6123   0.305   3.365  14.321  0.6425 -0.0137 -0.3529
  406TMC3    O1 6124   0.555   3.801  14.634  0.6240  1.0012  0.2088
  406TMC3    O2 6125   0.206   3.337  14.253  0.1168 -0.1485  0.4567
  407MPD2     C 6126   2.442   4.541   9.900 -0.5833 -0.2784  0.3859
  407MPD2    C1 6127   2.506   4.656   9.851 -0.5158 -0.1778 -1.0495
  407MPD2    C2 6128   2.550   0.013   9.936  0.2375  0.3861 -0.1548
  407MPD2    C3 6129   2.544   4.731  10.072 -0.3342 -0.1584  0.2830
  407MPD2    C4 6130   2.488   4.617  10.125  0.4263 -0.6334 -0.6041
  407MPD2    C5 6131   2.434   4.530  10.037 -0.2313 -0.3928  0.3528
  407MPD2     H 6132   2.579   0.103   9.883 -0.3848  0.5154 -0.2830
  407MPD2    H1 6133   2.479   4.598  10.231  0.9424 -0.2390 -0.4908
  407MPD2    H2 6134   2.383   4.481   9.831 -1.2471  1.0761 -0.2264
  407MPD2    H3 6135   2.378   4.448  10.082 -0.8834 -0.0805  0.0937
  407MPD2     N 6136   2.601   0.089  10.158 -0.1480  0.0877  1.1383
  407MPD2    H5 6137   2.632   0.173  10.110  1.3277 -1.1190 -0.0350
  407MPD2    N1 6138   2.539   4.678   9.712  0.2753  0.6017  0.4067
  407MPD2    H7 6139   2.595   0.022   9.688  0.5442  0.0616 -0.8281
  408TMC3    C1 6140   2.567   4.621   9.484 -0.2103 -0.2894  0.2958
  408TMC3    C2 6141   2.659   4.523   9.461  0.1848 -0.2052  0.1360
  408TMC3    C3 6142   2.769   4.553   9.382 -0.1044 -0.5485  0.8707
  408TMC3    C4 6143   2.595   0.017   9.455  0.3186  0.1536  0.8852
  408TMC3    C5 6144   2.704   0.032   9.366 -0.0676 -0.2262 -0.0880
  408TMC3    C6 6145   2.792   4.674   9.333  0.8201  0.5537  0.2757
  408TMC3     C 6146   2.492   4.597   9.606  0.0106  0.1605 -0.3753
  408TMC3     O 6147   2.418   4.495   9.610 -0.1189  0.4945 -0.7276
  408TMC3     H 6148   2.638   4.418   9.480  0.8832 -0.1681  1.1211
  408TMC3    H1 6149   2.528   0.097   9.485  1.1227  1.1104  0.1326
  408TMC3    H2 6150   2.866   4.685   9.254 -0.2758  0.3113 -0.7918
  408TMC3    C7 6151   2.766   0.162   9.332 -0.2112  0.1135 -0.0768
  408TMC3    C8 6152   2.894   4.498   9.423  0.4921  0.3066  0.1344
  408TMC3    O1 6153   2.888   0.171   9.350  0.1639 -0.4584  0.0260
  408TMC3    O2 6154   2.915   4.379   9.439 -0.0939  0.2649  0.0995
  409MPD2     C 6155   2.707   0.750  16.966 -0.0426  0.1634  0.3509
  409MPD2    C1 6156   2.684   0.809  17.096  0.0890  0.9479  0.1133
  409MPD2    C2 6157   2.735   0.938  17.109  0.0619 -0.6149 -0.3827
  409MPD2    C3 6158   2.818   0.993  17.009 -0.0662 -0.6884  0.3079
  409MPD2    C4 6159   2.836   0.932  16.888 -0.1185  0.8548 -0.2934
  409MPD2    C5 6160   2.767   0.815  16.866  0.5786 -0.3686 -0.0565
  409MPD2     H 6161   2.732   0.997  17.200 -3.3421 -0.2351 -0.7511
  409MPD2    H1 6162   2.915   0.968  16.823  0.5213  0.1590  0.0979
  409MPD2    H2 6163   2.689   0.645  16.944 -2.0018  0.3933  0.8644
  409MPD2    H3 6164   2.782   0.765  16.771  2.1640 -3.6753  1.9402
  409MPD2     N 6165   2.902   1.105  17.029 -0.0108  0.6214  0.2349
  409MPD2    H5 6166   2.937   1.151  16.945  0.4243  0.1696  0.1675
  409MPD2    N1 6167   2.626   0.741  17.201 -0.2359  0.2796 -0.5751
  409MPD2    H7 6168   2.613   0.640  17.197  1.6115  0.0795 -1.9388
  410TMC3    C1 6169   3.032   1.260  17.159 -0.5994 -0.9251 -0.3974
  410TMC3    C2 6170   3.099   1.267  17.280  0.5365  0.3863 -0.5038
  410TMC3    C3 6171   3.229   1.316  17.278 -0.4854 -0.1914 -0.2569
  410TMC3    C4 6172   3.093   1.299  17.038 -0.2870  0.3949  0.5978
  410TMC3    C5 6173   3.218   1.352  17.046 -0.5089 -0.1664  0.2850
  410TMC3    C6 6174   3.288   1.367  17.163  0.0543  0.1768 -0.2446
  410TMC3     C 6175   2.934   1.150  17.154  0.7391 -0.0436  0.1561
  410TMC3     O 6176   2.931   1.080  17.257  0.4020  0.6060  0.3662
  410TMC3     H 6177   3.053   1.243  17.376 -0.7035  4.7909  0.0021
  410TMC3    H1 6178   3.037   1.307  16.945 -0.6111 -1.7417  0.6072
  410TMC3    H2 6179   3.387   1.409  17.158  0.6373 -0.8415  2.5777
  410TMC3    C7 6180   3.243   1.457  16.947  0.3082  0.6975  0.0413
  410TMC3    C8 6181   3.303   1.322  17.404 -0.6073 -0.2308 -0.0041
  410TMC3    O1 6182   3.144   1.500  16.889 -0.0648  0.2934 -0.0949
  410TMC3    O2 6183   3.381   1.416  17.399 -0.6925  0.3719  0.1510
  411MPD2     C 6184   2.950   1.503  14.944 -0.2523  0.2870 -0.0717
  411MPD2    C1 6185   2.916   1.499  14.814  0.0853  0.5586 -0.4393
  411MPD2    C2 6186   2.871   1.376  14.769  0.3800 -0.1835 -0.8254
  411MPD2    C3 6187   2.884   1.263  14.847 -0.3578  0.6143  0.3863
  411MPD2    C4 6188   2.939   1.264  14.975  0.5894  0.2294 -0.3607
  411MPD2    C5 6189   2.970   1.390  15.022  0.1229  0.8458  0.2404
  411MPD2     H 6190   2.815   1.368  14.677 -0.7325  0.6307 -0.2142
  411MPD2    H1 6191   2.950   1.181  15.044  1.1448 -0.7819 -1.6650
  411MPD2    H2 6192   2.959   1.602  14.988  1.5909 -1.0543  2.5805
  411MPD2    H3 6193   3.003   1.404  15.124  0.8525 -2.2694  0.4100
  411MPD2     N 6194   2.823   1.144  14.792 -1.1414 -0.5990  0.1162
  411MPD2    H5 6195   2.778   1.162  14.703  0.0687  1.2731 -0.1251
  411MPD2    N1 6196   2.905   1.619  14.740 -0.0429  0.3290 -0.0577
  411MPD2    H7 6197   2.925   1.708  14.784  2.5484 -0.7243  0.8659
  412TMC3    C1 6198   2.691   0.950  14.800  1.5680  0.5868 -0.5910
  412TMC3    C2 6199   2.572   0.935  14.869 -0.6608  0.1999  0.5741
  412TMC3    C3 6200   2.465   0.884  14.799  0.4294 -0.5025  0.3122
  412TMC3    C4 6201   2.706   0.939  14.667  0.5529  0.3911  0.5053
  412TMC3    C5 6202   2.599   0.888  14.599 -1.0552 -0.0339 -0.4717
  412TMC3    C6 6203   2.482   0.866  14.662  0.2339  0.4934 -0.4132
  412TMC3     C 6204   2.799   1.026  14.863 -0.2713  0.3217  0.1490
  412TMC3     O 6205   2.820   0.991  14.978 -0.6017  0.1805  0.0930
  412TMC3     H 6206   2.573   0.952  14.976  1.0604  1.0284  0.4219
  412TMC3    H1 6207   2.801   0.960  14.619  1.0280  0.9836  1.7017
  412TMC3    H2 6208   2.395   0.831  14.608  0.0221 -0.6148  0.6247
  412TMC3    C7 6209   2.591   0.898  14.452  0.1312 -0.6722  0.5814
  412TMC3    C8 6210   2.346   0.952  14.840  0.1672  0.0840 -0.0092
  412TMC3    O1 6211   2.519   0.816  14.402  0.4778 -0.6796  0.2129
  412TMC3    O2 6212   2.322   0.999  14.952 -0.1855 -0.2022 -0.1390
  413MPD2     C 6213   4.253   4.190  15.476 -0.0291  0.0023  0.3532
  413MPD2    C1 6214   4.345   4.266  15.407  0.1437  0.1292 -0.1069
  413MPD2    C2 6215   4.481   4.229  15.416 -0.4545  0.0383  0.2746
  413MPD2    C3 6216   4.516   4.111  15.474  0.3730 -0.8551  0.2245
  413MPD2    C4 6217   4.419   4.039  15.550 -1.0643 -0.5183  0.2624
  413MPD2    C5 6218   4.290   4.078  15.547 -0.8439  0.1126  0.8131
  413MPD2     H 6219   4.547   4.298  15.365  1.7682 -2.0139  0.3689
  413MPD2    H1 6220   4.443   3.953  15.611  2.0203 -0.9501 -1.5510
  413MPD2    H2 6221   4.152   4.230  15.480 -0.4396 -0.5461 -3.7002
  413MPD2    H3 6222   4.207   4.037  15.603  0.4243 -2.5516  0.7503
  413MPD2     N 6223   4.651   4.081  15.476 -0.6747 -0.3942 -0.3629
  413MPD2    H5 6224   4.709   4.145  15.423  1.2821 -2.8336 -1.1825
  413MPD2    N1 6225   4.290   4.389  15.347  0.0147  0.1854  0.4806
  413MPD2    H7 6226   4.193   4.415  15.361  0.1968  2.5049 -2.6321
  414TMC3    C1 6227   0.117   4.000  15.576  0.3002 -0.4463 -1.1606
  414TMC3    C2 6228   0.180   3.894  15.640  0.0507 -0.4461  0.2343
  414TMC3    C3 6229   0.312   3.898  15.647 -0.6195  0.5287 -0.0258
  414TMC3    C4 6230   0.182   4.108  15.518  0.5261  0.1600 -0.4526
  414TMC3    C5 6231   0.321   4.101  15.529  0.3950 -0.0801 -0.2398
  414TMC3    C6 6232   0.392   3.998  15.589  0.1029 -0.6178  0.0291
  414TMC3     C 6233   4.709   3.985  15.556 -0.8091  1.1291 -0.3182
  414TMC3     O 6234   4.656   3.899  15.622 -0.1515  0.4783 -0.3970
  414TMC3     H 6235   0.117   3.809  15.665 -0.9806  0.8328  2.0031
  414TMC3    H1 6236   0.126   4.196  15.491  0.0505  0.1771  0.5912
  414TMC3    H2 6237   0.493   4.016  15.625  0.0177  0.3727 -0.2377
  414TMC3    C7 6238   0.401   4.209  15.472 -0.5052 -1.0295 -0.3135
  414TMC3    C8 6239   0.384   3.776  15.701  0.6841  0.1948  0.4902
  414TMC3    O1 6240   0.519   4.210  15.506 -0.0485  0.1880  0.2644
  414TMC3    O2 6241   0.324   3.681  15.752 -0.1875  0.2271  0.0760
  415TMC3    C1 6242   4.635   1.686  10.385  0.2988  0.1152 -0.7956
  415TMC3    C2 6243   4.663   1.825  10.395 -0.0684  0.6399  0.0949
  415TMC3    C3 6244   0.017   1.882  10.309  1.2634  0.0597  0.2695
  415TMC3    C4 6245   4.686   1.616  10.283 -0.0553 -0.1470  0.2765
  415TMC3    C5 6246   0.029   1.677  10.192 -0.4329  0.0383 -0.2089
  415TMC3    C6 6247   0.068   1.809  10.207 -0.0303 -0.5447 -0.5431
  415TMC3     C 6248   4.564   1.605  10.485 -0.2054  0.0837  0.2457
  415TMC3     O 6249   4.507   1.500  10.462 -0.1682  0.1585 -0.0351
  415TMC3     H 6250   4.618   1.887  10.472  0.2794 -0.6748  1.3642
  415TMC3    H1 6251   4.674   1.509  10.293 -3.4774  0.3723  1.7544
  415TMC3    H2 6252   0.137   1.844  10.131  0.3280  1.1583  0.5834
  415TMC3    C7 6253   0.085   1.600  10.086  0.3441  0.3844  0.7153
  415TMC3    C8 6254   0.040   2.026  10.320  0.1125 -0.5310 -0.3195
  415TMC3    O1 6255   0.149   1.662  10.002 -0.4122 -0.0224 -0.1219
  415TMC3    O2 6256   4.693   2.086  10.385  0.4551  0.2832  0.3561
  416MPD2     C 6257   1.770   1.140  12.129 -0.1817 -0.0015  0.6976
  416MPD2    C1 6258   1.704   1.102  12.013 -0.6190 -0.4543  0.9708
  416MPD2    C2 6259   1.762   0.997  11.944 -0.9110  0.4790 -0.1150
  416MPD2    C3 6260   1.884   0.944  11.986  0.0477  0.4215 -0.2604
  416MPD2    C4 6261   1.938   0.981  12.101  0.5342  0.5076  0.5136
  416MPD2    C5 6262   1.877   1.072  12.181 -0.1940 -0.2785 -0.6371
  416MPD2     H 6263   1.710   0.949  11.862 -0.8710 -1.7410  1.1937
  416MPD2    H1 6264   2.028   0.929  12.132 -0.1590 -1.4117 -0.6765
  416MPD2    H2 6265   1.731   1.224  12.186 -0.6376  0.8419 -0.8564
  416MPD2    H3 6266   1.923   1.107  12.273  1.1791 -0.1868 -1.3515
  416MPD2     N 6267   1.940   0.836  11.918  0.4059 -0.3224 -0.1816
  416MPD2    H5 6268   2.024   0.801  11.964  0.1013 -1.2455 -0.3422
  416MPD2    N1 6269   1.574   1.160  11.985  0.1565  0.6144 -0.2960
  416MPD2    H7 6270   1.528   1.216  12.056 -0.9998 -1.1190  0.3137
  417TMC3    C1 6271   1.390   1.222  11.856  0.0729  0.1566  0.7458
  417TMC3    C2 6272   1.347   1.294  11.965  0.2580  0.2913  0.3208
  417TMC3    C3 6273   1.296   1.424  11.944  0.5903 -0.2807  0.4075
  417TMC3    C4 6274   1.368   1.273  11.728  0.0193 -0.0250  0.6868
  417TMC3    C5 6275   1.334   1.402  11.713  0.4428  0.5115 -0.1883
  417TMC3    C6 6276   1.299   1.486  11.815 -0.0653  0.2217 -0.6048
  417TMC3     C 6277   1.509   1.144  11.868  0.4207 -0.5353 -0.2070
  417TMC3     O 6278   1.538   1.079  11.769 -0.4356 -0.0093  0.5829
  417TMC3     H 6279   1.336   1.264  12.069 -2.6762 -0.9652 -0.3576
  417TMC3    H1 6280   1.405   1.216  11.644  2.7950  0.1344  1.8219
  417TMC3    H2 6281   1.274   1.590  11.798 -0.8983 -0.3307 -2.7519
  417TMC3    C7 6282   1.239   1.429  11.610 -0.2458 -0.5486 -0.4638
  417TMC3    C8 6283   1.197   1.470  12.043  0.4636  0.4330 -0.7462
  417TMC3    O1 6284   1.207   1.544  11.589 -0.0458 -0.3477  0.3020
  417TMC3    O2 6285   1.229   1.454  12.161 -0.0392 -0.8278 -0.0595
  418TMC3    C1 6286   1.003   3.398   0.721  0.6626  0.4077 -0.2732
  418TMC3    C2 6287   0.906   3.382   0.627 -0.4251 -0.2354 -0.7227
  418TMC3    C3 6288   0.815   3.284   0.647  0.0389  0.0235 -0.2433
  418TMC3    C4 6289   1.005   3.320   0.836 -0.2137 -0.7110 -0.8085
  418TMC3    C5 6290   0.905   3.225   0.859  0.9438 -0.6896 -0.2412
  418TMC3    C6 6291   0.809   3.208   0.761 -0.0345 -0.0386  0.0688
  418TMC3     C 6292   1.126   3.455   0.672  0.2552 -0.2833  0.2415
  418TMC3     O 6293   1.119   3.534   0.579 -0.1442 -0.1188  0.2921
  418TMC3     H 6294   0.917   3.420   0.526 -3.9486  0.6607 -0.7597
  418TMC3    H1 6295   1.079   3.341   0.912 -0.2514  0.2253 -1.0281
  418TMC3    H2 6296   0.731   3.135   0.774 -1.6723  1.6861 -0.0448
  418TMC3    C7 6297   0.940   3.114   0.941  0.9695 -0.2741 -0.1615
  418TMC3    C8 6298   0.774   3.209   0.530 -0.4900  0.6990 -0.1585
  418TMC3    O1 6299   0.896   3.008   0.902  0.3193  0.0591  0.0651
  418TMC3    O2 6300   0.760   3.278   0.428 -0.0659 -0.1344 -0.3262
  419MPD2     C 6301   3.172   0.926  12.917  0.2310  0.4476  0.1097
  419MPD2    C1 6302   3.145   1.059  12.879  0.4008  0.1647  0.3984
  419MPD2    C2 6303   3.174   1.155  12.976  0.7537  0.1938 -0.1699
  419MPD2    C3 6304   3.194   1.117  13.114  0.8940  0.4712  0.5377
  419MPD2    C4 6305   3.217   0.984  13.139 -0.5160  0.0327 -0.3954
  419MPD2    C5 6306   3.212   0.893  13.045  0.6859  0.6984  0.0534
  419MPD2     H 6307   3.160   1.262  12.962 -0.5627 -0.0022 -0.3855
  419MPD2    H1 6308   3.246   0.952  13.238 -1.6566 -3.3698 -1.1709
  419MPD2    H2 6309   3.156   0.842  12.852  1.2329 -0.6132  1.2278
  419MPD2    H3 6310   3.223   0.786  13.059  1.1099  0.7145 -0.1676
  419MPD2     N 6311   3.205   1.225  13.206 -0.0648 -0.2218 -0.0677
  419MPD2    H5 6312   3.183   1.317  13.168  0.9123 -1.0631 -2.5902
  419MPD2    N1 6313   3.116   1.114  12.745  0.8441 -0.3306 -0.2079
  419MPD2    H7 6314   3.114   1.215  12.738 -0.4831 -0.5092 -2.2180
  420TMC3    C1 6315   3.269   1.341  13.403 -0.2415 -0.3729  0.1799
  420TMC3    C2 6316   3.209   1.453  13.342  0.2035 -0.0102  0.8794
  420TMC3    C3 6317   3.226   1.575  13.404 -0.5464  0.4749  0.5379
  420TMC3    C4 6318   3.342   1.353  13.509 -0.4513 -0.1063  0.2100
  420TMC3    C5 6319   3.356   1.480  13.570 -0.5018  0.3845  0.4078
  420TMC3    C6 6320   3.303   1.590  13.516  0.0242 -0.1226  0.4199
  420TMC3     C 6321   3.248   1.213  13.334 -0.7280  0.6271 -0.5380
  420TMC3     O 6322   3.288   1.113  13.387 -0.2068  0.4013  0.1987
  420TMC3     H 6323   3.136   1.449  13.262  1.0082  0.1684  0.1363
  420TMC3    H1 6324   3.367   1.269  13.573 -0.1189 -1.8164 -2.1825
  420TMC3    H2 6325   3.336   1.687  13.549  0.2852 -0.5404  1.3783
  420TMC3    C7 6326   3.426   1.494  13.701  0.0160 -0.2975 -0.5969
  420TMC3    C8 6327   3.206   1.691  13.318 -0.3581  0.3047 -0.0178
  420TMC3    O1 6328   3.516   1.407  13.708 -0.6617 -0.0484  0.0735
  420TMC3    O2 6329   3.303   1.766  13.312 -0.5945  0.5274  0.1055
  421TMC3    C1 6330   0.318   3.362  13.939  0.2354 -0.6932 -0.2010
  421TMC3    C2 6331   0.368   3.483  13.972 -0.0219 -0.6346  0.4597
  421TMC3    C3 6332   0.491   3.502  14.029  1.2462  0.3242 -0.5808
  421TMC3    C4 6333   0.402   3.251  13.953 -0.0037  0.5396  0.6070
  421TMC3    C5 6334   0.520   3.275  14.019  0.0957 -0.1216  0.0146
  421TMC3    C6 6335   0.558   3.392  14.064 -0.0742  0.1064 -0.3045
  421TMC3     C 6336   0.216   3.361  13.835  0.3761  0.5878 -0.0196
  421TMC3     O 6337   0.180   3.466  13.784 -0.4305 -0.5492 -0.5611
  421TMC3     H 6338   0.311   3.571  13.947  1.0918  0.3448  1.4077
  421TMC3    H1 6339   0.379   3.157  13.905 -0.4091 -1.0411  3.9108
  421TMC3    H2 6340   0.663   3.399  14.092  0.2773  0.1741 -1.6442
  421TMC3    C7 6341   0.610   3.172  14.061 -0.6712 -0.7950 -0.1205
  421TMC3    C8 6342   0.565   3.628  14.040 -0.3941 -0.0246 -0.0664
  421TMC3    O1 6343   0.727   3.197  14.075  0.1790 -0.3541 -0.0035
  421TMC3    O2 6344   0.682   3.616  14.070  0.0613  0.4432  0.3528
  422TMC3    C1 6345   2.789   4.295  12.676 -0.8131  0.4866 -0.1991
  422TMC3    C2 6346   2.763   4.345  12.794  0.0622  0.4229  0.3185
  422TMC3    C3 6347   2.642   4.348  12.849  0.2827 -0.3276 -0.4924
  422TMC3    C4 6348   2.691   4.214  12.616  0.0329  0.2369 -0.1216
  422TMC3    C5 6349   2.566   4.205  12.676  0.0267 -0.0499  0.1825
  422TMC3    C6 6350   2.541   4.274  12.794  0.5448  0.2116  0.1244
  422TMC3     C 6351   2.902   4.343  12.611  0.4627 -0.5187  0.3798
  422TMC3     O 6352   2.964   4.431  12.663 -0.1975 -0.1074  0.3159
  422TMC3     H 6353   2.849   4.384  12.847 -0.0151  0.4798  0.4025
  422TMC3    H1 6354   2.711   4.178  12.516  0.8623 -0.7884  0.4172
  422TMC3    H2 6355   2.436   4.277  12.819  1.4144  0.6124  3.7276
  422TMC3    C7 6356   2.453   4.144  12.608  0.7070  0.1648  0.3408
  422TMC3    C8 6357   2.618   4.462  12.937 -0.4544 -0.0156  0.2456
  422TMC3    O1 6358   2.470   4.123  12.489  0.0784  0.1902 -0.2076
  422TMC3    O2 6359   2.721   4.512  12.982  0.6075  0.4126  0.5387
  423MPD2     C 6360   4.590   4.399   0.864  0.0707 -0.7720 -0.1498
  423MPD2    C1 6361   4.468   4.452   0.845  0.1893 -0.1002 -0.4980
  423MPD2    C2 6362   4.408   4.451   0.719  0.3391 -0.1710  0.3032
  423MPD2    C3 6363   4.477   4.381   0.618 -0.5269  0.0497 -0.1162
  423MPD2    C4 6364   4.592   4.314   0.644  0.4959  0.0156  0.9753
  423MPD2    C5 6365   4.652   4.326   0.765  0.4268 -0.8727  0.5391
  423MPD2     H 6366   4.311   4.498   0.702  1.2509  1.8904  0.8910
  423MPD2    H1 6367   4.636   4.257   0.563 -0.5676  0.8282 -0.1941
  423MPD2    H2 6368   4.639   4.407   0.961 -0.5257  1.9456 -0.0571
  423MPD2    H3 6369   0.015   4.286   0.781  0.5570 -0.9676 -0.5539
  423MPD2     N 6370   4.433   4.390   0.488  0.4442  0.5657  0.6213
  423MPD2    H5 6371   4.488   4.338   0.420 -2.0046 -0.0950 -0.8353
  423MPD2    N1 6372   4.417   4.533   0.951 -0.4028 -0.0412 -0.1150
  423MPD2    H7 6373   4.480   4.566   1.024  1.2762 -2.7326 -0.3198
  424TMC3    C1 6374   4.307   0.001   1.001 -0.3670  0.7715  0.7748
  424TMC3    C2 6375   4.433   0.058   1.014 -0.1639 -0.0739 -0.4295
  424TMC3    C3 6376   4.447   0.164   1.095  0.0339 -0.2624  0.2646
  424TMC3    C4 6377   4.197   0.059   1.055 -0.4229 -0.1179  0.3520
  424TMC3    C5 6378   4.218   0.162   1.142  0.7935  0.1838  0.0293
  424TMC3    C6 6379   4.343   0.224   1.159 -0.5562  0.2359 -0.2785
  424TMC3     C 6380   4.297   4.602   0.951  0.2717  1.0451  0.1397
  424TMC3     O 6381   4.187   4.567   0.905  0.1481 -0.1614  0.1563
  424TMC3     H 6382   4.524   0.019   0.971 -0.1066 -0.7962  0.3374
  424TMC3    H1 6383   4.106   4.737   1.055  0.4096 -1.3939  0.2015
  424TMC3    H2 6384   4.355   0.317   1.213 -0.6301  0.0927 -0.0126
  424TMC3    C7 6385   4.116   0.207   1.236 -1.0348  0.3991 -0.7905
  424TMC3    C8 6386   4.581   0.218   1.103  0.3567 -0.4588 -0.1527
  424TMC3    O1 6387   4.148   0.247   1.347 -0.3729 -0.0760 -0.4907
  424TMC3    O2 6388   4.644   0.221   0.997  0.2754  0.8031  0.2819
  425MPD2     C 6389   3.575   4.316   0.060  0.1648  0.4458  0.6806
  425MPD2    C1 6390   3.538   4.226  17.707 -1.1357 -0.0646 -0.3544
  425MPD2    C2 6391   3.403   4.245  17.665 -1.3473  0.6792 -0.3536
  425MPD2    C3 6392   3.313   4.337  17.724 -0.3025  0.0161  0.3316
  425MPD2    C4 6393   3.361   4.424   0.067 -0.3645 -0.2103 -0.2314
  425MPD2    C5 6394   3.487   4.400   0.118  0.4509  0.0172  0.1067
  425MPD2     H 6395   3.361   4.184  17.586  0.1965  2.5968 -2.6649
  425MPD2    H1 6396   3.305   4.500   0.120  3.1381  0.8068  1.9983
  425MPD2    H2 6397   3.678   4.333   0.088 -0.0636  0.2609  1.6516
  425MPD2    H3 6398   3.521   4.455   0.205  1.2971  1.1196 -0.9262
  425MPD2     N 6399   3.181   4.342  17.676  0.2314 -0.8180  0.0846
  425MPD2    H5 6400   3.155   4.273  17.606  0.1784 -0.8903  0.1753
  425MPD2    N1 6401   3.624   4.132  17.660  0.6727 -0.0538  0.4136
  425MPD2    H7 6402   3.708   4.116  17.714  0.5025 -0.9831  0.3917
  426TMC3    C1 6403   3.695   3.964  17.500 -0.2632  0.3350  0.3488
  426TMC3    C2 6404   3.663   3.883  17.389 -0.4048 -0.3288 -0.3015
  426TMC3    C3 6405   3.714   3.755  17.375 -0.1398  0.0738  0.3791
  426TMC3    C4 6406   3.777   3.909  17.599 -0.0192 -0.1522 -0.1175
  426TMC3    C5 6407   3.813   3.775  17.583 -0.0790  0.1100  0.4029
  426TMC3    C6 6408   3.803   3.707  17.464  0.2986  0.6222  0.1853
  426TMC3     C 6409   3.608   4.075  17.531  0.0197  0.3464  0.6550
  426TMC3     O 6410   3.540   4.115  17.440  0.1074 -0.2011 -0.4259
  426TMC3     H 6411   3.600   3.924  17.311  0.6481 -0.3506 -1.1617
  426TMC3    H1 6412   3.797   3.945  17.699 -2.0133 -0.4050  0.3833
  426TMC3    H2 6413   3.838   3.605  17.454  0.2916  0.8729 -2.2665
  426TMC3    C7 6414   3.837   3.697  17.704 -0.6992 -0.2161 -0.4363
  426TMC3    C8 6415   3.648   3.657  17.288  0.0906  0.4327  0.0930
  426TMC3    O1 6416   3.895   3.761   0.044  0.1914 -0.0654  0.5054
  426TMC3    O2 6417   3.710   3.568  17.233 -0.2640  0.0615  0.6071
  427MPD2     C 6418   1.458   1.199  15.185  0.0943  0.5544  0.7656
  427MPD2    C1 6419   1.563   1.279  15.231  0.7500  0.1853 -0.8425
  427MPD2    C2 6420   1.551   1.416  15.245 -0.1827  0.0743  1.1754
  427MPD2    C3 6421   1.434   1.472  15.196 -0.1967 -0.8152  0.0741
  427MPD2    C4 6422   1.344   1.395  15.139 -0.1022  0.3359  0.1496
  427MPD2    C5 6423   1.349   1.258  15.134 -0.0419 -0.2259  0.0092
  427MPD2     H 6424   1.628   1.472  15.297  1.3160 -0.9005 -0.0007
  427MPD2    H1 6425   1.262   1.443  15.087 -0.6575 -2.7141 -1.7708
  427MPD2    H2 6426   1.453   1.091  15.183  2.2608  0.4399  0.7899
  427MPD2    H3 6427   1.273   1.195  15.089 -0.3450 -0.6919  1.1729
  427MPD2     N 6428   1.406   1.612  15.206 -0.4980 -0.1766 -0.3802
  427MPD2    H5 6429   1.334   1.647  15.144  0.5463  0.9349 -0.9587
  427MPD2    N1 6430   1.688   1.219  15.273  0.3744 -0.4677  0.6171
  427MPD2    H7 6431   1.758   1.293  15.280 -1.5185  1.3093  0.7810
  428TMC3    C1 6432   1.873   1.072  15.249  1.1433 -0.1460  0.0433
  428TMC3    C2 6433   1.913   0.946  15.264 -0.0442  0.0556  0.4110
  428TMC3    C3 6434   2.046   0.918  15.279  0.1030 -0.1758  0.4957
  428TMC3    C4 6435   1.964   1.169  15.226 -0.5347 -0.2302  0.3168
  428TMC3    C5 6436   2.100   1.137  15.222  0.2004  0.1204  1.1092
  428TMC3    C6 6437   2.141   1.014  15.264 -0.2635 -0.9809 -0.1068
  428TMC3     C 6438   1.726   1.092  15.255 -0.1150  0.0680 -0.3649
  428TMC3     O 6439   1.664   0.991  15.249 -0.2326 -0.0527 -0.0595
  428TMC3     H 6440   1.834   0.876  15.288 -0.0151  0.4496  1.6599
  428TMC3    H1 6441   1.921   1.266  15.203  1.0075  0.4201  0.1364
  428TMC3    H2 6442   2.245   0.984  15.255 -0.0493  0.4950 -2.2464
  428TMC3    C7 6443   2.200   1.246  15.211 -0.4433 -0.4579  0.2617
  428TMC3    C8 6444   2.070   0.793  15.350 -0.9550  0.2181  0.4457
  428TMC3    O1 6445   2.156   1.357  15.231  0.0027 -0.1276 -0.4047
  428TMC3    O2 6446   1.977   0.720  15.341  0.1072  0.3196 -0.3081
  429MPD2     C 6447   3.345   1.977   0.239  0.4536  0.4015  0.0914
  429MPD2    C1 6448   3.402   1.876   0.172 -0.7535  0.0159 -0.4509
  429MPD2    C2 6449   3.484   1.908   0.068  0.0219  0.3091 -0.4627
  429MPD2    C3 6450   3.502   2.038   0.034 -0.6312 -0.4516 -0.0393
  429MPD2    C4 6451   3.452   2.140   0.110 -0.2765 -0.7113  0.8857
  429MPD2    C5 6452   3.373   2.109   0.208 -0.0469 -0.1424  0.2118
  429MPD2     H 6453   3.526   1.823   0.015 -0.7797 -0.0477 -0.5270
  429MPD2    H1 6454   3.469   2.246   0.093 -0.8995 -0.3842  2.2807
  429MPD2    H2 6455   3.271   1.948   0.312 -1.0500  0.8941 -1.2431
  429MPD2    H3 6456   3.322   2.185   0.266  2.3871  0.2771  1.8391
  429MPD2     N 6457   3.585   2.063  17.672 -0.0416  0.7646  0.5852
  429MPD2    H5 6458   3.635   1.987  17.627 -2.4928  1.2122 -2.8907
  429MPD2    N1 6459   3.377   1.739   0.205 -0.0531  0.8032  0.0939
  429MPD2    H7 6460   3.438   1.666   0.171  0.9543  0.7260  2.0479
  430TMC3    C1 6461   3.692   2.181  17.485 -0.9225  0.4613  0.0194
  430TMC3    C2 6462   3.684   2.285  17.393  0.0140  0.2220 -0.6388
  430TMC3    C3 6463   3.757   2.270  17.280  0.1624  0.9943 -0.2188
  430TMC3    C4 6464   3.775   2.079  17.473  0.6554 -0.7661 -0.0317
  430TMC3    C5 6465   3.846   2.068  17.357 -0.2523  0.8973 -0.2442
  430TMC3    C6 6466   3.831   2.155  17.256  0.9728  0.1128 -0.1253
  430TMC3     C 6467   3.606   2.186  17.604 -0.0684  0.1085  0.7130
  430TMC3     O 6468   3.567   2.299  17.627 -0.3858  0.3120  0.0467
  430TMC3     H 6469   3.633   2.378  17.415  2.3034  1.5135 -0.7462
  430TMC3    H1 6470   3.805   2.031  17.565  2.5374  0.8720  0.2062
  430TMC3    H2 6471   3.889   2.153  17.164 -0.4793 -1.2652 -1.0068
  430TMC3    C7 6472   3.860   1.928  17.326 -0.6503 -0.0791 -0.7987
  430TMC3    C8 6473   3.686   2.316  17.162  0.2246 -0.7204  0.4674
  430TMC3    O1 6474   3.845   1.855  17.422 -0.1458  0.4671  0.0817
  430TMC3    O2 6475   3.696   2.241  17.067 -0.0578  0.0713  0.2881
  431MPD2     C 6476   3.479   1.688  12.980 -0.0773  0.6224 -0.2695
  431MPD2    C1 6477   3.560   1.655  12.869 -0.3505 -0.2896 -0.0097
  431MPD2    C2 6478   3.505   1.571  12.777 -0.0695 -0.4767 -0.3824
  431MPD2    C3 6479   3.389   1.488  12.792  0.2570 -0.3498 -0.5406
  431MPD2    C4 6480   3.316   1.524  12.904  0.1372 -0.2311 -0.4540
  431MPD2    C5 6481   3.355   1.619  12.992  0.6811  1.1025 -0.2868
  431MPD2     H 6482   3.574   1.547  12.697 -0.2270 -1.5960 -0.1818
  431MPD2    H1 6483   3.220   1.477  12.923  0.0879 -0.3399 -0.9912
  431MPD2    H2 6484   3.504   1.757  13.060  2.5957  1.2194 -1.5907
  431MPD2    H3 6485   3.291   1.639  13.078 -1.0271 -3.1150 -0.5698
  431MPD2     N 6486   3.343   1.401  12.689  0.3878  0.0399  0.1632
  431MPD2    H5 6487   3.256   1.356  12.717 -0.3317  1.1933 -0.2122
  431MPD2    N1 6488   3.686   1.708  12.851 -0.9689 -0.8258 -0.2552
  431MPD2    H7 6489   3.736   1.687  12.765  0.2779  2.1043 -0.2258
  432TMC3    C1 6490   3.337   1.264  12.499  0.9841 -0.1511 -0.0190
  432TMC3    C2 6491   3.415   1.180  12.424  0.4732 -0.5613 -0.2411
  432TMC3    C3 6492   3.352   1.065  12.387  0.5941  0.5183  0.8398
  432TMC3    C4 6493   3.215   1.232  12.544 -0.2452  0.1242 -0.5471
  432TMC3    C5 6494   3.161   1.108  12.518  0.3983 -0.2112 -0.0505
  432TMC3    C6 6495   3.231   1.026  12.435 -0.8216 -0.5865 -0.5214
  432TMC3     C 6496   3.411   1.362  12.578  0.5593 -0.1407 -0.6578
  432TMC3     O 6497   3.513   1.411  12.528  0.3226 -0.1887 -0.1187
  432TMC3     H 6498   3.517   1.201  12.395 -0.1149  1.7135 -0.6759
  432TMC3    H1 6499   3.140   1.308  12.565  0.2172  0.1591  0.9524
  432TMC3    H2 6500   3.199   0.923  12.422 -1.2496 -0.2590 -2.0014
  432TMC3    C7 6501   3.113   1.040  12.631  0.0156 -0.0088  0.6726
  432TMC3    C8 6502   3.405   0.974  12.289  0.0918  0.0457  0.0358
  432TMC3    O1 6503   3.126   0.919  12.625 -0.3876  0.0037  0.2650
  432TMC3    O2 6504   3.325   0.906  12.229 -0.0494 -0.1365  0.2763
  433MPD2     C 6505   2.585   0.304  11.167  0.1427 -0.1052  0.8470
  433MPD2    C1 6506   2.578   0.177  11.224  0.2663  0.3614  0.0570
  433MPD2    C2 6507   2.613   0.154  11.361 -0.1489  0.1161 -0.5676
  433MPD2    C3 6508   2.664   0.263  11.432  0.2861 -0.0196  0.1703
  433MPD2    C4 6509   2.651   0.390  11.379  0.5279  0.1683  0.2802
  433MPD2    C5 6510   2.615   0.413  11.248 -0.2624 -0.1466  0.3274
  433MPD2     H 6511   2.603   0.062  11.418  0.5385 -0.9123 -2.1135
  433MPD2    H1 6512   2.673   0.479  11.437  0.2483  0.6387 -0.3342
  433MPD2    H2 6513   2.546   0.323  11.068  1.1762 -0.6187  0.3430
  433MPD2    H3 6514   2.612   0.515  11.212 -1.5743 -0.2803  0.0530
  433MPD2     N 6515   2.724   0.234  11.553 -0.2781 -0.1572 -0.0265
  433MPD2    H5 6516   2.720   0.138  11.584 -1.6019 -0.3972 -0.9248
  433MPD2    N1 6517   2.550   0.075  11.134 -0.3034 -0.3326  0.3737
  433MPD2    H7 6518   2.520   0.104  11.042 -1.0266 -0.7129  0.4862
  434TMC3    C1 6519   2.513   4.588  11.068 -0.3350  0.0275  0.0128
  434TMC3    C2 6520   2.539   4.466  11.111 -0.0360  0.2335 -0.0011
  434TMC3    C3 6521   2.617   4.378  11.038 -0.2679  0.7238 -0.1224
  434TMC3    C4 6522   2.539   4.626  10.942 -0.4914 -0.0754  0.1056
  434TMC3    C5 6523   2.593   4.534  10.860  0.5003  0.8264 -0.4902
  434TMC3    C6 6524   2.660   4.415  10.912  0.0173 -0.5366  1.2336
  434TMC3     C 6525   2.511   4.687  11.176 -0.9086  0.0861  0.6468
  434TMC3     O 6526   2.476   4.651  11.285 -0.5180 -0.3534  0.6738
  434TMC3     H 6527   2.510   4.443  11.213 -2.4917  1.5689 -0.4104
  434TMC3    H1 6528   2.530   4.730  10.914  0.2784  0.0553  0.3557
  434TMC3    H2 6529   2.716   4.345  10.852 -1.4947 -0.3265 -0.4410
  434TMC3    C7 6530   2.626   4.582  10.730 -0.7099  0.4018 -0.5596
  434TMC3    C8 6531   2.676   4.270  11.118 -0.8118 -0.5588  0.3233
  434TMC3    O1 6532   2.693   4.682  10.733  0.5760  0.3483  0.0478
  434TMC3    O2 6533   2.633   4.263  11.235  0.7510  0.7500  0.3728
  435MPD2     C 6534   0.304   0.552  15.681 -0.3558 -0.3683  0.3226
  435MPD2    C1 6535   0.267   0.516  15.810  0.4247  0.0419 -0.4697
  435MPD2    C2 6536   0.356   0.446  15.889 -0.1238  0.5219  0.8688
  435MPD2    C3 6537   0.480   0.415  15.851 -0.0514  0.4833 -0.1156
  435MPD2    C4 6538   0.516   0.443  15.720 -1.2231 -1.0077  0.0129
  435MPD2    C5 6539   0.430   0.513  15.638  0.7172  0.6040  0.0620
  435MPD2     H 6540   0.331   0.414  15.990 -0.0017  3.3760  1.7809
  435MPD2    H1 6541   0.614   0.416  15.682 -0.9206  1.5089 -0.9542
  435MPD2    H2 6542   0.243   0.612  15.614  0.9773  1.2559  0.5615
  435MPD2    H3 6543   0.467   0.543  15.541 -0.4841  2.5810  0.2215
  435MPD2     N 6544   0.567   0.359  15.950 -0.1662 -0.7885  0.2133
  435MPD2    H5 6545   0.530   0.348  16.044  2.2754  0.9175  1.3854
  435MPD2    N1 6546   0.144   0.546  15.870  0.3531  0.5490  0.1343
  435MPD2    H7 6547   0.132   0.516  15.966 -0.1877 -0.6613 -0.3065
  436TMC3    C1 6548   4.615   0.742  16.113 -0.7184  0.7528 -0.7795
  436TMC3    C2 6549   4.709   0.676  16.040 -0.1741  0.4227 -1.3458
  436TMC3    C3 6550   4.675   0.646  15.912  0.3876  0.1139  0.1812
  436TMC3    C4 6551   4.491   0.786  16.069  0.3392 -0.1828  0.4877
  436TMC3    C5 6552   4.469   0.742  15.941 -0.7528 -0.4595 -0.4429
  436TMC3    C6 6553   4.560   0.671  15.861  0.2705 -0.6751 -0.5524
  436TMC3     C 6554   4.646   0.770  16.252 -0.4185  0.0489  0.4556
  436TMC3     O 6555   0.025   0.767  16.285 -0.2360  0.7069 -0.5049
  436TMC3     H 6556   0.069   0.662  16.086 -0.2586 -1.0534 -1.6227
  436TMC3    H1 6557   4.427   0.848  16.131  0.4289  0.6312 -0.2383
  436TMC3    H2 6558   4.535   0.650  15.758 -2.5254 -0.6242  0.1010
  436TMC3    C7 6559   4.335   0.775  15.887 -0.3028 -0.0367  1.1539
  436TMC3    C8 6560   0.040   0.614  15.816 -0.8917 -0.3507 -0.7848
  436TMC3    O1 6561   4.318   0.785  15.769  0.7061  0.2806  0.0594
  436TMC3    O2 6562   0.026   0.654  15.700 -0.2981  0.1285 -0.3449
  437TMC3    C1 6563   3.060   2.094  13.499 -0.4773  0.1828  0.4147
  437TMC3    C2 6564   2.922   2.066  13.497  0.3038 -0.4712  0.9160
  437TMC3    C3 6565   2.857   2.113  13.388  0.3768 -0.5935  0.2929
  437TMC3    C4 6566   3.119   2.174  13.405 -0.3342 -0.2508 -0.2091
  437TMC3    C5 6567   3.046   2.207  13.294 -0.0316  0.6119  0.1652
  437TMC3    C6 6568   2.917   2.167  13.277  0.0205 -0.0448  0.0505
  437TMC3     C 6569   3.137   2.045  13.620  0.2511  0.0298  0.0139
  437TMC3     O 6570   3.086   1.978  13.707  0.8837  0.6541  0.1270
  437TMC3     H 6571   2.872   2.013  13.577 -0.6416 -1.0365 -0.0556
  437TMC3    H1 6572   3.220   2.211  13.422 -0.4084 -1.0552  2.0255
  437TMC3    H2 6573   2.866   2.180  13.183 -0.8958 -1.2259  0.3851
  437TMC3    C7 6574   3.086   2.315  13.204  0.2966 -0.0475  0.3370
  437TMC3    C8 6575   2.729   2.068  13.363 -0.1848 -0.1627  0.3110
  437TMC3    O1 6576   3.003   2.372  13.139  0.2752  0.4261  0.0504
  437TMC3    O2 6577   2.701   1.957  13.407 -0.1815 -0.4499 -0.3961
  438MPD2     C 6578   1.309   3.783  16.715  0.2696 -0.2955  0.5722
  438MPD2    C1 6579   1.338   3.663  16.777 -0.0026  0.3596  0.2413
  438MPD2    C2 6580   1.307   3.651  16.913  0.0058 -0.1401 -0.1190
  438MPD2    C3 6581   1.244   3.758  16.979  0.4664  0.0840  0.3877
  438MPD2    C4 6582   1.212   3.874  16.911 -0.9612  0.0994 -0.1165
  438MPD2    C5 6583   1.253   3.883  16.782  0.0833 -0.2108  0.4881
  438MPD2     H 6584   1.346   3.565  16.966 -0.6196 -0.3640 -0.0237
  438MPD2    H1 6585   1.168   3.960  16.960 -1.5693 -1.0055  1.3080
  438MPD2    H2 6586   1.330   3.804  16.611 -0.3803 -0.8760  0.3231
  438MPD2    H3 6587   1.244   3.972  16.721  1.1777 -0.6357 -0.2980
  438MPD2     N 6588   1.201   3.741  17.110 -0.1955  0.5478 -0.7634
  438MPD2    H5 6589   1.124   3.799  17.142  0.1526  0.5437  0.0787
  438MPD2    N1 6590   1.394   3.548  16.723 -0.3907 -0.0533  0.1205
  438MPD2    H7 6591   1.407   3.468  16.784  1.2027  0.2154  0.1341
  439TMC3    C1 6592   1.448   3.390  16.569  0.3090  0.1939  0.3688
  439TMC3    C2 6593   1.410   3.343  16.441 -0.3352 -0.2744  0.7673
  439TMC3    C3 6594   1.365   3.212  16.430  0.4652 -0.0042  0.3785
  439TMC3    C4 6595   1.463   3.307  16.677 -0.6891 -0.2979  0.4432
  439TMC3    C5 6596   1.430   3.181  16.658  0.5293 -0.0784  0.2047
  439TMC3    C6 6597   1.381   3.127  16.538  0.5327 -0.2203 -0.1654
  439TMC3     C 6598   1.424   3.530  16.589  0.2021 -0.0802 -0.6577
  439TMC3     O 6599   1.389   3.598  16.495  0.0515  0.3923 -0.1453
  439TMC3     H 6600   1.386   3.413  16.362 -0.2079 -2.2204 -1.0055
  439TMC3    H1 6601   1.521   3.334  16.764  0.9847 -1.9219 -0.1843
  439TMC3    H2 6602   1.341   3.026  16.546  0.0188  0.1800  2.2612
  439TMC3    C7 6603   1.527   3.093  16.717 -0.4470  0.1737 -0.3034
  439TMC3    C8 6604   1.401   3.138  16.312 -0.6732  0.2390 -0.2038
  439TMC3    O1 6605   1.582   3.121  16.822  0.2620  0.8053  0.4319
  439TMC3    O2 6606   1.423   3.020  16.330  0.7901 -0.5560  0.4905
  440MPD2     C 6607   0.449   3.767  15.265 -0.2963 -0.4852 -0.2495
  440MPD2    C1 6608   0.340   3.684  15.258 -0.3884 -0.1112 -0.2038
  440MPD2    C2 6609   0.351   3.551  15.301  0.9933  0.3196 -0.3296
  440MPD2    C3 6610   0.456   3.514  15.373 -0.0617 -0.0805  0.2728
  440MPD2    C4 6611   0.562   3.594  15.378  1.3412  0.2622  0.5682
  440MPD2    C5 6612   0.561   3.718  15.324  0.2084  0.7619  0.3004
  440MPD2     H 6613   0.256   3.500  15.302  0.6988  0.8778  0.7417
  440MPD2    H1 6614   0.646   3.569  15.442  0.4855 -0.5372  1.3723
  440MPD2    H2 6615   0.443   3.872  15.237 -1.4948 -0.2229  0.9876
  440MPD2    H3 6616   0.648   3.783  15.327 -0.8376  1.9971  3.1112
  440MPD2     N 6617   0.469   3.390  15.442  0.5857  0.2507  0.3410
  440MPD2    H5 6618   0.559   3.385  15.488  0.7011 -0.6171  0.0293
  440MPD2    N1 6619   0.215   3.720  15.210  0.2081  0.0847 -0.0175
  440MPD2    H7 6620   0.139   3.653  15.212  0.6235 -0.4592 -3.0415
  441TMC3    C1 6621   0.425   3.174  15.513 -0.0295  0.0940 -0.4137
  441TMC3    C2 6622   0.561   3.178  15.533  0.2484 -0.3662 -0.3145
  441TMC3    C3 6623   0.628   3.116  15.632  0.4297  0.0379  0.2181
  441TMC3    C4 6624   0.346   3.093  15.594  0.7005  0.1519 -0.3160
  441TMC3    C5 6625   0.417   3.024  15.695 -0.0762 -0.0287  0.0742
  441TMC3    C6 6626   0.551   3.045  15.723  0.0583 -0.3067  0.2085
  441TMC3     C 6627   0.375   3.283  15.444 -0.0391  0.2942  0.1171
  441TMC3     O 6628   0.259   3.275  15.398 -0.1434 -0.0729 -0.0558
  441TMC3     H 6629   0.632   3.216  15.460 -2.4700  2.0175 -1.7299
  441TMC3    H1 6630   0.240   3.073  15.588  0.7784  0.5164 -2.6223
  441TMC3    H2 6631   0.609   3.011  15.808  0.1521  2.3804  1.2330
  441TMC3    C7 6632   0.336   2.953  15.795 -0.8487 -0.2341  0.5135
  441TMC3    C8 6633   0.714   3.210  15.692  0.0338  0.4307 -0.6985
  441TMC3    O1 6634   0.216   2.975  15.795  0.5474  0.1563  1.1093
  441TMC3    O2 6635   0.826   3.214  15.653  0.4053 -0.0138 -0.0789
  442MPD2     C 6636   2.910   3.752  16.866  0.3763  0.9606  0.3009
  442MPD2    C1 6637   2.948   3.782  16.737 -0.3394  0.9488 -0.1906
  442MPD2    C2 6638   2.963   3.678  16.643 -0.1466 -0.1137 -0.5509
  442MPD2    C3 6639   2.947   3.544  16.685  0.3897 -0.8856 -0.1962
  442MPD2    C4 6640   2.907   3.516  16.811  0.1526 -0.0127 -0.4355
  442MPD2    C5 6641   2.899   3.618  16.900 -0.2931 -0.7981 -0.1106
  442MPD2     H 6642   2.977   3.705  16.539 -0.5226 -0.2686 -0.6438
  442MPD2    H1 6643   2.884   3.414  16.839 -0.3579 -0.1275 -1.2527
  442MPD2    H2 6644   2.892   3.824  16.945 -0.5937  1.0127  0.0339
  442MPD2    H3 6645   2.866   3.594  17.000  0.3267  1.3462  0.6110
  442MPD2     N 6646   2.956   3.428  16.594  0.1826  0.5278  0.3202
  442MPD2    H5 6647   2.928   3.342  16.640 -0.2264  0.5094  0.0361
  442MPD2    N1 6648   2.966   3.912  16.690 -0.8264  0.0549  0.1852
  442MPD2    H7 6649   2.974   3.924  16.589  0.0711  1.2035  0.3994
  443TMC3    C1 6650   2.973   4.142  16.685 -0.4965  0.6415 -0.2025
  443TMC3    C2 6651   2.893   4.142  16.570  0.5135 -0.1049  0.2920
  443TMC3    C3 6652   2.796   4.237  16.545  0.4651 -0.2227 -0.2431
  443TMC3    C4 6653   2.961   4.249  16.770  0.0751  0.6801  0.0130
  443TMC3    C5 6654   2.859   4.342  16.743 -0.4324 -0.3734  0.4097
  443TMC3    C6 6655   2.780   4.336  16.638  0.2678 -0.1984  0.3280
  443TMC3     C 6656   2.962   4.022  16.760 -0.5400 -0.0008 -0.0474
  443TMC3     O 6657   2.947   4.039  16.879 -0.0739  0.3292 -0.0422
  443TMC3     H 6658   2.897   4.059  16.501 -1.9446 -1.0194  1.2441
  443TMC3    H1 6659   3.017   4.258  16.863  1.9794 -0.9718 -0.9712
  443TMC3    H2 6660   2.704   4.413  16.626  0.5013 -0.2815 -1.7458
  443TMC3    C7 6661   2.792   4.386  16.866 -0.1820 -0.7160 -0.4237
  443TMC3    C8 6662   2.671   4.177  16.501 -0.1530 -0.4920 -1.0302
  443TMC3    O1 6663   2.730   4.489  16.868 -1.1872 -0.1760 -0.0767
  443TMC3    O2 6664   2.654   4.061  16.522  0.1425  0.0475 -0.3659
  444MPD2     C 6665   3.269   3.316  17.182 -0.4548 -0.0946 -0.7273
  444MPD2    C1 6666   3.170   3.255  17.106 -0.4065  0.4444 -0.3852
  444MPD2    C2 6667   3.209   3.153  17.025 -0.0513 -0.8345  1.1780
  444MPD2    C3 6668   3.336   3.115  16.995  0.1324  0.6305  0.0642
  444MPD2    C4 6669   3.433   3.195  17.055  0.5137  0.3057 -0.2247
  444MPD2    C5 6670   3.400   3.286  17.153  0.0698  0.1031 -0.0605
  444MPD2     H 6671   3.138   3.093  16.969 -1.0217 -1.5005  3.1287
  444MPD2    H1 6672   3.538   3.198  17.027  0.9070  1.4914  1.3722
  444MPD2    H2 6673   3.254   3.401  17.248  2.2691  0.7457 -1.1874
  444MPD2    H3 6674   3.476   3.351  17.196  3.0423 -2.6095 -1.3006
  444MPD2     N 6675   3.373   3.018  16.897  0.2497 -0.5035 -0.8062
  444MPD2    H5 6676   3.295   2.979  16.844 -1.2123  0.4792  0.6333
  444MPD2    N1 6677   3.031   3.273  17.124 -0.2631 -0.3384  0.0207
  444MPD2    H7 6678   2.976   3.221  17.056 -1.7368 -1.9306  2.4190
  445TMC3    C1 6679   3.511   2.892  16.741  0.1743  1.2271 -0.0500
  445TMC3    C2 6680   3.398   2.854  16.675  0.7034  0.8229 -0.0207
  445TMC3    C3 6681   3.396   2.745  16.597  0.0465 -0.9786  0.8963
  445TMC3    C4 6682   3.627   2.813  16.739 -0.1731 -0.5225 -0.2198
  445TMC3    C5 6683   3.611   2.694  16.670  0.9896  0.2063 -0.6858
  445TMC3    C6 6684   3.499   2.660  16.598 -0.2772  0.4805  0.0200
  445TMC3     C 6685   3.500   2.982  16.855  0.8007  0.1370  0.1820
  445TMC3     O 6686   3.600   3.004  16.918  0.1636 -0.0634 -0.1923
  445TMC3     H 6687   3.313   2.921  16.682  0.6656  0.9265 -1.4727
  445TMC3    H1 6688   3.722   2.845  16.781  0.3498  0.0609 -1.8679
  445TMC3    H2 6689   3.506   2.574  16.533 -1.4931 -0.6782  1.4224
  445TMC3    C7 6690   3.734   2.624  16.622  0.6585  0.7063  0.7257
  445TMC3    C8 6691   3.286   2.733  16.501  0.2998 -0.2323  0.1510
  445TMC3    O1 6692   3.731   2.560  16.516  0.0016  0.4786  0.0216
  445TMC3    O2 6693   3.224   2.838  16.487 -0.0713 -0.2293  0.4551
  446MPD2     C 6694   2.416   4.132  11.749  0.2907  0.2338  0.0384
  446MPD2    C1 6695   2.395   4.122  11.611  0.5638  0.9064 -0.0640
  446MPD2    C2 6696   2.500   4.172  11.537 -0.1869 -0.4731 -0.9953
  446MPD2    C3 6697   2.611   4.227  11.587 -0.3715 -0.0847 -0.0824
  446MPD2    C4 6698   2.618   4.256  11.720  0.4606  0.0666  0.0009
  446MPD2    C5 6699   2.520   4.204  11.799 -0.5589  0.6587 -0.0355
  446MPD2     H 6700   2.492   4.169  11.429  0.2510  0.0750 -1.0388
  446MPD2    H1 6701   2.692   4.319  11.768 -2.8845  3.1856  1.0894
  446MPD2    H2 6702   2.339   4.104  11.820  0.5904 -1.5717 -0.3338
  446MPD2    H3 6703   2.537   4.208  11.906  0.9569  0.6908 -0.2728
  446MPD2     N 6704   2.720   4.265  11.506 -0.6065  0.0371  0.0015
  446MPD2    H5 6705   2.704   4.268  11.406 -0.5417 -2.0085 -0.0558
  446MPD2    N1 6706   2.274   4.072  11.547  0.2264 -0.2460  0.6763
  446MPD2    H7 6707   2.274   4.054  11.447 -2.9912  1.0096  0.4642
  447TMC3    C1 6708   2.924   4.335  11.434 -0.0825  0.1916 -0.4668
  447TMC3    C2 6709   2.875   4.409  11.328 -1.0162 -0.2103  0.4045
  447TMC3    C3 6710   2.958   4.424  11.221  0.2288 -0.5067 -0.5552
  447TMC3    C4 6711   3.057   4.298  11.441  0.1454  0.2633  0.4493
  447TMC3    C5 6712   3.132   4.320  11.334  0.3785  0.2062 -0.3205
  447TMC3    C6 6713   3.086   4.379  11.218  0.5393 -0.5181 -0.3228
  447TMC3     C 6714   2.843   4.283  11.546  0.6811 -0.6981 -0.2595
  447TMC3     O 6715   2.886   4.245  11.656 -0.1600 -0.2996 -0.5789
  447TMC3     H 6716   2.772   4.440  11.320 -0.4906  1.4330 -0.2069
  447TMC3    H1 6717   3.081   4.233  11.525 -1.0776 -1.6620 -0.6901
  447TMC3    H2 6718   3.149   4.408  11.135 -0.6664  2.1973 -0.2957
  447TMC3    C7 6719   3.270   4.279  11.343  0.4444  0.2638 -0.0139
  447TMC3    C8 6720   2.929   4.526  11.124  0.0494 -0.0675  0.2741
  447TMC3    O1 6721   3.318   4.208  11.252  0.0381  0.6692  0.0019
  447TMC3    O2 6722   2.952   4.491  11.006 -0.0968 -1.0648  0.5122
  448TMC3    C1 6723   2.224   0.018  17.290 -0.0993  0.1791  0.0677
  448TMC3    C2 6724   2.236   4.649  17.200  0.3152  0.3477 -0.1530
  448TMC3    C3 6725   2.218   4.520  17.249 -0.1530 -0.0965 -0.0868
  448TMC3    C4 6726   2.199   4.729  17.423 -0.3262  0.2817 -0.1614
  448TMC3    C5 6727   2.175   4.602  17.465 -0.1677  0.1791 -0.3211
  448TMC3    C6 6728   2.164   4.497  17.374  0.3850 -0.6814  0.0724
  448TMC3     C 6729   2.195   0.145  17.231  0.5329  0.3382  0.4560
  448TMC3     O 6730   2.247   0.162  17.118  0.1091 -0.8204  0.3748
  448TMC3     H 6731   2.250   4.660  17.093 -1.5693  1.2176 -0.3132
  448TMC3    H1 6732   2.212   0.079  17.486 -1.1627 -0.3023  0.8243
  448TMC3    H2 6733   2.151   4.395  17.407 -2.6910 -0.3129 -0.0356
  448TMC3    C7 6734   2.161   4.577  17.605 -0.0834  0.2632  0.1899
  448TMC3    C8 6735   2.184   4.423  17.145  0.0579  0.4054  0.3676
  448TMC3    O1 6736   2.203   4.661  17.684 -0.0835  0.0318 -0.0112
  448TMC3    O2 6737   2.119   4.330  17.184 -0.5738 -0.4367  0.0338
  449MPD2     C 6738   2.402   3.284  14.062  0.1829 -0.0903 -0.5336
  449MPD2    C1 6739   2.282   3.232  14.021 -0.5571  0.2910  0.2485
  449MPD2    C2 6740   2.196   3.165  14.104  0.0798  0.4657  0.0659
  449MPD2    C3 6741   2.231   3.149  14.234  0.3787 -0.6171 -0.0326
  449MPD2    C4 6742   2.348   3.204  14.279  0.1952  0.1063 -0.2479
  449MPD2    C5 6743   2.433   3.261  14.191  0.1943 -0.8439 -0.0388
  449MPD2     H 6744   2.105   3.125  14.061 -0.9349  0.8699  1.8544
  449MPD2    H1 6745   2.378   3.201  14.384  2.3009 -0.5776 -0.8559
  449MPD2    H2 6746   2.472   3.341  14.001  1.8980  0.3672  1.8469
  449MPD2    H3 6747   2.533   3.285  14.228  0.1088 -0.1448 -0.2666
  449MPD2     N 6748   2.140   3.084  14.327  0.2053  0.0475  0.0674
  449MPD2    H5 6749   2.051   3.054  14.288 -1.1301 -0.2091  3.3025
  449MPD2    N1 6750   2.243   3.246  13.886 -0.1797  0.0159 -0.4234
  449MPD2    H7 6751   2.144   3.230  13.872 -0.5385  0.5536  1.4431
  450TMC3    C1 6752   2.230   3.262  13.662  0.1032  0.1314  0.0510
  450TMC3    C2 6753   2.253   3.151  13.592  0.1098 -0.0270 -0.2180
  450TMC3    C3 6754   2.142   3.088  13.531  0.2473  0.1048  0.1421
  450TMC3    C4 6755   2.104   3.304  13.685  0.3336 -0.3972 -0.1441
  450TMC3    C5 6756   1.993   3.231  13.647  0.4674  0.2724  0.6397
  450TMC3    C6 6757   2.014   3.126  13.557  0.4738 -0.5800  0.2135
  450TMC3     C 6758   2.322   3.277  13.779 -0.1816  0.3429  0.1460
  450TMC3     O 6759   2.440   3.289  13.765 -0.5386 -0.4281  0.4142
  450TMC3     H 6760   2.351   3.107  13.574  0.4554  0.5844  0.1913
  450TMC3    H1 6761   2.084   3.381  13.759 -0.6498  0.0742 -0.9034
  450TMC3    H2 6762   1.930   3.073  13.511  0.7999 -1.7430  0.9465
  450TMC3    C7 6763   1.919   3.186  13.761 -0.0667  0.4719  0.0952
  450TMC3    C8 6764   2.159   2.997  13.423  0.2799 -0.0401 -0.0306
  450TMC3    O1 6765   1.958   3.228  13.871 -0.1556 -0.3421  0.1648
  450TMC3    O2 6766   2.055   2.952  13.374  0.2471 -0.1844  0.8055
  451MPD2     C 6767   4.564   0.686   1.233 -0.6917  0.2671  0.0036
  451MPD2    C1 6768   4.562   0.781   1.135  0.1559 -0.0513  0.0335
  451MPD2    C2 6769   4.630   0.751   1.018 -0.5311 -0.6695  0.1603
  451MPD2    C3 6770   4.701   0.637   1.003  0.2784  0.6001  0.6619
  451MPD2    C4 6771   4.687   0.536   1.096 -0.0508  0.0753 -0.0291
  451MPD2    C5 6772   4.622   0.562   1.214 -0.0957  0.1124  0.1436
  451MPD2     H 6773   4.632   0.820   0.934 -0.0889  1.1399  1.6571
  451MPD2    H1 6774   4.736   0.440   1.087  3.5895  2.0124 -0.8065
  451MPD2    H2 6775   4.519   0.703   1.331  0.5102  1.3284  0.3669
  451MPD2    H3 6776   4.616   0.481   1.286  0.0952  0.0909  0.1345
  451MPD2     N 6777   0.030   0.605   0.884  0.3171  0.4071  0.2380
  451MPD2    H5 6778   0.055   0.508   0.868 -0.0827 -0.1001  2.6137
  451MPD2    N1 6779   4.481   0.891   1.154  0.6870  0.5354 -0.3719
  451MPD2    H7 6780   4.423   0.889   1.237  0.1723 -3.8835 -0.8572
  452TMC3    C1 6781   0.125   0.647   0.667 -1.2226 -0.3929 -0.5800
  452TMC3    C2 6782   0.045   0.564   0.606 -0.0588  0.3252 -0.1229
  452TMC3    C3 6783   0.050   0.540   0.470 -0.9314  0.0350 -0.0662
  452TMC3    C4 6784   0.211   0.724   0.593 -0.0796 -0.1599  0.3353
  452TMC3    C5 6785   0.213   0.703   0.460 -0.4694 -0.5383  0.4280
  452TMC3    C6 6786   0.138   0.609   0.391 -1.2036 -0.4452  0.2074
  452TMC3     C 6787   0.081   0.705   0.794 -0.4389  0.0412 -0.1300
  452TMC3     O 6788   0.111   0.824   0.816 -0.7286 -0.4659 -0.5242
  452TMC3     H 6789   4.699   0.534   0.668  0.6976  1.3278  1.3628
  452TMC3    H1 6790   0.272   0.795   0.648 -0.2203  0.3718 -0.1939
  452TMC3    H2 6791   0.129   0.601   0.283  1.3311 -1.1717  0.0445
  452TMC3    C7 6792   0.321   0.764   0.389  0.2618  0.0730  0.4961
  452TMC3    C8 6793   4.690   0.439   0.419  0.4991  0.0405  0.3592
  452TMC3    O1 6794   0.376   0.862   0.438  0.0638  0.2868  0.1503
  452TMC3    O2 6795   4.675   0.431   0.296 -0.7061 -0.0262  0.0467
  453TMC3    C1 6796   4.441   3.118  11.818  0.0024 -0.1284 -0.4559
  453TMC3    C2 6797   4.367   3.035  11.901  0.6770  0.9218  0.3741
  453TMC3    C3 6798   4.302   2.931  11.855 -0.0433 -0.0076  0.3573
  453TMC3    C4 6799   4.477   3.084  11.691 -0.5207  0.2733 -0.6484
  453TMC3    C5 6800   4.401   2.977  11.640  0.3349  0.0631 -0.3316
  453TMC3    C6 6801   4.322   2.898  11.722  0.5002  0.1263 -0.0959
  453TMC3     C 6802   4.537   3.215  11.880  0.1660 -0.4009  0.3018
  453TMC3     O 6803   4.632   3.241  11.805  0.0587 -0.1761  0.5390
  453TMC3     H 6804   4.368   3.061  12.007 -2.0413 -0.8318  0.8366
  453TMC3    H1 6805   4.540   3.152  11.636 -0.2485  1.3862  1.0208
  453TMC3    H2 6806   4.282   2.805  11.684  0.8915 -0.4483  0.8949
  453TMC3    C7 6807   4.450   2.929  11.514 -0.0763 -0.2658  0.2987
  453TMC3    C8 6808   4.298   2.819  11.948  0.1152 -0.1054 -0.1037
  453TMC3    O1 6809   4.540   2.991  11.458  0.2552  1.0544  0.1791
  453TMC3    O2 6810   4.360   2.841  12.052  0.8501 -0.6339  0.2050
  454MPD2     C 6811   4.049   3.064  16.304 -0.3293 -0.1927  0.1074
  454MPD2    C1 6812   4.003   3.163  16.218 -0.1806 -0.5934  0.0464
  454MPD2    C2 6813   3.954   3.286  16.266 -0.0317 -0.3148  0.3347
  454MPD2    C3 6814   3.952   3.305  16.398 -0.0189  0.2916  0.8478
  454MPD2    C4 6815   3.983   3.207  16.485  0.0783  0.1437 -0.0725
  454MPD2    C5 6816   4.030   3.089  16.441  0.2886 -0.9807  0.2327
  454MPD2     H 6817   3.935   3.363  16.191 -0.2286  0.7325  1.4600
  454MPD2    H1 6818   3.979   3.220  16.593  0.1189  1.4002 -0.2159
  454MPD2    H2 6819   4.093   2.968  16.279 -1.6945 -1.0060  0.8254
  454MPD2    H3 6820   4.064   3.016  16.514  1.2539 -1.2326 -0.4638
  454MPD2     N 6821   3.916   3.432  16.454 -0.0445  0.1946  0.6085
  454MPD2    H5 6822   3.912   3.441  16.555 -0.2397 -0.3064  0.6456
  454MPD2    N1 6823   3.991   3.134  16.080  0.0655  0.2110 -0.1696
  454MPD2    H7 6824   3.967   3.217  16.025  1.8345  0.2780 -0.8349
  455TMC3    C1 6825   3.715   3.552  16.440 -0.5571  0.6354 -0.6807
  455TMC3    C2 6826   3.722   3.551  16.579 -0.0640  0.6577 -0.1954
  455TMC3    C3 6827   3.620   3.486  16.647  0.0088 -0.3747  0.0548
  455TMC3    C4 6828   3.625   3.471  16.374 -0.4308 -0.3717 -0.7431
  455TMC3    C5 6829   3.535   3.398  16.438  0.3318  0.3494 -0.5664
  455TMC3    C6 6830   3.528   3.409  16.574 -0.2643 -0.1853 -0.5378
  455TMC3     C 6831   3.851   3.536  16.381  0.2404 -0.0439  0.7493
  455TMC3     O 6832   3.854   3.561  16.261  0.1768  0.0079  0.2276
  455TMC3     H 6833   3.791   3.610  16.639  0.2519  0.8745 -0.7730
  455TMC3    H1 6834   3.652   3.428  16.278 -0.6292 -1.5386 -0.2860
  455TMC3    H2 6835   3.473   3.332  16.627 -1.3773  1.3695  0.5771
  455TMC3    C7 6836   3.491   3.270  16.375 -0.2412  0.0404 -0.2276
  455TMC3    C8 6837   3.597   3.524  16.781 -0.4197 -0.4007  0.3981
  455TMC3    O1 6838   3.460   3.277  16.256 -0.6356 -0.0369 -0.2700
  455TMC3    O2 6839   3.680   3.601  16.830 -0.9823 -0.1595  0.2316
  456MPD2     C 6840   1.679   3.401  16.216  0.5661  0.0457 -0.5530
  456MPD2    C1 6841   1.743   3.337  16.315 -0.0382  1.1212 -0.0021
  456MPD2    C2 6842   1.758   3.391  16.438 -0.2671 -0.1083  0.1708
  456MPD2    C3 6843   1.725   3.520  16.449  0.6490 -0.1553  0.7440
  456MPD2    C4 6844   1.655   3.584  16.350  0.4031  0.1933  0.1384
  456MPD2    C5 6845   1.642   3.526  16.233 -0.4258  0.1066 -0.6327
  456MPD2     H 6846   1.798   3.335  16.522  1.3493 -2.2033 -1.9912
  456MPD2    H1 6847   1.607   3.680  16.363 -3.0009 -1.6769  1.1851
  456MPD2    H2 6848   1.662   3.353  16.121 -2.3784 -1.1307  0.5747
  456MPD2    H3 6849   1.580   3.559  16.150  0.0474 -0.4175 -1.1910
  456MPD2     N 6850   1.746   3.580  16.573 -0.0136  0.2870  0.0499
  456MPD2    H5 6851   1.770   3.527  16.655  0.4741  0.0190 -0.2698
  456MPD2    N1 6852   1.776   3.200  16.286 -0.0189 -0.1942  0.1673
  456MPD2    H7 6853   1.759   3.173  16.190 -1.6890 -0.7828  0.6158
  457TMC3    C1 6854   1.779   3.767  16.718  0.2590  0.1023 -0.7349
  457TMC3    C2 6855   1.874   3.863  16.727  0.2569  0.1259  0.0008
  457TMC3    C3 6856   1.895   3.908  16.856 -0.1573  0.0737 -0.3478
  457TMC3    C4 6857   1.707   3.711  16.820  0.9480 -0.3317  0.2010
  457TMC3    C5 6858   1.746   3.747  16.950  0.4646 -0.4728 -0.3741
  457TMC3    C6 6859   1.837   3.851  16.969 -1.1600  0.0955  0.1007
  457TMC3     C 6860   1.748   3.721  16.586  0.3596  0.2554 -0.1231
  457TMC3     O 6861   1.742   3.808  16.503 -0.7018  0.6673  0.5209
  457TMC3     H 6862   1.924   3.906  16.641  1.0134 -1.9136 -0.5657
  457TMC3    H1 6863   1.637   3.632  16.795  1.7351 -0.2866 -2.1873
  457TMC3    H2 6864   1.848   3.891  17.069 -2.9440  0.9390 -0.0227
  457TMC3    C7 6865   1.685   3.681  17.061  0.4176  0.0385 -0.0391
  457TMC3    C8 6866   1.999   4.007  16.886  0.3568  0.6009  0.7512
  457TMC3    O1 6867   1.643   3.568  17.038  0.3248  1.0462 -0.2834
  457TMC3    O2 6868   2.024   4.013  17.006  0.3222  0.1365  0.0724
  458MPD2     C 6869   3.417   2.557  12.919 -0.3772  0.0889 -0.0024
  458MPD2    C1 6870   3.486   2.445  12.969  0.1333 -0.0844  0.1970
  458MPD2    C2 6871   3.418   2.361  13.058 -0.0679 -0.3395  0.9364
  458MPD2    C3 6872   3.289   2.395  13.100  0.3243 -0.0386  0.3712
  458MPD2    C4 6873   3.222   2.507  13.046  0.1486  0.9630  0.1755
  458MPD2    C5 6874   3.292   2.589  12.963 -0.2443  0.8500 -0.3317
  458MPD2     H 6875   3.461   2.272  13.102  0.0568  0.3919  2.3301
  458MPD2    H1 6876   3.116   2.532  13.052 -0.3662 -0.8377 -1.5416
  458MPD2    H2 6877   3.455   2.623  12.842 -1.2247 -0.6324 -1.0336
  458MPD2    H3 6878   3.246   2.675  12.914  0.6820  1.3385 -0.3499
  458MPD2     N 6879   3.222   2.302  13.180 -0.5486 -0.1464 -0.8618
  458MPD2    H5 6880   3.270   2.226  13.227  1.6876  1.3801 -0.6722
  458MPD2    N1 6881   3.610   2.416  12.907  0.0016 -0.9586 -0.0598
  458MPD2    H7 6882   3.653   2.484  12.845  0.4963 -0.6456  0.6306
  459TMC3    C1 6883   3.827   2.332  12.911 -0.7176 -0.2236  0.1296
  459TMC3    C2 6884   3.854   2.422  12.811  0.3194 -0.2370  0.3909
  459TMC3    C3 6885   3.958   2.504  12.834 -0.3075  0.9060  0.3704
  459TMC3    C4 6886   3.885   2.330  13.033 -0.2324 -0.0296  0.8797
  459TMC3    C5 6887   3.986   2.419  13.049  0.0575  0.5228 -0.3490
  459TMC3    C6 6888   4.028   2.507  12.952  0.6624 -0.2594  0.2643
  459TMC3     C 6889   3.683   2.304  12.932  0.3731 -0.7067  0.1743
  459TMC3     O 6890   3.662   2.209  13.005 -0.7728  0.0955  0.0969
  459TMC3     H 6891   3.808   2.407  12.715  2.2359 -1.5813 -0.3258
  459TMC3    H1 6892   3.847   2.265  13.110 -0.7646  1.7630  2.1355
  459TMC3    H2 6893   4.123   2.555  12.972  0.0390  0.3605  1.7746
  459TMC3    C7 6894   4.022   2.455  13.186  0.5688 -0.0947 -0.2777
  459TMC3    C8 6895   4.028   2.556  12.722  0.1300 -0.1339  0.2292
  459TMC3    O1 6896   4.032   2.577  13.212 -0.3017 -0.4320 -0.2702
  459TMC3    O2 6897   4.146   2.584  12.741 -0.3823 -0.3889 -0.3931
  460MPD2     C 6898   2.917   0.155  11.174  0.5679 -0.3609 -0.7185
  460MPD2    C1 6899   2.912   0.038  11.104 -0.1249 -0.3839 -0.2369
  460MPD2    C2 6900   2.909   0.041  10.965  0.3858  0.7330 -0.1667
  460MPD2    C3 6901   2.891   0.161  10.903  0.4388 -0.1909 -0.1486
  460MPD2    C4 6902   2.903   0.280  10.978  1.2204 -0.9043 -0.3403
  460MPD2    C5 6903   2.922   0.277  11.117 -0.2253 -0.8849  1.5380
  460MPD2     H 6904   2.900   4.689  10.903  0.0916 -0.0540  1.0115
  460MPD2    H1 6905   2.883   0.377  10.935  0.0733 -2.0110 -2.2927
  460MPD2    H2 6906   2.912   0.157  11.283 -2.2494  1.5374 -0.8850
  460MPD2    H3 6907   2.928   0.359  11.188  0.1892 -1.0440  1.6846
  460MPD2     N 6908   2.847   0.164  10.763 -0.5688 -0.2039  0.2014
  460MPD2    H5 6909   2.797   0.084  10.726 -0.9960 -0.4785  1.3564
  460MPD2    N1 6910   2.916   4.652  11.178  0.0427  0.2375 -0.1077
  460MPD2    H7 6911   2.904   4.651  11.279  0.1557  0.8471 -0.0920
  461TMC3    C1 6912   2.754   0.279  10.568 -1.0946  0.5035  0.4064
  461TMC3    C2 6913   2.740   0.173  10.481  0.2119 -0.0794 -0.0365
  461TMC3    C3 6914   2.673   0.190  10.365 -0.5077  0.3909 -0.2443
  461TMC3    C4 6915   2.693   0.399  10.543 -0.7338  0.8687 -0.7096
  461TMC3    C5 6916   2.642   0.422  10.413  0.4919 -0.0613 -0.2931
  461TMC3    C6 6917   2.622   0.316  10.334 -0.2192 -1.2195  0.0373
  461TMC3     C 6918   2.846   0.278  10.684 -0.4752 -0.3961 -0.1482
  461TMC3     O 6919   2.915   0.380  10.703 -0.2626  0.5468  0.3682
  461TMC3     H 6920   2.781   0.077  10.511 -0.6874 -0.0313  1.3692
  461TMC3    H1 6921   2.697   0.485  10.610 -0.4991  0.3809 -0.0920
  461TMC3    H2 6922   2.562   0.331  10.245  1.1157 -1.5122 -0.9162
  461TMC3    C7 6923   2.580   0.547  10.379 -0.6098 -0.3085  0.0805
  461TMC3    C8 6924   2.631   0.072  10.293 -0.2622  0.1234 -0.2753
  461TMC3    O1 6925   2.494   0.545  10.289  0.0455  0.2025  0.0451
  461TMC3    O2 6926   2.620   4.715  10.367  0.2446  0.0296 -0.0252
  462TMC3    C1 6927   2.840   1.636   0.746  0.0256 -0.9527 -0.0852
  462TMC3    C2 6928   2.960   1.676   0.784 -0.9942 -0.2722  0.2698
  462TMC3    C3 6929   3.068   1.637   0.715  0.3202  0.1425  0.0510
  462TMC3    C4 6930   2.820   1.573   0.627  0.1822 -0.2443  0.4569
  462TMC3    C5 6931   2.930   1.534   0.560  0.0749  0.9532 -0.1589
  462TMC3    C6 6932   3.054   1.542   0.614  0.0606 -0.0900 -0.3720
  462TMC3     C 6933   2.727   1.673   0.831 -0.4055  0.3380  0.5153
  462TMC3     O 6934   2.755   1.763   0.911  0.0146 -0.2839 -0.0549
  462TMC3     H 6935   2.971   1.731   0.876  1.1888  1.2531 -0.9184
  462TMC3    H1 6936   2.725   1.538   0.587  0.0883  0.1338  0.3417
  462TMC3    H2 6937   3.133   1.537   0.540  0.0865 -1.9960 -0.2075
  462TMC3    C7 6938   2.921   1.438   0.454  0.6234 -0.7829 -0.3296
  462TMC3    C8 6939   3.195   1.616   0.791 -0.2118  0.0119  0.1252
  462TMC3    O1 6940   3.015   1.364   0.446  0.2729  0.2357  0.8243
  462TMC3    O2 6941   3.204   1.675   0.896  0.3972  0.3774 -0.2569
  463MPD2     C 6942   4.260   0.116   2.357  0.4305 -0.5088 -0.0665
  463MPD2    C1 6943   4.310   0.081   2.239  1.1395  0.7026 -0.2409
  463MPD2    C2 6944   4.447   0.080   2.223 -0.3455  0.2475  0.2802
  463MPD2    C3 6945   4.535   0.117   2.330  0.0421 -0.0461 -0.1793
  463MPD2    C4 6946   4.483   0.135   2.452 -0.6653  0.4185  0.3679
  463MPD2    C5 6947   4.344   0.139   2.461  0.3638 -0.2382 -0.3005
  463MPD2     H 6948   4.496   0.060   2.128  1.2187  0.6619  0.9867
  463MPD2    H1 6949   4.548   0.165   2.533  2.6633  0.3534 -2.2515
  463MPD2    H2 6950   4.152   0.127   2.362  0.3971 -0.4513 -0.8623
  463MPD2    H3 6951   4.294   0.170   2.553  1.6826  0.8780  0.0370
  463MPD2     N 6952   4.672   0.132   2.320 -0.0755 -0.0085  0.1610
  463MPD2    H5 6953   4.720   0.158   2.405 -0.3907  2.3131 -0.3569
  463MPD2    N1 6954   4.230   0.058   2.129 -0.3515 -0.0135  0.4351
  463MPD2    H7 6955   4.287   0.042   2.046  1.6728 -0.2634  1.8753
  464TMC3    C1 6956   4.047   0.042   1.978  0.0241  0.1929 -0.4123
  464TMC3    C2 6957   3.917   0.006   1.969  0.0699  0.2473  0.5466
  464TMC3    C3 6958   3.859   0.030   1.846 -0.0128  0.3281  0.3133
  464TMC3    C4 6959   4.126   0.091   1.876 -0.0682 -0.7911  0.9584
  464TMC3    C5 6960   4.059   0.112   1.760 -0.3847  0.3178  0.7428
  464TMC3    C6 6961   3.925   0.083   1.739  0.0190  0.2866 -0.7664
  464TMC3     C 6962   4.094   0.049   2.116 -0.1404 -0.8569  0.0104
  464TMC3     O 6963   4.008   0.056   2.209  0.5648 -0.2067  0.2839
  464TMC3     H 6964   3.875   4.670   2.037 -2.4011  0.0326 -1.2305
  464TMC3    H1 6965   4.234   0.092   1.885  0.0362 -0.1503 -0.4408
  464TMC3    H2 6966   3.877   0.098   1.643  0.8209  0.0701 -1.1997
  464TMC3    C7 6967   4.138   0.077   1.648  0.6730  0.3944  0.2048
  464TMC3    C8 6968   3.757   4.679   1.806  0.0645 -0.3072 -0.1370
  464TMC3    O1 6969   4.258   0.105   1.653 -0.0633 -0.2222  0.7087
  464TMC3    O2 6970   3.757   4.636   1.689  0.2696 -0.2934 -0.9389
  465MPD2     C 6971   0.953   2.918  17.216 -0.3431 -0.2825  1.0734
  465MPD2    C1 6972   0.857   2.981  17.288 -0.0781  0.3096 -0.7761
  465MPD2    C2 6973   0.756   3.049  17.224  0.7018  0.3073  0.0778
  465MPD2    C3 6974   0.752   3.055  17.088  0.4364 -0.2494 -0.4099
  465MPD2    C4 6975   0.864   3.012  17.015  0.5017 -0.4589 -0.9009
  465MPD2    C5 6976   0.952   2.933  17.080 -0.4406  0.7164  0.5231
  465MPD2     H 6977   0.669   3.086  17.277 -0.4450 -2.6293  0.2496
  465MPD2    H1 6978   0.879   3.018  16.908  1.9603 -0.1831 -0.6801
  465MPD2    H2 6979   1.038   2.869  17.261  0.6507 -0.8673 -1.4418
  465MPD2    H3 6980   1.039   2.883  17.040 -0.6823 -0.6895  1.7594
  465MPD2     N 6981   0.642   3.116  17.024 -0.2414 -0.6486  0.4124
  465MPD2    H5 6982   0.580   3.158  17.092  1.4604  1.9805  0.3221
  465MPD2    N1 6983   0.844   2.963  17.426 -0.0842 -0.0252  0.4472
  465MPD2    H7 6984   0.776   3.027  17.465 -0.6424 -1.1982  1.4219
  466TMC3    C1 6985   0.297   3.280  16.920  0.3126  0.7637  0.4595
  466TMC3    C2 6986   0.293   3.388  16.838 -0.3248 -0.6782 -0.6065
  466TMC3    C3 6987   0.416   3.414  16.777  0.1513 -0.1876  0.2695
  466TMC3    C4 6988   0.400   3.187  16.923  0.1316 -0.3993  0.4318
  466TMC3    C5 6989   0.510   3.218  16.855 -0.2306 -0.7935  0.0396
  466TMC3    C6 6990   0.529   3.336  16.787 -0.6706 -0.1954  0.2681
  466TMC3     C 6991   0.200   3.264  17.029  0.3920  0.5807 -0.4534
  466TMC3     O 6992   0.235   3.188  17.114  0.0849 -0.3027 -0.5566
  466TMC3     H 6993   0.216   3.464  16.841  1.2127  0.7500  1.5563
  466TMC3    H1 6994   0.395   3.089  16.967  0.6239 -0.3013  0.7117
  466TMC3    H2 6995   0.629   3.369  16.763  0.3820 -1.6368  2.6004
  466TMC3    C7 6996   0.627   3.136  16.887 -0.3317 -0.2228  0.2488
  466TMC3    C8 6997   0.436   3.538  16.714  0.5192  0.9719  0.3008
  466TMC3    O1 6998   0.706   3.111  16.790  0.2719 -0.6504  0.2213
  466TMC3    O2 6999   0.512   3.551  16.622 -0.1512  0.0163  0.0489
  467TMC3    C1 7000   1.376   2.158  13.975  0.1961  0.0876 -0.1252
  467TMC3    C2 7001   1.462   2.190  13.881  0.0552  0.7341  0.1919
  467TMC3    C3 7002   1.409   2.186  13.756  0.4313 -0.2609  0.4476
  467TMC3    C4 7003   1.252   2.102  13.961  0.0123 -0.0267  0.1157
  467TMC3    C5 7004   1.214   2.086  13.831  0.4045  1.1893  0.0237
  467TMC3    C6 7005   1.289   2.129  13.727  0.2435  0.8070 -0.8657
  467TMC3     C 7006   1.433   2.173  14.114  0.7098  0.2023 -0.2386
  467TMC3     O 7007   1.530   2.243  14.123  0.0402 -0.2708  0.3175
  467TMC3     H 7008   1.563   2.226  13.895  0.3387 -0.4996  1.2691
  467TMC3    H1 7009   1.181   2.091  14.043  0.1263 -0.8594  0.0994
  467TMC3    H2 7010   1.260   2.117  13.624 -0.8554 -0.8829 -0.3512
  467TMC3    C7 7011   1.077   2.064  13.803  0.0075  0.5831  0.0189
  467TMC3    C8 7012   1.483   2.259  13.654 -0.4450 -0.5031 -0.4078
  467TMC3    O1 7013   1.050   2.092  13.689 -0.4938  0.0033  0.7184
  467TMC3    O2 7014   1.569   2.335  13.693  0.5481 -0.2538  0.3628
  468MPD2     C 7015   4.411   4.667  10.735  0.8388 -0.0762 -0.2111
  468MPD2    C1 7016   4.538   4.649  10.774 -0.0877 -0.5266 -0.7287
  468MPD2    C2 7017   4.602   4.521  10.751 -0.2485  0.3095  0.4360
  468MPD2    C3 7018   4.530   4.417  10.686 -0.2836 -0.6035 -0.8558
  468MPD2    C4 7019   4.396   4.441  10.657  0.1318  0.2358  0.3022
  468MPD2    C5 7020   4.341   4.565  10.678  0.3487 -0.2995  0.2401
  468MPD2     H 7021   4.701   4.495  10.786  0.0385  0.1979 -0.4534
  468MPD2    H1 7022   4.343   4.358  10.613 -0.2394 -0.8261  2.7409
  468MPD2    H2 7023   4.352   0.018  10.756  0.9907 -0.3524  1.3891
  468MPD2    H3 7024   4.234   4.579  10.663 -0.0252 -2.5853  0.6286
  468MPD2     N 7025   4.587   4.292  10.662  0.6137 -0.6176 -0.0751
  468MPD2    H5 7026   4.530   4.221  10.616 -0.5750 -0.2272  0.7704
  468MPD2    N1 7027   4.617   0.011  10.845  0.1844  0.2628  0.0236
  468MPD2    H7 7028   4.703   4.716  10.889  1.1808  2.4953 -0.3258
  469TMC3    C1 7029   4.653   0.201  10.979  0.4045 -0.3797  0.0960
  469TMC3    C2 7030   0.035   0.142  11.023  0.6340 -0.5637 -0.7547
  469TMC3    C3 7031   0.099   0.201  11.134 -0.1839  0.0038  0.0695
  469TMC3    C4 7032   4.596   0.301  11.050 -0.2073 -0.4028  0.1865
  469TMC3    C5 7033   4.662   0.361  11.152 -0.1606 -0.5820  0.5504
  469TMC3    C6 7034   0.052   0.314  11.193 -0.4258  1.0193  0.7104
  469TMC3     C 7035   4.580   0.140  10.871  0.1748 -0.6691 -0.0239
  469TMC3     O 7036   4.496   0.211  10.813  0.0974 -0.5075  0.4230
  469TMC3     H 7037   0.085   0.076  10.954 -1.1551 -1.7594 -0.9007
  469TMC3    H1 7038   4.496   0.331  11.021 -0.5182  0.3602  2.0401
  469TMC3    H2 7039   0.114   0.357  11.271  1.0459  0.3058 -0.0695
  469TMC3    C7 7040   4.615   0.484  11.208 -0.3801 -0.2959  0.5792
  469TMC3    C8 7041   0.240   0.175  11.163  0.1120 -0.3119 -0.8252
  469TMC3    O1 7042   4.524   0.529  11.141  0.1347 -0.5433  0.3356
  469TMC3    O2 7043   0.309   0.266  11.213 -1.1314 -0.0787 -0.3036
  470TMC3    C1 7044   2.689   0.713   0.733 -0.0167 -0.5372  0.0804
  470TMC3    C2 7045   2.816   0.759   0.748  0.0120  0.6349  0.3712
  470TMC3    C3 7046   2.855   0.811   0.868 -0.1876 -0.5677  0.4074
  470TMC3    C4 7047   2.603   0.727   0.839 -0.0834  0.0892 -0.1153
  470TMC3    C5 7048   2.640   0.768   0.962  0.1434  0.7243 -0.7187
  470TMC3    C6 7049   2.772   0.799   0.981  0.0757  0.0060 -0.4748
  470TMC3     C 7050   2.648   0.682   0.606  0.0567 -0.1185  0.4593
  470TMC3     O 7051   2.717   0.739   0.524  0.3820  0.1416  0.3733
  470TMC3     H 7052   2.884   0.763   0.664  0.1245  3.0467  0.5815
  470TMC3    H1 7053   2.497   0.710   0.825  0.2831 -2.2522 -0.1434
  470TMC3    H2 7054   2.815   0.803   1.080  1.6576  0.2727 -1.1738
  470TMC3    C7 7055   2.545   0.833   1.046 -0.2844  0.4311  0.3774
  470TMC3    C8 7056   2.956   0.912   0.880  0.0401 -0.0293 -0.5963
  470TMC3    O1 7057   2.432   0.850   1.006 -0.0431 -1.1228 -0.4600
  470TMC3    O2 7058   2.962   0.967   0.988  0.0073  0.0096 -0.2651
  471MPD2     C 7059   3.350   2.610  16.909 -0.3984  0.3810  0.3373
  471MPD2    C1 7060   3.392   2.480  16.881  0.7268 -0.5770  0.0911
  471MPD2    C2 7061   3.487   2.423  16.966  0.2360  0.0626 -0.3953
  471MPD2    C3 7062   3.541   2.495  17.077  0.0632  0.3202  0.1097
  471MPD2    C4 7063   3.492   2.619  17.102  0.0418 -0.3906  0.5843
  471MPD2    C5 7064   3.401   2.675  17.016  0.0366  0.1562  0.1655
  471MPD2     H 7065   3.513   2.319  16.951  2.4978  0.5121  0.3967
  471MPD2    H1 7066   3.543   2.678  17.176  1.5970 -0.6987 -0.2356
  471MPD2    H2 7067   3.272   2.655  16.849  0.9470  3.4242  0.8946
  471MPD2    H3 7068   3.363   2.776  17.024  2.9559  1.1628  1.3835
  471MPD2     N 7069   3.625   2.441  17.178  0.2386 -0.1033 -0.2261
  471MPD2    H5 7070   3.636   2.497  17.262 -2.0943 -2.3380  1.5421
  471MPD2    N1 7071   3.336   2.394  16.783 -0.3696  0.2629  0.5157
  471MPD2    H7 7072   3.379   2.302  16.780  0.0354  0.3739  2.8504
  472TMC3    C1 7073   3.147   2.286  16.690 -0.1715  0.0630 -0.7637
  472TMC3    C2 7074   3.036   2.301  16.615 -0.3327 -0.5508 -0.8388
  472TMC3    C3 7075   2.961   2.185  16.596 -0.5403 -0.1526  0.5621
  472TMC3    C4 7076   3.195   2.170  16.735  0.2034  0.8228  0.7081
  472TMC3    C5 7077   3.126   2.058  16.700 -0.1260 -0.3809 -1.0612
  472TMC3    C6 7078   3.001   2.063  16.642  0.2399 -0.0936  0.3834
  472TMC3     C 7079   3.211   2.409  16.731 -0.0877  0.1699  0.3147
  472TMC3     O 7080   3.145   2.510  16.716  0.3738 -0.8250 -0.4136
  472TMC3     H 7081   3.000   2.398  16.580 -1.5044 -0.1232  1.5870
  472TMC3    H1 7082   3.270   2.166  16.814  1.8393 -0.1127 -0.9082
  472TMC3    H2 7083   2.935   1.977  16.633 -1.7666  1.0019  4.3212
  472TMC3    C7 7084   3.182   1.923  16.720 -0.5807 -0.1465  0.6223
  472TMC3    C8 7085   2.835   2.192  16.539  0.2830 -0.5642  0.6868
  472TMC3    O1 7086   3.103   1.828  16.711  0.5393 -0.7321 -0.0079
  472TMC3    O2 7087   2.747   2.118  16.586  0.2642 -0.4397  0.3492
  473MPD2     C 7088   2.649   4.257  14.376  0.1549  0.1880  0.2384
  473MPD2    C1 7089   2.733   4.333  14.301  0.1761  0.0088 -0.1556
  473MPD2    C2 7090   2.819   4.418  14.367 -0.3302  0.0171  0.3964
  473MPD2    C3 7091   2.817   4.426  14.508  0.5379  0.4616 -0.0898
  473MPD2    C4 7092   2.713   4.366  14.573 -0.7436  0.3207  0.1589
  473MPD2    C5 7093   2.634   4.285  14.508 -0.5029 -0.3031  0.0419
  473MPD2     H 7094   2.895   4.471  14.310  0.1788 -1.3234 -0.1611
  473MPD2    H1 7095   2.709   4.380  14.680 -1.6766 -0.9282  0.2780
  473MPD2    H2 7096   2.589   4.176  14.335  0.4405  0.1005 -0.0102
  473MPD2    H3 7097   2.563   4.228  14.567 -0.1860 -0.9358 -0.1891
  473MPD2     N 7098   2.904   4.503  14.580 -0.1521 -0.2436 -0.1779
  473MPD2    H5 7099   2.880   4.521  14.676 -0.7722 -1.4868 -0.1032
  473MPD2    N1 7100   2.739   4.337  14.156 -0.1374 -0.3862 -0.8128
  473MPD2    H7 7101   2.813   4.389  14.110 -0.3302  1.0483  0.5016
  474TMC3    C1 7102   3.081   4.640  14.630  0.0915 -0.5546 -0.2672
  474TMC3    C2 7103   3.000   4.729  14.688  0.7740 -0.0258  0.5976
  474TMC3    C3 7104   3.054   0.107  14.739 -0.4944 -0.0539 -0.3388
  474TMC3    C4 7105   3.216   4.649  14.635 -1.0740 -0.4521 -0.0791
  474TMC3    C5 7106   3.268   0.013  14.715 -0.2050 -0.5336  0.8844
  474TMC3    C6 7107   3.189   0.119  14.764 -0.1416  0.1996 -0.0290
  474TMC3     C 7108   3.027   4.541  14.544  0.4087  0.1559 -0.2235
  474TMC3     O 7109   3.093   4.493  14.449 -0.4509 -0.2921  0.3021
  474TMC3     H 7110   2.894   4.717  14.708  0.6986  0.4213  0.4782
  474TMC3    H1 7111   3.275   4.573  14.584  0.2994 -0.6710  1.8465
  474TMC3    H2 7112   3.229   0.204  14.817  0.3610 -0.2029  0.2451
  474TMC3    C7 7113   3.411   0.007  14.740  0.3686  0.0931  0.0432
  474TMC3    C8 7114   2.993   0.217  14.678 -0.0252  0.4453 -0.2913
  474TMC3    O1 7115   3.475   4.694  14.648 -0.1024  0.0551 -0.1757
  474TMC3    O2 7116   2.878   0.195  14.650  0.2930  0.4278  0.4670
  475MPD2     C 7117   1.207   2.084  10.325  0.2298 -0.0514  0.0007
  475MPD2    C1 7118   1.263   2.183  10.389 -0.1340  0.3668 -0.1924
  475MPD2    C2 7119   1.189   2.245  10.496  0.3771  0.2908 -0.2025
  475MPD2    C3 7120   1.060   2.205  10.523  0.0896  0.2650 -0.0793
  475MPD2    C4 7121   1.008   2.104  10.453  0.4388  1.0954  0.1817
  475MPD2    C5 7122   1.090   2.037  10.362  0.0453 -0.2617  0.1852
  475MPD2     H 7123   1.237   2.316  10.562  0.7611  0.5810 -0.7960
  475MPD2    H1 7124   0.909   2.066  10.477  1.4460 -2.6682 -1.6832
  475MPD2    H2 7125   1.259   2.020  10.254 -0.2976 -0.8694  0.3468
  475MPD2    H3 7126   1.044   1.949  10.318  2.1732 -1.8415  1.1115
  475MPD2     N 7127   0.980   2.284  10.612  0.5950  0.8843 -0.6392
  475MPD2    H5 7128   1.013   2.378  10.634 -1.0459  1.5228 -0.8148
  475MPD2    N1 7129   1.393   2.217  10.341 -0.5135  0.4485 -0.2389
  475MPD2    H7 7130   1.447   2.144  10.295 -0.6075  0.2719 -0.0670
  476TMC3    C1 7131   1.405   2.443  10.417 -0.6287 -0.2800 -0.3502
  476TMC3    C2 7132   1.302   2.494  10.335 -0.3484  0.2565  0.2204
  476TMC3    C3 7133   1.260   2.627  10.362  0.4207  0.6474  0.5416
  476TMC3    C4 7134   1.471   2.521  10.504  0.0844  0.7955  0.4001
  476TMC3    C5 7135   1.428   2.647  10.530 -0.3051  0.7779 -0.0978
  476TMC3    C6 7136   1.321   2.699  10.462  0.4419  0.5156 -1.1715
  476TMC3     C 7137   1.472   2.322  10.381 -0.3469  0.1030 -0.2856
  476TMC3     O 7138   1.594   2.339  10.369 -0.4749 -0.3539  0.0378
  476TMC3     H 7139   1.261   2.438  10.252  0.5796  0.4391 -0.3589
  476TMC3    H1 7140   1.561   2.492  10.557 -0.4768  0.3933  1.1327
  476TMC3    H2 7141   1.275   2.794  10.488  1.5378  1.2305 -1.8408
  476TMC3    C7 7142   1.499   2.720  10.632  0.3311  0.3162  0.5578
  476TMC3    C8 7143   1.114   2.642  10.357  0.1697  0.6302 -0.1789
  476TMC3    O1 7144   1.611   2.680  10.656 -0.0442  0.2450 -0.1162
  476TMC3    O2 7145   1.071   2.754  10.383  0.3126 -0.8680 -0.7750
  477MPD2     C 7146   3.571   3.855  11.858  0.3932  0.0972 -0.1885
  477MPD2    C1 7147   3.475   3.765  11.907  0.4344  0.4690 -0.3065
  477MPD2    C2 7148   3.519   3.653  11.977 -0.4283  0.2238  0.4513
  477MPD2    C3 7149   3.653   3.620  11.978  0.4941 -0.3472  0.0909
  477MPD2    C4 7150   3.753   3.707  11.930  0.0233  0.1084  0.6342
  477MPD2    C5 7151   3.708   3.830  11.874  0.2870 -0.0978 -0.0470
  477MPD2     H 7152   3.450   3.580  12.019  0.5051 -1.4975 -1.0413
  477MPD2    H1 7153   3.859   3.686  11.940 -0.0215 -0.5532 -0.2681
  477MPD2    H2 7154   3.550   3.941  11.795 -1.0958 -0.4520 -0.4385
  477MPD2    H3 7155   3.777   3.907  11.844  2.3729 -1.0814  2.1909
  477MPD2     N 7156   3.686   3.490  12.033  0.0267  0.7115 -0.4722
  477MPD2    H5 7157   3.615   3.443  12.088  0.4860 -1.6692 -1.9170
  477MPD2    N1 7158   3.340   3.794  11.879  0.4634  0.2153  0.4159
  477MPD2    H7 7159   3.327   3.880  11.826  2.2304  0.4549  0.3680
  478TMC3    C1 7160   3.113   3.783  11.861  0.3964  0.3981  0.2354
  478TMC3    C2 7161   3.022   3.853  11.942 -0.1796  0.1209  0.6117
  478TMC3    C3 7162   2.945   3.937  11.869 -0.0533 -0.0379  0.3052
  478TMC3    C4 7163   3.111   3.786  11.722 -0.1647  0.6342  0.9653
  478TMC3    C5 7164   3.027   3.873  11.656  0.9465  0.3388 -0.1316
  478TMC3    C6 7165   2.939   3.942  11.731  0.0424  0.1915  0.3360
  478TMC3     C 7166   3.230   3.732  11.917 -0.5031  0.1541  0.7392
  478TMC3     O 7167   3.209   3.654  12.011 -0.5259 -0.0720 -0.8049
  478TMC3     H 7168   3.028   3.851  12.050  0.5590  0.3773  0.5727
  478TMC3    H1 7169   3.186   3.723  11.675 -2.6251 -2.7473  1.6083
  478TMC3    H2 7170   2.855   3.999  11.694  0.4796 -0.9361 -2.3652
  478TMC3    C7 7171   3.051   3.894  11.516  0.6749  0.2793 -0.5286
  478TMC3    C8 7172   2.853   4.008  11.948  0.2519 -0.1458  0.3835
  478TMC3    O1 7173   3.152   3.848  11.470 -0.3338  0.7753  0.0619
  478TMC3    O2 7174   2.819   3.953  12.051 -0.2226  0.5284  0.6073
  479MPD2     C 7175   2.496   1.291  15.021  0.1811  0.1155 -0.7256
  479MPD2    C1 7176   2.418   1.306  15.128 -0.0070 -1.0855 -1.0696
  479MPD2    C2 7177   2.417   1.432  15.194  0.2514 -0.0629  0.3673
  479MPD2    C3 7178   2.506   1.539  15.154 -0.3176  0.3747 -0.8489
  479MPD2    C4 7179   2.593   1.514  15.050  0.4403 -0.4708 -0.6772
  479MPD2    C5 7180   2.586   1.391  14.986 -0.1601 -0.1927  0.2938
  479MPD2     H 7181   2.366   1.438  15.289  1.3189  1.7246  0.8168
  479MPD2    H1 7182   2.662   1.589  15.015  1.4368 -0.1131  2.0144
  479MPD2    H2 7183   2.495   1.200  14.962  1.9579  0.7031 -1.6721
  479MPD2    H3 7184   2.650   1.371  14.901  0.6115  0.8598  0.6262
  479MPD2     N 7185   2.522   1.661  15.219 -0.4783  0.7288  0.0026
  479MPD2    H5 7186   2.600   1.716  15.185 -0.9292 -0.1603 -2.4559
  479MPD2    N1 7187   2.320   1.206  15.152 -0.2847  0.0985  0.9857
  479MPD2    H7 7188   2.337   1.117  15.106 -1.1036  1.8889 -2.7991
  480TMC3    C1 7189   2.471   1.901  15.614  0.3210 -0.0442  0.3761
  480TMC3    C2 7190   2.594   1.959  15.592 -0.6590 -0.4772 -0.0307
  480TMC3    C3 7191   2.653   1.960  15.471  0.3572 -0.1099 -0.4356
  480TMC3    C4 7192   2.421   1.825  15.518  0.9788  0.3935 -0.2935
  480TMC3    C5 7193   2.489   1.813  15.399 -0.5471  0.5507 -0.1532
  480TMC3    C6 7194   2.604   1.877  15.372 -0.0192 -1.2728 -0.1754
  480TMC3     C 7195   2.443   1.864  15.757  0.6688 -0.5464  0.3546
  480TMC3     O 7196   2.526   1.871  15.849  0.1323  0.0926 -0.4765
  480TMC3     H 7197   2.645   2.019  15.666 -1.2687  0.9093 -0.7495
  480TMC3    H1 7198   2.323   1.780  15.531  0.0207  2.5833  0.1461
  480TMC3    H2 7199   2.648   1.869  15.274  2.0229 -0.4317  0.6745
  480TMC3    C7 7200   2.440   1.705  15.323 -0.3668  0.1373  1.2568
  480TMC3    C8 7201   2.748   2.058  15.419  0.2594 -0.4706 -0.7581
  480TMC3    O1 7202   2.333   1.656  15.352  0.1241 -0.7376  0.2070
  480TMC3    O2 7203   2.836   2.102  15.492 -0.5542  0.0993 -0.2365
  481MPD2     C 7204   4.280   1.142  14.326 -0.3946 -0.3435  0.0719
  481MPD2    C1 7205   4.189   1.084  14.417  0.0924 -0.0556 -0.2168
  481MPD2    C2 7206   4.229   1.039  14.541  0.0008  0.2476  0.1003
  481MPD2    C3 7207   4.358   1.067  14.590 -0.3944  0.5758 -0.2293
  481MPD2    C4 7208   4.449   1.126  14.503 -0.4186 -0.1785 -0.4438
  481MPD2    C5 7209   4.412   1.167  14.376  0.3913 -0.5851 -0.3771
  481MPD2     H 7210   4.154   0.989  14.602  1.4547 -1.7289  0.2565
  481MPD2    H1 7211   4.548   1.141  14.546 -1.3226  2.3569  0.7825
  481MPD2    H2 7212   4.243   1.181  14.232  0.3831 -2.1223 -0.9674
  481MPD2    H3 7213   4.482   1.225  14.317 -0.6356  1.9631  0.8831
  481MPD2     N 7214   4.402   1.031  14.719 -0.4769 -0.2656 -0.4117
  481MPD2    H5 7215   4.498   1.059  14.737 -1.2666  2.5673 -0.6854
  481MPD2    N1 7216   4.056   1.082  14.373 -0.1369 -0.6205 -0.0222
  481MPD2    H7 7217   4.043   1.111  14.277 -0.3784  0.3072  0.2973
  482TMC3    C1 7218   3.819   1.086  14.391 -0.2810 -0.4017 -0.2142
  482TMC3    C2 7219   3.707   1.041  14.455  0.6892 -0.1571 -0.0638
  482TMC3    C3 7220   3.591   1.069  14.399 -0.4526  0.2796 -0.2575
  482TMC3    C4 7221   3.815   1.183  14.294 -0.1011  0.7854 -0.5005
  482TMC3    C5 7222   3.694   1.231  14.255 -0.0265  0.1385 -0.0165
  482TMC3    C6 7223   3.579   1.171  14.303  0.6454 -0.5572 -0.1061
  482TMC3     C 7224   3.947   1.039  14.442 -1.4141 -0.2778  0.4364
  482TMC3     O 7225   3.945   0.982  14.549 -0.0502 -0.4243 -0.1186
  482TMC3     H 7226   3.707   0.966  14.534 -2.1713 -1.7942 -1.6165
  482TMC3    H1 7227   3.903   1.221  14.243  1.4571 -0.5558  1.2172
  482TMC3    H2 7228   3.489   1.193  14.247  0.0195 -2.4874  0.1492
  482TMC3    C7 7229   3.670   1.337  14.155  0.1873  0.4106  0.7158
  482TMC3    C8 7230   3.485   0.974  14.420 -0.6350 -0.1404  0.9288
  482TMC3    O1 7231   3.751   1.348  14.062  1.1795 -0.6151  0.2455
  482TMC3    O2 7232   3.511   0.890  14.504  0.9900  0.1669  0.3820
  483TMC3    C1 7233   2.704   4.534   0.785 -0.5657  0.2578  0.1191
  483TMC3    C2 7234   2.799   4.628   0.801  0.9056 -0.5730  0.4477
  483TMC3    C3 7235   2.912   4.635   0.725 -0.1111  0.7544  0.3520
  483TMC3    C4 7236   2.712   4.439   0.689 -0.4062 -0.6176 -0.3396
  483TMC3    C5 7237   2.825   4.438   0.617  0.0401  0.1975  0.5490
  483TMC3    C6 7238   2.923   4.539   0.628  0.7030 -0.0401  0.5051
  483TMC3     C 7239   2.575   4.548   0.847 -0.6490 -0.0211 -0.0098
  483TMC3     O 7240   2.540   4.660   0.883  0.3339  0.4731  0.2781
  483TMC3     H 7241   2.783   4.685   0.892  1.1169  0.0585  0.0887
  483TMC3    H1 7242   2.637   4.365   0.664  0.0873 -0.9627 -0.8068
  483TMC3    H2 7243   2.995   4.551   0.548 -0.2220 -2.7354 -0.7297
  483TMC3    C7 7244   2.829   4.353   0.495  0.3601  0.1518  0.3178
  483TMC3    C8 7245   2.994   0.021   0.710 -0.6495  0.3135 -0.3096
  483TMC3    O1 7246   2.717   4.310   0.459 -0.7133  0.5709  0.0315
  483TMC3    O2 7247   3.080   0.014   0.628  0.4705 -0.2886 -0.2363
  484MPD2     C 7248   3.928   2.619  12.377  0.2965  0.3476 -0.6377
  484MPD2    C1 7249   4.014   2.625  12.483 -0.4563  0.4093 -0.1165
  484MPD2    C2 7250   4.150   2.657  12.460  0.0664  0.4725 -0.0870
  484MPD2    C3 7251   4.195   2.711  12.342 -0.1114 -0.1555  0.4627
  484MPD2    C4 7252   4.102   2.719  12.245  0.7462 -0.9131 -0.2020
  484MPD2    C5 7253   3.976   2.667  12.257 -0.3368 -0.1972 -0.0800
  484MPD2     H 7254   4.221   2.652  12.542  0.7280  1.5177 -0.5813
  484MPD2    H1 7255   4.140   2.752  12.148 -3.2952 -1.7604 -2.0832
  484MPD2    H2 7256   3.826   2.587  12.387  0.1607  0.4695 -1.5917
  484MPD2    H3 7257   3.914   2.663  12.169 -0.9724  1.5089  0.2830
  484MPD2     N 7258   4.335   2.742  12.318  0.0630  0.2273  0.2302
  484MPD2    H5 7259   4.353   2.766  12.221 -2.6397  3.0280  0.4359
  484MPD2    N1 7260   3.959   2.585  12.607 -0.2249  0.8318  0.4820
  484MPD2    H7 7261   3.858   2.585  12.600 -0.0921  0.1284 -1.6015
  485TMC3    C1 7262   4.565   2.803  12.368  0.1989 -0.9549  0.4762
  485TMC3    C2 7263   4.675   2.781  12.443  0.8056  0.0266  0.4193
  485TMC3    C3 7264   0.050   2.855  12.420  0.0467 -0.8916 -0.2468
  485TMC3    C4 7265   4.570   2.891  12.261 -0.2230  0.5476  0.7600
  485TMC3    C5 7266   4.687   2.948  12.233  0.1730  0.2328 -0.0040
  485TMC3    C6 7267   0.054   2.933  12.314  0.1762 -0.2791  0.1121
  485TMC3     C 7268   4.436   2.744  12.411 -0.4835 -0.7202  0.0726
  485TMC3     O 7269   4.438   2.704  12.525 -0.0952  0.1123  0.1774
  485TMC3     H 7270   4.664   2.714  12.528 -2.8929  0.6427  0.4147
  485TMC3    H1 7271   4.482   2.940  12.221  1.8943  1.1044 -3.2421
  485TMC3    H2 7272   0.149   2.977  12.285  1.2358 -2.5397  0.1403
  485TMC3    C7 7273   4.730   2.944  12.095  0.3165  0.1113  0.0711
  485TMC3    C8 7274   0.172   2.784  12.436  0.4124 -0.2354 -0.8560
  485TMC3    O1 7275   0.102   2.995  12.068  0.2482 -0.0787 -0.0193
  485TMC3    O2 7276   0.274   2.848  12.415 -0.4071 -0.1372 -0.5513
  486MPD2     C 7277   1.798   1.292  12.734  0.4901  0.0247  0.5079
  486MPD2    C1 7278   1.843   1.386  12.823 -0.7025 -0.2597 -0.3122
  486MPD2    C2 7279   1.835   1.517  12.789 -0.7165  0.0520  0.3054
  486MPD2    C3 7280   1.779   1.560  12.670  0.5709 -0.0941  0.3066
  486MPD2    C4 7281   1.725   1.466  12.583 -0.9670 -0.0472  0.2949
  486MPD2    C5 7282   1.736   1.332  12.616 -0.7189 -0.1197 -0.4254
  486MPD2     H 7283   1.871   1.590  12.862 -0.6597  2.8048 -2.4877
  486MPD2    H1 7284   1.688   1.502  12.488 -1.7993 -1.1246  0.2215
  486MPD2    H2 7285   1.801   1.186  12.753  0.5660 -0.0490  0.0730
  486MPD2    H3 7286   1.703   1.250  12.554  2.8023 -0.3906 -1.9768
  486MPD2     N 7287   1.770   1.697  12.643 -0.5408  0.1026 -0.1007
  486MPD2    H5 7288   1.831   1.758  12.697 -0.8904 -0.4627  0.9305
  486MPD2    N1 7289   1.888   1.339  12.949  0.2372  0.3389 -0.2445
  486MPD2    H7 7290   1.906   1.240  12.963 -2.9618 -0.2512 -0.1567
  487TMC3    C1 7291   1.979   1.319  13.152 -0.0515 -0.0174 -0.6173
  487TMC3    C2 7292   1.908   1.214  13.192 -0.5051 -0.5465 -0.4785
  487TMC3    C3 7293   1.954   1.148  13.299 -0.2975 -0.1805 -0.1481
  487TMC3    C4 7294   2.096   1.361  13.197  0.0894 -0.6586 -0.4309
  487TMC3    C5 7295   2.154   1.285  13.288 -0.0099  0.0238  0.2153
  487TMC3    C6 7296   2.085   1.172  13.333  0.5139  0.3259 -0.0996
  487TMC3     C 7297   1.918   1.411  13.063  0.2103  0.0189  0.3051
  487TMC3     O 7298   1.920   1.528  13.085  0.5883  0.1120  0.5442
  487TMC3     H 7299   1.803   1.215  13.162 -0.3252  1.1182 -1.0324
  487TMC3    H1 7300   2.131   1.458  13.163  1.5311 -0.2505  2.1788
  487TMC3    H2 7301   2.116   1.122  13.424 -0.8171  2.5710  1.5946
  487TMC3    C7 7302   2.174   1.363  13.413 -0.8036  0.1041 -0.3596
  487TMC3    C8 7303   1.848   1.171  13.406  0.4072  0.1069  0.6894
  487TMC3    O1 7304   2.212   1.299  13.514  0.0735  0.4177  0.2524
  487TMC3    O2 7305   1.745   1.225  13.366 -0.3728 -0.2558 -0.3593
  488MPD2     C 7306   2.589   3.253  16.571  0.3395 -0.5467 -0.0732
  488MPD2    C1 7307   2.560   3.391  16.557 -0.3776  0.1622 -0.0189
  488MPD2    C2 7308   2.512   3.455  16.669 -0.3669  0.0286 -0.2133
  488MPD2    C3 7309   2.505   3.389  16.789 -0.6726  0.2684 -0.9384
  488MPD2    C4 7310   2.516   3.260  16.796 -0.5386 -1.0872 -0.3221
  488MPD2    C5 7311   2.566   3.190  16.686  0.3328 -0.1113  0.4965
  488MPD2     H 7312   2.488   3.560  16.661  0.0585  0.1493  0.1034
  488MPD2    H1 7313   2.514   3.200  16.886  0.8035 -1.2542 -0.3948
  488MPD2    H2 7314   2.628   3.183  16.497  0.3717 -1.6444  0.9800
  488MPD2    H3 7315   2.588   3.084  16.690 -0.3984 -0.2360  1.3627
  488MPD2     N 7316   2.475   3.462  16.901 -0.0769  0.0670  0.0334
  488MPD2    H5 7317   2.490   3.562  16.888  2.9842 -0.4801 -0.7789
  488MPD2    N1 7318   2.536   3.460  16.430 -0.1629 -0.5489  0.2694
  488MPD2    H7 7319   2.491   3.550  16.447  0.8567  0.5270 -2.8233
  489TMC3    C1 7320   2.440   3.531  17.128 -0.2427 -0.3524  0.3852
  489TMC3    C2 7321   2.505   3.644  17.103 -0.2343 -1.1145 -0.3725
  489TMC3    C3 7322   2.470   3.756  17.173  0.0787  0.2974 -0.4112
  489TMC3    C4 7323   2.324   3.529  17.197 -0.5823 -0.4530 -0.3950
  489TMC3    C5 7324   2.271   3.653  17.235 -0.3565 -0.5687  0.4176
  489TMC3    C6 7325   2.350   3.766  17.237  0.8180  0.4989  0.0822
  489TMC3     C 7326   2.445   3.419  17.026 -0.0514  0.3951 -0.6609
  489TMC3     O 7327   2.413   3.308  17.066 -0.0172 -0.5803  0.2086
  489TMC3     H 7328   2.603   3.639  17.057 -0.0074 -1.2014  0.1240
  489TMC3    H1 7329   2.257   3.444  17.192 -2.0697  0.6689  0.2630
  489TMC3    H2 7330   2.309   3.853  17.286  1.9133  0.8204  0.4216
  489TMC3    C7 7331   2.153   3.666  17.324 -0.2756 -0.0431 -0.2644
  489TMC3    C8 7332   2.559   3.866  17.158 -0.0888 -0.2424  0.0337
  489TMC3    O1 7333   2.101   3.772  17.339  0.2067 -0.2890  0.3411
  489TMC3    O2 7334   2.669   3.838  17.101 -0.0747  0.0417  0.1225
  490MPD2     C 7335   3.190   2.952  17.420 -0.3349  0.3660  0.5076
  490MPD2    C1 7336   3.302   2.883  17.465 -0.1155 -0.2184  0.1397
  490MPD2    C2 7337   3.407   2.953  17.516 -0.2841  0.2911  0.1192
  490MPD2    C3 7338   3.397   3.089  17.522  0.8860 -0.2303 -0.0454
  490MPD2    C4 7339   3.291   3.164  17.476  0.2270 -0.5796 -0.3457
  490MPD2    C5 7340   3.185   3.086  17.422  0.1336  0.0070 -0.2387
  490MPD2     H 7341   3.494   2.903  17.558  0.4254 -1.5695 -3.5559
  490MPD2    H1 7342   3.292   3.273  17.474  2.0208 -0.6153 -1.4656
  490MPD2    H2 7343   3.112   2.903  17.363 -0.3899  1.6578 -0.5439
  490MPD2    H3 7344   3.106   3.143  17.374 -0.2152 -0.2065  0.0821
  490MPD2     N 7345   3.509   3.159  17.544 -0.2490  0.2398  0.1273
  490MPD2    H5 7346   3.514   3.252  17.505  0.2986 -0.3693 -1.2442
  490MPD2    N1 7347   3.304   2.740  17.463 -0.0770  0.4419 -0.2554
  490MPD2    H7 7348   3.377   2.694  17.517 -1.6278 -0.3200  1.1964
  491TMC3    C1 7349   3.280   2.526  17.373 -0.1089 -0.3524 -0.4558
  491TMC3    C2 7350   3.281   2.466  17.500 -1.0310  0.3296  0.1913
  491TMC3    C3 7351   3.235   2.342  17.510  0.4973  0.7009 -0.6824
  491TMC3    C4 7352   3.246   2.453  17.267 -0.5079  0.1590  0.3271
  491TMC3    C5 7353   3.233   2.323  17.281 -0.1639  0.3037 -0.0516
  491TMC3    C6 7354   3.218   2.260  17.400  0.6586 -0.1409  0.5728
  491TMC3     C 7355   3.232   2.661  17.381  0.5423 -0.4872  0.7869
  491TMC3     O 7356   3.175   2.692  17.278  0.5535 -0.3635  0.4685
  491TMC3     H 7357   3.299   2.513  17.596  1.3617 -0.1719 -0.0300
  491TMC3    H1 7358   3.232   2.493  17.167  1.4456 -0.0237 -0.0084
  491TMC3    H2 7359   3.170   2.164  17.409  0.3363 -0.0262  0.0467
  491TMC3    C7 7360   3.180   2.258  17.161  0.6839  0.2343  0.2787
  491TMC3    C8 7361   3.155   2.314  17.629  0.1039 -0.2621 -0.8378
  491TMC3    O1 7362   3.131   2.328  17.076 -0.1800  0.5692 -0.1330
  491TMC3    O2 7363   3.112   2.413  17.686  0.1009  0.0644 -0.1191
  492MPD2     C 7364   3.274   2.970  10.841 -0.2376  0.4175 -0.3491
  492MPD2    C1 7365   3.199   2.854  10.845  0.4144 -0.2733  0.4531
  492MPD2    C2 7366   3.203   2.769  10.956 -0.0412  0.0805  0.5386
  492MPD2    C3 7367   3.282   2.800  11.064 -0.5662  0.8048 -0.4870
  492MPD2    C4 7368   3.358   2.913  11.059  0.1870  0.7928 -0.7254
  492MPD2    C5 7369   3.355   2.990  10.947 -0.3793 -0.1730  1.2139
  492MPD2     H 7370   3.148   2.676  10.950 -4.2594  2.7838 -2.4796
  492MPD2    H1 7371   3.427   2.931  11.140  0.9732 -1.6569 -0.8679
  492MPD2    H2 7372   3.268   3.059  10.779  0.7157  0.8807  0.2275
  492MPD2    H3 7373   3.401   3.088  10.949  1.4509 -0.9927  0.1376
  492MPD2     N 7374   3.285   2.715  11.185 -0.0647  0.0937 -0.1783
  492MPD2    H5 7375   3.325   2.752  11.271 -3.0254  1.9728  0.3927
  492MPD2    N1 7376   3.122   2.825  10.730 -0.0039 -0.3449  0.5040
  492MPD2    H7 7377   3.140   2.873  10.643  1.2691 -1.9322 -0.1264
  493TMC3    C1 7378   2.975   2.704  10.594  0.2752 -0.3159  0.1900
  493TMC3    C2 7379   3.010   2.786  10.487  0.3073 -0.0721 -0.5086
  493TMC3    C3 7380   2.935   2.776  10.370  0.4209 -0.6157 -0.2698
  493TMC3    C4 7381   2.892   2.596  10.574  0.6934 -0.0735 -0.6549
  493TMC3    C5 7382   2.832   2.587  10.452  0.5459  0.1186  0.5448
  493TMC3    C6 7383   2.848   2.674  10.350 -0.6845  0.3376  0.5796
  493TMC3     C 7384   3.023   2.730  10.727 -0.6695  0.3911 -0.2739
  493TMC3     O 7385   2.965   2.674  10.816 -0.3730  0.5115  0.0832
  493TMC3     H 7386   3.059   2.877  10.520  1.7114 -0.6326 -1.0910
  493TMC3    H1 7387   2.849   2.543  10.658  0.3165 -0.2655 -0.9661
  493TMC3    H2 7388   2.792   2.667  10.257 -1.1905 -0.9677  0.9814
  493TMC3    C7 7389   2.712   2.509  10.434 -0.9390  0.6269  0.0052
  493TMC3    C8 7390   2.952   2.869  10.262  0.7688  0.4066 -0.0278
  493TMC3    O1 7391   2.618   2.548  10.361 -0.4161 -0.0588 -0.2990
  493TMC3    O2 7392   2.916   2.826  10.152 -0.1464 -0.1657  0.0771
  494TMC3    C1 7393   3.880   4.510   0.618 -0.3544  0.0406 -0.3319
  494TMC3    C2 7394   3.959   4.393   0.643 -0.0713 -0.0542  0.3167
  494TMC3    C3 7395   4.007   4.330   0.529 -0.2095 -0.3281 -0.0079
  494TMC3    C4 7396   3.844   4.552   0.495 -0.1956  0.5164  0.5155
  494TMC3    C5 7397   3.898   4.487   0.390 -0.2433 -0.2171 -0.1931
  494TMC3    C6 7398   3.980   4.377   0.403  0.4484 -0.3173 -0.5262
  494TMC3     C 7399   3.836   4.579   0.734  0.3096 -0.5178  0.2860
  494TMC3     O 7400   3.860   4.697   0.743 -0.4013 -0.2136  0.1780
  494TMC3     H 7401   3.996   4.370   0.743  1.7978 -1.5253 -0.7161
  494TMC3    H1 7402   3.781   4.641   0.488 -0.2264  0.4704  0.2106
  494TMC3    H2 7403   4.007   4.311   0.320  1.6920 -0.7766  0.2368
  494TMC3    C7 7404   3.891   4.538   0.257  0.2658 -0.3993  0.4630
  494TMC3    C8 7405   4.110   4.213   0.549  0.2954  0.3978 -0.1867
  494TMC3    O1 7406   3.962   4.488   0.180  0.0383  0.0317  0.1896
  494TMC3    O2 7407   4.172   4.179   0.449  0.5753  0.1299 -0.5512
  495TMC3    C1 7408   2.866   1.751  14.548 -0.0636  0.5633 -1.0440
  495TMC3    C2 7409   2.769   1.756  14.456 -0.5633  0.4092 -0.5635
  495TMC3    C3 7410   2.685   1.865  14.474 -0.4693  0.0121 -0.0746
  495TMC3    C4 7411   2.887   1.857  14.635  0.1054  0.2179  0.1694
  495TMC3    C5 7412   2.804   1.960  14.644  0.8794  0.1991 -0.4626
  495TMC3    C6 7413   2.693   1.961  14.569  0.1950  0.3228 -0.3029
  495TMC3     C 7414   2.891   1.620  14.603 -0.4592  0.2277 -0.1388
  495TMC3     O 7415   2.884   1.525  14.524 -0.3724  0.1961 -0.3031
  495TMC3     H 7416   2.763   1.675  14.384 -2.5393  0.9269 -0.9922
  495TMC3    H1 7417   2.960   1.863  14.715  0.5831 -0.6460 -0.1946
  495TMC3    H2 7418   2.618   2.039  14.563  1.0489  1.1714  0.0298
  495TMC3    C7 7419   2.779   2.020  14.771  0.2850  0.1786  0.5255
  495TMC3    C8 7420   2.558   1.860  14.404 -0.0372 -0.0191  0.4654
  495TMC3    O1 7421   2.662   2.020  14.807  0.0031  0.1840  0.8515
  495TMC3    O2 7422   2.554   1.798  14.301  0.1147 -0.0050 -0.4383
  496MPD2     C 7423   4.385   2.366  15.594 -0.3848  0.4056  0.2843
  496MPD2    C1 7424   4.454   2.260  15.648 -0.2338  0.0516  0.4259
  496MPD2    C2 7425   4.424   2.226  15.782  0.4925 -0.0330  0.3000
  496MPD2    C3 7426   4.340   2.300  15.859 -0.7448 -0.5440  0.0235
  496MPD2    C4 7427   4.266   2.403  15.798 -0.4610 -0.1224 -0.1690
  496MPD2    C5 7428   4.289   2.434  15.671  0.0936  0.1394 -0.0604
  496MPD2     H 7429   4.461   2.135  15.827 -0.3950  0.0786  1.2585
  496MPD2    H1 7430   4.191   2.461  15.850  0.2299  1.2418 -0.6855
  496MPD2    H2 7431   4.396   2.410  15.496  1.7091  1.6420  1.0808
  496MPD2    H3 7432   4.233   2.517  15.629  2.6208  2.2741  0.8004
  496MPD2     N 7433   4.298   2.255  15.991  0.0319 -0.2003 -0.4116
  496MPD2    H5 7434   4.204   2.279  16.023 -0.1220 -2.3709  0.7804
  496MPD2    N1 7435   4.550   2.188  15.572  0.2798  0.0438 -0.1596
  496MPD2    H7 7436   4.588   2.236  15.491  2.3164 -1.4477 -0.0736
  497TMC3    C1 7437   4.292   2.088  16.157 -0.0597  1.0740 -0.8391
  497TMC3    C2 7438   4.191   2.015  16.099 -0.6139 -0.0910 -0.3913
  497TMC3    C3 7439   4.159   1.892  16.155 -0.4395  0.1364  0.1617
  497TMC3    C4 7440   4.348   2.046  16.279 -0.6206  0.0246  0.2219
  497TMC3    C5 7441   4.312   1.929  16.329  0.0181 -0.5801  0.0923
  497TMC3    C6 7442   4.207   1.854  16.273 -0.3286 -0.0992  0.3000
  497TMC3     C 7443   4.372   2.168  16.066  0.5973  0.5722  0.5807
  497TMC3     O 7444   4.493   2.131  16.055 -0.1429  0.3604 -0.0476
  497TMC3     H 7445   4.152   2.055  16.006 -0.1264  1.1317 -0.0764
  497TMC3    H1 7446   4.419   2.106  16.334 -1.3012  0.6169  0.4520
  497TMC3    H2 7447   4.179   1.756  16.312  0.1647  0.3941  1.8860
  497TMC3    C7 7448   4.354   1.886  16.461 -0.7106 -0.2302  0.4202
  497TMC3    C8 7449   4.110   1.793  16.066  0.5016  0.3455 -0.1649
  497TMC3    O1 7450   4.267   1.844  16.535 -0.1513  0.2752 -0.4739
  497TMC3    O2 7451   4.064   1.687  16.107 -0.1884 -0.5522 -0.6306
  498MPD2     C 7452   0.266   2.471  10.225 -0.8737  0.2211  0.6882
  498MPD2    C1 7453   0.347   2.371  10.170 -0.3827 -0.3338 -0.7590
  498MPD2    C2 7454   0.302   2.241  10.182 -0.0898  0.4908 -0.2505
  498MPD2    C3 7455   0.189   2.206  10.247  1.3374 -0.4612  0.2216
  498MPD2    C4 7456   0.107   2.308  10.298  0.0922  1.2498  0.4254
  498MPD2    C5 7457   0.151   2.439  10.292  0.0211  0.2560  0.5614
  498MPD2     H 7458   0.368   2.159  10.154  1.7419  0.9760  2.5454
  498MPD2    H1 7459   0.012   2.300  10.350 -0.5155 -0.2608 -0.9068
  498MPD2    H2 7460   0.296   2.573  10.206  2.3353 -0.7713  0.3519
  498MPD2    H3 7461   0.096   2.521  10.335 -1.9914 -0.2215 -1.0931
  498MPD2     N 7462   0.148   2.070  10.252 -0.3095  0.5585 -0.0892
  498MPD2    H5 7463   0.211   1.997  10.219 -0.1036  1.1590 -1.0191
  498MPD2    N1 7464   0.471   2.397  10.113 -0.0302 -0.4975 -0.2878
  498MPD2    H7 7465   0.521   2.313  10.084  0.9187  0.3005 -0.9508
  499TMC3    C1 7466   0.655   2.517  10.014  0.3408 -0.2745 -0.4615
  499TMC3    C2 7467   0.672   2.411   9.937 -0.3410  0.1747  0.6318
  499TMC3    C3 7468   0.790   2.395   9.874  1.3974 -0.1190 -0.2461
  499TMC3    C4 7469   0.751   2.607  10.049 -0.1509 -0.0233 -0.5297
  499TMC3    C5 7470   0.867   2.579   9.991  0.2613  0.2017 -0.1074
  499TMC3    C6 7471   0.892   2.475   9.903  0.5671  0.3667  0.1954
  499TMC3     C 7472   0.529   2.522  10.097  0.0215 -0.4174  0.2427
  499TMC3     O 7473   0.489   2.635  10.127  0.6298  0.1671  0.5975
  499TMC3     H 7474   0.578   2.368   9.903 -0.5316  0.3124  0.9899
  499TMC3    H1 7475   0.742   2.667  10.139 -1.1137 -0.5545 -0.2645
  499TMC3    H2 7476   0.990   2.464   9.858  1.8716  0.4993  3.0331
  499TMC3    C7 7477   0.962   2.694  10.013  0.6857 -0.3005  0.0837
  499TMC3    C8 7478   0.797   2.281   9.784 -0.4763  0.3924  0.6333
  499TMC3    O1 7479   0.910   2.801  10.040  0.0944  0.7817  0.6100
  499TMC3    O2 7480   0.698   2.214   9.776 -0.3816  0.4654  0.1453
  500MPD2     C 7481   1.933   3.727  11.136  0.2241 -0.5322 -0.1843
  500MPD2    C1 7482   1.977   3.800  11.035  0.7741 -0.2196  0.1457
  500MPD2    C2 7483   1.902   3.900  10.984 -0.4765 -0.5861 -0.5035
  500MPD2    C3 7484   1.778   3.931  11.034 -0.3311  0.1503  0.6393
  500MPD2    C4 7485   1.735   3.855  11.142 -0.0169  0.0940  0.6667
  500MPD2    C5 7486   1.813   3.759  11.201 -0.5694 -0.0699  0.7036
  500MPD2     H 7487   1.951   3.967  10.914 -2.3793  0.9590 -0.3589
  500MPD2    H1 7488   1.641   3.870  11.194 -0.9471 -4.2920  0.2460
  500MPD2    H2 7489   1.984   3.638  11.171  0.7084 -0.0768  0.2628
  500MPD2    H3 7490   1.773   3.696  11.279 -1.4658 -0.3852 -0.0212
  500MPD2     N 7491   1.695   4.036  10.982 -1.2684 -0.0269 -0.9510
  500MPD2    H5 7492   1.606   4.040  11.030 -1.4890  2.2165 -1.5841
  500MPD2    N1 7493   2.096   3.778  10.966 -0.1751 -0.6791  0.6964
  500MPD2    H7 7494   2.103   3.837  10.883 -0.8957 -2.3896 -0.5765
  501TMC3    C1 7495   2.319   3.730  10.919 -0.7747 -0.6341 -0.1823
  501TMC3    C2 7496   2.339   3.862  10.872 -1.0755 -0.1642  0.3371
  501TMC3    C3 7497   2.472   3.894  10.845 -0.6776  0.2509 -0.2414
  501TMC3    C4 7498   2.419   3.643  10.934  0.0529  0.2735  0.3999
  501TMC3    C5 7499   2.544   3.688  10.905  0.4695  0.2358 -0.1270
  501TMC3    C6 7500   2.579   3.815  10.862 -0.3923 -0.1964 -0.5725
  501TMC3     C 7501   2.205   3.705  11.004  0.6080 -0.4399  1.0668
  501TMC3     O 7502   2.215   3.637  11.103 -0.0394  0.7519 -0.0953
  501TMC3     H 7503   2.264   3.940  10.873 -0.4664  0.3724  2.8534
  501TMC3    H1 7504   2.404   3.540  10.963 -0.3857  1.2131  3.6318
  501TMC3    H2 7505   2.682   3.846  10.845  0.1532 -2.1516 -0.8176
  501TMC3    C7 7506   2.652   3.592  10.940 -0.2613 -0.3318  0.9704
  501TMC3    C8 7507   2.504   4.023  10.784  1.4148  0.3008  0.4728
  501TMC3    O1 7508   2.622   3.500  11.020 -0.2673  0.2247 -0.3180
  501TMC3    O2 7509   2.606   4.081  10.824 -0.1121  0.3710  0.0751
  502TMC3    C1 7510   1.968   2.509  15.029 -0.2987 -0.0248  0.6722
  502TMC3    C2 7511   1.961   2.642  14.998  0.3629  0.6175  0.0881
  502TMC3    C3 7512   1.846   2.709  14.999  0.0095 -0.7459  0.4856
  502TMC3    C4 7513   1.855   2.445  15.065 -0.4792  0.3901 -0.3649
  502TMC3    C5 7514   1.740   2.515  15.075 -0.2109  0.6676 -0.2509
  502TMC3    C6 7515   1.732   2.646  15.035 -0.4628 -0.1243  0.3388
  502TMC3     C 7516   2.080   2.480  15.117 -0.1302  0.5238 -0.5751
  502TMC3     O 7517   2.192   2.479  15.066  0.1206 -0.1004  0.0377
  502TMC3     H 7518   2.058   2.690  14.995  0.3495  0.7253  1.5325
  502TMC3    H1 7519   1.857   2.344  15.105 -3.4124  0.3238 -0.3913
  502TMC3    H2 7520   1.636   2.693  15.048  0.4426  1.9350 -0.2911
  502TMC3    C7 7521   1.690   2.505  15.208 -0.1159  0.4090 -0.4233
  502TMC3    C8 7522   1.844   2.857  14.987  0.0888  0.2246  0.4627
  502TMC3    O1 7523   1.778   2.488  15.294 -0.3879  0.7273  0.3572
  502TMC3    O2 7524   1.920   2.903  14.908  0.9860  0.1486  0.1230
  503MPD2     C 7525   4.265   3.323  16.774 -0.5505  0.6634 -0.9667
  503MPD2    C1 7526   4.269   3.381  16.900 -0.0769 -0.1477  0.4675
  503MPD2    C2 7527   4.333   3.314  17.001  0.8976 -0.0203  0.2390
  503MPD2    C3 7528   4.394   3.192  16.979 -0.2150  1.0036 -1.1782
  503MPD2    C4 7529   4.388   3.133  16.855 -0.4849 -0.0166 -0.4596
  503MPD2    C5 7530   4.318   3.205  16.758  0.7057  0.2496 -0.5148
  503MPD2     H 7531   4.326   3.355  17.101  1.1982 -3.4422  1.6518
  503MPD2    H1 7532   4.420   3.031  16.840 -0.0091 -0.0424  0.7881
  503MPD2    H2 7533   4.221   3.368  16.685 -3.8420 -0.9331 -0.1778
  503MPD2    H3 7534   4.306   3.154  16.664 -0.4392 -0.1345 -0.1660
  503MPD2     N 7535   4.464   3.131  17.085 -0.8058 -0.1642  0.0350
  503MPD2    H5 7536   4.457   3.178  17.175  0.4114 -0.7502  0.4420
  503MPD2    N1 7537   4.234   3.516  16.921 -0.4236 -0.1771 -0.0730
  503MPD2    H7 7538   4.276   3.561  17.002  0.7626 -1.1207 -0.1646
  504TMC3    C1 7539   4.622   3.014  17.211  0.4455 -1.1011  0.6206
  504TMC3    C2 7540   4.552   2.984  17.324 -0.3211 -0.1048  0.7473
  504TMC3    C3 7541   4.613   2.916  17.423 -0.1963 -0.3651 -0.4184
  504TMC3    C4 7542   0.008   2.963  17.189 -0.5076  0.8814  0.1393
  504TMC3    C5 7543   0.069   2.898  17.290 -0.6145  0.2762  0.2595
  504TMC3    C6 7544   4.736   2.867  17.409 -0.3433  0.2903  0.4878
  504TMC3     C 7545   4.539   3.020  17.085 -0.1196 -0.6701 -0.1686
  504TMC3     O 7546   4.584   2.957  16.989  0.3889 -0.1931  0.2573
  504TMC3     H 7547   4.447   3.010  17.339  0.5742  4.4073 -0.9193
  504TMC3    H1 7548   0.062   2.989  17.099 -1.8165  3.3119  0.0538
  504TMC3    H2 7549   0.041   2.800  17.484 -3.9250 -1.7490  0.7194
  504TMC3    C7 7550   0.213   2.862  17.299 -0.1047  0.4678 -0.2082
  504TMC3    C8 7551   4.528   2.852  17.523  0.1510 -0.6141  0.1175
  504TMC3    O1 7552   0.259   2.862  17.411 -0.2310  0.1487 -0.4227
  504TMC3    O2 7553   4.410   2.841  17.510  0.4063  0.6195  0.8297
  505MPD2     C 7554   4.299   0.691  10.126  0.1888  0.6772  0.0194
  505MPD2    C1 7555   4.411   0.704  10.207 -0.6050  0.6324  0.4603
  505MPD2    C2 7556   4.395   0.732  10.344 -0.1926 -1.3260  0.1775
  505MPD2    C3 7557   4.275   0.759  10.400 -0.6847  0.3940 -0.1927
  505MPD2    C4 7558   4.166   0.742  10.316  0.8697 -0.5132  0.2108
  505MPD2    C5 7559   4.177   0.708  10.187 -0.1266  0.0729  0.0106
  505MPD2     H 7560   4.482   0.735  10.409  1.1208  0.1743 -1.6446
  505MPD2    H1 7561   4.070   0.754  10.365  1.0758  0.8554  0.2724
  505MPD2    H2 7562   4.301   0.651  10.026 -0.4852  0.6030  0.0358
  505MPD2    H3 7563   4.088   0.691  10.127 -0.5867  2.2094  0.0775
  505MPD2     N 7564   4.273   0.798  10.539  0.8549  1.1296 -0.4020
  505MPD2    H5 7565   4.364   0.791  10.583  0.9918  1.6724 -0.5948
  505MPD2    N1 7566   4.539   0.662  10.149  0.3515  0.0757  0.3422
  505MPD2    H7 7567   4.547   0.642  10.050  0.5007 -0.1832  0.4070
  506TMC3    C1 7568   0.030   0.619  10.143 -0.3554 -0.2470  0.3607
  506TMC3    C2 7569   0.065   0.728  10.071 -0.0888  0.1778  0.0412
  506TMC3    C3 7570   0.194   0.773  10.077 -0.5618  0.0203 -0.1333
  506TMC3    C4 7571   0.121   0.558  10.228  0.1207 -0.6068 -0.2513
  506TMC3    C5 7572   0.249   0.608  10.231  0.2933 -0.0276 -0.0621
  506TMC3    C6 7573   0.289   0.705  10.140 -0.3161  0.2685  0.0464
  506TMC3     C 7574   4.647   0.637  10.223 -0.1205  0.0329  0.9579
  506TMC3     O 7575   4.671   0.647  10.343 -0.3598  0.4368  0.0945
  506TMC3     H 7576   4.724   0.783  10.019 -0.2484 -0.4456 -0.3719
  506TMC3    H1 7577   0.078   0.474  10.282 -2.4872 -0.0928 -1.5265
  506TMC3    H2 7578   0.389   0.746  10.144  0.4486 -1.6423  0.6031
  506TMC3    C7 7579   0.295   0.634  10.363 -0.0530 -0.3630  0.3508
  506TMC3    C8 7580   0.235   0.898  10.018  0.7455  0.6532  0.8746
  506TMC3    O1 7581   0.408   0.678  10.371 -0.1515 -0.1855  0.3130
  506TMC3    O2 7582   0.358   0.907   9.993 -0.2563  0.2577 -0.3203
  507TMC3    C1 7583   0.404   2.946  15.044  0.4006  0.4839  0.3685
  507TMC3    C2 7584   0.389   2.859  14.945 -0.6177 -0.0974 -0.1582
  507TMC3    C3 7585   0.495   2.834  14.859  0.3694  0.4507 -0.0644
  507TMC3    C4 7586   0.518   3.023  15.060 -0.4484 -0.8815 -0.3316
  507TMC3    C5 7587   0.624   2.999  14.974  0.1677  0.7048  0.1832
  507TMC3    C6 7588   0.616   2.896  14.879 -0.5516 -0.0385 -0.6585
  507TMC3     C 7589   0.326   2.935  15.160  0.5791 -0.3921 -0.4926
  507TMC3     O 7590   0.387   2.928  15.266 -0.0303  0.6683 -0.1835
  507TMC3     H 7591   0.292   2.815  14.926 -1.3005  0.7818  1.2694
  507TMC3    H1 7592   0.522   3.099  15.137  0.3671 -0.0427 -1.2106
  507TMC3    H2 7593   0.702   2.891  14.812  0.5238  0.1632  0.7077
  507TMC3    C7 7594   0.672   3.111  14.903  0.6560 -0.0892 -0.1363
  507TMC3    C8 7595   0.447   2.818  14.722  0.5591  0.5457  0.1926
  507TMC3    O1 7596   0.665   3.102  14.782  0.5084 -0.1997  0.4643
  507TMC3    O2 7597   0.343   2.754  14.709 -0.2324 -0.2685 -1.2045
  508MPD2     C 7598   1.452   0.430  16.190  0.2463 -0.0429  0.1683
  508MPD2    C1 7599   1.544   0.527  16.201  0.1450 -0.2043  0.0368
  508MPD2    C2 7600   1.560   0.612  16.095 -0.4189  0.1249  0.4205
  508MPD2    C3 7601   1.480   0.610  15.988 -0.3597 -0.4805 -0.2434
  508MPD2    C4 7602   1.395   0.504  15.968  0.1750  0.4519  0.2455
  508MPD2    C5 7603   1.393   0.416  16.067  0.3003 -0.1133  0.4457
  508MPD2     H 7604   1.630   0.692  16.117  1.0562 -1.2638  0.8428
  508MPD2    H1 7605   1.325   0.490  15.886 -0.1724  0.2208  0.5804
  508MPD2    H2 7606   1.422   0.362  16.269 -1.0436 -0.8765 -1.0555
  508MPD2    H3 7607   1.319   0.336  16.058 -0.8430  0.8646  1.1263
  508MPD2     N 7608   1.487   0.725  15.901 -0.6550  0.0535 -0.3747
  508MPD2    H5 7609   1.558   0.795  15.920  1.5182 -2.4680  0.6827
  508MPD2    N1 7610   1.610   0.556  16.317 -0.4509 -0.2833  0.1429
  508MPD2    H7 7611   1.661   0.643  16.306  0.2124 -0.4940  1.5025
  509TMC3    C1 7612   1.335   1.051  15.620  0.0846 -0.0533 -0.4238
  509TMC3    C2 7613   1.453   1.119  15.626 -0.0093 -0.0535  1.1112
  509TMC3    C3 7614   1.563   1.053  15.675 -0.5918  0.8006 -0.7921
  509TMC3    C4 7615   1.327   0.923  15.665  0.2765 -0.5947 -0.3509
  509TMC3    C5 7616   1.440   0.866  15.725  0.4342  0.7343  0.1500
  509TMC3    C6 7617   1.560   0.931  15.738  0.0631 -0.8667 -0.1708
  509TMC3     C 7618   1.233   1.115  15.545 -0.3770  0.2903 -0.2946
  509TMC3     O 7619   1.155   1.037  15.489 -0.2780  0.4628 -0.1225
  509TMC3     H 7620   1.457   1.215  15.577  3.0706 -1.1231 -0.7144
  509TMC3    H1 7621   1.234   0.867  15.673  0.9872 -1.3249  3.1374
  509TMC3    H2 7622   1.648   0.878  15.771 -0.2577 -0.8195  0.7518
  509TMC3    C7 7623   1.409   0.744  15.786 -0.1708  0.6327 -0.4522
  509TMC3    C8 7624   1.686   1.094  15.609  0.8714 -0.1913 -0.6764
  509TMC3    O1 7625   1.317   0.673  15.751  0.8183  0.4201  0.3068
  509TMC3    O2 7626   1.780   1.010  15.600  0.1737 -0.0364  0.6615
  510MPD2     C 7627   4.002   2.301  14.865 -0.8073  0.0042  0.4500
  510MPD2    C1 7628   4.052   2.180  14.903  0.5500 -0.2324  0.6062
  510MPD2    C2 7629   4.169   2.132  14.847  0.4789  0.6714 -0.5936
  510MPD2    C3 7630   4.235   2.199  14.742  0.4139  0.9608 -0.1806
  510MPD2    C4 7631   4.160   2.305  14.682  0.1020  0.3249 -0.1325
  510MPD2    C5 7632   4.046   2.349  14.745  0.3936  0.3572 -0.1636
  510MPD2     H 7633   4.218   2.043  14.883  1.1799  0.9714 -0.7921
  510MPD2    H1 7634   4.197   2.341  14.587 -0.5661 -1.3721 -1.0299
  510MPD2    H2 7635   3.908   2.343  14.901  0.0576  2.3451 -0.0552
  510MPD2    H3 7636   3.981   2.425  14.703 -0.7223 -0.0557  0.8157
  510MPD2     N 7637   4.364   2.164  14.707  0.7985  0.4092 -0.1581
  510MPD2    H5 7638   4.413   2.093  14.760 -0.1820 -0.3611 -0.2878
  510MPD2    N1 7639   3.990   2.121  15.008 -0.0319  0.4582  0.1643
  510MPD2    H7 7640   3.908   2.169  15.043 -1.5708 -2.3203  0.3424
  511TMC3    C1 7641   3.921   1.944  15.161 -0.9200 -0.6937 -0.5445
  511TMC3    C2 7642   3.833   2.024  15.227 -0.1429  0.2980  0.2866
  511TMC3    C3 7643   3.742   1.957  15.303 -0.5856  0.3107  0.0381
  511TMC3    C4 7644   3.925   1.806  15.174  0.5688  0.0190  0.1658
  511TMC3    C5 7645   3.825   1.752  15.245 -0.2028 -0.1774  0.1329
  511TMC3    C6 7646   3.735   1.822  15.317 -0.1433 -0.3362 -0.4051
  511TMC3     C 7647   4.025   1.998  15.063 -0.2076 -0.3189  0.0724
  511TMC3     O 7648   4.100   1.912  15.026  0.3923 -0.4153  0.1498
  511TMC3     H 7649   3.850   2.131  15.237 -0.5913  0.3442  0.5496
  511TMC3    H1 7650   4.005   1.742  15.138  0.2482  0.4704 -1.3471
  511TMC3    H2 7651   3.648   1.763  15.342  0.7730 -0.1499  3.2331
  511TMC3    C7 7652   3.821   1.605  15.240  0.2564 -0.8968 -0.2805
  511TMC3    C8 7653   3.650   2.036  15.385  0.2608  0.6294 -0.3926
  511TMC3    O1 7654   3.889   1.548  15.157 -0.0478 -0.3493  0.6764
  511TMC3    O2 7655   3.674   2.155  15.391 -0.2121 -0.2481  0.0964
  512TMC3    C1 7656   2.481   1.544  13.761  0.2990  0.3829 -0.5662
  512TMC3    C2 7657   2.564   1.498  13.858  0.0294 -0.5206 -0.4262
  512TMC3    C3 7658   2.640   1.390  13.823  0.2534 -0.0234  0.3414
  512TMC3    C4 7659   2.475   1.490  13.633  0.4144  0.7390 -0.7749
  512TMC3    C5 7660   2.554   1.385  13.606 -0.3682  0.0877 -0.0589
  512TMC3    C6 7661   2.637   1.331  13.703  0.2397 -0.3504 -0.5602
  512TMC3     C 7662   2.405   1.661  13.783 -0.3404  0.3704  0.7206
  512TMC3     O 7663   2.399   1.698  13.899  0.8332  0.3664  0.1489
  512TMC3     H 7664   2.566   1.537  13.959  1.1502  1.6947 -1.3291
  512TMC3    H1 7665   2.416   1.524  13.549  0.6572  1.9333 -0.4668
  512TMC3    H2 7666   2.709   1.256  13.672  1.0608 -0.0959  0.7494
  512TMC3    C7 7667   2.535   1.311  13.479 -0.2820 -0.1272 -0.2973
  512TMC3    C8 7668   2.757   1.377  13.906 -0.1248 -0.1224 -0.4922
  512TMC3    O1 7669   2.489   1.376  13.388 -0.4611 -0.2551  0.1907
  512TMC3    O2 7670   2.794   1.265  13.948  0.0729 -0.4438  0.3002
  513MPD2     C 7671   0.011   0.781  13.826  0.7962 -0.0289  0.4201
  513MPD2    C1 7672   0.032   0.860  13.715 -0.4554  0.0220  0.0814
  513MPD2    C2 7673   0.108   0.972  13.734 -0.0673  0.2895 -0.7693
  513MPD2    C3 7674   0.158   1.005  13.865 -0.1079 -0.0698 -0.4160
  513MPD2    C4 7675   0.136   0.924  13.971  0.6095 -0.3579 -0.3626
  513MPD2    C5 7676   0.063   0.808  13.950 -0.2493 -0.4819 -0.2723
  513MPD2     H 7677   0.141   1.039  13.655 -1.4290  0.2337 -1.3869
  513MPD2    H1 7678   0.172   0.946  14.071  0.8888 -2.1183 -0.0849
  513MPD2    H2 7679   4.685   0.694  13.817 -2.1599  2.1784 -0.4657
  513MPD2    H3 7680   0.049   0.744  14.037 -1.6763 -0.0649 -0.1838
  513MPD2     N 7681   0.238   1.120  13.869 -0.3884 -0.7725 -0.2351
  513MPD2    H5 7682   0.271   1.151  13.778  1.0987 -1.4838  0.0709
  513MPD2    N1 7683   4.717   0.823  13.595 -0.8071 -0.9030  0.1182
  513MPD2    H7 7684   4.654   0.743  13.595 -0.1678 -1.4021  0.4280
  514TMC3    C1 7685   4.724   0.795  13.363  0.0129  0.3841 -0.0911
  514TMC3    C2 7686   4.604   0.815  13.294  0.0438  0.0559 -0.6965
  514TMC3    C3 7687   4.614   0.825  13.156  0.2481  0.3613 -0.5516
  514TMC3    C4 7688   0.101   0.794  13.286  0.4602  0.9076 -0.6997
  514TMC3    C5 7689   0.110   0.809  13.153 -0.1624 -0.6811  0.1002
  514TMC3    C6 7690   4.736   0.834  13.084  0.8009 -0.0592  0.2083
  514TMC3     C 7691   0.005   0.887  13.474  0.3584  0.0277  0.2840
  514TMC3     O 7692   0.081   0.977  13.444  0.1073  0.5966  0.2393
  514TMC3     H 7693   4.509   0.833  13.345 -0.5511 -0.7208 -1.5243
  514TMC3    H1 7694   0.191   0.783  13.345 -0.3611 -0.3841  0.3135
  514TMC3    H2 7695   0.009   0.856  12.978 -0.8367 -0.3303 -0.0022
  514TMC3    C7 7696   0.223   0.894  13.115  0.7848 -0.0663  0.1405
  514TMC3    C8 7697   4.490   0.880  13.094  0.2096 -0.2836  0.6290
  514TMC3    O1 7698   0.261   0.896  12.999 -0.1327 -0.1152 -0.0008
  514TMC3    O2 7699   4.400   0.905  13.172  0.1288 -0.0142  0.0548
  515MPD2     C 7700   2.520   3.605  15.445 -0.1042  0.4023  0.6701
  515MPD2    C1 7701   2.568   3.550  15.326  0.0075  0.3080  0.3519
  515MPD2    C2 7702   2.689   3.583  15.277 -0.1895  0.2240 -0.1760
  515MPD2    C3 7703   2.766   3.678  15.347  0.1818 -0.0659  0.1092
  515MPD2    C4 7704   2.714   3.744  15.458  0.5784  0.3318 -0.0302
  515MPD2    C5 7705   2.590   3.706  15.499 -0.1071 -0.2973 -0.0742
  515MPD2     H 7706   2.718   3.539  15.183 -2.3387 -1.2407 -0.1501
  515MPD2    H1 7707   2.762   3.821  15.518 -0.6661 -0.1082  1.5352
  515MPD2    H2 7708   2.424   3.581  15.490 -0.0320  0.4723  0.8638
  515MPD2    H3 7709   2.547   3.758  15.584 -0.7180  0.7096 -0.9949
  515MPD2     N 7710   2.898   3.718  15.310 -0.0971  0.3798  0.0015
  515MPD2    H5 7711   2.948   3.791  15.360  0.9035 -0.2357 -0.1023
  515MPD2    N1 7712   2.482   3.466  15.246  0.1564 -0.0813 -0.1133
  515MPD2    H7 7713   2.516   3.459  15.151  0.1774  0.3374 -0.1369
  516TMC3    C1 7714   2.313   3.329  15.195 -0.7334  0.0360  0.2868
  516TMC3    C2 7715   2.315   3.371  15.063 -0.1772 -0.3138  0.0683
  516TMC3    C3 7716   2.251   3.281  14.978  0.1579  0.6346 -0.0045
  516TMC3    C4 7717   2.249   3.215  15.236  0.1069  0.4223 -0.8196
  516TMC3    C5 7718   2.193   3.128  15.143  0.3209  0.3428 -0.3859
  516TMC3    C6 7719   2.188   3.168  15.015 -0.4712  0.0626 -0.0397
  516TMC3     C 7720   2.368   3.413  15.292 -0.0807 -0.1010  0.0913
  516TMC3     O 7721   2.338   3.391  15.404  0.2395  0.3143 -0.0451
  516TMC3     H 7722   2.340   3.472  15.032  1.3481 -0.6543  0.1887
  516TMC3    H1 7723   2.259   3.184  15.339  2.0302  0.4225 -1.0043
  516TMC3    H2 7724   2.145   3.109  14.935 -2.7117 -3.2942  3.6675
  516TMC3    C7 7725   2.228   2.988  15.166 -0.2296  0.4010 -0.1778
  516TMC3    C8 7726   2.225   3.323  14.842 -0.6392 -0.0692 -0.3232
  516TMC3    O1 7727   2.243   2.957  15.285  0.5464 -0.2508  0.1476
  516TMC3    O2 7728   2.111   3.313  14.792 -0.0354 -0.4094  0.1633
  517MPD2     C 7729   2.482   0.099  17.676  0.3168 -0.7180  0.8443
  517MPD2    C1 7730   2.613   0.082  17.701 -0.7155 -0.2791  0.0628
  517MPD2    C2 7731   2.696   0.184   0.007 -0.2276 -0.2804 -0.5504
  517MPD2    C3 7732   2.641   0.308   0.019  0.8159  0.4850  0.1027
  517MPD2    C4 7733   2.513   0.328  17.738 -0.4065  0.2088  0.0970
  517MPD2    C5 7734   2.428   0.227  17.696 -0.3727 -0.6350 -0.0774
  517MPD2     H 7735   2.801   0.167   0.024 -0.8208 -2.0187  1.3249
  517MPD2    H1 7736   2.474   0.427   0.011 -1.2763  0.0912 -1.0375
  517MPD2    H2 7737   2.418   0.018  17.644 -0.3168 -0.8900  2.5218
  517MPD2    H3 7738   2.322   0.245  17.686 -0.7387 -1.7939  1.7656
  517MPD2     N 7739   2.725   0.419   0.050  0.3634 -0.3021  0.7372
  517MPD2    H5 7740   2.684   0.512   0.047 -0.9402 -0.8022  3.2458
  517MPD2    N1 7741   2.681   4.698  17.669 -0.3558  0.3101 -0.3360
  517MPD2    H7 7742   2.773   4.689  17.712 -1.8620 -0.8851  2.6354
  518TMC3    C1 7743   2.743   4.490  17.596  0.5118 -0.1668 -0.0772
  518TMC3    C2 7744   2.710   4.367  17.549 -0.2885  0.3128  0.3604
  518TMC3    C3 7745   2.801   4.267  17.572  0.5044 -0.5227 -0.8713
  518TMC3    C4 7746   2.868   4.520  17.648 -0.0976 -0.3962  0.1492
  518TMC3    C5 7747   2.955   4.415  17.659 -0.2135  0.3458 -0.4254
  518TMC3    C6 7748   2.922   4.288  17.630 -0.0613 -0.3740  0.9202
  518TMC3     C 7749   2.638   4.591  17.598  0.4561 -0.1959  0.2736
  518TMC3     O 7750   2.523   4.552  17.578  0.2921  0.7369 -0.4589
  518TMC3     H 7751   2.621   4.341  17.493  1.1188  0.1540 -1.8153
  518TMC3    H1 7752   2.904   4.619  17.674 -0.6158 -0.5017  1.2372
  518TMC3    H2 7753   2.986   4.203  17.654  0.2477 -0.2157  0.6579
  518TMC3    C7 7754   3.094   4.442  17.703  0.1683 -0.3300 -1.0518
  518TMC3    C8 7755   2.762   4.131  17.536  0.1632 -0.2216  0.1426
  518TMC3    O1 7756   3.103   4.547   0.017  0.0584 -0.7088  0.5617
  518TMC3    O2 7757   2.856   4.051  17.540  0.4531 -0.5039  0.0919
  519MPD2     C 7758   4.357   3.486  14.408  0.1074 -0.0982 -0.4278
  519MPD2    C1 7759   4.251   3.413  14.363  0.1080 -0.7315  0.3237
  519MPD2    C2 7760   4.277   3.302  14.293  0.1324  0.5185 -0.6857
  519MPD2    C3 7761   4.410   3.256  14.287  0.0710 -0.2925 -0.5235
  519MPD2    C4 7762   4.513   3.328  14.335 -0.1455  0.5085 -0.6348
  519MPD2    C5 7763   4.483   3.450  14.387 -0.3118  1.0487 -0.3990
  519MPD2     H 7764   4.196   3.239  14.259 -0.5318  0.5368  0.8295
  519MPD2    H1 7765   4.616   3.294  14.333 -0.4211 -0.4147  1.0453
  519MPD2    H2 7766   4.339   3.579  14.462  1.7521  0.3472 -0.6483
  519MPD2    H3 7767   4.567   3.514  14.413  0.6072 -0.1948 -0.3424
  519MPD2     N 7768   4.447   3.130  14.227  0.2479  0.0632  0.3130
  519MPD2    H5 7769   4.545   3.120  14.202 -0.4365 -2.2240 -1.4139
  519MPD2    N1 7770   4.114   3.450  14.373 -0.0472  0.1381  0.6502
  519MPD2    H7 7771   4.044   3.385  14.339  0.9036  0.1097 -1.2438
  520TMC3    C1 7772   4.422   2.927  14.129 -0.3352 -0.1102 -0.1633
  520TMC3    C2 7773   4.325   2.852  14.063  0.0354 -0.2804  0.4722
  520TMC3    C3 7774   4.380   2.734  14.012 -0.7596 -0.3341 -0.6404
  520TMC3    C4 7775   4.558   2.898  14.132 -0.0948  0.2300  0.4717
  520TMC3    C5 7776   4.605   2.795  14.057 -0.2537 -0.0552 -0.0901
  520TMC3    C6 7777   4.512   2.708  14.007  0.0808 -0.0306 -0.1453
  520TMC3     C 7778   4.360   3.027  14.206 -0.1271 -0.3541  0.7273
  520TMC3     O 7779   4.237   3.027  14.233  0.1828 -0.1836  0.2278
  520TMC3     H 7780   4.220   2.874  14.049  0.2069  0.6353  0.5939
  520TMC3    H1 7781   4.626   2.939  14.206 -0.6414  0.0276  1.0850
  520TMC3    H2 7782   4.539   2.614  13.961 -2.1068 -0.7203  0.0110
  520TMC3    C7 7783   4.729   2.738  14.098 -0.4821 -0.9281  0.2282
  520TMC3    C8 7784   4.291   2.632  13.970 -0.2094 -0.7032  0.4072
  520TMC3    O1 7785   0.034   2.773  14.204 -0.4625 -0.1170 -0.3180
  520TMC3    O2 7786   4.335   2.535  13.915  0.0476  0.5992 -0.6058
  521MPD2     C 7787   0.479   1.340  17.643  0.4799 -0.3497  0.0311
  521MPD2    C1 7788   0.485   1.204  17.635  0.5850 -0.2400  0.1588
  521MPD2    C2 7789   0.593   1.155  17.574 -0.3319  0.3294  0.5794
  521MPD2    C3 7790   0.691   1.240  17.510 -0.0271 -0.5327 -0.8687
  521MPD2    C4 7791   0.671   1.374  17.509  0.1029 -0.3509 -0.3985
  521MPD2    C5 7792   0.564   1.419  17.582 -0.1792  0.7604 -0.1014
  521MPD2     H 7793   0.601   1.048  17.565  0.0127  0.3803  0.2940
  521MPD2    H1 7794   0.742   1.432  17.452 -0.0958  0.3201  0.0352
  521MPD2    H2 7795   0.400   1.388  17.700 -0.2816 -1.5925  0.0269
  521MPD2    H3 7796   0.557   1.527  17.593 -0.6269  0.5930  1.2376
  521MPD2     N 7797   0.786   1.179  17.429  0.3220  0.0885 -0.1376
  521MPD2    H5 7798   0.824   1.237  17.356 -0.7795  1.6229  0.5181
  521MPD2    N1 7799   0.376   1.124  17.671  0.4487 -0.4712 -0.1465
  521MPD2    H7 7800   0.304   1.174  17.723 -0.7215 -0.5401 -1.6892
  522TMC3    C1 7801   0.908   1.004  17.326 -0.4461 -0.8213 -0.7681
  522TMC3    C2 7802   1.000   0.906  17.357  0.0017 -0.3711  0.0346
  522TMC3    C3 7803   1.072   0.853  17.249 -0.4433 -0.0152  0.2508
  522TMC3    C4 7804   0.889   1.050  17.200 -0.1078 -0.7500  0.0241
  522TMC3    C5 7805   0.980   1.009  17.104  0.2602 -0.3249 -0.2673
  522TMC3    C6 7806   1.077   0.916  17.128  0.2951 -0.4726  0.2365
  522TMC3     C 7807   0.823   1.047  17.436 -0.7912 -0.1753 -0.1321
  522TMC3     O 7808   0.805   0.971  17.529 -0.2104 -0.2421  0.1694
  522TMC3     H 7809   1.025   0.869  17.456 -2.7859  0.9619  1.2353
  522TMC3    H1 7810   0.803   1.114  17.186 -1.7985 -2.7210  1.3782
  522TMC3    H2 7811   1.135   0.878  17.045 -0.8865  1.1407 -1.3463
  522TMC3    C7 7812   0.954   1.035  16.964 -0.4220  0.6648  0.3231
  522TMC3    C8 7813   1.184   0.762  17.290  0.1374  0.5915  0.0566
  522TMC3    O1 7814   1.055   1.035  16.889  0.3352 -0.2649 -0.6558
  522TMC3    O2 7815   1.195   0.726  17.406  0.0188 -0.4313 -0.1799
  523MPD2     C 7816   2.628   0.885  10.520  0.4077  0.2856 -0.7613
  523MPD2    C1 7817   2.579   0.791  10.427  0.0941 -0.6773  0.0432
  523MPD2    C2 7818   2.492   0.828  10.331  0.2215 -0.2752 -0.1229
  523MPD2    C3 7819   2.452   0.962  10.319  0.1790  0.0712  0.7752
  523MPD2    C4 7820   2.502   1.052  10.404 -0.5285 -0.6092 -0.2788
  523MPD2    C5 7821   2.590   1.017  10.503  0.5718 -0.5952 -0.2481
  523MPD2     H 7822   2.442   0.755  10.268 -0.3108 -0.6082  0.6909
  523MPD2    H1 7823   2.468   1.155  10.399 -0.8339 -0.6731  0.5672
  523MPD2    H2 7824   2.702   0.862  10.596 -1.0522  2.6953  1.4120
  523MPD2    H3 7825   2.617   1.086  10.582  2.8679  0.5475 -2.0289
  523MPD2     N 7826   2.358   1.013  10.224 -0.0785  0.7265 -0.0211
  523MPD2    H5 7827   2.332   1.111  10.234 -1.3241  0.5253 -1.1551
  523MPD2    N1 7828   2.625   0.660  10.444  0.6142  0.7108 -0.3468
  523MPD2    H7 7829   2.706   0.662  10.504 -0.9289 -0.4964  1.7560
  524TMC3    C1 7830   2.190   1.034  10.075 -0.0429 -0.0191  0.5417
  524TMC3    C2 7831   2.164   1.016   9.935 -0.2922 -0.3734 -0.0944
  524TMC3    C3 7832   2.101   1.121   9.876  0.5043  0.5574 -0.0767
  524TMC3    C4 7833   2.132   1.131  10.148  0.0258 -0.2468  0.4399
  524TMC3    C5 7834   2.053   1.222  10.081 -0.9530  0.5832  0.0888
  524TMC3    C6 7835   2.053   1.236   9.946  0.9598 -0.0284  0.8986
  524TMC3     C 7836   2.280   0.940  10.129  0.2219 -0.0904  0.2365
  524TMC3     O 7837   2.265   0.823  10.100  0.4214  0.1084 -0.2862
  524TMC3     H 7838   2.208   0.934   9.879  0.8632  0.1196  0.0871
  524TMC3    H1 7839   2.131   1.131  10.256  1.9462 -0.4857  0.4564
  524TMC3    H2 7840   2.007   1.313   9.884  2.7853  2.0967  2.1675
  524TMC3    C7 7841   1.987   1.322  10.167  0.6076  0.1696 -0.0340
  524TMC3    C8 7842   2.092   1.120   9.730  0.0813 -0.0591 -0.3028
  524TMC3    O1 7843   1.960   1.297  10.281  0.5138  0.5678 -0.3126
  524TMC3    O2 7844   2.175   1.068   9.657  0.7311 -0.1412  0.9673
  525MPD2     C 7845   0.847   2.658  14.642 -0.3815 -0.0845 -0.0009
  525MPD2    C1 7846   0.931   2.699  14.744 -0.2684 -0.3146  0.1193
  525MPD2    C2 7847   0.973   2.831  14.733 -0.3599 -0.2822  0.2902
  525MPD2    C3 7848   0.941   2.904  14.627  0.0894 -0.1088 -0.0582
  525MPD2    C4 7849   0.846   2.868  14.541 -0.2721 -0.8765  0.4554
  525MPD2    C5 7850   0.804   2.740  14.545 -0.4208  0.1753  0.3384
  525MPD2     H 7851   1.044   2.877  14.801 -0.2441 -1.0647  0.6997
  525MPD2    H1 7852   0.794   2.925  14.465  0.5720 -1.7987 -0.8146
  525MPD2    H2 7853   0.811   2.556  14.638  0.2419 -0.3589  1.2329
  525MPD2    H3 7854   0.724   2.696  14.486  0.3230 -1.7820  0.7662
  525MPD2     N 7855   1.000   3.033  14.623 -1.0537  0.4204  0.3627
  525MPD2    H5 7856   1.047   3.059  14.709  1.8643 -1.3500 -0.6921
  525MPD2    N1 7857   0.968   2.623  14.853 -0.2641  0.2898  0.4227
  525MPD2    H7 7858   1.034   2.666  14.917  2.8754  0.5161 -2.9977
  526TMC3    C1 7859   0.978   2.446  14.996  0.4872  0.6527 -0.6347
  526TMC3    C2 7860   0.895   2.382  15.085  0.2258 -0.2566 -0.5767
  526TMC3    C3 7861   0.949   2.320  15.192 -0.4096  0.4035 -0.2908
  526TMC3    C4 7862   1.115   2.418  14.984 -0.1960 -0.4749 -0.1310
  526TMC3    C5 7863   1.160   2.343  15.089  0.2719 -1.1263  0.4436
  526TMC3    C6 7864   1.084   2.294  15.192  0.3335  0.3199 -0.2670
  526TMC3     C 7865   0.909   2.509  14.889  0.2764  0.4303 -0.2514
  526TMC3     O 7866   0.810   2.452  14.844  0.0465 -0.1166 -0.4440
  526TMC3     H 7867   0.788   2.398  15.077  0.0969 -0.8005  0.0113
  526TMC3    H1 7868   1.170   2.446  14.895  0.0285 -0.4194  0.0232
  526TMC3    H2 7869   1.123   2.226  15.267  2.2221  2.4458  0.6719
  526TMC3    C7 7870   1.298   2.289  15.084 -0.0737  0.9158  0.2748
  526TMC3    C8 7871   0.889   2.319  15.325 -0.3193  0.1944 -0.3047
  526TMC3    O1 7872   1.369   2.319  14.991  0.1464  0.4248  0.3424
  526TMC3    O2 7873   0.973   2.311  15.418  0.6594  0.1199 -0.0579
  527MPD2     C 7874   3.621   0.244   1.350  0.0323 -0.0989 -0.3503
  527MPD2    C1 7875   3.633   0.228   1.215  0.3140  0.4513  0.0055
  527MPD2    C2 7876   3.759   0.226   1.156 -0.0584 -0.0275 -0.2903
  527MPD2    C3 7877   3.873   0.215   1.240  0.2798  0.3511  0.2995
  527MPD2    C4 7878   3.859   0.229   1.376 -0.0521  0.9256  0.4882
  527MPD2    C5 7879   3.728   0.238   1.429 -0.1262 -0.0352  0.1526
  527MPD2     H 7880   3.779   0.215   1.050 -2.2280  0.3575 -0.7358
  527MPD2    H1 7881   3.940   0.217   1.447  1.1361  0.0080 -1.0245
  527MPD2    H2 7882   3.523   0.248   1.396  0.0448  0.6011 -0.3720
  527MPD2    H3 7883   3.720   0.251   1.536 -1.0321  1.2553 -0.0701
  527MPD2     N 7884   3.996   0.218   1.174 -0.7187 -0.1696 -0.3004
  527MPD2    H5 7885   3.994   0.197   1.075  0.1625  0.1284 -0.3773
  527MPD2    N1 7886   3.525   0.216   1.121 -0.8731 -0.2738  0.3485
  527MPD2    H7 7887   3.553   0.225   1.023 -0.1958 -2.4316  0.3492
  528TMC3    C1 7888   3.330   0.142   1.033 -0.0666  0.5048  0.1100
  528TMC3    C2 7889   3.359   0.211   0.916 -0.3589 -0.1697  0.9357
  528TMC3    C3 7890   3.334   0.144   0.801  0.1346 -0.1298  0.4837
  528TMC3    C4 7891   3.274   0.016   1.040  0.2842 -0.5762  0.3236
  528TMC3    C5 7892   3.276   4.682   0.927 -0.7580 -0.4625 -0.0902
  528TMC3    C6 7893   3.313   0.010   0.805  0.1170 -0.0238 -0.4365
  528TMC3     C 7894   3.396   0.189   1.151 -0.3650 -0.1046  0.0853
  528TMC3     O 7895   3.351   0.150   1.258 -0.1002 -0.0743  0.1440
  528TMC3     H 7896   3.405   0.308   0.905 -0.2688 -0.6102 -2.5814
  528TMC3    H1 7897   3.254   4.711   1.138 -0.6062 -0.3100  0.2523
  528TMC3    H2 7898   3.312   4.696   0.709 -0.5506 -1.2420  0.2266
  528TMC3    C7 7899   3.193   4.559   0.912  0.1049 -0.2424  0.2052
  528TMC3    C8 7900   3.369   0.210   0.675  0.1038 -0.1050 -0.4196
  528TMC3    O1 7901   3.216   4.498   0.806  0.5941 -0.0944 -0.1362
  528TMC3    O2 7902   3.450   0.301   0.687 -0.7809 -0.1733  0.1235
  529MPD2     C 7903   1.895   3.437   0.814 -0.2994  0.6254  0.2211
  529MPD2    C1 7904   1.840   3.538   0.890 -0.2743  1.5488 -0.3273
  529MPD2    C2 7905   1.776   3.636   0.814  0.0998 -0.2568 -0.1282
  529MPD2    C3 7906   1.769   3.627   0.674  0.1229 -0.1339 -0.1380
  529MPD2    C4 7907   1.828   3.522   0.606 -0.2943 -0.2800 -0.5713
  529MPD2    C5 7908   1.888   3.431   0.680 -0.7215 -0.1509 -0.1843
  529MPD2     H 7909   1.725   3.719   0.860 -1.2171 -0.7509 -0.6952
  529MPD2    H1 7910   1.821   3.509   0.499 -0.0494  0.0293 -0.6248
  529MPD2    H2 7911   1.951   3.361   0.867 -0.9451 -0.4182 -0.6098
  529MPD2    H3 7912   1.956   3.361   0.633 -0.4746 -1.3522  2.0038
  529MPD2     N 7913   1.701   3.716   0.587 -0.0117 -0.2170  0.7968
  529MPD2    H5 7914   1.722   3.699   0.489 -1.8099  1.2908  0.1486
  529MPD2    N1 7915   1.840   3.542   1.031  0.0657 -0.3232  0.7591
  529MPD2    H7 7916   1.792   3.623   1.070 -0.6659  1.1486 -3.1354
  530TMC3    C1 7917   1.912   3.495   1.249 -0.2104  0.1505 -0.0123
  530TMC3    C2 7918   1.999   3.420   1.330 -0.5747  0.4138 -0.1499
  530TMC3    C3 7919   2.013   3.455   1.466 -0.2375 -0.5753  0.4592
  530TMC3    C4 7920   1.835   3.598   1.300  0.2567 -0.3512  0.6994
  530TMC3    C5 7921   1.851   3.630   1.430  0.5196 -0.0638  1.2554
  530TMC3    C6 7922   1.946   3.569   1.513  0.5141 -0.6603 -0.4359
  530TMC3     C 7923   1.911   3.459   1.109  1.0083  0.4424 -0.3188
  530TMC3     O 7924   2.000   3.382   1.074  0.0021 -0.3711  0.2272
  530TMC3     H 7925   2.054   3.333   1.296 -0.6114  0.3147  0.0465
  530TMC3    H1 7926   1.763   3.641   1.232  0.7663 -2.1565 -0.9763
  530TMC3    H2 7927   1.958   3.594   1.618 -1.2936  1.9074 -0.8432
  530TMC3    C7 7928   1.786   3.756   1.475  0.4518 -0.5225  0.5915
  530TMC3    C8 7929   2.122   3.395   1.548  0.4981  0.0703  0.6092
  530TMC3    O1 7930   1.717   3.810   1.390  0.1390 -0.0853  0.3670
  530TMC3    O2 7931   2.112   3.427   1.667  0.1582  0.3873 -0.1475
  531MPD2     C 7932   0.595   1.212  13.281  1.1339 -0.3343  0.5308
  531MPD2    C1 7933   0.496   1.209  13.378  0.2220 -0.8278  0.2012
  531MPD2    C2 7934   0.391   1.124  13.355  0.7373 -0.0864 -0.9276
  531MPD2    C3 7935   0.377   1.051  13.237 -0.1939 -0.1834 -0.4416
  531MPD2    C4 7936   0.467   1.076  13.135  0.3601 -0.0905 -0.5228
  531MPD2    C5 7937   0.579   1.154  13.161  0.0573  0.1704  0.1021
  531MPD2     H 7938   0.308   1.109  13.424  1.9377 -0.5049  0.4162
  531MPD2    H1 7939   0.453   1.031  13.037  0.7418  0.0227 -0.6271
  531MPD2    H2 7940   0.680   1.278  13.291 -0.1332  1.4119 -0.1866
  531MPD2    H3 7941   0.657   1.174  13.088 -0.1443 -0.1633 -0.2017
  531MPD2     N 7942   0.264   0.964  13.225  0.9306  0.4510 -0.0443
  531MPD2    H5 7943   0.207   0.964  13.309 -2.4015 -0.5470 -2.2787
  531MPD2    N1 7944   0.504   1.296  13.493  0.0721  0.7280 -0.7571
  531MPD2    H7 7945   0.586   1.355  13.505  0.8173 -0.3406 -0.5720
  532TMC3    C1 7946   0.443   1.374  13.716 -0.4081  0.7971  0.4341
  532TMC3    C2 7947   0.344   1.352  13.801  1.0367  0.0554 -0.7915
  532TMC3    C3 7948   0.356   1.313  13.934 -0.4364 -0.1651 -0.3305
  532TMC3    C4 7949   0.578   1.347  13.756  0.6407 -0.2423 -1.0219
  532TMC3    C5 7950   0.595   1.328  13.893  0.1383  0.2019  0.4800
  532TMC3    C6 7951   0.487   1.314  13.977 -0.5118  0.2973 -0.4085
  532TMC3     C 7952   0.411   1.295  13.596  0.0396  0.5008 -0.2880
  532TMC3     O 7953   0.308   1.235  13.615  0.0236 -0.1305  0.0894
  532TMC3     H 7954   0.241   1.370  13.773  0.5644 -1.4582 -0.0344
  532TMC3    H1 7955   0.662   1.365  13.690 -0.8944  0.8623 -2.6693
  532TMC3    H2 7956   0.513   1.284  14.079 -1.7262  1.7843  0.3266
  532TMC3    C7 7957   0.717   1.262  13.935 -0.5737  0.0060  0.5854
  532TMC3    C8 7958   0.297   1.184  13.974  0.3897  0.0085  0.2341
  532TMC3    O1 7959   0.755   1.253  14.053 -0.3112  0.0735 -0.5377
  532TMC3    O2 7960   0.335   1.139  14.081  0.6178 -0.3726 -0.6020
  533TMC3    C1 7961   1.034   3.257  14.576  0.6104  0.1631 -0.1825
  533TMC3    C2 7962   1.130   3.341  14.513  0.1527  0.2288  0.0499
  533TMC3    C3 7963   1.190   3.431  14.603  0.7509  0.3115 -0.1502
  533TMC3    C4 7964   0.997   3.270  14.710 -0.1949  0.1676  0.0675
  533TMC3    C5 7965   1.067   3.360  14.790 -1.0203  0.4721 -0.0752
  533TMC3    C6 7966   1.164   3.437  14.735  0.5443  0.1560 -0.0685
  533TMC3     C 7967   0.985   3.129  14.524 -0.0362  0.1106 -0.7368
  533TMC3     O 7968   0.945   3.130  14.410 -0.4877 -0.1707  0.0476
  533TMC3     H 7969   1.152   3.332  14.408  2.3902  0.0257  0.5391
  533TMC3    H1 7970   0.910   3.215  14.743 -2.2032  3.6919  0.7316
  533TMC3    H2 7971   1.223   3.510  14.790 -0.1874 -1.2882  2.6228
  533TMC3    C7 7972   1.056   3.320  14.928 -0.4979 -0.9069 -0.1346
  533TMC3    C8 7973   1.334   3.442  14.584 -0.6202  0.3174  0.8906
  533TMC3    O1 7974   1.040   3.204  14.948  0.0877 -0.4137  0.0248
  533TMC3    O2 7975   1.404   3.395  14.676  0.1195  0.2502  0.3421
  534MPD2     C 7976   4.268   4.634   1.439  0.0913  0.8184  0.1434
  534MPD2    C1 7977   4.136   4.625   1.482 -0.4153 -0.9785  0.1891
  534MPD2    C2 7978   4.048   4.538   1.420 -0.0063  0.0395 -0.0416
  534MPD2    C3 7979   4.090   4.452   1.317 -0.1552 -1.0189 -0.4322
  534MPD2    C4 7980   4.219   4.465   1.270  0.0490  0.3031  0.2020
  534MPD2    C5 7981   4.306   4.557   1.330  0.0731 -0.0338 -0.3841
  534MPD2     H 7982   3.946   4.543   1.457 -0.0834 -3.3163  0.2852
  534MPD2    H1 7983   4.260   4.410   1.187  1.9122  2.1415 -0.0943
  534MPD2    H2 7984   4.335   4.711   1.476  1.8669 -1.3541  1.5100
  534MPD2    H3 7985   4.409   4.566   1.297  0.8301 -2.6667  1.2619
  534MPD2     N 7986   4.009   4.358   1.249  0.2248  0.0195  0.1066
  534MPD2    H5 7987   4.041   4.314   1.163  1.4985  0.6933  0.2321
  534MPD2    N1 7988   4.076   4.713   1.582  0.0331 -0.0324  0.4338
  534MPD2    H7 7989   3.980   4.696   1.608 -0.5543  2.9791  0.2118
  535TMC3    C1 7990   3.834   4.208   1.212 -0.2577  0.7600  0.5973
  535TMC3    C2 7991   3.733   4.139   1.266  0.2753  0.1200 -0.1334
  535TMC3    C3 7992   3.645   4.067   1.183  0.9588  0.7484 -0.2818
  535TMC3    C4 7993   3.835   4.210   1.075 -0.4830  0.2977  0.3888
  535TMC3    C5 7994   3.743   4.144   1.001  0.8479 -0.0144  0.0708
  535TMC3    C6 7995   3.642   4.062   1.048 -0.2400  0.1636  0.0599
  535TMC3     C 7996   3.886   4.315   1.290 -0.4839  0.0476 -0.1305
  535TMC3     O 7997   3.829   4.337   1.398  0.0433  0.0999 -0.1497
  535TMC3     H 7998   3.719   4.122   1.372  0.1826 -0.7987 -0.2915
  535TMC3    H1 7999   3.901   4.275   1.019 -2.0589  0.3522 -1.4017
  535TMC3    H2 8000   3.567   4.008   0.991  0.5454 -0.2011 -0.6321
  535TMC3    C7 8001   3.765   4.139   0.857 -0.1672 -0.1365  0.3501
  535TMC3    C8 8002   3.532   3.987   1.239  0.4647  0.4144  0.2607
  535TMC3    O1 8003   3.867   4.191   0.815 -0.3523  0.0664 -0.5907
  535TMC3    O2 8004   3.484   3.904   1.166 -0.1045 -0.1106  0.1423
  536MPD2     C 8005   2.554   2.452  16.413  0.1754 -0.4682 -0.4266
  536MPD2    C1 8006   2.437   2.427  16.473 -0.1856  0.4481 -0.0762
  536MPD2    C2 8007   2.323   2.434  16.401 -0.3973 -0.0755  0.1284
  536MPD2    C3 8008   2.323   2.458  16.264  0.2211  0.2805 -0.3752
  536MPD2    C4 8009   2.443   2.475  16.196 -0.1809 -0.2821 -0.6333
  536MPD2    C5 8010   2.551   2.469  16.275  0.4811  0.0135  0.2643
  536MPD2     H 8011   2.231   2.414  16.454 -1.3802  0.4709 -1.4050
  536MPD2    H1 8012   2.455   2.500  16.091 -1.0272  0.6750 -0.5021
  536MPD2    H2 8013   2.645   2.448  16.471  0.1328 -1.5910 -0.4387
  536MPD2    H3 8014   2.651   2.465  16.234  0.2261 -0.4890 -0.3116
  536MPD2     N 8015   2.207   2.478  16.187  0.5838 -0.1257  0.6391
  536MPD2    H5 8016   2.222   2.499  16.089 -1.3959 -0.2089  0.3184
  536MPD2    N1 8017   2.459   2.381  16.604  0.0947  0.2377  0.6898
  536MPD2    H7 8018   2.552   2.381  16.644  0.8570  0.6899 -1.0631
  537TMC3    C1 8019   2.411   2.245  16.782 -0.5621  0.2674 -0.2075
  537TMC3    C2 8020   2.548   2.235  16.804 -0.2505 -0.4962 -0.2353
  537TMC3    C3 8021   2.594   2.126  16.879 -0.1641 -0.1739  0.1715
  537TMC3    C4 8022   2.319   2.161  16.832 -0.0095  0.3065 -0.4077
  537TMC3    C5 8023   2.374   2.057  16.906 -0.5479 -0.7223  0.1270
  537TMC3    C6 8024   2.507   2.035  16.929  0.6510  0.2726 -0.1243
  537TMC3     C 8025   2.356   2.342  16.684  0.1137  0.1075 -1.3563
  537TMC3     O 8026   2.241   2.316  16.654 -0.0607  0.1440 -0.1415
  537TMC3     H 8027   2.622   2.286  16.744 -1.8287 -0.6449 -2.3203
  537TMC3    H1 8028   2.220   2.139  16.795 -0.5547 -2.2394  2.5364
  537TMC3    H2 8029   2.533   1.955  16.997 -1.5598  0.0312  0.4249
  537TMC3    C7 8030   2.281   1.973  16.966 -0.0303  0.1514 -0.3020
  537TMC3    C8 8031   2.732   2.120  16.907 -0.0483 -0.1032 -0.1016
  537TMC3    O1 8032   2.171   2.024  16.994 -0.1419 -0.5946  0.0101
  537TMC3    O2 8033   2.781   2.229  16.919  0.2299  0.0966 -0.3707
  538TMC3    C1 8034   3.194   0.317  11.444 -0.3044 -0.1605 -0.6524
  538TMC3    C2 8035   3.280   0.271  11.352  0.2317  0.4282 -0.3388
  538TMC3    C3 8036   3.290   0.354  11.242 -0.5420 -0.2832  0.7106
  538TMC3    C4 8037   3.130   0.434  11.442  0.2520 -0.5803  0.6622
  538TMC3    C5 8038   3.139   0.510  11.331 -0.1839  0.2410 -0.1528
  538TMC3    C6 8039   3.213   0.470  11.222  0.1674 -0.6134  0.6339
  538TMC3     C 8040   3.169   0.235  11.569  0.6150  0.7848  0.5035
  538TMC3     O 8041   3.171   0.117  11.556 -0.3828 -0.3693  0.4188
  538TMC3     H 8042   3.333   0.177  11.365 -0.9268 -0.1433  0.2911
  538TMC3    H1 8043   3.061   0.455  11.524 -2.6465  0.4541 -2.0312
  538TMC3    H2 8044   3.216   0.514  11.124 -1.6958 -1.6361  0.1176
  538TMC3    C7 8045   3.073   0.638  11.317  0.2631  0.5992  0.0099
  538TMC3    C8 8046   3.381   0.314  11.142  0.3934 -0.5099 -0.6468
  538TMC3    O1 8047   3.036   0.660  11.203  0.0135 -0.3000 -0.8473
  538TMC3    O2 8048   3.436   0.203  11.142 -0.0332 -0.1802 -0.2416
  539MPD2     C 8049   2.723   4.211  12.111 -0.9000  0.4255  0.1083
  539MPD2    C1 8050   2.797   4.241  11.996 -1.1234  0.7936 -0.0310
  539MPD2    C2 8051   2.837   4.365  11.962 -0.6308  0.7659  0.8760
  539MPD2    C3 8052   2.790   4.470  12.042 -0.2499 -0.6843 -0.3068
  539MPD2    C4 8053   2.718   4.449  12.153  0.5926 -0.5769  0.3072
  539MPD2    C5 8054   2.688   4.320  12.188 -0.5226 -0.8634  0.7038
  539MPD2     H 8055   2.888   4.389  11.869  0.2932 -2.8492  0.4589
  539MPD2    H1 8056   2.677   4.525  12.219 -1.6551 -1.3025 -0.2834
  539MPD2    H2 8057   2.699   4.110  12.143 -0.5268 -0.0862 -1.2137
  539MPD2    H3 8058   2.643   4.294  12.283  0.3792 -2.7022  0.6342
  539MPD2     N 8059   2.802   4.603  12.008  0.5357 -0.5968  0.2124
  539MPD2    H5 8060   2.775   4.670  12.079  1.6994 -1.3679  1.3803
  539MPD2    N1 8061   2.846   4.141  11.917 -0.1134  0.7888 -0.2185
  539MPD2    H7 8062   2.886   4.167  11.827  3.0731 -1.5674  0.4935
  540TMC3    C1 8063   2.833   0.064  11.884  0.5936  0.2105  0.9538
  540TMC3    C2 8064   2.817   0.126  11.764 -0.0080 -0.0125 -0.0670
  540TMC3    C3 8065   2.836   0.261  11.749  0.1926 -0.1376  0.0447
  540TMC3    C4 8066   2.847   0.135  11.999 -0.5433  0.1125 -0.3100
  540TMC3    C5 8067   2.850   0.272  11.982  0.3034 -0.1184 -0.4810
  540TMC3    C6 8068   2.853   0.340  11.860  0.4308  0.0546  0.1540
  540TMC3     C 8069   2.817   4.656  11.885 -0.2844 -0.4528 -0.3580
  540TMC3     O 8070   2.810   4.595  11.782  0.2026 -0.1073  0.4861
  540TMC3     H 8071   2.802   0.054  11.685 -0.7360  0.3128 -0.2197
  540TMC3    H1 8072   2.857   0.084  12.094 -1.4799 -1.1109 -0.8594
  540TMC3    H2 8073   2.848   0.448  11.851  0.8191  0.1371  0.8852
  540TMC3    C7 8074   2.858   0.342  12.114  0.6791 -0.3082 -0.3534
  540TMC3    C8 8075   2.794   0.326  11.630  0.0762 -0.4326  0.0431
  540TMC3    O1 8076   2.848   0.268  12.215  0.2423  0.2127 -0.1482
  540TMC3    O2 8077   2.828   0.444  11.615  0.5330  0.4483  0.6222
  541MPD2     C 8078   1.335   1.375  13.233 -0.3801  0.1145 -0.6067
  541MPD2    C1 8079   1.276   1.494  13.272 -0.1692 -0.3978  0.6281
  541MPD2    C2 8080   1.195   1.560  13.178  0.6754  0.6746  0.0786
  541MPD2    C3 8081   1.177   1.507  13.053 -0.4847  0.5816  0.2498
  541MPD2    C4 8082   1.250   1.396  13.011  0.7718 -0.4573  0.0461
  541MPD2    C5 8083   1.313   1.323  13.111 -0.6385  0.0479  0.0817
  541MPD2     H 8084   1.157   1.659  13.202  0.4287  0.4720  0.5217
  541MPD2    H1 8085   1.234   1.356  12.911  2.0192  1.4031 -0.8854
  541MPD2    H2 8086   1.386   1.311  13.303 -2.6704 -2.5161 -1.3025
  541MPD2    H3 8087   1.341   1.219  13.103  0.0287  0.4646 -2.9366
  541MPD2     N 8088   1.096   1.557  12.955  0.0230  0.6055  0.1926
  541MPD2    H5 8089   1.074   1.504  12.871 -0.4722 -0.7915  1.2014
  541MPD2    N1 8090   1.299   1.538  13.402 -0.1588  0.2300 -0.7789
  541MPD2    H7 8091   1.356   1.472  13.454 -3.1090  1.1709  3.6571
  542TMC3    C1 8092   0.936   1.698  12.844  0.0425 -0.6794 -0.0382
  542TMC3    C2 8093   0.978   1.667  12.717  0.3097 -0.5026 -0.1778
  542TMC3    C3 8094   0.914   1.723  12.610 -0.0177  0.8725 -0.1569
  542TMC3    C4 8095   0.848   1.804  12.861  0.6350 -0.8989  1.1148
  542TMC3    C5 8096   0.793   1.855  12.746 -0.1024  0.8211 -0.0408
  542TMC3    C6 8097   0.822   1.827  12.614  0.2296 -0.3397  0.1324
  542TMC3     C 8098   1.017   1.669  12.962 -0.2311 -0.4335  1.1315
  542TMC3     O 8099   1.015   1.755  13.050 -0.4435  0.1326 -0.6233
  542TMC3     H 8100   1.067   1.606  12.713 -0.0472 -1.1816  2.0374
  542TMC3    H1 8101   0.804   1.815  12.960  0.5466  1.3739  0.8205
  542TMC3    H2 8102   0.744   1.852  12.542  1.3710  2.1797 -0.2508
  542TMC3    C7 8103   0.661   1.913  12.762 -0.3779  0.5180  1.1843
  542TMC3    C8 8104   0.948   1.673  12.475 -0.0981 -0.6141  0.9522
  542TMC3    O1 8105   0.639   2.010  12.691 -0.3025 -0.2098  0.1608
  542TMC3    O2 8106   1.059   1.622  12.469  0.1190 -0.7835  0.5443
  543TMC3    C1 8107   1.160   3.654  17.328  0.3455 -0.3196 -0.7686
  543TMC3    C2 8108   1.129   3.539  17.395 -0.7560 -0.2922  0.4032
  543TMC3    C3 8109   1.083   3.549  17.532 -0.2799  0.0848 -0.0310
  543TMC3    C4 8110   1.165   3.771  17.385 -0.2082 -0.1854  0.9911
  543TMC3    C5 8111   1.135   3.780  17.522  0.0923 -0.5595 -0.1960
  543TMC3    C6 8112   1.100   3.669  17.596 -0.2759 -0.5143 -0.4326
  543TMC3     C 8113   1.220   3.636  17.198 -0.1258 -0.1440 -0.0011
  543TMC3     O 8114   1.273   3.525  17.185  0.1492 -0.6190  0.2342
  543TMC3     H 8115   1.120   3.440  17.350  0.3405 -0.6767  1.0334
  543TMC3    H1 8116   1.204   3.857  17.330  0.4117 -1.0855  0.0149
  543TMC3    H2 8117   1.063   3.688  17.697 -1.7234 -0.5345 -0.9503
  543TMC3    C7 8118   1.150   3.906  17.586 -0.1451  0.4340 -0.7723
  543TMC3    C8 8119   1.104   3.423  17.603 -0.2594  0.3809  0.4619
  543TMC3    O1 8120   1.168   3.906  17.707 -0.6344 -0.2998 -0.2722
  543TMC3    O2 8121   1.072   3.319  17.549 -0.4304 -0.2052  0.1367
  544MPD2     C 8122   1.307   3.132   0.233  0.0360 -0.7163 -1.1048
  544MPD2    C1 8123   1.282   3.098   0.104 -0.7539  0.1276 -0.2273
  544MPD2    C2 8124   1.241   3.197   0.013 -0.2093 -0.4119  0.9348
  544MPD2    C3 8125   1.229   3.330   0.049 -0.5153  0.3044  0.6292
  544MPD2    C4 8126   1.258   3.365   0.180 -0.5530  0.1214  0.5103
  544MPD2    C5 8127   1.293   3.264   0.269 -0.2988 -0.2872 -0.1830
  544MPD2     H 8128   1.230   3.175  17.654  0.6889 -0.3786  0.8287
  544MPD2    H1 8129   1.245   3.469   0.209  0.5713 -0.0759  1.7487
  544MPD2    H2 8130   1.330   3.062   0.313  1.5024 -0.2498 -1.1230
  544MPD2    H3 8131   1.303   3.291   0.373 -1.1365 -1.5972  0.2327
  544MPD2     N 8132   1.177   3.438  17.717  0.3454 -0.3491 -0.1690
  544MPD2    H5 8133   1.202   3.529   0.007  2.0027 -1.1418  0.6561
  544MPD2    N1 8134   1.300   2.959   0.075 -0.7342  0.1009  0.1744
  544MPD2    H7 8135   1.334   2.905   0.154  3.1681 -1.6433 -2.7197
  545TMC3    C1 8136   1.325   2.760  17.708 -0.1043  0.4012  0.3373
  545TMC3    C2 8137   1.246   2.677  17.630  0.4229 -0.1789  0.1993
  545TMC3    C3 8138   1.226   2.548  17.677  0.0775 -0.2901  0.1031
  545TMC3    C4 8139   1.380   2.719   0.076  0.2477  0.6426 -0.3871
  545TMC3    C5 8140   1.359   2.589   0.114 -0.1270 -0.0387 -0.3111
  545TMC3    C6 8141   1.271   2.505   0.052 -0.7146 -0.0332  0.0116
  545TMC3     C 8142   1.299   2.900  17.698 -0.8517  0.3352 -0.3144
  545TMC3     O 8143   1.268   2.941  17.586 -0.5795 -0.0461  0.3542
  545TMC3     H 8144   1.220   2.705  17.528 -2.2789 -0.6872  0.7572
  545TMC3    H1 8145   1.448   2.774   0.141  2.2281  1.5130 -3.1896
  545TMC3    H2 8146   1.242   2.411   0.099 -1.4353 -0.7901 -1.9486
  545TMC3    C7 8147   1.441   2.537   0.228 -0.2031  0.0943  0.3832
  545TMC3    C8 8148   1.144   2.453  17.604  0.6038  0.5072 -0.0483
  545TMC3    O1 8149   1.477   2.616   0.319  0.1528  0.2134  0.0762
  545TMC3    O2 8150   1.150   2.338  17.649 -0.3384  0.1135 -0.0026
  546MPD2     C 8151   2.467   2.620  17.049 -0.2480 -0.2795 -0.1388
  546MPD2    C1 8152   2.396   2.691  17.142  0.1173 -0.1123  0.0857
  546MPD2    C2 8153   2.460   2.804  17.196 -0.3234 -0.1859  0.2195
  546MPD2    C3 8154   2.581   2.851  17.148 -0.7304 -0.1672 -0.0331
  546MPD2    C4 8155   2.647   2.775  17.054  0.4450  0.1167 -0.1762
  546MPD2    C5 8156   2.596   2.654  17.009  1.2255  0.1920  0.1063
  546MPD2     H 8157   2.400   2.862  17.265  0.4867 -1.3990  1.9482
  546MPD2    H1 8158   2.749   2.791  17.020  0.3682  0.5260 -0.2166
  546MPD2    H2 8159   2.426   2.523  17.021  1.2824 -0.3493 -2.1552
  546MPD2    H3 8160   2.654   2.590  16.945 -1.1687 -0.5999 -1.2614
  546MPD2     N 8161   2.636   2.979  17.184  0.5476  0.0816  0.0928
  546MPD2    H5 8162   2.716   3.016  17.133  0.4588  0.9664  0.5954
  546MPD2    N1 8163   2.262   2.662  17.169  0.1122 -0.3707 -0.2810
  546MPD2    H7 8164   2.219   2.588  17.116  0.7396 -0.7885 -0.2104
  547TMC3    C1 8165   2.057   2.656  17.270 -0.1561 -0.4722 -0.3017
  547TMC3    C2 8166   1.991   2.663  17.152 -0.0190 -0.4853  0.9124
  547TMC3    C3 8167   1.895   2.573  17.125  0.4421 -0.3809 -0.2603
  547TMC3    C4 8168   2.019   2.562  17.365 -0.0960 -0.0928 -0.1883
  547TMC3    C5 8169   1.925   2.468  17.330  0.4966 -0.1983 -0.3408
  547TMC3    C6 8170   1.857   2.475  17.211  0.3811  0.2087 -0.1431
  547TMC3     C 8171   2.193   2.701  17.282  0.7543 -0.4730 -0.4469
  547TMC3     O 8172   2.229   2.747  17.392  0.1828  0.4247 -0.6025
  547TMC3     H 8173   2.028   2.734  17.079  0.3136 -0.1980  1.3684
  547TMC3    H1 8174   2.080   2.542  17.452  0.2915 -2.7695 -1.0510
  547TMC3    H2 8175   1.769   2.418  17.183  0.9317  0.1232 -1.7036
  547TMC3    C7 8176   1.929   2.345  17.406  0.4387 -0.1648  0.5972
  547TMC3    C8 8177   1.820   2.578  16.997 -0.1955  0.0721 -0.1067
  547TMC3    O1 8178   1.954   2.358  17.525 -0.2624  0.6737 -0.2630
  547TMC3    O2 8179   1.772   2.471  16.958  0.2454  0.1732 -0.2467
  548MPD2     C 8180   1.673   3.241  12.778  0.3542 -0.3835 -0.8456
  548MPD2    C1 8181   1.659   3.113  12.725  0.1554  0.3449 -0.5722
  548MPD2    C2 8182   1.764   3.025  12.750  0.5162 -0.2806 -0.3173
  548MPD2    C3 8183   1.887   3.071  12.790  0.9040  0.6926  0.5419
  548MPD2    C4 8184   1.903   3.205  12.816 -0.8663  0.1060  0.0005
  548MPD2    C5 8185   1.800   3.287  12.824  0.0056  0.1622 -0.4679
  548MPD2     H 8186   1.750   2.921  12.721  0.6951  0.0963 -1.7354
  548MPD2    H1 8187   1.999   3.250  12.839 -0.0404 -1.3298 -0.6046
  548MPD2    H2 8188   1.584   3.303  12.780  1.3896  1.0354  1.1970
  548MPD2    H3 8189   1.819   3.389  12.853  1.5093 -0.2561  0.0161
  548MPD2     N 8190   1.988   2.978  12.814 -0.1335 -0.1971  0.1245
  548MPD2    H5 8191   1.968   2.880  12.800 -1.7593  0.6453 -3.4283
  548MPD2    N1 8192   1.529   3.084  12.676 -1.0600  0.5461  0.4805
  548MPD2    H7 8193   1.455   3.154  12.671 -1.3063  0.3458  1.3581
  549TMC3    C1 8194   1.361   2.958  12.581 -0.6217  1.0815  0.3400
  549TMC3    C2 8195   1.306   3.071  12.522 -0.0012  0.1106 -0.3478
  549TMC3    C3 8196   1.178   3.063  12.476  0.1344  0.6697 -0.1506
  549TMC3    C4 8197   1.294   2.841  12.587  0.0975 -0.6549  0.0985
  549TMC3    C5 8198   1.167   2.840  12.540  0.4293 -0.6020 -0.1373
  549TMC3    C6 8199   1.107   2.949  12.488 -0.3526  0.1450 -0.4455
  549TMC3     C 8200   1.494   2.957  12.637 -0.2094 -0.0004 -0.3207
  549TMC3     O 8201   1.552   2.846  12.645 -0.2855 -0.2060  0.3132
  549TMC3     H 8202   1.370   3.155  12.497  2.9848 -1.7663  1.0729
  549TMC3    H1 8203   1.343   2.766  12.649  0.5939 -1.1040 -0.8428
  549TMC3    H2 8204   1.003   2.937  12.458 -0.3844 -1.2943  0.2512
  549TMC3    C7 8205   1.116   2.717  12.492  0.4401  0.2070 -0.4675
  549TMC3    C8 8206   1.115   3.172  12.405 -0.0855  0.1156 -0.0943
  549TMC3    O1 8207   1.027   2.712  12.409  0.0575  0.1968 -0.2873
  549TMC3    O2 8208   1.021   3.141  12.332 -0.8477 -0.4798 -0.3912
  550TMC3    C1 8209   0.601   1.373  12.472 -0.0392  0.0082 -0.5015
  550TMC3    C2 8210   0.580   1.321  12.592 -0.8296  0.6260  0.4358
  550TMC3    C3 8211   0.459   1.284  12.634 -0.2975  0.0907  0.3321
  550TMC3    C4 8212   0.498   1.383  12.381 -0.8078 -0.4063 -0.0510
  550TMC3    C5 8213   0.386   1.316  12.416  0.3457 -0.3508 -0.1412
  550TMC3    C6 8214   0.356   1.279  12.547  0.4083  0.7032  0.4972
  550TMC3     C 8215   0.743   1.354  12.425 -0.3238 -0.2640  0.1813
  550TMC3     O 8216   0.828   1.331  12.509  0.6270  0.3498  1.2193
  550TMC3     H 8217   0.662   1.317  12.663  1.8761  0.8864 -2.6676
  550TMC3    H1 8218   0.518   1.435  12.288 -0.7268  1.2014  0.8695
  550TMC3    H2 8219   0.265   1.223  12.564  2.3689 -3.1647 -1.4923
  550TMC3    C7 8220   0.273   1.329  12.325  0.4504  0.3107  0.2256
  550TMC3    C8 8221   0.440   1.276  12.780  0.0813 -0.6171 -0.2805
  550TMC3    O1 8222   0.163   1.325  12.375 -0.5952 -0.2308 -0.2452
  550TMC3    O2 8223   0.533   1.313  12.856  0.8113  0.0045  0.4229
  551TMC3    C1 8224   3.164   3.751  13.388 -0.5316 -0.6580 -0.0781
  551TMC3    C2 8225   3.276   3.679  13.351 -0.0631  0.6661  0.8898
  551TMC3    C3 8226   3.375   3.696  13.445 -0.6523  1.0135 -0.3328
  551TMC3    C4 8227   3.147   3.810  13.512  0.4530  0.7294  1.0640
  551TMC3    C5 8228   3.244   3.798  13.605  0.0539 -0.9295 -0.0889
  551TMC3    C6 8229   3.364   3.743  13.573 -0.0161  0.4244  0.3634
  551TMC3     C 8230   3.062   3.763  13.288  0.0215  0.1502  0.1631
  551TMC3     O 8231   3.065   3.685  13.193 -0.9264 -0.1752 -0.4077
  551TMC3     H 8232   3.289   3.637  13.253  0.7775  2.8146  0.0817
  551TMC3    H1 8233   3.062   3.875  13.532  0.4899  0.6282  1.5547
  551TMC3    H2 8234   3.440   3.725  13.648  1.7004  1.7874 -1.0526
  551TMC3    C7 8235   3.252   3.895  13.716  0.1533 -0.7269 -0.2623
  551TMC3    C8 8236   3.507   3.695  13.389  0.7078  0.2089  0.1259
  551TMC3    O1 8237   3.328   3.860  13.804  0.4433 -0.0783  0.3624
  551TMC3    O2 8238   3.524   3.632  13.285 -0.5481 -0.3702 -0.4813
  552MPD2     C 8239   0.339   0.636  14.452 -0.2226 -0.4090 -0.1974
  552MPD2    C1 8240   0.459   0.667  14.393  0.3028 -0.8016  0.0618
  552MPD2    C2 8241   0.559   0.703  14.484  0.5026 -0.6429 -0.4960
  552MPD2    C3 8242   0.547   0.724  14.618 -0.6585  0.1798  0.2404
  552MPD2    C4 8243   0.424   0.692  14.671  0.2383  0.1653  0.0882
  552MPD2    C5 8244   0.330   0.643  14.588 -0.2500  0.1278 -0.7236
  552MPD2     H 8245   0.657   0.722  14.443  0.6819 -2.0639 -0.7131
  552MPD2    H1 8246   0.390   0.708  14.772 -1.1963  0.1038 -0.3810
  552MPD2    H2 8247   0.251   0.609  14.394 -0.1236 -1.7630  0.2893
  552MPD2    H3 8248   0.237   0.615  14.637  1.1327  0.6404  2.1501
  552MPD2     N 8249   0.638   0.782  14.705 -0.0344  0.0064 -0.1647
  552MPD2    H5 8250   0.601   0.786  14.800  0.4321 -0.8341  0.0515
  552MPD2    N1 8251   0.490   0.657  14.254 -0.2935 -0.3368 -0.3012
  552MPD2    H7 8252   0.580   0.694  14.226 -1.7563  1.9849 -1.9506
  553TMC3    C1 8253   0.485   0.606  14.033 -0.2337 -0.0023 -0.5999
  553TMC3    C2 8254   0.431   0.642  13.910 -0.5561  0.3180 -0.7176
  553TMC3    C3 8255   0.524   0.680  13.819  0.0809  0.3473 -0.7060
  553TMC3    C4 8256   0.624   0.599  14.052 -0.3177  0.0598 -0.3404
  553TMC3    C5 8257   0.707   0.635  13.957  0.3980  0.1382  0.3610
  553TMC3    C6 8258   0.658   0.692  13.844  0.2602  0.2618 -0.8544
  553TMC3     C 8259   0.407   0.621  14.152  0.2411 -0.3313  0.1967
  553TMC3     O 8260   0.285   0.601  14.158 -0.1377  0.5427  0.1148
  553TMC3     H 8261   0.324   0.646  13.898 -0.5661 -1.0657 -1.1228
  553TMC3    H1 8262   0.676   0.554  14.135 -0.9852  1.9208  1.0953
  553TMC3    H2 8263   0.726   0.727  13.768  1.0163 -3.1211 -1.7244
  553TMC3    C7 8264   0.809   0.703  14.023  0.3854 -0.9554  0.9527
  553TMC3    C8 8265   0.482   0.694  13.680  0.3972  0.2844  0.4546
  553TMC3    O1 8266   0.909   0.642  14.054  0.4681 -0.7950  0.6152
  553TMC3    O2 8267   0.564   0.748  13.609 -0.5089  0.1531 -0.3964
  554TMC3    C1 8268   2.431   0.427  11.668  0.0509 -0.2931 -0.0683
  554TMC3    C2 8269   2.361   0.368  11.570 -0.5990  0.9990 -0.4436
  554TMC3    C3 8270   2.287   0.448  11.490 -0.7620 -0.4880  0.6810
  554TMC3    C4 8271   2.449   0.570  11.667  0.4281 -1.1316  0.2295
  554TMC3    C5 8272   2.374   0.642  11.583  0.8588  0.2193 -0.5923
  554TMC3    C6 8273   2.285   0.581  11.504 -0.4920  0.3119  0.1227
  554TMC3     C 8274   2.492   0.351  11.779 -1.1823 -0.1412 -0.4659
  554TMC3     O 8275   2.571   0.404  11.856 -0.5273  0.1072 -0.0536
  554TMC3     H 8276   2.360   0.260  11.562 -2.4566  0.7994  2.4256
  554TMC3    H1 8277   2.514   0.610  11.744  0.4673  0.2673 -0.5463
  554TMC3    H2 8278   2.210   0.632  11.445 -1.9201 -0.8996  0.8838
  554TMC3    C7 8279   2.379   0.788  11.569 -0.0936 -0.7410  0.1541
  554TMC3    C8 8280   2.225   0.391  11.373 -0.5273  0.3864  0.0438
  554TMC3    O1 8281   2.305   0.834  11.483  0.1013  0.6424  0.4960
  554TMC3    O2 8282   2.198   0.475  11.288 -0.2540 -0.2934 -0.1950
  555TMC3    C1 8283   1.592   4.600  14.804 -0.6150 -0.1149  0.2113
  555TMC3    C2 8284   1.631   4.712  14.868 -0.3626  0.0027 -0.0837
  555TMC3    C3 8285   1.672   4.698  14.994 -0.1848  0.3129 -0.0274
  555TMC3    C4 8286   1.617   4.476  14.852  0.6097 -0.4185 -0.3145
  555TMC3    C5 8287   1.663   4.462  14.976  0.3397 -0.1575 -0.3287
  555TMC3    C6 8288   1.689   4.573  15.050 -0.2482 -0.7446  0.2493
  555TMC3     C 8289   1.569   4.620  14.662 -0.0658 -0.5816 -0.4326
  555TMC3     O 8290   1.619   4.543  14.580 -0.0496 -0.4116 -0.3460
  555TMC3     H 8291   1.621   0.076  14.829 -0.3367 -0.0863 -0.3141
  555TMC3    H1 8292   1.586   4.384  14.802  0.1705 -0.2254 -0.3937
  555TMC3    H2 8293   1.713   4.559  15.155 -2.5030  1.5400  1.0820
  555TMC3    C7 8294   1.667   4.340  15.052  1.1332  0.0975 -0.3194
  555TMC3    C8 8295   1.711   0.081  15.072  0.3058  0.0518 -0.8567
  555TMC3    O1 8296   1.637   4.350  15.171  0.5670  0.1405  0.0589
  555TMC3    O2 8297   1.727   0.178  14.997  0.2631  0.6433  0.3062
  556MPD2     C 8298   4.169   1.470  11.109 -0.5780  0.9521  1.0593
  556MPD2    C1 8299   4.169   1.337  11.150  0.2498 -0.3492 -0.5487
  556MPD2    C2 8300   4.090   1.254  11.075  0.0455 -0.2459 -0.0487
  556MPD2    C3 8301   4.034   1.289  10.961  0.3799  0.3974 -0.4157
  556MPD2    C4 8302   4.062   1.417  10.910  0.5185 -0.1105 -0.3800
  556MPD2    C5 8303   4.127   1.510  10.994  0.0447 -0.0678  0.1866
  556MPD2     H 8304   4.066   1.156  11.115  0.3605 -0.6824 -0.9408
  556MPD2    H1 8305   4.029   1.450  10.813  0.3430  1.0907  0.0910
  556MPD2    H2 8306   4.215   1.540  11.179  0.2841 -0.2231  1.6799
  556MPD2    H3 8307   4.143   1.612  10.959 -0.2983  0.6407  2.0705
  556MPD2     N 8308   3.965   1.189  10.886 -0.7486  0.0591 -0.4382
  556MPD2    H5 8309   3.973   1.097  10.926 -2.1385 -0.0006 -0.2856
  556MPD2    N1 8310   4.220   1.293  11.273  0.2118 -0.3520 -0.1419
  556MPD2    H7 8311   4.204   1.195  11.297  3.5236 -0.5639  1.2615
  557TMC3    C1 8312   3.854   1.088  10.700 -0.6381 -0.5338 -0.3717
  557TMC3    C2 8313   3.827   1.095  10.564 -0.0450  0.0674  0.4303
  557TMC3    C3 8314   3.757   0.987  10.510 -0.1339 -0.0878 -0.7442
  557TMC3    C4 8315   3.807   0.988  10.782 -0.5329 -0.2517  0.1732
  557TMC3    C5 8316   3.746   0.877  10.724 -0.5089  0.8183 -0.0101
  557TMC3    C6 8317   3.720   0.869  10.584 -0.4236  0.5049  0.4983
  557TMC3     C 8318   3.907   1.209  10.760  0.3078 -0.5776  0.3756
  557TMC3     O 8319   3.872   1.309  10.693 -0.5516 -0.0319  0.5083
  557TMC3     H 8320   3.860   1.180  10.506 -0.1148  0.6638  1.2589
  557TMC3    H1 8321   3.822   0.986  10.890 -0.6055 -0.0788  0.1862
  557TMC3    H2 8322   3.677   0.783  10.534 -0.5134  0.4871  0.6063
  557TMC3    C7 8323   3.699   0.781  10.815  0.3721  0.0462  0.2268
  557TMC3    C8 8324   3.746   0.987  10.363  0.4559  0.6441 -0.7749
  557TMC3    O1 8325   3.678   0.809  10.931 -0.2635 -0.6162  0.3073
  557TMC3    O2 8326   3.748   1.097  10.314  0.7553 -0.5480 -0.7538
  558TMC3    C1 8327   1.619   4.198  10.824 -1.0155  0.5218  0.3403
  558TMC3    C2 8328   1.501   4.138  10.839  0.4974 -0.4218  0.2391
  558TMC3    C3 8329   1.418   4.116  10.729  0.9826 -0.1326 -0.0611
  558TMC3    C4 8330   1.656   4.242  10.697  0.2685 -0.4643 -0.8072
  558TMC3    C5 8331   1.566   4.227  10.595 -0.3345  0.0197 -0.3933
  558TMC3    C6 8332   1.441   4.170  10.613 -0.5135  0.3371 -0.9754
  558TMC3     C 8333   1.731   4.125  10.883 -0.0366  0.6410 -0.2662
  558TMC3     O 8334   1.840   4.135  10.827 -0.1507  0.1312  0.2542
  558TMC3     H 8335   1.457   4.116  10.936 -1.8378  1.5964 -0.3697
  558TMC3    H1 8336   1.755   4.280  10.676 -0.0387  0.2241 -1.0379
  558TMC3    H2 8337   1.368   4.154  10.535  0.5358  1.6561 -2.2109
  558TMC3    C7 8338   1.630   4.194  10.469  0.3961  0.6347 -0.3737
  558TMC3    C8 8339   1.279   4.093  10.755 -0.4807 -0.2099 -0.1977
  558TMC3    O1 8340   1.737   4.249  10.443  0.1069  0.6115 -0.0190
  558TMC3    O2 8341   1.203   4.177  10.711  0.2480  0.3092  0.5183
  559MPD2     C 8342   1.607   4.524  11.006  0.3511 -0.4220 -0.6445
  559MPD2    C1 8343   1.521   4.440  11.067 -0.6477  0.0498  0.0798
  559MPD2    C2 8344   1.571   4.346  11.151 -0.0445 -0.5659 -0.1522
  559MPD2    C3 8345   1.708   4.332  11.167  0.1836  0.3497 -0.3412
  559MPD2    C4 8346   1.791   4.416  11.090  0.3077 -0.4865 -0.1168
  559MPD2    C5 8347   1.740   4.503  11.000 -0.8133  0.1920  0.2063
  559MPD2     H 8348   1.504   4.278  11.203 -2.3497 -0.1702 -2.6118
  559MPD2    H1 8349   1.899   4.405  11.092  0.4697  0.5971 -2.6432
  559MPD2    H2 8350   1.570   4.598  10.936 -0.6582  0.7708  1.1824
  559MPD2    H3 8351   1.805   4.569  10.944 -1.1123 -1.4083 -1.9791
  559MPD2     N 8352   1.759   4.236  11.253  0.2666  0.8630  0.2127
  559MPD2    H5 8353   1.688   4.181  11.300  0.9076 -1.0227 -1.0382
  559MPD2    N1 8354   1.380   4.462  11.043 -0.0948 -0.0884  0.1002
  559MPD2    H7 8355   1.363   4.550  10.995 -2.6855  0.4617  2.0584
  560TMC3    C1 8356   1.916   4.099  11.367  0.1459  0.2769  0.6483
  560TMC3    C2 8357   1.811   4.028  11.423  0.4724  0.6917  0.6523
  560TMC3    C3 8358   1.836   3.941  11.530 -0.3226 -0.4998 -0.0488
  560TMC3    C4 8359   2.043   4.078  11.424 -0.4961  0.4652 -0.2791
  560TMC3    C5 8360   2.056   3.988  11.528  0.5915  0.0166  0.5599
  560TMC3    C6 8361   1.955   3.924  11.588  0.4197  0.3794  0.5585
  560TMC3     C 8362   1.891   4.212  11.280  0.3781 -0.1630 -0.8193
  560TMC3     O 8363   1.988   4.273  11.233 -0.1297 -0.2777  0.5101
  560TMC3     H 8364   1.714   4.030  11.376  0.1986 -2.0942  1.0750
  560TMC3    H1 8365   2.126   4.129  11.379 -0.5684 -0.2311 -1.2043
  560TMC3    H2 8366   1.989   3.867  11.673  0.5537 -0.3631  0.0074
  560TMC3    C7 8367   2.167   4.023  11.614 -0.3371 -0.4457  0.1893
  560TMC3    C8 8368   1.736   3.845  11.551  0.4921  0.1797  0.6383
  560TMC3    O1 8369   2.158   3.981  11.729 -0.4564 -0.1186 -0.1859
  560TMC3    O2 8370   1.624   3.867  11.503 -0.1177 -0.1967  0.1181
  561TMC3    C1 8371   4.343   3.030  10.961  0.0666 -0.4958  0.1407
  561TMC3    C2 8372   4.257   2.952  11.032  0.5266  0.5754  0.0604
  561TMC3    C3 8373   4.184   3.018  11.133  0.8463 -0.3203  0.3530
  561TMC3    C4 8374   4.367   3.159  10.995  0.1325 -0.8488  0.1469
  561TMC3    C5 8375   4.308   3.214  11.104 -0.0377  0.3728 -0.1611
  561TMC3    C6 8376   4.213   3.142  11.175 -0.2525  0.5660 -0.0086
  561TMC3     C 8377   4.389   2.982  10.836 -0.7706  0.6548 -0.0788
  561TMC3     O 8378   4.328   2.900  10.774 -0.2234 -0.0034 -0.0525
  561TMC3     H 8379   4.245   2.847  11.010 -1.6019  1.2285 -1.9499
  561TMC3    H1 8380   4.431   3.224  10.937  0.5201 -1.2821  0.0885
  561TMC3    H2 8381   4.142   3.200  11.232  1.4754  2.1550  0.5115
  561TMC3    C7 8382   4.311   3.353  11.139 -0.0158 -0.4935 -0.7407
  561TMC3    C8 8383   4.120   2.933  11.228  0.3105  0.1667  0.0159
  561TMC3    O1 8384   4.265   3.384  11.248  0.2784 -0.1554  0.4338
  561TMC3    O2 8385   4.088   2.819  11.189  0.2069  0.5931 -0.0414
  562TMC3    C1 8386   1.041   0.528  16.970 -0.0729  0.0258 -0.2388
  562TMC3    C2 8387   1.073   0.574  16.847  0.0493  0.1900 -1.2311
  562TMC3    C3 8388   1.175   0.509  16.784 -0.1552 -0.0508  0.2290
  562TMC3    C4 8389   1.096   0.418  17.024  0.5256 -0.0028  0.1341
  562TMC3    C5 8390   1.202   0.361  16.969  0.1723  0.2391  0.2046
  562TMC3    C6 8391   1.248   0.418  16.851 -0.3967  0.0721 -0.2578
  562TMC3     C 8392   0.938   0.592  17.045  0.0781  0.2442  0.2918
  562TMC3     O 8393   0.963   0.585  17.162 -0.5431  0.6688  0.3653
  562TMC3     H 8394   1.013   0.651  16.801  0.9111  0.4736 -1.8748
  562TMC3    H1 8395   1.049   0.369  17.108 -0.4268 -1.0732 -1.0266
  562TMC3    H2 8396   1.325   0.366  16.795 -0.1505  1.0961 -0.8687
  562TMC3    C7 8397   1.250   0.243  17.030  0.9051 -0.0204 -0.6621
  562TMC3    C8 8398   1.227   0.567  16.657 -0.0681 -0.1643 -0.4263
  562TMC3    O1 8399   1.186   0.194  17.121  0.0057 -0.3604  0.3085
  562TMC3    O2 8400   1.350   0.560  16.642  0.3158  0.1474 -0.2789
  563MPD2     C 8401   3.287   1.543  15.870 -0.0721  0.4366 -0.2151
  563MPD2    C1 8402   3.366   1.597  15.970  0.2421 -0.2005 -0.8238
  563MPD2    C2 8403   3.503   1.579  15.967  0.5816  0.5989 -0.2764
  563MPD2    C3 8404   3.557   1.498  15.867 -0.4033  0.4455  0.2121
  563MPD2    C4 8405   3.480   1.451  15.766  0.0531 -0.1561  0.1671
  563MPD2    C5 8406   3.339   1.473  15.764 -0.3540 -0.0538  0.3171
  563MPD2     H 8407   3.565   1.611  16.049  0.0478 -1.6070  0.9970
  563MPD2    H1 8408   3.505   1.382  15.686  3.2085 -1.3912  2.2372
  563MPD2    H2 8409   3.179   1.550  15.876  0.1437  0.3457  3.9046
  563MPD2    H3 8410   3.278   1.436  15.682 -0.3261 -1.2281  0.8338
  563MPD2     N 8411   3.690   1.457  15.888 -0.1384  0.0655 -0.4429
  563MPD2    H5 8412   3.744   1.495  15.964 -3.5039  2.1701  0.9056
  563MPD2    N1 8413   3.312   1.662  16.083  0.8622  0.0773  0.1063
  563MPD2    H7 8414   3.380   1.688  16.153 -0.1241  0.8414  0.7800
  564TMC3    C1 8415   3.174   1.707  16.265  0.0661  0.1629 -0.5007
  564TMC3    C2 8416   3.095   1.621  16.337 -0.2839  0.2303 -0.1866
  564TMC3    C3 8417   3.149   1.560  16.444 -0.4573  0.6188  0.1121
  564TMC3    C4 8418   3.291   1.753  16.319  0.0683 -0.5616 -0.2573
  564TMC3    C5 8419   3.345   1.699  16.435 -0.3375  0.1413 -0.0798
  564TMC3    C6 8420   3.266   1.612  16.503  0.5980 -0.0857  0.3742
  564TMC3     C 8421   3.178   1.678  16.122 -0.7557 -0.3351  0.2209
  564TMC3     O 8422   3.075   1.636  16.071  0.1213 -0.5558  0.0492
  564TMC3     H 8423   3.006   1.572  16.298 -1.5029  1.3922  1.1415
  564TMC3    H1 8424   3.349   1.822  16.259 -0.9019  1.6878  1.3890
  564TMC3    H2 8425   3.303   1.558  16.590 -0.3677  0.7883  1.3367
  564TMC3    C7 8426   3.475   1.650  16.397  0.4706 -0.0679 -0.4507
  564TMC3    C8 8427   3.140   1.412  16.438  0.6524  0.3581  0.1823
  564TMC3    O1 8428   3.499   1.658  16.277 -0.0785 -0.3617 -0.2921
  564TMC3    O2 8429   3.177   1.342  16.532  0.2403 -0.3978  0.6306
  565TMC3    C1 8430   3.609   2.378  10.331 -0.4302 -0.0106  0.1190
  565TMC3    C2 8431   3.641   2.310  10.443  0.3190  0.2055  0.0662
  565TMC3    C3 8432   3.579   2.190  10.461  0.2008 -0.0018  0.3378
  565TMC3    C4 8433   3.525   2.323  10.234 -0.6346 -0.3878  0.8262
  565TMC3    C5 8434   3.463   2.208  10.259 -0.0251  0.5020 -0.5306
  565TMC3    C6 8435   3.485   2.140  10.373  0.5219  0.1408  0.0724
  565TMC3     C 8436   3.721   2.455  10.266  0.3853  0.2898  0.6917
  565TMC3     O 8437   3.765   2.434  10.152  0.5180 -0.0365  0.7400
  565TMC3     H 8438   3.725   2.335  10.507 -0.8855 -0.1370  1.7810
  565TMC3    H1 8439   3.508   2.383  10.146 -0.1501 -1.1538  0.2145
  565TMC3    H2 8440   3.413   2.067  10.408  0.0103  0.9704  0.7605
  565TMC3    C7 8441   3.372   2.150  10.170 -0.6261  0.1810  0.0834
  565TMC3    C8 8442   3.628   2.096  10.552  0.9604  0.2715  0.6005
  565TMC3    O1 8443   3.337   2.035  10.194  1.0864  0.1859 -0.2743
  565TMC3    O2 8444   3.704   2.146  10.634  0.1370  0.1403 -0.7911
  566MPD2     C 8445   0.588   4.275  14.515  0.2777  0.7392  0.2360
  566MPD2    C1 8446   0.635   4.339  14.400 -0.4406  0.2732  0.3588
  566MPD2    C2 8447   0.577   4.310  14.274  0.5988 -0.0700  0.0492
  566MPD2    C3 8448   0.456   4.231  14.267  0.1164 -0.2603  0.2119
  566MPD2    C4 8449   0.412   4.174  14.383 -0.6760  0.4141 -1.0771
  566MPD2    C5 8450   0.476   4.200  14.503 -0.0342 -0.0045 -0.6074
  566MPD2     H 8451   0.620   4.354  14.185 -3.1278  3.3261 -0.0924
  566MPD2    H1 8452   0.319   4.118  14.383  0.1824 -1.0168 -0.0359
  566MPD2    H2 8453   0.632   4.285  14.614  1.2082 -3.8290  0.2557
  566MPD2    H3 8454   0.444   4.153  14.595  0.1109  0.8214 -0.1352
  566MPD2     N 8455   0.374   4.225  14.148  0.3236 -0.5344  0.3988
  566MPD2    H5 8456   0.288   4.173  14.157  0.6154 -1.1253 -0.2279
  566MPD2    N1 8457   0.747   4.428  14.413 -0.1184 -0.5424  0.1459
  566MPD2    H7 8458   0.788   4.430  14.506  1.3038 -1.8340 -0.4330
  567TMC3    C1 8459   0.931   4.556  14.333  0.5481  0.7815  0.4852
  567TMC3    C2 8460   0.989   4.619  14.225  0.0677  0.0198  0.5709
  567TMC3    C3 8461   1.119   4.594  14.194 -0.4337 -0.1526  0.9178
  567TMC3    C4 8462   1.007   4.490  14.424  0.0221 -0.6454  0.2123
  567TMC3    C5 8463   1.138   4.462  14.385 -0.2596 -0.6423 -0.1011
  567TMC3    C6 8464   1.191   4.503  14.266  0.7907  0.1797  0.9156
  567TMC3     C 8465   0.801   4.511  14.310  0.1522  0.3575  0.1763
  567TMC3     O 8466   0.758   4.542  14.199  0.6333 -0.1768  0.0097
  567TMC3     H 8467   0.930   4.681  14.158  1.1499  1.1704  0.6899
  567TMC3    H1 8468   0.961   4.442  14.510 -1.5466  1.2613  0.4441
  567TMC3    H2 8469   1.297   4.486  14.246  0.5743  0.7858 -0.7454
  567TMC3    C7 8470   1.224   4.393  14.485  0.0365 -0.4270  0.2212
  567TMC3    C8 8471   1.139   4.596  14.053 -0.2543  0.3762 -0.7995
  567TMC3    O1 8472   1.326   4.339  14.442 -0.1422  0.1408 -0.0052
  567TMC3    O2 8473   1.091   4.686  13.992  0.1221  0.6999  0.1859
  568MPD2     C 8474   3.603   4.688  16.734 -0.4923  0.4206 -0.1195
  568MPD2    C1 8475   3.488   4.722  16.796  0.3326  0.0603 -0.0773
  568MPD2    C2 8476   3.413   0.088  16.748  0.7653  0.0006 -0.8222
  568MPD2    C3 8477   3.455   0.172  16.650  0.1257  0.5497 -0.3011
  568MPD2    C4 8478   3.570   0.133  16.579 -0.0855  0.1242  0.8833
  568MPD2    C5 8479   3.639   0.022  16.616 -0.2088 -0.5469 -0.2682
  568MPD2     H 8480   3.331   0.125  16.809  1.0473  0.0607 -0.4766
  568MPD2    H1 8481   3.605   0.188  16.492 -2.2191  0.2248  0.0878
  568MPD2    H2 8482   3.661   4.607  16.778  3.2275  1.6331 -2.7737
  568MPD2    H3 8483   3.728   4.731  16.561 -1.1981 -1.2038 -1.5578
  568MPD2     N 8484   3.377   0.282  16.617  0.3566 -0.0326 -0.0996
  568MPD2    H5 8485   3.291   0.294  16.670 -0.7677 -2.1394 -1.4838
  568MPD2    N1 8486   3.449   4.658  16.917 -0.4912  0.2296 -0.3116
  568MPD2    H7 8487   3.508   4.580  16.947 -1.2164  0.1314  0.8809
  569TMC3    C1 8488   3.300   0.466  16.486 -0.1140 -0.1676  0.2421
  569TMC3    C2 8489   3.212   0.490  16.590 -0.0075  0.3424  0.4694
  569TMC3    C3 8490   3.143   0.608  16.597 -0.2716  0.1086 -0.9388
  569TMC3    C4 8491   3.331   0.568  16.400  0.5698  0.2500 -0.4013
  569TMC3    C5 8492   3.257   0.687  16.412  0.3946 -0.6352  0.4748
  569TMC3    C6 8493   3.176   0.714  16.522  0.5484  0.8390  0.1398
  569TMC3     C 8494   3.403   0.366  16.509  0.7329  1.1202 -0.2861
  569TMC3     O 8495   3.501   0.390  16.439 -0.8262  0.2545  0.0736
  569TMC3     H 8496   3.180   0.411  16.657 -1.2018 -0.2706 -0.8054
  569TMC3    H1 8497   3.385   0.543  16.310  1.4909  0.5221  0.0672
  569TMC3    H2 8498   3.108   0.797  16.534  0.2397  0.8044 -1.3617
  569TMC3    C7 8499   3.269   0.785  16.301  0.5948 -0.1753 -0.0513
  569TMC3    C8 8500   3.074   0.618  16.720  0.1954 -0.5549  0.0327
  569TMC3    O1 8501   3.313   0.747  16.190  0.1349  0.6097  0.3777
  569TMC3    O2 8502   2.997   0.540  16.764  0.1792  0.4013  0.4280
  570TMC3    C1 8503   2.478   3.499  16.208 -0.5588 -0.1829 -0.1102
  570TMC3    C2 8504   2.523   3.500  16.079  0.5337 -0.6622  0.5082
  570TMC3    C3 8505   2.476   3.594  15.999 -0.2298 -0.0065  0.7728
  570TMC3    C4 8506   2.379   3.588  16.254  0.8349 -0.1187  0.3040
  570TMC3    C5 8507   2.341   3.687  16.170 -0.1090 -0.4109  0.4930
  570TMC3    C6 8508   2.382   3.683  16.038 -0.1892 -0.1484 -0.2655
  570TMC3     C 8509   2.554   3.426  16.307  0.2807  0.0789  0.2011
  570TMC3     O 8510   2.637   3.346  16.265  0.2475  0.3370  0.3384
  570TMC3     H 8511   2.585   3.417  16.047 -0.4349 -0.4813 -1.8595
  570TMC3    H1 8512   2.341   3.583  16.355 -0.7774  1.5189 -0.2169
  570TMC3    H2 8513   2.348   3.766  15.979  0.5183 -0.6655 -1.3986
  570TMC3    C7 8514   2.379   3.806  16.238  0.8317 -0.1444  0.0826
  570TMC3    C8 8515   2.560   3.639  15.889 -0.4963 -0.0080 -0.2406
  570TMC3    O1 8516   2.466   3.793  16.319 -0.2871 -0.4316 -0.1042
  570TMC3    O2 8517   2.543   3.754  15.849 -0.2332 -0.4186 -0.4949
  571MPD2     C 8518   0.955   0.572   0.012 -0.5303  0.5078  0.2241
  571MPD2    C1 8519   0.884   0.578   0.131 -0.3543 -0.3162 -0.4073
  571MPD2    C2 8520   0.893   0.690   0.203 -0.2473 -0.1551 -0.0593
  571MPD2    C3 8521   0.983   0.797   0.177  0.1769 -0.7526  0.1816
  571MPD2    C4 8522   1.065   0.779   0.066 -0.5060  0.2297  0.2815
  571MPD2    C5 8523   1.049   0.670  17.732  0.1557 -0.5203  0.5545
  571MPD2     H 8524   0.839   0.698   0.297 -0.9180  1.1465 -0.5562
  571MPD2    H1 8525   1.136   0.856   0.042 -1.7170  1.8645  1.9734
  571MPD2    H2 8526   0.949   0.483  17.697 -3.9228  0.6058  0.4541
  571MPD2    H3 8527   1.115   0.666  17.646 -1.0706  0.2866 -0.4272
  571MPD2     N 8528   1.007   0.905   0.258 -0.0384 -0.0044  0.8239
  571MPD2    H5 8529   1.089   0.959   0.234 -0.6485  0.2586 -0.6585
  571MPD2    N1 8530   0.818   0.467   0.191 -0.0987  0.1791 -0.3043
  571MPD2    H7 8531   0.768   0.493   0.275 -2.9877  0.4100 -2.1018
  572TMC3    C1 8532   0.981   1.063   0.437  0.1748  0.7220  0.0216
  572TMC3    C2 8533   0.923   1.080   0.560  0.3353 -0.0098 -0.5072
  572TMC3    C3 8534   0.972   1.190   0.629  0.7671 -0.7554  0.1040
  572TMC3    C4 8535   1.036   1.167   0.373 -0.2969  0.2917 -0.2819
  572TMC3    C5 8536   1.054   1.281   0.438 -0.3971 -0.4016 -0.2702
  572TMC3    C6 8537   1.032   1.295   0.575  0.5551 -0.0888 -0.2244
  572TMC3     C 8538   0.931   0.946   0.371 -0.2117 -0.6740 -0.2568
  572TMC3     O 8539   0.834   0.897   0.426 -0.0688 -0.4072 -0.1312
  572TMC3     H 8540   0.891   0.991   0.613  2.2719 -0.8137 -0.7098
  572TMC3    H1 8541   1.069   1.158   0.270  2.5531  0.4616  0.6082
  572TMC3    H2 8542   1.049   1.378   0.643  2.4088 -0.3856 -0.3085
  572TMC3    C7 8543   1.119   1.383   0.357 -0.2063  0.1621 -0.1325
  572TMC3    C8 8544   0.970   1.187   0.773  0.9000  0.1450 -0.9825
  572TMC3    O1 8545   1.106   1.381   0.237  0.5844 -0.6111  1.2884
  572TMC3    O2 8546   1.052   1.257   0.835  0.6900  0.1875 -0.0809
  573MPD2     C 8547   2.136   1.178   0.648 -0.7821 -0.8886 -0.0343
  573MPD2    C1 8548   2.009   1.143   0.654 -0.2392 -0.1962 -0.4617
  573MPD2    C2 8549   1.915   1.208   0.575  0.0904 -0.1071  0.3739
  573MPD2    C3 8550   1.966   1.306   0.490 -0.0745 -0.2327  0.2556
  573MPD2    C4 8551   2.097   1.341   0.487  0.3774 -0.3485  0.2540
  573MPD2    C5 8552   2.181   1.273   0.570  0.7359  0.3327 -0.5895
  573MPD2     H 8553   1.810   1.186   0.585  0.2287 -1.0968 -0.3700
  573MPD2    H1 8554   2.133   1.421   0.423  1.2142 -0.7349  0.2364
  573MPD2    H2 8555   2.211   1.136   0.714 -0.2420  0.1992  0.0417
  573MPD2    H3 8556   2.285   1.300   0.554  0.4510  1.9753  0.2877
  573MPD2     N 8557   1.886   1.395   0.411  0.2883  0.0081  0.1851
  573MPD2    H5 8558   1.939   1.478   0.388  0.9602 -0.2524  0.7947
  573MPD2    N1 8559   1.975   1.045   0.750 -0.6639  0.1658  0.3395
  573MPD2    H7 8560   2.051   1.002   0.800  1.0129  1.7014 -0.8944
  574TMC3    C1 8561   1.682   1.489   0.335  0.1626 -0.0381 -0.0586
  574TMC3    C2 8562   1.726   1.615   0.358  0.6074 -0.2981  0.6170
  574TMC3    C3 8563   1.645   1.720   0.320  0.2793 -0.4398  0.9943
  574TMC3    C4 8564   1.568   1.475   0.258 -0.4524 -0.0500  0.3866
  574TMC3    C5 8565   1.494   1.579   0.217  0.3050  0.1176 -0.7894
  574TMC3    C6 8566   1.523   1.710   0.258  0.0647 -0.9137  0.5723
  574TMC3     C 8567   1.746   1.375   0.390 -0.3518  0.2450  0.3492
  574TMC3     O 8568   1.697   1.265   0.380  0.4440 -0.5005 -0.1428
  574TMC3     H 8569   1.804   1.628   0.432  0.3083  0.8827  0.7295
  574TMC3    H1 8570   1.547   1.376   0.220  0.3298  0.9045 -2.4750
  574TMC3    H2 8571   1.451   1.789   0.244 -0.4993 -1.6491 -0.6920
  574TMC3    C7 8572   1.412   1.552   0.097 -0.1358 -0.0469  0.3037
  574TMC3    C8 8573   1.680   1.852   0.373 -0.4535  0.6802 -0.8597
  574TMC3    O1 8574   1.409   1.442   0.051 -0.1898  0.1200  0.1172
  574TMC3    O2 8575   1.767   1.862   0.459 -0.4149  0.5798 -0.0445
  575TMC3    C1 8576   4.024   1.933  11.299  0.7446 -0.2996 -0.2627
  575TMC3    C2 8577   4.032   1.802  11.341  0.2497  0.0306 -0.7314
  575TMC3    C3 8578   3.963   1.703  11.273 -0.3998 -0.0169 -0.0628
  575TMC3    C4 8579   3.948   1.961  11.188 -0.1175  0.0815  0.3484
  575TMC3    C5 8580   3.883   1.856  11.119 -0.2269 -0.1973  0.3512
  575TMC3    C6 8581   3.884   1.729  11.166  0.1273 -0.7736 -0.2323
  575TMC3     C 8582   4.117   2.043  11.343 -0.0253 -0.4179 -0.3134
  575TMC3     O 8583   4.120   2.152  11.279  0.1822 -0.1081  0.4538
  575TMC3     H 8584   4.098   1.766  11.419 -1.1685  0.5142  0.6787
  575TMC3    H1 8585   3.921   2.063  11.164  2.4876  0.3504 -1.4696
  575TMC3    H2 8586   3.798   1.666  11.144 -1.2216  0.6263  1.0442
  575TMC3    C7 8587   3.820   1.887  10.989 -0.7444 -0.3955  0.1984
  575TMC3    C8 8588   3.935   1.586  11.353 -0.4439  0.2420  0.0752
  575TMC3    O1 8589   3.783   2.003  10.972 -0.2980 -0.0890 -0.3804
  575TMC3    O2 8590   3.967   1.583  11.474  0.1091 -0.6575 -0.1659
  576MPD2     C 8591   3.807   3.159  12.676  0.4287  0.1412 -0.0601
  576MPD2    C1 8592   3.807   3.265  12.588  0.5643 -0.0386  0.3487
  576MPD2    C2 8593   3.804   3.398  12.638  0.2177 -0.3173 -0.1709
  576MPD2    C3 8594   3.794   3.424  12.775 -0.4130  0.6966  0.1027
  576MPD2    C4 8595   3.803   3.315  12.861 -0.2892 -0.2674  0.0091
  576MPD2    C5 8596   3.795   3.187  12.814 -0.0083 -0.1562 -0.0283
  576MPD2     H 8597   3.785   3.480  12.570 -0.8404 -0.2864  0.1545
  576MPD2    H1 8598   3.814   3.336  12.967 -0.3192  1.2516 -0.2900
  576MPD2    H2 8599   3.813   3.056  12.644  0.4859  0.0285  0.3060
  576MPD2    H3 8600   3.789   3.100  12.878  2.3045 -0.3835 -0.1402
  576MPD2     N 8601   3.785   3.557  12.821  0.1019  0.3436 -0.0493
  576MPD2    H5 8602   3.797   3.633  12.755 -1.3637  1.1160  0.5840
  576MPD2    N1 8603   3.817   3.252  12.448  0.0439 -0.2029  0.0324
  576MPD2    H7 8604   3.818   3.336  12.391  3.0615 -0.6505 -0.5809
  577TMC3    C1 8605   3.821   3.144  12.237 -0.4884 -0.2477 -0.2375
  577TMC3    C2 8606   3.882   3.047  12.160  0.2046 -0.0572 -0.6970
  577TMC3    C3 8607   3.913   3.077  12.025 -0.1079  0.2428 -0.3050
  577TMC3    C4 8608   3.785   3.260  12.173  0.2336 -0.2849  0.5315
  577TMC3    C5 8609   3.797   3.280  12.039 -0.2405 -0.1206 -0.0358
  577TMC3    C6 8610   3.861   3.189  11.964  0.3089 -0.0161 -0.4792
  577TMC3     C 8611   3.831   3.129  12.383 -0.2224 -0.1108 -0.6704
  577TMC3     O 8612   3.856   3.019  12.432 -0.1012 -0.4324  0.1643
  577TMC3     H 8613   3.932   2.962  12.204 -0.2852 -0.1769 -0.3700
  577TMC3    H1 8614   3.725   3.336  12.222  1.9292  0.3665  1.5973
  577TMC3    H2 8615   3.868   3.213  11.858  2.0791  2.7730  0.2914
  577TMC3    C7 8616   3.793   3.422  11.987  0.1668 -0.9256  0.1513
  577TMC3    C8 8617   3.952   2.968  11.930 -0.9061 -0.0827 -1.0671
  577TMC3    O1 8618   3.866   3.443  11.890  0.0143 -0.2412  0.1788
  577TMC3    O2 8619   3.940   2.855  11.978 -0.4566 -0.3748  0.3783
  578MPD2     C 8620   2.143   3.808   1.414 -0.3335  0.1386  0.0967
  578MPD2    C1 8621   2.183   3.751   1.295 -0.4992 -0.3419  0.6555
  578MPD2    C2 8622   2.307   3.682   1.297  0.1273 -0.0352  0.4656
  578MPD2    C3 8623   2.376   3.672   1.410 -0.0229  1.0763  0.0723
  578MPD2    C4 8624   2.330   3.724   1.532  0.2136 -0.6205 -0.0994
  578MPD2    C5 8625   2.216   3.790   1.528  0.5836 -0.3368  0.2818
  578MPD2     H 8626   2.352   3.640   1.208 -0.4830  1.9255 -0.7641
  578MPD2    H1 8627   2.388   3.733   1.624 -1.5541 -2.7140  1.2353
  578MPD2    H2 8628   2.055   3.872   1.415  0.4558  1.2273 -0.3590
  578MPD2    H3 8629   2.176   3.843   1.613 -0.0469 -0.8516  0.3023
  578MPD2     N 8630   2.506   3.610   1.398  0.1157 -0.2217 -0.8483
  578MPD2    H5 8631   2.527   3.590   1.301 -2.5678  0.5353 -1.5889
  578MPD2    N1 8632   2.120   3.784   1.173  0.1636  0.0075 -0.2903
  578MPD2    H7 8633   2.040   3.846   1.182  1.1592  1.7612 -3.5050
  579TMC3    C1 8634   2.724   3.533   1.465  0.3233 -0.0976  0.5526
  579TMC3    C2 8635   2.828   3.575   1.549 -0.1701 -0.5234 -1.2846
  579TMC3    C3 8636   2.953   3.577   1.491 -0.3442  0.2216  0.1639
  579TMC3    C4 8637   2.754   3.506   1.336 -0.5452 -0.1833  0.3029
  579TMC3    C5 8638   2.884   3.505   1.289 -0.5598 -0.3782  0.6083
  579TMC3    C6 8639   2.989   3.536   1.366  0.1599  0.0134  0.6864
  579TMC3     C 8640   2.587   3.577   1.504  0.7889 -0.0759 -0.9746
  579TMC3     O 8641   2.569   3.591   1.624 -0.3099  0.0220  0.1440
  579TMC3     H 8642   2.811   3.608   1.651 -1.3327  3.6042 -2.7989
  579TMC3    H1 8643   2.671   3.482   1.270 -0.5285  1.6220 -0.3507
  579TMC3    H2 8644   3.094   3.529   1.337  0.0622  0.9319  0.1211
  579TMC3    C7 8645   2.909   3.463   1.157 -0.2109 -0.4331 -0.0019
  579TMC3    C8 8646   3.054   3.652   1.564  0.2689 -0.5346 -0.8677
  579TMC3    O1 8647   3.029   3.458   1.124  0.3635 -0.1770 -0.0896
  579TMC3    O2 8648   3.034   3.673   1.686  0.4972 -0.0742 -0.6403
  580TMC3    C1 8649   1.917   3.145  12.470  0.5250 -0.1291  0.4641
  580TMC3    C2 8650   2.041   3.218  12.464 -0.0410  0.0134  0.1412
  580TMC3    C3 8651   2.149   3.141  12.455 -0.3084  0.1523 -0.7928
  580TMC3    C4 8652   1.920   3.012  12.460 -0.5000  0.0434 -0.1770
  580TMC3    C5 8653   2.035   2.940  12.458  0.1089  0.2418  0.5831
  580TMC3    C6 8654   2.154   3.006  12.459 -0.3641 -0.3037  0.5299
  580TMC3     C 8655   1.808   3.211  12.401  0.8031 -0.1684  0.3466
  580TMC3     O 8656   1.771   3.155  12.297 -0.1305 -0.7071 -0.1289
  580TMC3     H 8657   2.033   3.326  12.457  0.2654  0.0657  0.6017
  580TMC3    H1 8658   1.822   2.967  12.467  0.3040 -1.5531  0.6928
  580TMC3    H2 8659   2.246   2.949  12.449  0.2686  1.0659 -1.5594
  580TMC3    C7 8660   2.025   2.792  12.463 -0.4459  0.6219 -0.3034
  580TMC3    C8 8661   2.258   3.209  12.385  0.2780 -0.5153 -0.2158
  580TMC3    O1 8662   1.912   2.745  12.473 -0.4271  0.2178 -0.6619
  580TMC3    O2 8663   2.286   3.324  12.398  0.5408 -0.5601 -0.2236
  581MPD2     C 8664   4.492   3.007  14.912  0.2634  0.3643  0.4883
  581MPD2    C1 8665   4.418   2.893  14.942  0.1477  0.1641  1.0954
  581MPD2    C2 8666   4.288   2.905  14.974  0.1198 -0.3989  0.2964
  581MPD2    C3 8667   4.231   3.024  14.982 -0.7265 -0.5353 -0.2522
  581MPD2    C4 8668   4.303   3.142  14.968 -0.4806 -0.1638  0.0348
  581MPD2    C5 8669   4.433   3.127  14.946 -0.1707  0.2399  0.3454
  581MPD2     H 8670   4.226   2.818  14.991 -0.0387 -0.6805 -1.7612
  581MPD2    H1 8671   4.257   3.240  14.975  0.5697  0.3139  0.2305
  581MPD2    H2 8672   4.600   3.004  14.903  0.1505 -0.3162 -0.7143
  581MPD2    H3 8673   4.487   3.220  14.931 -1.0982  0.5217 -1.2262
  581MPD2     N 8674   4.094   3.038  14.997 -0.0374  0.3110 -0.5036
  581MPD2    H5 8675   4.057   3.129  14.973 -1.1231 -0.6097 -2.3377
  581MPD2    N1 8676   4.491   2.773  14.954  0.5607 -0.2310 -0.4316
  581MPD2    H7 8677   4.592   2.779  14.942  0.6392  0.1365  0.4042
  582TMC3    C1 8678   4.548   2.553  14.995 -0.0859 -0.3983  0.2460
  582TMC3    C2 8679   4.644   2.582  15.085  0.6396 -0.3679 -0.2248
  582TMC3    C3 8680   4.697   2.477  15.153 -0.7885 -0.6225 -0.0239
  582TMC3    C4 8681   4.499   2.426  14.968  0.4980 -0.0465  0.1485
  582TMC3    C5 8682   4.547   2.323  15.044 -0.2358 -1.0929  0.0232
  582TMC3    C6 8683   4.649   2.345  15.133 -0.8560 -0.2728 -0.0524
  582TMC3     C 8684   4.442   2.646  14.976  0.1085  0.0722  0.5801
  582TMC3     O 8685   4.325   2.609  14.971  0.3221  0.0328 -0.4060
  582TMC3     H 8686   4.676   2.685  15.099  0.2929 -0.2956  0.0372
  582TMC3    H1 8687   4.421   2.402  14.897  2.2722  1.6951 -2.3575
  582TMC3    H2 8688   4.682   2.270  15.203  0.3775  1.6214  1.4007
  582TMC3    C7 8689   4.434   2.266  15.115 -0.4539  0.8027  0.3818
  582TMC3    C8 8690   4.693   2.503  15.293 -0.2375  0.3810 -0.3180
  582TMC3    O1 8691   4.450   2.162  15.177  0.3647 -0.3619 -0.4661
  582TMC3    O2 8692   4.608   2.584  15.324 -0.3356 -0.1406  0.2595
  583MPD2     C 8693   4.656   4.153  16.997 -0.3609  0.4104 -0.0430
  583MPD2    C1 8694   4.657   4.273  16.932  0.7484 -0.2448 -0.2950
  583MPD2    C2 8695   4.591   4.380  16.988  0.4256 -0.1755 -0.4680
  583MPD2    C3 8696   4.532   4.369  17.116 -0.4239  0.2487  0.0791
  583MPD2    C4 8697   4.538   4.247  17.188  0.7005  0.0132 -0.3549
  583MPD2    C5 8698   4.593   4.147  17.118 -0.2665 -0.2518 -0.1340
  583MPD2     H 8699   4.586   4.476  16.938  0.4543 -0.4925 -1.0824
  583MPD2    H1 8700   4.497   4.237  17.288  1.9525  1.4989  0.3067
  583MPD2    H2 8701   4.687   4.053  16.966 -0.5879  0.7789 -1.4529
  583MPD2    H3 8702   4.601   4.049  17.164 -1.9660  0.0402  0.7797
  583MPD2     N 8703   4.455   4.472  17.167  0.1238  0.0098 -0.0643
  583MPD2    H5 8704   4.427   4.550  17.109  2.4077  1.6287  1.0336
  583MPD2    N1 8705   4.710   4.285  16.801 -0.4904 -0.8649 -0.1771
  583MPD2    H7 8706   4.700   4.376  16.758  2.3602  0.3676  1.7516
  584TMC3    C1 8707   4.320   4.601  17.311 -0.0674  0.2029  0.9091
  584TMC3    C2 8708   4.358   4.727  17.263 -0.5942 -0.4587  0.5497
  584TMC3    C3 8709   4.289   0.097  17.313 -0.2676 -0.0914  0.0171
  584TMC3    C4 8710   4.218   4.592  17.401  0.6931  0.7419 -0.2814
  584TMC3    C5 8711   4.153   4.704  17.444 -0.5635 -0.5196 -0.8035
  584TMC3    C6 8712   4.183   0.093  17.400 -0.1752 -0.6435  0.3568
  584TMC3     C 8713   4.397   4.479  17.291  0.0714  0.2154 -0.5636
  584TMC3     O 8714   4.402   4.406  17.392 -0.0033 -0.0359 -0.5306
  584TMC3     H 8715   4.432   0.003  17.185  1.5442 -2.1990  2.2577
  584TMC3    H1 8716   4.193   4.492  17.434 -0.7448  1.2942  0.3170
  584TMC3    H2 8717   4.136   0.184  17.437 -1.9492 -1.5316  0.2551
  584TMC3    C7 8718   4.049   4.681  17.547 -0.0746  0.3957 -0.2368
  584TMC3    C8 8719   4.323   0.224  17.245  0.0709 -0.3290 -0.2073
  584TMC3    O1 8720   4.048   4.568  17.592  0.8298  0.1665 -0.0556
  584TMC3    O2 8721   4.332   0.216  17.126  0.2268  0.3599 -0.0494
  585MPD2     C 8722   4.120   3.482   0.490  1.0934  0.2460  0.1226
  585MPD2    C1 8723   4.143   3.532   0.367  0.4772 -0.3733 -0.2781
  585MPD2    C2 8724   4.095   3.458   0.261  0.0644  0.8439  0.6035
  585MPD2    C3 8725   4.029   3.343   0.271 -0.5004  0.2398 -0.0908
  585MPD2    C4 8726   4.002   3.297   0.395  0.4591 -0.1643  0.4875
  585MPD2    C5 8727   4.059   3.363   0.506  0.2452 -0.2668  0.4478
  585MPD2     H 8728   4.108   3.504   0.163  1.7547  1.0889  0.9433
  585MPD2    H1 8729   3.958   3.200   0.416  1.5845 -0.7220  0.2711
  585MPD2    H2 8730   4.151   3.531   0.582  1.4286 -1.1623  0.7621
  585MPD2    H3 8731   4.045   3.319   0.604  0.5415  0.3885  0.7824
  585MPD2     N 8732   3.989   3.268   0.159  0.2255 -0.2828  0.0788
  585MPD2    H5 8733   3.928   3.188   0.177 -0.5424  0.4784  0.8876
  585MPD2    N1 8734   4.181   3.668   0.363 -0.0621  0.2210  0.0497
  585MPD2    H7 8735   4.150   3.728   0.440  3.3856  1.8194  0.1714
  586TMC3    C1 8736   3.943   3.251  17.670  0.0403  0.0191  0.4211
  586TMC3    C2 8737   3.978   3.276  17.542  0.2862  0.7075  0.1345
  586TMC3    C3 8738   3.884   3.281  17.443 -0.6886  0.7686 -0.4576
  586TMC3    C4 8739   3.816   3.207  17.700  0.0118  0.0025  0.1859
  586TMC3    C5 8740   3.725   3.209  17.598 -0.6060  0.4488 -0.6085
  586TMC3    C6 8741   3.757   3.251  17.474 -0.4669 -0.0539  0.0488
  586TMC3     C 8742   4.035   3.297   0.031 -0.2160  0.2276 -0.3592
  586TMC3     O 8743   4.135   3.359  17.743  0.0795 -0.3108  0.3222
  586TMC3     H 8744   4.084   3.292  17.526  0.4398 -0.6322 -0.1556
  586TMC3    H1 8745   3.784   3.198   0.057  3.2369 -3.0257  0.9319
  586TMC3    H2 8746   3.687   3.240  17.391 -0.3404  1.4277 -0.2406
  586TMC3    C7 8747   3.613   3.121  17.626 -0.0322 -0.8278  0.2502
  586TMC3    C8 8748   3.920   3.229  17.310 -0.2013 -0.4465 -0.8238
  586TMC3    O1 8749   3.608   3.054  17.728 -0.0263  0.2842 -0.3532
  586TMC3    O2 8750   3.863   3.268  17.209  0.3822 -0.1012 -0.2739
  587TMC3    C1 8751   1.440   1.953  16.478  0.3578  0.0137 -0.3601
  587TMC3    C2 8752   1.425   2.087  16.479 -0.2122 -0.7693 -0.1198
  587TMC3    C3 8753   1.549   2.158  16.485  0.6011 -0.1973 -0.8290
  587TMC3    C4 8754   1.561   1.891  16.461 -1.5350  0.1784  0.2672
  587TMC3    C5 8755   1.676   1.959  16.459 -0.4093 -0.0458 -0.4172
  587TMC3    C6 8756   1.670   2.095  16.467  0.2502  0.1587  0.2016
  587TMC3     C 8757   1.325   1.860  16.472  0.1401  0.2605  0.3285
  587TMC3     O 8758   1.337   1.748  16.423 -0.0175  0.1160 -0.4820
  587TMC3     H 8759   1.336   2.133  16.522  0.4360  1.9971 -1.7329
  587TMC3    H1 8760   1.568   1.783  16.460 -0.8916  0.2317 -1.5263
  587TMC3    H2 8761   1.761   2.154  16.466 -0.0116  0.6023  5.0475
  587TMC3    C7 8762   1.802   1.888  16.486 -0.3968  0.3038  0.6773
  587TMC3    C8 8763   1.562   2.260  16.585 -0.0335  0.0091  0.2898
  587TMC3    O1 8764   1.794   1.769  16.493  0.1421  0.2611 -0.0196
  587TMC3    O2 8765   1.643   2.266  16.677 -0.6646  0.4855  0.7063
  588TMC3    C1 8766   2.935   0.051   9.798 -0.5361 -0.1933  0.4197
  588TMC3    C2 8767   2.883   4.666   9.785 -0.2132  0.5352  0.3092
  588TMC3    C3 8768   2.859   4.594   9.895  0.5034 -0.1243  0.4898
  588TMC3    C4 8769   2.996   0.088   9.915 -0.1738 -0.7349  0.1649
  588TMC3    C5 8770   2.965   0.011  10.028 -0.6332 -0.5206 -0.5616
  588TMC3    C6 8771   2.889   4.638  10.019  0.1043  0.2908  0.2924
  588TMC3     C 8772   2.867   0.152   9.719  0.5005  0.1730 -0.1447
  588TMC3     O 8773   2.758   0.119   9.667 -0.2019  0.1234 -0.1022
  588TMC3     H 8774   2.831   4.628   9.698  1.6883 -0.1047 -0.5495
  588TMC3    H1 8775   3.069   0.168   9.924  0.3635 -1.4202  2.0253
  588TMC3    H2 8776   2.848   4.596  10.109  0.6054  0.0360  0.4046
  588TMC3    C7 8777   2.977   0.069  10.158 -0.1958 -0.0998 -0.6842
  588TMC3    C8 8778   2.801   4.455   9.886  0.9367 -0.3540  0.1823
  588TMC3    O1 8779   2.991   4.735  10.253 -0.2453  0.3801 -0.4976
  588TMC3    O2 8780   2.767   4.415   9.778 -0.2417  0.2008 -0.6075
  589TMC3    C1 8781   3.163   1.565   1.313 -0.0536 -0.0512 -0.1517
  589TMC3    C2 8782   3.248   1.508   1.409 -1.0446 -0.1540 -0.2059
  589TMC3    C3 8783   3.331   1.402   1.360  0.0441 -0.7592 -0.5475
  589TMC3    C4 8784   3.174   1.525   1.176  0.0110 -0.0971 -0.4753
  589TMC3    C5 8785   3.265   1.429   1.135  0.9553 -0.3024 -0.2566
  589TMC3    C6 8786   3.347   1.370   1.231  0.0371 -0.1578  0.1220
  589TMC3     C 8787   3.060   1.672   1.337 -0.1686 -0.3025  0.1527
  589TMC3     O 8788   3.012   1.731   1.240  0.1637 -0.2170 -0.0621
  589TMC3     H 8789   3.234   1.527   1.515 -1.6038  1.1247 -0.5063
  589TMC3    H1 8790   3.105   1.565   1.103  1.4487 -0.0123 -1.7741
  589TMC3    H2 8791   3.390   1.276   1.198 -3.9379 -1.3379 -1.6386
  589TMC3    C7 8792   3.221   1.342   1.026 -0.3371 -0.3990  0.4969
  589TMC3    C8 8793   3.410   1.325   1.447  0.4457  0.1352 -0.8346
  589TMC3    O1 8794   3.100   1.346   1.006  0.1592  0.3243 -0.6631
  589TMC3    O2 8795   3.380   1.329   1.564 -0.2322  0.1250 -0.6582
  590MPD2     C 8796   2.265   0.728  16.741 -0.0145  0.0247 -0.3753
  590MPD2    C1 8797   2.198   0.799  16.646  0.0239 -0.5911 -0.2180
  590MPD2    C2 8798   2.263   0.885  16.561  0.0440 -0.0550  0.3840
  590MPD2    C3 8799   2.392   0.907  16.576  0.7527  0.0350  0.1967
  590MPD2    C4 8800   2.456   0.847  16.680  0.1811  0.6112  0.3413
  590MPD2    C5 8801   2.401   0.749  16.759 -0.8567 -0.2643 -0.2314
  590MPD2     H 8802   2.212   0.938  16.482  3.5292  3.4463  0.4646
  590MPD2    H1 8803   2.556   0.879  16.709 -0.0220 -0.0073  1.7339
  590MPD2    H2 8804   2.228   0.643  16.797 -3.0770  0.0829 -2.2898
  590MPD2    H3 8805   2.455   0.694  16.836  1.2035  0.5155 -1.1252
  590MPD2     N 8806   2.454   0.996  16.484 -0.3395 -0.4911  0.6613
  590MPD2    H5 8807   2.394   1.026  16.408  1.6819 -1.8508 -1.4602
  590MPD2    N1 8808   2.061   0.765  16.643  0.0618 -0.6434 -0.3505
  590MPD2    H7 8809   2.020   0.703  16.711  0.2504 -1.9395 -1.4207
  591TMC3    C1 8810   2.614   1.134  16.375 -0.6100 -0.0304  0.3675
  591TMC3    C2 8811   2.720   1.101  16.298  0.2332 -0.2464 -0.0767
  591TMC3    C3 8812   2.743   1.162  16.180  0.0784  0.7480 -0.5058
  591TMC3    C4 8813   2.526   1.229  16.337 -0.3831 -0.5566  0.1073
  591TMC3    C5 8814   2.543   1.285  16.215  0.4286 -0.1723  0.1625
  591TMC3    C6 8815   2.654   1.255  16.131  0.4716 -0.2871 -0.9873
  591TMC3     C 8816   2.582   1.033  16.478 -0.2401 -0.3527 -0.0918
  591TMC3     O 8817   2.672   0.982  16.539 -0.6876  0.1743  0.0247
  591TMC3     H 8818   2.774   1.012  16.327  0.1612 -0.6088 -1.0735
  591TMC3    H1 8819   2.435   1.244  16.393 -0.6318  1.2034 -0.7653
  591TMC3    H2 8820   2.645   1.274  16.025  0.4277  0.0329 -0.9264
  591TMC3    C7 8821   2.422   1.330  16.150  0.4689 -0.4252  0.4148
  591TMC3    C8 8822   2.816   1.085  16.081  0.3046 -0.5172  0.2529
  591TMC3    O1 8823   2.313   1.283  16.180  0.0738  0.2209  0.1869
  591TMC3    O2 8824   2.824   0.965  16.102  0.4206  0.2127  0.0910
  592MPD2     C 8825   2.420   1.978  12.015  0.0159 -0.1662  0.2740
  592MPD2    C1 8826   2.372   2.071  12.099 -0.2563 -0.1065 -0.2814
  592MPD2    C2 8827   2.328   2.033  12.229  0.3975 -0.6413 -0.4250
  592MPD2    C3 8828   2.344   1.900  12.272  0.7097 -0.5827 -0.6863
  592MPD2    C4 8829   2.396   1.804  12.182  0.2819 -0.5542 -0.7469
  592MPD2    C5 8830   2.435   1.848  12.058  1.6214 -0.0151  0.2001
  592MPD2     H 8831   2.278   2.099  12.298 -0.1874 -2.4968  0.9090
  592MPD2    H1 8832   2.394   1.700  12.213  0.6217 -0.7662 -1.4412
  592MPD2    H2 8833   2.455   2.002  11.915 -0.2656 -1.7370 -0.2104
  592MPD2    H3 8834   2.503   1.794  11.993  1.9321 -0.1377  0.6249
  592MPD2     N 8835   2.316   1.872  12.410 -0.3304 -0.6055  0.9078
  592MPD2    H5 8836   2.255   1.936  12.460 -1.8161 -0.1816 -1.4459
  592MPD2    N1 8837   2.381   2.211  12.065  0.0659  0.2507 -0.3069
  592MPD2    H7 8838   2.399   2.232  11.967 -0.2351 -1.9705 -0.8435
  593TMC3    C1 8839   2.422   2.439  12.098  0.0640  0.4326  0.8145
  593TMC3    C2 8840   2.423   2.544  12.196  0.5604  0.7746  0.5325
  593TMC3    C3 8841   2.466   2.668  12.152  0.7156  0.0745 -0.0781
  593TMC3    C4 8842   2.483   2.450  11.981 -0.1920 -0.2771 -0.5611
  593TMC3    C5 8843   2.524   2.574  11.942 -0.0366  0.3521  0.1648
  593TMC3    C6 8844   2.519   2.687  12.027  0.0173 -0.6754  0.9226
  593TMC3     C 8845   2.400   2.308  12.156 -0.6398  0.2691 -0.4338
  593TMC3     O 8846   2.421   2.309  12.277 -0.1724 -0.2915  0.1244
  593TMC3     H 8847   2.373   2.534  12.291 -0.2315 -0.9181 -0.0585
  593TMC3    H1 8848   2.505   2.373  11.909  0.5928 -1.0188  0.4788
  593TMC3    H2 8849   2.557   2.785  12.001  0.8282 -0.7340  1.8727
  593TMC3    C7 8850   2.590   2.596  11.814 -0.3764 -0.0304 -0.1182
  593TMC3    C8 8851   2.465   2.779  12.252 -0.1043 -1.1851 -0.3222
  593TMC3    O1 8852   2.658   2.698  11.808  0.1952 -0.4084 -0.2232
  593TMC3    O2 8853   2.368   2.794  12.324 -0.4871  0.2455  0.0832
  594MPD2     C 8854   1.079   1.359  14.612  0.0626  0.6975  0.1701
  594MPD2    C1 8855   1.141   1.289  14.712  0.0296  0.0634 -0.1816
  594MPD2    C2 8856   1.268   1.335  14.755  0.4107  0.3324 -0.0367
  594MPD2    C3 8857   1.332   1.435  14.684  0.7485  0.3029  0.0368
  594MPD2    C4 8858   1.266   1.509  14.588 -0.2148 -0.1696  0.5927
  594MPD2    C5 8859   1.150   1.456  14.547  0.3644  0.2380  0.7607
  594MPD2     H 8860   1.311   1.287  14.843 -3.0091 -0.0962  1.3924
  594MPD2    H1 8861   1.310   1.584  14.523 -0.5578  0.6922  1.3534
  594MPD2    H2 8862   0.989   1.318  14.568  0.4381 -0.5014  0.4984
  594MPD2    H3 8863   1.097   1.496  14.461  0.5104  1.9959  1.4840
  594MPD2     N 8864   1.458   1.480  14.723 -0.6238  0.4877  0.1544
  594MPD2    H5 8865   1.506   1.445  14.805 -1.0939 -1.2938 -0.3226
  594MPD2    N1 8866   1.065   1.185  14.763  0.2444 -0.3442  0.3404
  594MPD2    H7 8867   0.970   1.166  14.732  0.6210 -0.6046 -0.6500
  595TMC3    C1 8868   1.847   1.751  14.745  0.2469 -0.1585 -0.3749
  595TMC3    C2 8869   1.756   1.679  14.672  0.0767 -0.2890  0.1878
  595TMC3    C3 8870   1.640   1.629  14.734  0.2284  0.2420  0.3450
  595TMC3    C4 8871   1.814   1.796  14.870 -0.4670  0.2239  0.3203
  595TMC3    C5 8872   1.701   1.752  14.927 -0.0455 -0.2208 -0.0663
  595TMC3    C6 8873   1.617   1.659  14.865  0.0593 -0.1723  0.4725
  595TMC3     C 8874   1.969   1.801  14.689  0.3719 -0.7166 -0.2214
  595TMC3     O 8875   2.054   1.829  14.770  0.3139 -0.0879  0.2117
  595TMC3     H 8876   1.775   1.679  14.565  0.1701 -0.8695  0.2067
  595TMC3    H1 8877   1.882   1.861  14.924 -0.2911  0.2133  0.1127
  595TMC3    H2 8878   1.527   1.626  14.915  1.1801 -2.7934  0.7892
  595TMC3    C7 8879   1.623   1.852  14.996 -0.3134 -0.0933  0.0589
  595TMC3    C8 8880   1.539   1.572  14.650  1.0032  0.4889 -0.1518
  595TMC3    O1 8881   1.503   1.846  14.984 -0.5439  0.0853 -0.1766
  595TMC3    O2 8882   1.554   1.598  14.531  0.8603  0.7418  0.0938
  596MPD2     C 8883   0.609   4.340  17.087 -0.2024  0.1282 -0.2739
  596MPD2    C1 8884   0.590   4.456  17.004 -0.3015  0.3603 -0.5096
  596MPD2    C2 8885   0.613   4.445  16.868 -0.9574 -0.7639 -0.6784
  596MPD2    C3 8886   0.675   4.329  16.814 -0.0434 -0.0806  0.7047
  596MPD2    C4 8887   0.688   4.219  16.897 -0.0838 -0.1386  0.6513
  596MPD2    C5 8888   0.646   4.222  17.027  0.5245  0.0637 -0.1625
  596MPD2     H 8889   0.590   4.534  16.811  1.4702 -0.2683 -0.8851
  596MPD2    H1 8890   0.733   4.129  16.857  0.9730  0.6555  0.0542
  596MPD2    H2 8891   0.580   4.343  17.191  1.7951 -2.5622  0.3653
  596MPD2    H3 8892   0.652   4.132  17.087 -0.9265  0.5713  0.7354
  596MPD2     N 8893   0.707   4.307  16.676  0.1226  0.0534  0.1638
  596MPD2    H5 8894   0.731   4.212  16.650  0.4985 -0.1942  1.4061
  596MPD2    N1 8895   0.527   4.580  17.045 -0.1457  0.3253  0.1409
  596MPD2    H7 8896   0.526   4.656  16.978  0.9176 -0.5046 -0.8348
  597TMC3    C1 8897   0.408   4.724  17.202  0.2146  0.2324  0.2302
  597TMC3    C2 8898   0.409   0.100  17.125 -0.2951 -0.0626  0.0678
  597TMC3    C3 8899   0.318   0.197  17.150 -0.2407 -0.7789  0.5650
  597TMC3    C4 8900   0.321   4.714  17.310  0.5821  0.3768 -0.4648
  597TMC3    C5 8901   0.234   0.079  17.329 -0.1976  0.2368  0.2108
  597TMC3    C6 8902   0.220   0.188  17.244  0.5072 -0.6841  0.0264
  597TMC3     C 8903   0.479   4.602  17.169 -0.3502 -0.6308  0.4743
  597TMC3     O 8904   0.479   4.526  17.260  0.2088  0.1468 -0.0261
  597TMC3     H 8905   0.484   0.114  17.048 -0.6842 -0.8236 -0.4480
  597TMC3    H1 8906   0.317   4.630  17.378  0.6639  0.9034  0.1869
  597TMC3    H2 8907   0.134   0.254  17.236  2.1008  1.3293 -0.4697
  597TMC3    C7 8908   0.127   0.048  17.417 -0.0825  0.6062  0.1629
  597TMC3    C8 8909   0.341   0.324  17.085 -0.0846  0.2939  0.2437
  597TMC3    O1 8910   0.102   4.668  17.433  0.3728  0.6247  0.2276
  597TMC3    O2 8911   0.425   0.332  16.996  0.4061 -0.4398 -0.2655
  598TMC3    C1 8912   3.526   0.901  15.885  0.9001 -0.0622  0.3996
  598TMC3    C2 8913   3.429   0.803  15.891 -0.1470  0.3108 -0.4990
  598TMC3    C3 8914   3.361   0.784  15.771  0.1437  0.2976 -0.1914
  598TMC3    C4 8915   3.530   0.997  15.784 -0.2201 -0.5871 -0.0426
  598TMC3    C5 8916   3.455   0.973  15.668  0.1575  0.0977 -0.2967
  598TMC3    C6 8917   3.382   0.864  15.660 -0.2698 -0.9288 -0.4549
  598TMC3     C 8918   3.609   0.927  16.005 -0.1388 -0.6445  0.5493
  598TMC3     O 8919   3.689   1.019  15.998 -0.5488 -0.0007 -0.0729
  598TMC3     H 8920   3.430   0.723  15.964  1.3305 -0.4260 -1.3340
  598TMC3    H1 8921   3.607   1.072  15.793 -1.5238  0.8426 -0.8282
  598TMC3    H2 8922   3.320   0.848  15.572 -1.1623 -0.3277  0.0641
  598TMC3    C7 8923   3.475   1.040  15.541  0.6009  0.2054 -0.1464
  598TMC3    C8 8924   3.314   0.649  15.738 -0.3277 -0.6221  0.6065
  598TMC3    O1 8925   3.404   0.999  15.451  0.5102 -0.1985  0.8351
  598TMC3    O2 8926   3.267   0.585  15.827 -0.2760 -0.3738 -0.2747
  599MPD2     C 8927   3.450   3.304  15.732 -0.0742 -0.0557 -0.1903
  599MPD2    C1 8928   3.477   3.206  15.821  0.1179  0.0215 -0.5233
  599MPD2    C2 8929   3.374   3.165  15.915 -0.2950 -0.1549  0.3787
  599MPD2    C3 8930   3.264   3.246  15.934  0.1879  0.3513  0.1865
  599MPD2    C4 8931   3.250   3.362  15.856  0.1847 -0.0080 -0.2002
  599MPD2    C5 8932   3.338   3.378  15.753  0.2270 -0.0231  0.3039
  599MPD2     H 8933   3.394   3.075  15.972  0.2916  1.1197  2.1470
  599MPD2    H1 8934   3.165   3.427  15.876 -0.4141 -0.8335 -0.0798
  599MPD2    H2 8935   3.516   3.330  15.649  1.2940  0.3928  1.0290
  599MPD2    H3 8936   3.316   3.464  15.690 -0.9995 -0.2517  0.4060
  599MPD2     N 8937   3.177   3.240  16.045  0.3085  0.5211  0.5292
  599MPD2    H5 8938   3.099   3.304  16.045 -0.0942  0.0327  0.3824
  599MPD2    N1 8939   3.595   3.140  15.799  0.1312  0.5958  0.1496
  599MPD2    H7 8940   3.668   3.198  15.759 -0.3883 -0.0452 -1.7531
  600TMC3    C1 8941   3.079   3.155  16.243  1.1034 -0.7326  0.4621
  600TMC3    C2 8942   3.021   3.053  16.310 -0.3610  0.0918  0.1514
  600TMC3    C3 8943   2.965   3.071  16.437  0.2142  0.5124 -0.4190
  600TMC3    C4 8944   3.072   3.283  16.293 -0.3832 -0.0847 -0.5510
  600TMC3    C5 8945   2.995   3.304  16.403  0.7624  0.0016  1.0828
  600TMC3    C6 8946   2.938   3.195  16.478  0.1047  0.1727 -0.0614
  600TMC3     C 8947   3.167   3.125  16.128 -0.0628 -0.5685  0.4070
  600TMC3     O 8948   3.212   3.010  16.122  0.0709  0.3296  0.5264
  600TMC3     H 8949   3.034   2.956  16.262  0.9734 -0.5310  1.7882
  600TMC3    H1 8950   3.129   3.363  16.246 -0.9835  0.2160 -0.7709
  600TMC3    H2 8951   2.875   3.210  16.564 -1.0458 -0.2448 -0.8415
  600TMC3    C7 8952   3.004   3.437  16.467  0.5102 -0.0672  0.5057
  600TMC3    C8 8953   2.891   2.968  16.499 -1.0468  0.3491  0.1040
  600TMC3    O1 8954   3.024   3.534  16.394  0.0822 -0.1467  0.2354
  600TMC3    O2 8955   2.913   2.959  16.620 -0.0747 -0.3049  0.5264
  601MPD2     C 8956   1.186   1.892   0.306 -1.2145  0.4586  0.0210
  601MPD2    C1 8957   1.118   1.807   0.227 -0.0665  0.8258 -0.3840
  601MPD2    C2 8958   1.125   1.672   0.259  0.1159  0.2409 -0.7899
  601MPD2    C3 8959   1.168   1.627   0.384  0.6640  0.7501  0.2584
  601MPD2    C4 8960   1.227   1.725   0.464  0.7468  0.2503 -0.3234
  601MPD2    C5 8961   1.242   1.849   0.420  0.0932 -0.4774 -0.3973
  601MPD2     H 8962   1.069   1.607   0.193  1.8054 -1.6507 -0.3899
  601MPD2    H1 8963   1.272   1.698   0.559 -0.7978  0.5306  0.4863
  601MPD2    H2 8964   1.204   1.997   0.286 -0.0967 -0.0058 -1.3895
  601MPD2    H3 8965   1.297   1.924   0.477  1.8220 -0.0089 -2.6685
  601MPD2     N 8966   1.150   1.491   0.432 -0.1345 -0.1090 -0.1010
  601MPD2    H5 8967   1.166   1.477   0.531  0.6813  0.8187 -0.0953
  601MPD2    N1 8968   1.050   1.843   0.106 -0.0873  0.0386  0.0305
  601MPD2    H7 8969   0.987   1.773   0.068  0.7274  0.3980 -1.9642
  602TMC3    C1 8970   0.937   1.987  17.702  0.3626  0.2347 -0.0466
  602TMC3    C2 8971   0.885   2.116  17.697  0.2887 -0.2405 -0.2356
  602TMC3    C3 8972   0.788   2.147  17.606 -0.5334 -0.4194  0.1711
  602TMC3    C4 8973   0.887   1.892  17.624  0.0067  0.0337 -0.4482
  602TMC3    C5 8974   0.773   1.926  17.545 -1.2304 -0.6280 -0.3103
  602TMC3    C6 8975   0.725   2.048  17.537 -0.5117 -0.4268  0.0604
  602TMC3     C 8976   1.037   1.971   0.057  0.4577  0.0249  0.6729
  602TMC3     O 8977   1.089   2.075   0.098 -0.3531 -0.6335  1.1634
  602TMC3     H 8978   0.929   2.194   0.012  1.1757 -2.5559  2.0766
  602TMC3    H1 8979   0.908   1.787  17.641  2.4612  0.7925  1.1642
  602TMC3    H2 8980   0.655   2.069  17.457  0.5559  1.1895 -0.4515
  602TMC3    C7 8981   0.690   1.811  17.498 -0.0914 -0.0567  0.2042
  602TMC3    C8 8982   0.719   2.268  17.625  0.8631  0.4529  0.5022
  602TMC3    O1 8983   0.733   1.696  17.484  0.6449 -0.2474 -1.1178
  602TMC3    O2 8984   0.774   2.365  17.676  0.1313  0.1143  0.4273
  603TMC3    C1 8985   3.413   1.682  10.894 -0.7533 -0.0997 -0.2333
  603TMC3    C2 8986   3.460   1.683  11.019  0.7974 -0.4200 -0.4199
  603TMC3    C3 8987   3.449   1.805  11.082 -0.3968 -0.2228  0.1717
  603TMC3    C4 8988   3.356   1.788  10.825  0.0380 -0.3268  0.0050
  603TMC3    C5 8989   3.354   1.904  10.897  0.1510 -0.3898 -0.8941
  603TMC3    C6 8990   3.398   1.917  11.020  0.3297 -0.0304 -0.2285
  603TMC3     C 8991   3.417   1.550  10.826  0.1137  0.0778  0.0566
  603TMC3     O 8992   3.489   1.468  10.879  0.6878  0.3338 -0.1218
  603TMC3     H 8993   3.498   1.599  11.075  0.5271  0.1893  0.6617
  603TMC3    H1 8994   3.330   1.787  10.720  1.2424  0.7467 -0.2962
  603TMC3    H2 8995   3.368   2.006  11.074  0.7997  1.3411 -2.2341
  603TMC3    C7 8996   3.310   2.031  10.836  0.1408  0.0614  0.2109
  603TMC3    C8 8997   3.528   1.831  11.198  0.3640 -0.0865  0.3753
  603TMC3    O1 8998   3.348   2.135  10.892 -0.5912 -0.1920 -0.4986
  603TMC3    O2 8999   3.522   1.752  11.292 -0.3283 -0.0171  0.4692
  604MPD2     C 9000   4.512   0.862  16.736 -0.3659  0.8389 -0.2949
  604MPD2    C1 9001   4.394   0.853  16.662 -0.0667 -0.0649 -0.1802
  604MPD2    C2 9002   4.411   0.816  16.528 -0.0904 -0.0533 -0.8569
  604MPD2    C3 9003   4.537   0.805  16.465  0.4003 -0.2721 -0.0628
  604MPD2    C4 9004   4.649   0.818  16.549 -0.3141 -0.4592  0.0107
  604MPD2    C5 9005   4.633   0.832  16.683 -0.8194 -0.0061  0.6802
  604MPD2     H 9006   4.320   0.805  16.470 -0.7503 -1.3037  0.4026
  604MPD2    H1 9007   0.015   0.808  16.517 -0.2432 -1.0887  0.4320
  604MPD2    H2 9008   4.505   0.896  16.839 -0.1056 -0.6985  0.2312
  604MPD2    H3 9009   4.716   0.830  16.753 -2.4049 -2.6278  2.5188
  604MPD2     N 9010   4.542   0.775  16.331  0.4583  0.3111 -0.2207
  604MPD2    H5 9011   4.455   0.758  16.281  0.0911  1.3374  0.0774
  604MPD2    N1 9012   4.274   0.885  16.725 -0.2127 -0.5657 -0.0215
  604MPD2    H7 9013   4.284   0.906  16.824  0.2976 -1.0477  0.0320
  605TMC3    C1 9014   4.044   0.932  16.753  0.3236 -0.0512  0.0887
  605TMC3    C2 9015   4.069   0.946  16.887  0.4605  0.2298  0.1601
  605TMC3    C3 9016   3.986   1.024  16.964 -0.1308 -0.6883  0.3064
  605TMC3    C4 9017   3.936   0.994  16.690 -0.2773 -0.3816 -0.6647
  605TMC3    C5 9018   3.855   1.063  16.771  0.1595  0.4200  0.2226
  605TMC3    C6 9019   3.876   1.081  16.905  0.0374  0.2642 -0.4709
  605TMC3     C 9020   4.149   0.892  16.666  0.3785 -0.0164 -0.6484
  605TMC3     O 9021   4.121   0.887  16.553  0.5396  0.4659  0.2626
  605TMC3     H 9022   4.123   0.875  16.949  0.9588  1.4472  1.1244
  605TMC3    H1 9023   3.917   0.985  16.584  0.1762  0.9222 -0.8611
  605TMC3    H2 9024   3.830   1.163  16.959  0.1738  1.3484 -1.9962
  605TMC3    C7 9025   3.756   1.145  16.708  0.4385 -0.0329  0.2932
  605TMC3    C8 9026   4.053   1.118  17.051  0.3977  0.0976  0.7391
  605TMC3    O1 9027   3.725   1.235  16.785  0.5988  0.2757  0.2250
  605TMC3    O2 9028   3.989   1.200  17.114  0.0613  0.5708 -0.3645
  606TMC3    C1 9029   0.830   4.483  17.508  0.2566 -0.1460  0.2434
  606TMC3    C2 9030   0.881   4.483  17.636  0.4314  0.0912  0.2571
  606TMC3    C3 9031   0.880   4.362  17.698 -0.4589 -0.5258 -0.1511
  606TMC3    C4 9032   0.791   4.373  17.439 -0.5537 -0.3234  0.1912
  606TMC3    C5 9033   0.796   4.254  17.509  0.2077  0.1010 -0.0309
  606TMC3    C6 9034   0.844   4.247  17.638  0.3127 -0.4531 -0.1064
  606TMC3     C 9035   0.819   4.623  17.455 -0.2095 -0.5950  0.0199
  606TMC3     O 9036   0.833   4.714  17.537  0.0023  0.2960 -0.6372
  606TMC3     H 9037   0.905   4.578  17.684  0.2557  0.0963  0.3340
  606TMC3    H1 9038   0.760   4.369  17.335  0.0394  3.7431 -0.1629
  606TMC3    H2 9039   0.879   4.152  17.675 -0.7905 -0.6319  0.4764
  606TMC3    C7 9040   0.769   4.125  17.448 -0.6840  0.1131 -0.7794
  606TMC3    C8 9041   0.938   4.352   0.081  0.3268  0.1295 -0.6385
  606TMC3    O1 9042   0.792   4.112  17.326  0.2769  0.1049  0.0384
  606TMC3    O2 9043   1.008   4.439   0.133  0.3025 -0.2231  0.1466
  607MPD2     C 9044   2.808   2.117  11.642 -0.5426 -0.3580  0.0727
  607MPD2    C1 9045   2.852   2.239  11.689  0.2392  0.1209  0.7801
  607MPD2    C2 9046   2.821   2.269  11.822 -0.1875 -0.0928  0.3154
  607MPD2    C3 9047   2.762   2.181  11.912 -0.3121  0.0287  0.2041
  607MPD2    C4 9048   2.717   2.058  11.865 -0.3026 -0.2878  0.0083
  607MPD2    C5 9049   2.733   2.040  11.730 -0.3462  0.2675  0.1716
  607MPD2     H 9050   2.871   2.357  11.859 -0.8592  0.5892 -0.4070
  607MPD2    H1 9051   2.689   1.980  11.934 -1.3266 -0.5403 -0.6873
  607MPD2    H2 9052   2.819   2.090  11.538 -0.6505 -0.6028  0.1239
  607MPD2    H3 9053   2.697   1.952  11.679 -0.0753  0.2167  0.0644
  607MPD2     N 9054   2.752   2.229  12.044  0.2614  0.3285 -0.6083
  607MPD2    H5 9055   2.781   2.325  12.064 -0.0158 -0.1934  2.3727
  607MPD2    N1 9056   2.933   2.331  11.614 -0.4202 -0.7809  0.1985
  607MPD2    H7 9057   2.953   2.419  11.662  0.6478  0.4853 -2.5380
  608TMC3    C1 9058   3.095   2.398  11.473  0.6617 -0.1961  0.0600
  608TMC3    C2 9059   3.154   2.455  11.578 -0.0380  0.2934  0.3813
  608TMC3    C3 9060   3.224   2.565  11.555 -0.5947  0.2710 -0.7204
  608TMC3    C4 9061   3.125   2.431  11.346 -0.0690 -0.6704 -0.0530
  608TMC3    C5 9062   3.217   2.537  11.326  0.6939 -0.3769 -0.0858
  608TMC3    C6 9063   3.261   2.611  11.432  0.5338  0.3029 -0.1032
  608TMC3     C 9064   2.991   2.300  11.496 -0.7236 -0.5179 -0.6264
  608TMC3     O 9065   2.976   2.213  11.406 -0.0607  0.5087  0.2957
  608TMC3     H 9066   3.142   2.413  11.677 -1.2327 -1.2767 -0.4298
  608TMC3    H1 9067   3.076   2.392  11.257  0.4828  0.8182 -1.0155
  608TMC3    H2 9068   3.343   2.682  11.427  0.3093  0.5327 -0.5007
  608TMC3    C7 9069   3.232   2.588  11.191 -0.3965  0.0697  0.0650
  608TMC3    C8 9070   3.273   2.636  11.669 -0.2040  0.4320 -0.2210
  608TMC3    O1 9071   3.185   2.516  11.107  0.0263 -0.2472 -0.1703
  608TMC3    O2 9072   3.378   2.700  11.663  0.4574 -0.3497  0.5134
  609TMC3    C1 9073   0.847   0.792   9.390 -0.5425  0.1479 -0.5115
  609TMC3    C2 9074   0.795   0.676   9.338  0.4982  0.3467  1.0732
  609TMC3    C3 9075   0.854   0.622   9.231 -0.0180 -0.3615  0.5599
  609TMC3    C4 9076   0.965   0.848   9.350  0.2539 -0.1072 -0.3105
  609TMC3    C5 9077   1.022   0.794   9.237  0.0532 -0.5529  0.3031
  609TMC3    C6 9078   0.968   0.682   9.184 -0.4615 -0.2391 -0.7827
  609TMC3     C 9079   0.769   0.858   9.491 -0.1400 -0.7843 -0.2683
  609TMC3     O 9080   0.682   0.795   9.552  0.2803 -0.0446 -0.2724
  609TMC3     H 9081   0.714   0.623   9.387  0.0562  1.0547  1.1264
  609TMC3    H1 9082   1.010   0.923   9.415 -1.2032 -0.7646  1.4517
  609TMC3    H2 9083   1.020   0.631   9.104  1.0444 -1.8280  1.1954
  609TMC3    C7 9084   1.165   0.801   9.244  0.3109 -0.1443 -0.4270
  609TMC3    C8 9085   0.858   0.477   9.232 -0.7395 -0.0457 -0.4326
  609TMC3    O1 9086   1.215   0.870   9.338 -0.0910  0.0186  0.4310
  609TMC3    O2 9087   0.832   0.418   9.335  0.0634 -0.1756  0.0916
  610TMC3    C1 9088   3.334   2.309  12.664 -0.1327  0.0294 -0.1252
  610TMC3    C2 9089   3.451   2.261  12.606  0.3748 -0.0680 -0.2339
  610TMC3    C3 9090   3.498   2.139  12.652 -0.1956  0.2154  0.4988
  610TMC3    C4 9091   3.272   2.243  12.773 -0.4249 -0.1831  0.1792
  610TMC3    C5 9092   3.341   2.133  12.830 -0.2688  0.3272  0.5991
  610TMC3    C6 9093   3.450   2.079  12.768 -0.2215 -0.4495  0.5695
  610TMC3     C 9094   3.285   2.440  12.623  0.4543 -0.1026  0.7251
  610TMC3     O 9095   3.363   2.506  12.557 -0.4394 -0.4340 -0.0769
  610TMC3     H 9096   3.494   2.320  12.526 -0.5994  0.7151 -0.1798
  610TMC3    H1 9097   3.191   2.290  12.828 -0.5788 -0.4909  0.2217
  610TMC3    H2 9098   3.506   1.992  12.801 -0.1499 -1.1181 -1.3094
  610TMC3    C7 9099   3.285   2.055  12.947 -0.3422  0.4496  0.6372
  610TMC3    C8 9100   3.637   2.113  12.628  0.0441 -0.4524  0.3900
  610TMC3    O1 9101   3.365   2.008  13.026 -0.2705 -0.3391 -0.1048
  610TMC3    O2 9102   3.703   2.070  12.717 -0.4267  0.6854  0.2680
  611MPD2     C 9103   2.263   1.668  10.229 -0.1996  0.0192  0.5876
  611MPD2    C1 9104   2.222   1.784  10.291 -0.3244 -0.2437 -0.6382
  611MPD2    C2 9105   2.298   1.899  10.279 -0.3171 -0.0440 -0.0558
  611MPD2    C3 9106   2.425   1.895  10.224  0.4112  0.2341  0.1673
  611MPD2    C4 9107   2.468   1.780  10.157  0.1847 -0.1883  0.3893
  611MPD2    C5 9108   2.390   1.672  10.162  0.1075 -0.5981 -0.2526
  611MPD2     H 9109   2.262   1.994  10.317  0.9646  0.1014  0.7996
  611MPD2    H1 9110   2.567   1.767  10.114 -0.5006 -0.1261 -1.1923
  611MPD2    H2 9111   2.221   1.571  10.253  0.5158 -0.5267 -0.3215
  611MPD2    H3 9112   2.429   1.581  10.118 -0.3029 -0.7438 -0.3139
  611MPD2     N 9113   2.500   2.015  10.225  0.4199 -0.2309 -0.3592
  611MPD2    H5 9114   2.456   2.099  10.259  0.5819 -0.1766 -0.2852
  611MPD2    N1 9115   2.102   1.788  10.368  0.0494  0.2505  0.6138
  611MPD2    H7 9116   2.042   1.708  10.383 -0.3363  0.5225  0.5331
  612TMC3    C1 9117   2.668   2.159  10.177  0.1659 -0.2100 -0.0734
  612TMC3    C2 9118   2.801   2.171  10.210 -0.2051  0.0629 -0.3294
  612TMC3    C3 9119   2.871   2.289  10.182  0.1688 -0.1641 -0.5040
  612TMC3    C4 9120   2.596   2.261  10.121 -0.4217 -0.9509  0.3044
  612TMC3    C5 9121   2.669   2.374  10.086 -0.1835 -0.4660 -0.0919
  612TMC3    C6 9122   2.802   2.393  10.116 -0.1521 -0.1578 -0.3020
  612TMC3     C 9123   2.624   2.026  10.182  0.1699  0.2357 -0.0076
  612TMC3     O 9124   2.710   1.943  10.153  0.2866  0.1951 -0.3805
  612TMC3     H 9125   2.856   2.081  10.235 -0.4871  0.0097  0.0990
  612TMC3    H1 9126   2.496   2.242  10.083 -0.3208 -3.4520  1.2784
  612TMC3    H2 9127   2.846   2.492  10.116  0.9549 -0.6562  0.2728
  612TMC3    C7 9128   2.611   2.485  10.013  0.2732 -0.2073  0.3535
  612TMC3    C8 9129   2.984   2.323  10.252 -0.3046 -0.5628 -0.7805
  612TMC3    O1 9130   2.697   2.562   9.969 -0.0080 -0.4096 -0.3775
  612TMC3    O2 9131   3.038   2.429  10.232 -0.1889  0.0399 -0.2429
  613MPD2     C 9132   2.094   0.499  16.314  0.0495  0.5133  0.5436
  613MPD2    C1 9133   1.999   0.403  16.348 -0.8668  0.0088 -0.3354
  613MPD2    C2 9134   1.999   0.347  16.475  0.4026 -0.0046 -0.1415
  613MPD2    C3 9135   2.109   0.378  16.556 -0.6109 -0.4286  0.1791
  613MPD2    C4 9136   2.197   0.475  16.523  0.3103 -0.0157  0.2463
  613MPD2    C5 9137   2.182   0.546  16.407  0.6879 -0.2760 -0.2234
  613MPD2     H 9138   1.937   0.262  16.500  0.7769 -0.2292  0.0305
  613MPD2    H1 9139   2.289   0.493  16.577  0.5579 -0.9154  0.1192
  613MPD2    H2 9140   2.091   0.532  16.211  2.9369  1.8755  0.8715
  613MPD2    H3 9141   2.248   0.626  16.376 -0.0461  0.5838  0.4377
  613MPD2     N 9142   2.141   0.298  16.661 -0.4963  0.1242 -0.2661
  613MPD2    H5 9143   2.232   0.322  16.699 -0.5713  0.2871 -0.1927
  613MPD2    N1 9144   1.899   0.363  16.255  0.6447  0.5276  0.4711
  613MPD2    H7 9145   1.896   0.425  16.175  0.1300  1.6073  1.3193
  614TMC3    C1 9146   1.739   0.216  16.148 -0.3739 -0.1962 -0.1347
  614TMC3    C2 9147   1.681   0.094  16.156 -0.1629  0.0623  0.5244
  614TMC3    C3 9148   1.673   0.008  16.054 -0.1841  0.3939 -0.3403
  614TMC3    C4 9149   1.784   0.263  16.026  0.4439 -1.1467  0.0166
  614TMC3    C5 9150   1.770   0.173  15.920 -0.2270  0.5118  0.5967
  614TMC3    C6 9151   1.716   0.046  15.929  0.0754  0.5999 -0.0194
  614TMC3     C 9152   1.825   0.243  16.262 -0.0434 -0.7374  0.3903
  614TMC3     O 9153   1.835   0.148  16.345 -0.1540 -0.1561 -0.0353
  614TMC3     H 9154   1.643   0.066  16.254 -1.5852  1.2541  0.3252
  614TMC3    H1 9155   1.831   0.360  16.014 -1.2591 -0.3015  0.1707
  614TMC3    H2 9156   1.733   4.711  15.851 -1.3616  0.2262  0.0138
  614TMC3    C7 9157   1.788   0.236  15.790  0.3750 -0.0230 -0.0930
  614TMC3    C8 9158   1.706   4.612  16.100  0.0790 -0.9843 -0.1516
  614TMC3    O1 9159   1.837   0.347  15.794 -0.5573 -0.2948  0.0033
  614TMC3    O2 9160   1.666   4.511  16.038  0.0153 -0.0634  0.0707
  615MPD2     C 9161   1.218   1.294  16.061 -0.1871 -0.1814  0.1639
  615MPD2    C1 9162   1.137   1.389  16.007  0.3345  0.1947 -0.4334
  615MPD2    C2 9163   1.031   1.348  15.926  1.0520  0.2161  0.3403
  615MPD2    C3 9164   1.015   1.214  15.896  0.3726  0.4586  0.1571
  615MPD2    C4 9165   1.095   1.118  15.962  1.1818 -0.1682  0.0360
  615MPD2    C5 9166   1.188   1.165  16.050  0.5659  0.3780  0.1119
  615MPD2     H 9167   0.964   1.421  15.884 -0.8260 -1.8841 -0.3323
  615MPD2    H1 9168   1.085   1.010  15.961  0.0865 -0.0519 -1.4216
  615MPD2    H2 9169   1.300   1.320  16.127  0.8356 -0.6887 -0.8929
  615MPD2    H3 9170   1.238   1.086  16.105 -1.4849  0.3406  1.8877
  615MPD2     N 9171   0.916   1.185  15.803  1.0716 -0.2207 -0.2350
  615MPD2    H5 9172   0.860   1.263  15.769  0.2317 -0.6868  0.0709
  615MPD2    N1 9173   1.159   1.527  16.027 -0.0907  0.9264 -0.4014
  615MPD2    H7 9174   1.096   1.585  15.973 -0.3849  0.5885 -0.4161
  616TMC3    C1 9175   1.233   1.738  16.091  0.7489 -0.0247 -0.3238
  616TMC3    C2 9176   1.344   1.812  16.109  0.0685  0.2733 -0.2622
  616TMC3    C3 9177   1.338   1.948  16.105 -0.1225 -0.9989  0.7160
  616TMC3    C4 9178   1.108   1.796  16.087 -0.1963 -0.4302 -0.2988
  616TMC3    C5 9179   1.104   1.935  16.092  0.5108 -0.5789 -0.3028
  616TMC3    C6 9180   1.219   2.004  16.099  0.9713 -0.0218 -0.5854
  616TMC3     C 9181   1.246   1.595  16.110  0.0364  0.1182  0.4397
  616TMC3     O 9182   1.329   1.552  16.186 -0.2858 -0.1043  0.0525
  616TMC3     H 9183   1.438   1.760  16.120 -0.3115 -0.5557 -0.9916
  616TMC3    H1 9184   1.013   1.745  16.075 -1.4261  2.1779 -1.7392
  616TMC3    H2 9185   1.214   2.112  16.090 -0.2211 -0.1408 -1.3950
  616TMC3    C7 9186   0.982   2.005  16.047  0.1813 -0.0392 -0.0969
  616TMC3    C8 9187   1.452   2.041  16.124  0.0248  0.7580  0.3900
  616TMC3    O1 9188   0.902   1.947  15.976 -0.2303  0.4807 -0.2027
  616TMC3    O2 9189   1.430   2.157  16.151 -0.3837  0.2286 -0.3811
  617MPD2     C 9190   4.176   3.813  14.261 -0.3323  0.2326 -0.0756
  617MPD2    C1 9191   4.111   3.744  14.161  0.0253  0.6729 -0.3191
  617MPD2    C2 9192   3.974   3.770  14.138  0.1711 -0.0878  0.0025
  617MPD2    C3 9193   3.901   3.837  14.243 -0.2596 -0.1508 -0.3222
  617MPD2    C4 9194   3.965   3.895  14.347  0.2256 -0.4241  0.4388
  617MPD2    C5 9195   4.102   3.874  14.362 -0.3499  0.5645 -0.2118
  617MPD2     H 9196   3.917   3.737  14.052 -0.4038 -0.1971  0.4258
  617MPD2    H1 9197   3.915   3.947  14.428 -0.4742 -1.7187  0.8382
  617MPD2    H2 9198   4.279   3.793  14.286 -0.3829  2.5946  2.0308
  617MPD2    H3 9199   4.145   3.912  14.454 -0.3989 -0.5976  0.3024
  617MPD2     N 9200   3.761   3.839  14.247  1.0412  0.7493  0.0876
  617MPD2    H5 9201   3.711   3.894  14.317  0.2464  0.9764 -0.6546
  617MPD2    N1 9202   4.192   3.663  14.077 -0.3212  0.9872 -0.2684
  617MPD2    H7 9203   4.292   3.661  14.094 -0.3167  1.6944 -0.2056
  618TMC3    C1 9204   4.246   3.479  13.942 -0.3616  0.1791  0.6608
  618TMC3    C2 9205   4.221   3.341  13.941  0.0362  0.2469 -0.0559
  618TMC3    C3 9206   4.323   3.260  13.912 -0.0708  0.5210  0.4825
  618TMC3    C4 9207   4.373   3.531  13.929 -0.5456 -0.5565 -0.4456
  618TMC3    C5 9208   4.465   3.441  13.886  0.6799 -0.2223  0.0773
  618TMC3    C6 9209   4.443   3.301  13.878  0.8061  0.0619  0.2071
  618TMC3     C 9210   4.136   3.564  14.004  0.0070  0.0188  0.1088
  618TMC3     O 9211   4.020   3.545  13.984 -0.1664 -0.0147 -0.0219
  618TMC3     H 9212   4.121   3.298  13.946 -0.9514  2.7538  1.6009
  618TMC3    H1 9213   4.374   3.638  13.913 -1.2056 -0.5988 -0.7306
  618TMC3    H2 9214   4.532   3.242  13.860  1.6313  1.2400  0.3905
  618TMC3    C7 9215   4.602   3.481  13.889  0.2107  0.1385 -0.2275
  618TMC3    C8 9216   4.280   3.127  13.871 -0.2563 -0.6117  0.3850
  618TMC3    O1 9217   4.654   3.439  13.992 -0.3623 -1.1730  0.2257
  618TMC3    O2 9218   4.189   3.086  13.941  0.1194  0.0165 -0.2249
  619MPD2     C 9219   0.695   0.195  13.737 -0.5168 -0.0822 -0.3741
  619MPD2    C1 9220   0.617   0.295  13.680 -0.0121  0.7836 -1.1351
  619MPD2    C2 9221   0.481   0.312  13.722 -0.0798 -0.1294  0.1407
  619MPD2    C3 9222   0.431   0.229  13.819  0.8089 -0.5215 -0.3040
  619MPD2    C4 9223   0.514   0.130  13.870  0.0660  0.0165 -0.0526
  619MPD2    C5 9224   0.641   0.113  13.829 -0.6222 -0.5401 -0.0732
  619MPD2     H 9225   0.422   0.392  13.681  0.5517 -0.8937 -2.2287
  619MPD2    H1 9226   0.478   0.067  13.951  1.4290  1.4102  1.6444
  619MPD2    H2 9227   0.786   0.160  13.690  0.7295  0.4986  1.6361
  619MPD2    H3 9228   0.700   0.027  13.860 -0.4407  0.8229  3.3438
  619MPD2     N 9229   0.298   0.232  13.869 -0.1600 -0.2531 -0.2030
  619MPD2    H5 9230   0.261   0.161  13.930  2.5174 -0.1304  1.5851
  619MPD2    N1 9231   0.654   0.381  13.574  0.5212  0.1992 -0.4879
  619MPD2    H7 9232   0.588   0.455  13.556  0.6111  0.6038  0.8839
  620TMC3    C1 9233   0.781   0.515  13.445  0.2626 -0.3819 -0.1249
  620TMC3    C2 9234   0.681   0.535  13.349  0.0487 -0.1218 -0.0715
  620TMC3    C3 9235   0.677   0.659  13.295 -0.0561  0.1761 -0.1171
  620TMC3    C4 9236   0.863   0.613  13.489  0.0419 -0.0864  0.6490
  620TMC3    C5 9237   0.862   0.733  13.422  0.7168  0.0853  0.1036
  620TMC3    C6 9238   0.772   0.752  13.322  0.6495  0.2823 -0.3628
  620TMC3     C 9239   0.771   0.389  13.514 -0.0562  0.0245  0.2198
  620TMC3     O 9240   0.869   0.316  13.534  0.4080 -0.0387  0.3511
  620TMC3     H 9241   0.613   0.456  13.320 -1.3072  1.8277 -2.1707
  620TMC3    H1 9242   0.926   0.598  13.576  1.0292  0.2156 -0.0134
  620TMC3    H2 9243   0.762   0.848  13.272  1.6405  0.6399  0.1262
  620TMC3    C7 9244   0.921   0.850  13.484 -0.0718 -0.1331 -0.1908
  620TMC3    C8 9245   0.607   0.674  13.169 -0.2629 -0.2648 -0.4846
  620TMC3    O1 9246   0.889   0.958  13.440 -0.7520  0.4552  0.0851
  620TMC3    O2 9247   0.670   0.705  13.070 -0.5234 -0.5596 -0.4399
  621MPD2     C 9248   0.586   4.468  10.182  0.4629 -0.2086 -0.1944
  621MPD2    C1 9249   0.637   4.440  10.057  0.2365 -0.8208 -0.1162
  621MPD2    C2 9250   0.716   4.535  10.002  0.3544  0.1626 -0.4858
  621MPD2    C3 9251   0.749   4.657  10.064 -0.9045 -0.3998 -0.0518
  621MPD2    C4 9252   0.686   4.689  10.187  0.2208  0.8501  0.6704
  621MPD2    C5 9253   0.608   4.593  10.244  0.2047  0.0518  0.0124
  621MPD2     H 9254   0.759   4.519   9.903  0.7660  2.6611 -0.6992
  621MPD2    H1 9255   0.709   0.048  10.232  1.2838  1.0974 -0.3771
  621MPD2    H2 9256   0.511   4.407  10.231 -1.0328 -1.2764 -3.7994
  621MPD2    H3 9257   0.569   4.610  10.344  1.9983  2.8953  0.2260
  621MPD2     N 9258   0.852   4.731  10.004  0.0282  0.4307 -0.0935
  621MPD2    H5 9259   0.908   4.685   9.933 -0.4576  0.5865 -0.5764
  621MPD2    N1 9260   0.602   4.326   9.986 -0.1760  0.2934 -0.0612
  621MPD2    H7 9261   0.632   4.322   9.889  0.3899 -0.1596  0.1331
  622TMC3    C1 9262   0.462   4.147   9.934  0.0607 -0.1957  0.2693
  622TMC3    C2 9263   0.343   4.112   9.992  0.0190  0.2692  0.2542
  622TMC3    C3 9264   0.226   4.158   9.941  0.1309 -0.6245 -0.4143
  622TMC3    C4 9265   0.450   4.214   9.815 -0.0725 -0.0969  0.4459
  622TMC3    C5 9266   0.331   4.243   9.763 -0.4469  0.6284  0.5062
  622TMC3    C6 9267   0.210   4.210   9.820 -0.3047 -0.0303  0.2401
  622TMC3     C 9268   0.528   4.225  10.039  0.0928  0.9267 -0.4003
  622TMC3     O 9269   0.494   4.206  10.154 -0.0148 -0.0058 -0.4371
  622TMC3     H 9270   0.352   4.051  10.081 -0.3691 -0.0459  0.0783
  622TMC3    H1 9271   0.542   4.245   9.766 -1.1319 -0.4441 -1.7377
  622TMC3    H2 9272   0.108   4.238   9.796  0.1883  1.8651  0.3515
  622TMC3    C7 9273   0.330   4.325   9.641  0.7598 -0.2146 -0.3028
  622TMC3    C8 9274   0.134   4.222  10.039  0.2918  0.0262  0.3136
  622TMC3    O1 9275   0.420   4.316   9.559 -0.0174  0.4505 -0.2697
  622TMC3    O2 9276   0.020   4.247  10.003 -0.2936  0.0761 -0.0412
  623MPD2     C 9277   4.467   1.098  15.914 -0.1022 -0.2822 -0.1235
  623MPD2    C1 9278   4.394   1.142  16.019 -0.7958  1.4700 -0.8026
  623MPD2    C2 9279   4.455   1.160  16.147  0.2780  0.3965 -0.8450
  623MPD2    C3 9280   4.589   1.144  16.159 -0.1519  0.1825 -0.3408
  623MPD2    C4 9281   4.663   1.101  16.050  0.1805  0.4629  0.6134
  623MPD2    C5 9282   4.599   1.070  15.934  0.0911  0.3912  0.0687
  623MPD2     H 9283   4.394   1.185  16.234 -0.1862 -2.2914 -0.3978
  623MPD2    H1 9284   0.032   1.079  16.051  0.2314  0.7303  1.1128
  623MPD2    H2 9285   4.422   1.066  15.820  2.2150 -1.1477 -0.9468
  623MPD2    H3 9286   4.645   1.019  15.850  2.0576  1.6883  0.3799
  623MPD2     N 9287   4.648   1.172  16.285 -0.3774 -0.1602  0.2916
  623MPD2    H5 9288   4.580   1.193  16.358 -0.1863  0.6524  0.2405
  623MPD2    N1 9289   4.251   1.148  16.012 -0.4825 -0.3561 -0.7147
  623MPD2    H7 9290   4.204   1.169  16.100 -0.1708  0.2597 -0.6970
  624TMC3    C1 9291   0.224   1.164  16.635  0.1362  1.0769  0.1227
  624TMC3    C2 9292   0.128   1.144  16.722  0.3885 -0.3319  0.3137
  624TMC3    C3 9293   4.735   1.171  16.682  0.2081 -0.8810  0.0079
  624TMC3    C4 9294   0.202   1.190  16.500  0.3121  0.0212  0.7638
  624TMC3    C5 9295   0.067   1.206  16.461 -0.0073  0.2624  0.1307
  624TMC3    C6 9296   4.701   1.199  16.554 -0.4232  0.5617  0.1662
  624TMC3     C 9297   0.350   1.112  16.681 -0.3934 -0.5972  0.5188
  624TMC3     O 9298   0.344   1.021  16.762 -0.2742  0.1966  0.1441
  624TMC3     H 9299   0.143   1.116  16.826  0.2052 -2.4016 -0.2063
  624TMC3    H1 9300   0.280   1.193  16.425 -2.4911 -0.5978 -2.2241
  624TMC3    H2 9301   4.600   1.223  16.526 -0.3920 -0.0996 -0.5195
  624TMC3    C7 9302   0.043   1.187  16.315 -0.0676  1.3500  0.4232
  624TMC3    C8 9303   4.633   1.205  16.790  0.6886 -0.2777  0.2669
  624TMC3    O1 9304   0.139   1.174  16.235  0.2453 -0.0317 -0.2993
  624TMC3    O2 9305   4.651   1.145  16.895 -0.1250  0.0660 -0.3217
  625MPD2     C 9306   0.513   2.263   0.778 -0.8476 -0.7159  0.1534
  625MPD2    C1 9307   0.559   2.391   0.804 -0.4273 -0.1061  0.1621
  625MPD2    C2 9308   0.664   2.415   0.895 -0.1635 -0.0503 -0.0834
  625MPD2    C3 9309   0.733   2.302   0.942  0.1166 -0.2916 -0.0508
  625MPD2    C4 9310   0.675   2.173   0.934 -0.4965 -0.6542  0.2316
  625MPD2    C5 9311   0.567   2.162   0.853 -0.7200 -0.3214 -0.4364
  625MPD2     H 9312   0.700   2.515   0.916 -0.0894 -0.2346  0.6684
  625MPD2    H1 9313   0.724   2.086   0.976 -1.3230 -0.6466  1.2160
  625MPD2    H2 9314   0.426   2.236   0.719 -1.2964  3.7998 -1.2016
  625MPD2    H3 9315   0.527   2.061   0.850  1.5442 -1.1219 -3.2966
  625MPD2     N 9316   0.854   2.327   1.013 -0.1291  0.3044  0.0704
  625MPD2    H5 9317   0.887   2.423   1.015  0.5758  0.0804 -0.6717
  625MPD2    N1 9318   0.498   2.500   0.738 -0.1822 -0.4323 -0.5471
  625MPD2    H7 9319   0.527   2.595   0.757  1.4248 -1.1625  0.6502
  626TMC3    C1 9320   0.344   2.623   0.606 -0.3131  0.1848 -0.2188
  626TMC3    C2 9321   0.268   2.622   0.490 -0.7532  0.1146 -0.1352
  626TMC3    C3 9322   0.149   2.695   0.485  0.5848  0.3671 -0.3850
  626TMC3    C4 9323   0.299   2.695   0.714  0.5467 -0.2336  0.1842
  626TMC3    C5 9324   0.178   2.767   0.704  0.4251 -0.8624  0.4366
  626TMC3    C6 9325   0.097   2.766   0.595  0.0727  0.2859  0.3107
  626TMC3     C 9326   0.403   2.497   0.638  0.2117 -0.6020  0.0593
  626TMC3     O 9327   0.358   2.403   0.573  1.1108  0.0962  0.9279
  626TMC3     H 9328   0.314   2.570   0.407  0.9499  2.3640 -0.6093
  626TMC3    H1 9329   0.360   2.707   0.803  0.1461  0.4509  0.3717
  626TMC3    H2 9330   0.006   2.825   0.588  0.8574  1.1795 -2.3740
  626TMC3    C7 9331   0.109   2.793   0.832  0.4595 -0.0704  0.5499
  626TMC3    C8 9332   0.092   2.718   0.353  0.5590 -0.6720 -0.2419
  626TMC3    O1 9333   0.174   2.749   0.929 -0.6092  0.0136 -0.0106
  626TMC3    O2 9334   0.178   2.717   0.260  0.1439  0.0664 -0.7987
  627MPD2     C 9335   3.370   2.698  14.818  0.1522  0.3659 -0.6664
  627MPD2    C1 9336   3.434   2.676  14.940  1.1852 -0.2577 -0.3636
  627MPD2    C2 9337   3.416   2.556  15.005 -1.1691 -0.4071 -0.3556
  627MPD2    C3 9338   3.354   2.447  14.938  0.8829 -0.6773  0.0309
  627MPD2    C4 9339   3.291   2.468  14.816  0.0040  0.1162 -0.6858
  627MPD2    C5 9340   3.301   2.597  14.758 -0.5063  0.6337 -0.0092
  627MPD2     H 9341   3.484   2.534  15.087  0.6414  0.2629 -1.6795
  627MPD2    H1 9342   3.234   2.390  14.767  1.7634 -2.3715  1.1752
  627MPD2    H2 9343   3.380   2.786  14.755  0.2122  1.5321  0.9670
  627MPD2    H3 9344   3.265   2.621  14.659  0.1563 -1.1151 -0.6752
  627MPD2     N 9345   3.359   2.316  14.995  0.7113 -0.1332 -0.8966
  627MPD2    H5 9346   3.327   2.237  14.941  0.2692 -2.5702  2.8905
  627MPD2    N1 9347   3.523   2.767  14.995  0.6102  0.1152 -0.0693
  627MPD2    H7 9348   3.586   2.749  15.072  1.9196  0.4610 -1.0670
  628TMC3    C1 9349   3.634   2.976  15.009  0.1217  0.0787  0.1990
  628TMC3    C2 9350   3.760   2.926  15.020  0.0634 -0.2344  0.0807
  628TMC3    C3 9351   3.870   3.004  15.054 -0.2273  0.1430  0.0540
  628TMC3    C4 9352   3.620   3.105  15.026 -0.6094 -0.3544  0.3958
  628TMC3    C5 9353   3.726   3.184  15.071 -0.0050 -1.0937  0.3020
  628TMC3    C6 9354   3.849   3.136  15.085  0.6375 -0.0131  0.3101
  628TMC3     C 9355   3.520   2.901  14.960  0.0170 -0.8042  0.0700
  628TMC3     O 9356   3.433   2.961  14.900  0.1733  0.0613 -0.4623
  628TMC3     H 9357   3.776   2.821  14.996  0.3188 -0.1038 -0.3263
  628TMC3    H1 9358   3.520   3.146  15.019 -1.6146 -2.8385  0.4237
  628TMC3    H2 9359   3.923   3.215  15.085 -2.0007  2.4274  0.0061
  628TMC3    C7 9360   3.706   3.329  15.067 -0.6520  1.2428 -0.1854
  628TMC3    C8 9361   4.006   2.949  15.057 -0.3075  0.2696  0.3665
  628TMC3    O1 9362   3.781   3.393  15.142  0.0420 -0.3663 -0.1499
  628TMC3    O2 9363   4.016   2.840  15.106  0.4835  0.3389  0.3679
  629MPD2     C 9364   1.960   2.133  16.177 -0.0607 -0.4451 -0.3066
  629MPD2    C1 9365   1.939   1.994  16.151  0.0861  0.0760  0.3947
  629MPD2    C2 9366   1.815   1.949  16.119 -0.3337  0.3306 -0.2959
  629MPD2    C3 9367   1.704   2.035  16.123  0.0176  0.1530 -0.5473
  629MPD2    C4 9368   1.720   2.170  16.144 -0.1672 -0.2457 -0.2982
  629MPD2    C5 9369   1.850   2.215  16.173  0.0018 -0.7597  0.5663
  629MPD2     H 9370   1.800   1.844  16.098  2.2963  0.1244 -1.1640
  629MPD2    H1 9371   1.635   2.236  16.137 -0.5431 -0.6395  0.5168
  629MPD2    H2 9372   2.056   2.174  16.209 -0.9116 -0.8540  2.7934
  629MPD2    H3 9373   1.865   2.320  16.193 -0.7989 -0.5052 -0.1306
  629MPD2     N 9374   1.572   1.975  16.118 -0.9635  0.0494  0.7406
  629MPD2    H5 9375   1.575   1.877  16.091 -1.7459  0.8576 -2.2326
  629MPD2    N1 9376   2.048   1.904  16.165  0.7310  0.4318  0.3612
  629MPD2    H7 9377   2.139   1.943  16.188  1.2135 -0.0821 -0.6703
  630TMC3    C1 9378   2.167   1.713  16.206 -0.0020  0.2193  0.4907
  630TMC3    C2 9379   2.283   1.783  16.206 -0.4962 -0.0390 -0.1429
  630TMC3    C3 9380   2.396   1.739  16.275 -0.0259  0.0305  0.0105
  630TMC3    C4 9381   2.160   1.596  16.280  0.1515 -1.0570 -0.1310
  630TMC3    C5 9382   2.269   1.556  16.355 -0.0007 -0.6458 -0.0078
  630TMC3    C6 9383   2.392   1.624  16.349  1.2697  0.1571  0.0879
  630TMC3     C 9384   2.041   1.768  16.159 -0.4303  0.0781  0.7776
  630TMC3     O 9385   1.939   1.697  16.162 -0.1675  0.5835 -0.2476
  630TMC3     H 9386   2.288   1.872  16.144  0.0752 -0.3817 -0.5855
  630TMC3    H1 9387   2.068   1.540  16.290  0.0002 -0.9289 -0.8136
  630TMC3    H2 9388   2.480   1.572  16.385 -0.3554 -2.2930  0.5156
  630TMC3    C7 9389   2.253   1.453  16.457  0.3898  0.0974  0.0099
  630TMC3    C8 9390   2.509   1.827  16.291  0.9592 -0.0526  0.0812
  630TMC3    O1 9391   2.346   1.443  16.535  0.4116 -0.0764  0.2523
  630TMC3    O2 9392   2.582   1.803  16.387  0.4563  0.3518  0.3265
  631MPD2     C 9393   0.047   1.459  15.782 -0.0294  0.4952 -0.8079
  631MPD2    C1 9394   0.144   1.515  15.707 -0.3872  0.3533 -0.3366
  631MPD2    C2 9395   0.255   1.442  15.665 -0.8114 -0.1395 -0.0698
  631MPD2    C3 9396   0.279   1.317  15.707 -0.1937 -0.4531 -0.0942
  631MPD2    C4 9397   0.179   1.260  15.778 -0.4234 -0.5496 -0.0926
  631MPD2    C5 9398   0.065   1.328  15.815 -0.2686  0.5483  0.1363
  631MPD2     H 9399   0.327   1.484  15.596 -2.0346  1.8610 -0.1290
  631MPD2    H1 9400   0.193   1.164  15.827 -0.3953 -0.1416  0.7014
  631MPD2    H2 9401   4.694   1.506  15.820  0.1677 -0.7874  1.2580
  631MPD2    H3 9402   4.736   1.266  15.873 -0.3908 -0.3753 -0.9955
  631MPD2     N 9403   0.393   1.251  15.652 -0.3684 -0.0245  0.1915
  631MPD2    H5 9404   0.441   1.298  15.576  1.0882 -1.4111  0.2364
  631MPD2    N1 9405   0.118   1.650  15.660 -0.3478  0.4451  0.1423
  631MPD2    H7 9406   0.065   1.719  15.714 -1.2976  1.0170 -1.5210
  632TMC3    C1 9407   0.152   1.840  15.526 -0.6124  0.1354  0.3339
  632TMC3    C2 9408   0.030   1.888  15.579  0.2473  0.4918 -0.0220
  632TMC3    C3 9409   4.713   2.011  15.533 -0.5437  0.0193  0.6475
  632TMC3    C4 9410   0.207   1.911  15.422  0.1272  0.1713 -0.0635
  632TMC3    C5 9411   0.151   2.033  15.384 -0.4147 -0.5049  0.2513
  632TMC3    C6 9412   0.026   2.075  15.428 -0.3708  0.0949  0.6830
  632TMC3     C 9413   0.183   1.706  15.550 -0.0081 -1.1038 -0.1079
  632TMC3     O 9414   0.252   1.656  15.464  0.3699  0.4920  0.0698
  632TMC3     H 9415   4.710   1.845  15.661  0.0892  0.6362 -0.0544
  632TMC3    H1 9416   0.307   1.889  15.385 -0.0743 -0.8515 -0.0001
  632TMC3    H2 9417   4.721   2.168  15.393 -1.7429 -0.0392  1.9597
  632TMC3    C7 9418   0.219   2.112  15.281 -0.0927 -1.1483 -0.1014
  632TMC3    C8 9419   4.597   2.059  15.607 -0.2964  0.6644 -0.8307
  632TMC3    O1 9420   0.155   2.181  15.207 -0.2632 -0.0228 -0.0396
  632TMC3    O2 9421   4.543   1.980  15.685  0.1048 -0.2894  0.2652
  633MPD2     C 9422   0.170   4.196  17.732 -0.2718 -0.4993 -0.2481
  633MPD2    C1 9423   0.153   4.097  17.627 -0.4074 -0.3434 -0.2077
  633MPD2    C2 9424   0.148   3.966  17.664 -0.3542  0.4151  0.2589
  633MPD2    C3 9425   0.170   3.924   0.043  0.1507 -0.0293  0.1279
  633MPD2    C4 9426   0.189   4.012   0.142  0.0005 -0.6842  0.4112
  633MPD2    C5 9427   0.195   4.148   0.111  0.8273 -0.7160 -0.2470
  633MPD2     H 9428   0.136   3.910  17.572 -1.0533 -0.3603  0.8300
  633MPD2    H1 9429   0.201   3.983   0.246 -0.2645  0.7807  0.8504
  633MPD2    H2 9430   0.173   4.301  17.707 -1.4170 -0.6042 -0.8334
  633MPD2    H3 9431   0.202   4.222   0.190 -2.8908 -0.5614 -0.1002
  633MPD2     N 9432   0.164   3.793   0.087  0.2438  0.1688  0.6988
  633MPD2    H5 9433   0.206   3.783   0.178  1.2129 -1.7054  0.0409
  633MPD2    N1 9434   0.140   4.138  17.491  0.6112  0.3872 -0.1355
  633MPD2    H7 9435   0.124   4.069  17.417 -1.1126 -0.3472  0.9113
  634TMC3    C1 9436   0.174   4.286  17.312 -0.2181  0.0441 -0.3605
  634TMC3    C2 9437   0.244   4.187  17.251  0.2283  0.3436 -0.1628
  634TMC3    C3 9438   0.286   4.212  17.124 -0.0001 -1.0410  0.0796
  634TMC3    C4 9439   0.136   4.401  17.246  0.1118 -0.3859  0.1213
  634TMC3    C5 9440   0.180   4.419  17.116  0.5587 -0.4805 -0.1574
  634TMC3    C6 9441   0.251   4.323  17.049  0.8098 -0.4101 -0.1055
  634TMC3     C 9442   0.137   4.270  17.452  0.1863  0.5904 -0.2559
  634TMC3     O 9443   0.105   4.373  17.515 -0.2293  0.5394  0.0635
  634TMC3     H 9444   0.259   4.092  17.301 -1.6235  1.5524  2.7257
  634TMC3    H1 9445   0.083   4.478  17.300  2.9151  1.0711  0.8227
  634TMC3    H2 9446   0.278   4.334  16.944 -1.4711  0.7141 -0.5783
  634TMC3    C7 9447   0.140   4.530  17.034  0.6273  0.7346 -0.4940
  634TMC3    C8 9448   0.294   4.092  17.047 -0.2275  0.0684 -0.3978
  634TMC3    O1 9449   0.190   4.541  16.924  0.0102  0.0227 -0.7372
  634TMC3    O2 9450   0.289   3.988  17.111  0.0799  0.5194 -0.1289
  635TMC3    C1 9451   0.704   0.260   0.212  0.4537  0.1031 -0.2570
  635TMC3    C2 9452   0.710   0.129   0.174 -0.1750 -0.4785  0.6811
  635TMC3    C3 9453   0.648   0.033   0.249  0.1712  0.6664 -0.1288
  635TMC3    C4 9454   0.645   0.295   0.330  0.8019  1.0086 -0.1261
  635TMC3    C5 9455   0.598   0.197   0.410  0.2016 -0.2305  0.1979
  635TMC3    C6 9456   0.607   0.061   0.379 -0.0851 -0.2966  0.9176
  635TMC3     C 9457   0.783   0.349   0.134 -0.3966 -0.5677 -0.2605
  635TMC3     O 9458   0.819   0.312   0.026  0.0718 -0.3134  0.2657
  635TMC3     H 9459   0.752   0.106   0.077  1.0003  1.7934  0.6520
  635TMC3    H1 9460   0.630   0.398   0.359 -0.3654  0.3330  1.6292
  635TMC3    H2 9461   0.567   4.726   0.450 -0.1699 -1.7510 -0.5959
  635TMC3    C7 9462   0.534   0.224   0.538 -0.1349 -0.4732  0.7084
  635TMC3    C8 9463   0.633   4.632   0.213  0.4693 -0.1936 -0.0847
  635TMC3    O1 9464   0.461   0.140   0.590 -0.2778 -0.0978  0.3115
  635TMC3    O2 9465   0.617   4.547   0.297 -0.2915  0.2871 -0.1636
  636MPD2     C 9466   1.408   0.003  17.097  0.7944  0.2238 -0.4242
  636MPD2    C1 9467   1.445   0.100  17.003 -0.1421 -0.1709  0.2700
  636MPD2    C2 9468   1.561   0.091  16.934  0.1766 -0.1287  0.5420
  636MPD2    C3 9469   1.650   4.726  16.953 -0.3839 -0.2360 -0.5982
  636MPD2    C4 9470   1.605   4.631  17.039  0.0880  0.0553  0.0887
  636MPD2    C5 9471   1.490   4.634  17.107 -0.1337 -0.7877  0.7706
  636MPD2     H 9472   1.593   0.166  16.862 -2.2014  0.0518 -0.3040
  636MPD2    H1 9473   1.669   4.545  17.059 -0.6347 -0.3480  0.6580
  636MPD2    H2 9474   1.319   0.016  17.158  2.4638  1.1620  1.8099
  636MPD2    H3 9475   1.467   4.560  17.184  1.2321  0.5272  2.4499
  636MPD2     N 9476   1.777   4.724  16.895 -0.1776 -0.3315  0.2798
  636MPD2    H5 9477   1.809   0.074  16.854 -0.1369 -0.0099  0.9874
  636MPD2    N1 9478   1.370   0.208  16.977 -0.2255  0.3993 -0.0921
  636MPD2    H7 9479   1.405   0.269  16.904 -1.2685  1.9860  0.7368
  637TMC3    C1 9480   1.997   4.657  16.867  0.1758 -0.2625  0.4132
  637TMC3    C2 9481   2.038   0.051  16.880  0.0235 -0.4704  0.3395
  637TMC3    C3 9482   2.132   0.100  16.798 -0.6687  0.3246  0.3774
  637TMC3    C4 9483   2.055   4.572  16.781  0.0102 -0.4670  0.3381
  637TMC3    C5 9484   2.158   4.617  16.707  0.0992 -0.0571 -0.3966
  637TMC3    C6 9485   2.195   0.013  16.717 -0.0590  0.3003 -0.3614
  637TMC3     C 9486   1.867   4.617  16.910  0.6204 -0.1846 -0.3054
  637TMC3     O 9487   1.835   4.499  16.919  0.4245 -0.0438 -0.0491
  637TMC3     H 9488   1.978   0.120  16.937 -0.9157 -0.1265 -1.0463
  637TMC3    H1 9489   2.045   4.465  16.794 -1.8534 -0.2645  0.5100
  637TMC3    H2 9490   2.268   0.053  16.648  1.5055  0.7594  1.5898
  637TMC3    C7 9491   2.143   4.582  16.570 -0.3761  1.0763  0.3761
  637TMC3    C8 9492   2.065   0.199  16.721  0.4129  0.0806 -0.4735
  637TMC3    O1 9493   2.168   4.665  16.484  0.6416 -0.1811 -0.9166
  637TMC3    O2 9494   1.946   0.178  16.715  0.2518  0.1941  0.2578
  638MPD2     C 9495   1.089   3.514  15.239 -1.0909 -0.7565  0.1895
  638MPD2    C1 9496   1.061   3.403  15.158  0.3196  0.7476 -0.0728
  638MPD2    C2 9497   1.004   3.289  15.220 -0.2469 -0.6378 -0.4704
  638MPD2    C3 9498   0.981   3.287  15.354  0.6090  0.0051 -0.1122
  638MPD2    C4 9499   1.027   3.392  15.437  0.0201 -0.0147 -1.0841
  638MPD2    C5 9500   1.071   3.510  15.377 -0.1908 -0.7161 -0.3995
  638MPD2     H 9501   0.974   3.205  15.158 -0.2185 -2.6050  2.1977
  638MPD2    H1 9502   1.013   3.390  15.544  1.3102 -1.2866 -0.9373
  638MPD2    H2 9503   1.139   3.600  15.197 -0.0305 -0.0781  2.8210
  638MPD2    H3 9504   1.095   3.599  15.434 -3.0404 -0.1211 -0.1269
  638MPD2     N 9505   0.908   3.179  15.408 -0.4064  0.0855 -0.1007
  638MPD2    H5 9506   0.902   3.183  15.509 -1.3813  0.8445 -0.1921
  638MPD2    N1 9507   1.077   3.418  15.022  0.4658 -0.0827  0.1762
  638MPD2    H7 9508   1.099   3.512  14.989  1.6336 -0.7283 -0.8910
  639TMC3    C1 9509   0.814   2.975  15.412 -0.7128 -0.0330 -0.2178
  639TMC3    C2 9510   0.725   2.902  15.346  0.1866 -0.4014 -0.2182
  639TMC3    C3 9511   0.752   2.772  15.320  0.1206 -0.2407  0.1435
  639TMC3    C4 9512   0.923   2.923  15.481  0.7693 -0.3051  0.0644
  639TMC3    C5 9513   0.961   2.801  15.438  0.1634  0.1859  0.1150
  639TMC3    C6 9514   0.874   2.724  15.365  0.1515 -0.4624  0.5616
  639TMC3     C 9515   0.853   3.086  15.334 -0.5121 -0.1552  0.3399
  639TMC3     O 9516   0.796   3.097  15.226 -0.2519 -0.2728  0.0118
  639TMC3     H 9517   0.630   2.943  15.311  1.0246 -2.5755 -4.9734
  639TMC3    H1 9518   0.979   2.980  15.554 -2.8773  0.0560  2.6350
  639TMC3    H2 9519   0.899   2.625  15.329  1.4183  1.1996 -3.1541
  639TMC3    C7 9520   1.067   2.724  15.504 -0.2481 -0.4005  0.1111
  639TMC3    C8 9521   0.692   2.697  15.205  0.0154 -0.3147  0.5689
  639TMC3    O1 9522   1.075   2.736  15.627  0.2893  0.3842  0.3410
  639TMC3    O2 9523   0.777   2.645  15.133 -0.5480  0.1988  0.1879
  640MPD2     C 9524   1.052   1.271  10.111  0.0356 -0.3745  0.1872
  640MPD2    C1 9525   1.087   1.405  10.125 -0.0789 -0.6750 -0.6072
  640MPD2    C2 9526   0.992   1.502  10.164 -0.2673 -0.5721  0.0850
  640MPD2    C3 9527   0.869   1.456  10.194 -0.2160  0.2766  0.0715
  640MPD2    C4 9528   0.837   1.329  10.186  0.1066 -0.8534  0.1744
  640MPD2    C5 9529   0.924   1.233  10.139  0.6691 -0.4670 -0.1375
  640MPD2     H 9530   1.019   1.606  10.147  0.6807 -0.6970  0.8627
  640MPD2    H1 9531   0.741   1.290  10.217 -0.5217  0.4983 -0.0447
  640MPD2    H2 9532   1.121   1.192  10.085  1.3091 -0.6112  4.2694
  640MPD2    H3 9533   0.901   1.127  10.139  0.7760 -0.4898 -0.5749
  640MPD2     N 9534   0.780   1.554  10.242  0.0996 -0.5570 -0.3197
  640MPD2    H5 9535   0.686   1.526  10.267 -0.2770  1.4376  0.5946
  640MPD2    N1 9536   1.220   1.439  10.086 -0.1122  0.0897 -0.0169
  640MPD2    H7 9537   1.271   1.357  10.055  3.4080  0.9795  3.3806
  641TMC3    C1 9538   1.425   1.562  10.049 -0.8943  0.0503 -0.6104
  641TMC3    C2 9539   1.498   1.445  10.038 -0.3413  0.6552 -0.1585
  641TMC3    C3 9540   1.605   1.443   9.955 -0.4086 -0.3698 -0.4476
  641TMC3    C4 9541   1.465   1.677   9.989 -0.2090 -0.7464 -0.6041
  641TMC3    C5 9542   1.586   1.677   9.921  0.7569 -0.5325 -0.0113
  641TMC3    C6 9543   1.653   1.559   9.893  1.0717 -0.0953 -0.2136
  641TMC3     C 9544   1.285   1.563  10.099 -0.6610  0.4666 -0.3737
  641TMC3     O 9545   1.240   1.670  10.144  0.5133 -0.6749  0.1405
  641TMC3     H 9546   1.461   1.353  10.081  0.7814  0.1676 -0.2556
  641TMC3    H1 9547   1.405   1.768   9.988  1.3839  0.2941 -2.0501
  641TMC3    H2 9548   1.751   1.561   9.847  1.4738  1.1806  0.7232
  641TMC3    C7 9549   1.626   1.795   9.846  0.8963  0.0326 -0.4379
  641TMC3    C8 9550   1.684   1.320   9.939 -0.5177 -0.0139  1.0533
  641TMC3    O1 9551   1.542   1.887   9.841 -0.3778  0.4019 -0.2875
  641TMC3    O2 9552   1.770   1.315   9.850 -0.5640  0.3387 -0.5391
  642TMC3    C1 9553   2.201   2.891  12.873  0.0606 -0.6399 -0.3772
  642TMC3    C2 9554   2.338   2.918  12.858  0.1835  0.7446 -0.0006
  642TMC3    C3 9555   2.421   2.811  12.840  0.0868 -0.2429  0.5955
  642TMC3    C4 9556   2.149   2.772  12.890  0.8438 -0.0305 -0.1077
  642TMC3    C5 9557   2.237   2.667  12.869 -0.5559  0.2505 -0.3058
  642TMC3    C6 9558   2.375   2.682  12.847 -0.4737  0.0754 -0.3361
  642TMC3     C 9559   2.117   3.012  12.857  0.2229  1.5679  0.1850
  642TMC3     O 9560   2.166   3.120  12.875 -0.4384  0.0765  1.0425
  642TMC3     H 9561   2.372   3.019  12.841 -1.5296  1.0973 -1.3006
  642TMC3    H1 9562   2.045   2.751  12.910  0.6891  1.0276  0.1764
  642TMC3    H2 9563   2.441   2.597  12.833 -0.6798 -0.0192 -0.7343
  642TMC3    C7 9564   2.194   2.527  12.875 -0.0268 -0.2956  0.5905
  642TMC3    C8 9565   2.570   2.821  12.836  0.0621 -0.4373 -0.1700
  642TMC3    O1 9566   2.291   2.455  12.892 -0.3020  0.1144 -0.3404
  642TMC3    O2 9567   2.628   2.721  12.804  0.4307 -0.7007 -0.0823
  643TMC3    C1 9568   1.954   2.266   0.193 -0.0454 -1.0129  0.2897
  643TMC3    C2 9569   1.828   2.301   0.143 -0.8892  0.0118 -0.7487
  643TMC3    C3 9570   1.774   2.214   0.056  0.5043  0.2339  0.3005
  643TMC3    C4 9571   2.019   2.150   0.152  0.1139  0.0212 -0.3890
  643TMC3    C5 9572   1.956   2.073   0.060 -0.3530 -0.0395  0.9762
  643TMC3    C6 9573   1.835   2.102   0.012 -1.1916  1.5021 -0.8695
  643TMC3     C 9574   2.027   2.365   0.266  0.3092  0.1101  0.8442
  643TMC3     O 9575   1.974   2.474   0.280  0.7328  0.0116  0.1447
  643TMC3     H 9576   1.765   2.378   0.185 -2.3439 -1.1498 -0.8099
  643TMC3    H1 9577   2.117   2.119   0.185 -0.2053  0.0841  0.6156
  643TMC3    H2 9578   1.768   2.035  17.706  1.3950 -0.3396 -1.8542
  643TMC3    C7 9579   2.027   1.946   0.030  0.2082 -0.3473  0.0142
  643TMC3    C8 9580   1.679   2.276  17.710  0.1753  0.0524  0.0460
  643TMC3    O1 9581   2.097   1.908   0.121  0.0903 -0.0507 -0.4927
  643TMC3    O2 9582   1.620   2.202  17.633  0.2611 -0.0751  0.0180
  644MPD2     C 9583   1.942   2.726   9.688  0.6479 -0.3125 -0.2175
  644MPD2    C1 9584   1.844   2.661   9.764 -0.2814  0.2621 -0.2517
  644MPD2    C2 9585   1.715   2.714   9.768 -0.8817 -0.5008 -0.1995
  644MPD2    C3 9586   1.678   2.832   9.700  0.5583  0.9497  0.1613
  644MPD2    C4 9587   1.779   2.893   9.624  0.2094  0.4928  0.0360
  644MPD2    C5 9588   1.906   2.840   9.622 -0.8291 -0.3848 -0.4280
  644MPD2     H 9589   1.636   2.672   9.829 -0.7257  0.2958  0.5433
  644MPD2    H1 9590   1.764   2.992   9.583  1.9832  0.1567 -1.4410
  644MPD2    H2 9591   2.042   2.685   9.684  0.7773 -0.0600  0.4268
  644MPD2    H3 9592   1.973   2.898   9.561 -0.9614  1.2888  1.0153
  644MPD2     N 9593   1.546   2.885   9.715  1.1973  0.0904  0.0715
  644MPD2    H5 9594   1.487   2.820   9.766  0.0377 -0.2456 -1.6943
  644MPD2    N1 9595   1.880   2.545   9.828 -0.6268  0.4812  0.1669
  644MPD2    H7 9596   1.978   2.522   9.817 -0.9453 -0.0744 -1.4188
  645TMC3    C1 9597   1.353   3.017   9.699 -0.3196 -0.0678 -0.3325
  645TMC3    C2 9598   1.311   3.148   9.704 -0.1661 -0.0137  0.0032
  645TMC3    C3 9599   1.171   3.163   9.700 -0.3030  0.2139  0.3204
  645TMC3    C4 9600   1.267   2.913   9.695 -0.2759  0.5540 -0.0953
  645TMC3    C5 9601   1.135   2.930   9.697 -0.1652  0.1795 -0.2491
  645TMC3    C6 9602   1.083   3.057   9.700 -0.1546  0.0256 -1.1477
  645TMC3     C 9603   1.495   3.003   9.672 -1.1660  0.3468  0.3168
  645TMC3     O 9604   1.548   3.098   9.613 -0.0679  0.1769  0.0708
  645TMC3     H 9605   1.371   3.235   9.729 -0.5861  0.8663 -2.0357
  645TMC3    H1 9606   1.307   2.813   9.684  0.6804  0.8362  0.8856
  645TMC3    H2 9607   0.976   3.077   9.695 -0.7374 -2.5990  0.7860
  645TMC3    C7 9608   1.063   2.813   9.638  0.1515  1.0899  0.1419
  645TMC3    C8 9609   1.128   3.301   9.715  0.2742  0.8043  0.1990
  645TMC3    O1 9610   1.120   2.729   9.569  0.2567 -0.2406  0.3232
  645TMC3    O2 9611   1.213   3.388   9.705  1.3050 -0.3983  0.0149
  646MPD2     C 9612   1.283   2.085  14.792 -0.5837 -0.3954 -0.5770
  646MPD2    C1 9613   1.170   2.063  14.871 -0.2158  0.5973 -0.4143
  646MPD2    C2 9614   1.043   2.100  14.825  0.3658  0.1712  0.7668
  646MPD2    C3 9615   1.034   2.170  14.703 -0.4302 -0.0545 -0.9531
  646MPD2    C4 9616   1.144   2.208  14.634  0.8206  0.0679  0.2586
  646MPD2    C5 9617   1.265   2.164  14.677  0.2940 -0.3909  0.0266
  646MPD2     H 9618   0.954   2.065  14.878  2.1488 -3.4678  1.3761
  646MPD2    H1 9619   1.135   2.272  14.547 -0.2743 -0.6094 -0.1241
  646MPD2    H2 9620   1.386   2.057  14.810 -0.9948 -0.8690  1.0031
  646MPD2    H3 9621   1.348   2.197  14.615 -0.4623 -2.0000 -1.8266
  646MPD2     N 9622   0.909   2.208  14.650  0.2950  0.2024  0.5728
  646MPD2    H5 9623   0.834   2.171  14.709  0.0080  0.5842  0.4520
  646MPD2    N1 9624   1.191   1.988  14.989  0.3192 -0.0086 -0.4504
  646MPD2    H7 9625   1.283   1.949  15.004  0.4528  0.5084  0.0428
  647TMC3    C1 9626   1.162   1.905  15.205 -0.5565  0.2273 -0.7063
  647TMC3    C2 9627   1.114   1.919  15.331 -0.1441 -0.7852  0.2708
  647TMC3    C3 9628   1.193   1.875  15.436  0.5146  0.3652  0.2598
  647TMC3    C4 9629   1.287   1.836  15.185  0.4214  0.6744  1.0036
  647TMC3    C5 9630   1.369   1.814  15.296  0.1413  0.3637  0.1605
  647TMC3    C6 9631   1.323   1.842  15.420  0.0033 -1.2822  0.6406
  647TMC3     C 9632   1.102   1.972  15.093 -0.3190 -0.0741  0.5871
  647TMC3     O 9633   0.993   2.023  15.111 -0.2293 -0.0142 -0.4993
  647TMC3     H 9634   1.012   1.951  15.351  0.2417 -0.1874  1.2630
  647TMC3    H1 9635   1.320   1.819  15.083 -0.1698 -1.0427  1.0963
  647TMC3    H2 9636   1.376   1.790  15.498 -2.0647 -0.9457  2.2483
  647TMC3    C7 9637   1.467   1.702  15.286 -0.0960 -0.3116  0.1215
  647TMC3    C8 9638   1.132   1.753  15.491 -0.0015  0.6980  0.3741
  647TMC3    O1 9639   1.558   1.694  15.366 -0.0210  0.2571 -0.3315
  647TMC3    O2 9640   1.173   1.715  15.598  0.0130 -0.0847  0.6859
  648TMC3    C1 9641   0.709   4.370  16.450 -0.0769 -0.2011 -0.0469
  648TMC3    C2 9642   0.783   4.258  16.423 -0.0878 -0.0507 -0.7263
  648TMC3    C3 9643   0.785   4.220  16.291 -0.1965  0.0061  0.7636
  648TMC3    C4 9644   0.660   4.452  16.351  0.5296 -0.0205 -0.1744
  648TMC3    C5 9645   0.673   4.411  16.218 -0.8324  0.5948  0.1976
  648TMC3    C6 9646   0.726   4.287  16.186  0.7624  0.1801 -0.4186
  648TMC3     C 9647   0.694   4.407  16.587 -0.6707  0.9850 -0.1913
  648TMC3     O 9648   0.672   4.529  16.597 -0.3338  0.1563 -0.0415
  648TMC3     H 9649   0.844   4.206  16.496  1.1973  1.5093 -0.6690
  648TMC3    H1 9650   0.629   4.551  16.382 -0.9923  0.2761 -2.6728
  648TMC3    H2 9651   0.727   4.250  16.084 -0.5947 -1.3216  0.1096
  648TMC3    C7 9652   0.599   4.483  16.116 -0.5420  0.1016 -0.0251
  648TMC3    C8 9653   0.843   4.084  16.273  0.3285 -0.1590 -0.0121
  648TMC3    O1 9654   0.621   4.457  15.999  0.2348 -0.2952  0.0611
  648TMC3    O2 9655   0.860   4.016  16.372 -0.0581  0.1493 -0.3851
  649TMC3    C1 9656   3.604   0.346  13.375 -0.6757 -1.0747  0.8047
  649TMC3    C2 9657   3.717   0.414  13.337 -0.5146 -0.3061 -0.6890
  649TMC3    C3 9658   3.835   0.351  13.353  0.2645 -0.1549 -0.0777
  649TMC3    C4 9659   3.608   0.224  13.438  0.5812 -0.0024  0.3545
  649TMC3    C5 9660   3.729   0.179  13.474  0.1570  0.2868 -0.3402
  649TMC3    C6 9661   3.845   0.241  13.430  0.0115 -1.0285 -0.1052
  649TMC3     C 9662   3.480   0.425  13.364 -0.0086 -0.2316 -0.1696
  649TMC3     O 9663   3.484   0.549  13.362  0.3309  0.0009 -0.0415
  649TMC3     H 9664   3.710   0.505  13.279  1.1124 -0.2551 -0.8102
  649TMC3    H1 9665   3.514   0.188  13.479  0.2846  1.4406  0.9635
  649TMC3    H2 9666   3.936   0.182  13.428  0.8678  0.3451 -1.9393
  649TMC3    C7 9667   3.732   0.132  13.607  1.0488  0.0134 -0.2655
  649TMC3    C8 9668   3.955   0.405  13.294  0.2406 -0.6359 -0.6489
  649TMC3    O1 9669   3.636   0.068  13.639  0.0150  0.1267 -0.2216
  649TMC3    O2 9670   4.060   0.375  13.348 -0.2473 -0.4645  0.0322
  650TMC3    C1 9671   1.711   1.894  12.522 -0.3060  0.4658  0.1544
  650TMC3    C2 9672   1.606   1.972  12.548  0.3905  0.3323 -0.0912
  650TMC3    C3 9673   1.628   2.108  12.566  0.2398  0.5100 -0.3849
  650TMC3    C4 9674   1.839   1.943  12.528 -0.3145 -0.1072  0.3313
  650TMC3    C5 9675   1.864   2.074  12.555  0.1756 -0.1539 -0.3780
  650TMC3    C6 9676   1.756   2.159  12.582 -0.0976 -0.2337  0.3051
  650TMC3     C 9677   1.695   1.750  12.538 -0.1317  0.3969 -0.1838
  650TMC3     O 9678   1.586   1.712  12.493 -0.2430  0.1032  0.6419
  650TMC3     H 9679   1.504   1.935  12.555  0.0095  1.7556  1.9891
  650TMC3    H1 9680   1.920   1.876  12.504  0.0171  0.7808 -0.9928
  650TMC3    H2 9681   1.761   2.259  12.622  1.7842  0.5656 -1.9197
  650TMC3    C7 9682   1.989   2.139  12.521  0.1937  0.2643  0.8339
  650TMC3    C8 9683   1.520   2.205  12.578 -0.6565  0.6212 -0.6503
  650TMC3    O1 9684   2.095   2.074  12.493 -0.4169  0.1480 -0.4027
  650TMC3    O2 9685   1.545   2.314  12.625 -0.6835 -1.2785 -0.1724
  651MPD2     C 9686   0.437   3.932  11.029  0.0233  0.1962 -0.2339
  651MPD2    C1 9687   0.448   4.018  10.918  0.5967  0.3181 -0.1047
  651MPD2    C2 9688   0.541   4.119  10.909 -0.4395 -0.1190  0.2285
  651MPD2    C3 9689   0.625   4.140  11.012 -0.2935 -0.0318 -0.3597
  651MPD2    C4 9690   0.612   4.058  11.127  0.3047 -0.1953  0.0341
  651MPD2    C5 9691   0.521   3.956  11.131  0.3395 -0.5182 -0.8469
  651MPD2     H 9692   0.532   4.197  10.835 -3.8176  0.5719  1.3342
  651MPD2    H1 9693   0.676   4.068  11.214  2.2343 -1.5536 -1.2093
  651MPD2    H2 9694   0.365   3.853  11.046 -0.8807  0.5210 -2.4959
  651MPD2    H3 9695   0.517   3.905  11.227  1.8339 -1.9250 -1.5376
  651MPD2     N 9696   0.725   4.244  10.998  0.1891 -0.0592  0.3999
  651MPD2    H5 9697   0.736   4.290  10.908  2.0911  0.1277  0.7251
  651MPD2    N1 9698   0.358   4.011  10.805 -0.2918 -0.7651 -0.1223
  651MPD2    H7 9699   0.373   4.068  10.722 -0.5550 -0.7490 -0.1597
  652TMC3    C1 9700   1.159   4.386  10.996  0.4659 -0.1632  0.3240
  652TMC3    C2 9701   1.057   4.307  11.041  0.0646  0.2135  0.5087
  652TMC3    C3 9702   0.929   4.344  11.021  0.1173  0.3347  0.2502
  652TMC3    C4 9703   1.126   4.514  10.947  0.5234  0.2503 -0.4822
  652TMC3    C5 9704   0.996   4.551  10.935 -0.3123  0.6243 -0.3573
  652TMC3    C6 9705   0.893   4.467  10.971 -0.3576  0.1159  0.7122
  652TMC3     C 9706   1.283   4.358  11.058 -0.9680 -0.1808 -0.0878
  652TMC3     O 9707   1.298   4.248  11.102 -0.0624  0.4393 -0.0177
  652TMC3     H 9708   1.070   4.211  11.089 -1.9405 -0.2432  0.1304
  652TMC3    H1 9709   1.202   4.574  10.899  1.7759 -0.8286  0.1538
  652TMC3    H2 9710   0.793   4.508  10.961  0.1425  0.8109 -1.3519
  652TMC3    C7 9711   0.948   4.687  10.891  0.2903  0.0546 -0.7877
  652TMC3    C8 9712   0.824   4.274  11.092  0.4725 -0.8997  0.1761
  652TMC3    O1 9713   0.833   4.721  10.921 -0.0130  0.2602 -1.0213
  652TMC3    O2 9714   0.851   4.232  11.202 -0.1088  0.1549  0.6187
  653MPD2     C 9715   4.526   4.017  17.594 -0.6397 -0.3503 -0.1272
  653MPD2    C1 9716   4.435   4.123  17.562  0.2797  0.1529  0.0327
  653MPD2    C2 9717   4.369   4.103  17.443 -0.1439 -0.0184  0.5770
  653MPD2    C3 9718   4.387   3.994  17.357 -0.4291 -0.5067  0.5482
  653MPD2    C4 9719   4.482   3.899  17.389  0.5029 -0.4216  0.8481
  653MPD2    C5 9720   4.557   3.910  17.508 -0.0389 -0.7573 -0.4440
  653MPD2     H 9721   4.299   4.180  17.410 -1.4562 -1.4579  0.0152
  653MPD2    H1 9722   4.503   3.806  17.337  0.8904  1.1101 -1.7333
  653MPD2    H2 9723   4.585   4.015  17.686  3.1934  0.5740 -2.5568
  653MPD2    H3 9724   4.635   3.840  17.532  1.9107  2.3997  2.4455
  653MPD2     N 9725   4.318   3.991  17.230  0.6681 -0.0556 -0.3023
  653MPD2    H5 9726   4.242   4.059  17.229  0.9474  0.2439 -0.9258
  653MPD2    N1 9727   4.388   4.219  17.654  0.1202  0.3697  0.8650
  653MPD2    H7 9728   4.327   4.293  17.621 -1.4614 -1.0623  0.5776
  654TMC3    C1 9729   4.211   3.862  17.048  0.2533 -0.9623 -0.4014
  654TMC3    C2 9730   4.089   3.905  17.080  0.2627 -0.4129 -0.2613
  654TMC3    C3 9731   3.979   3.854  17.005 -0.5274  0.3117  1.1366
  654TMC3    C4 9732   4.224   3.772  16.954  0.0635 -0.0809 -0.6866
  654TMC3    C5 9733   4.123   3.718  16.892  0.0437  0.8567  0.5844
  654TMC3    C6 9734   3.996   3.759  16.906  0.9831  0.0804 -0.2828
  654TMC3     C 9735   4.333   3.896  17.125  0.2835  0.0720  0.5277
  654TMC3     O 9736   4.427   3.821  17.112 -0.0985 -0.6536  0.1629
  654TMC3     H 9737   4.069   3.979  17.157 -1.3099  0.5690 -1.6130
  654TMC3    H1 9738   4.325   3.744  16.925  1.1792  2.9180  0.3068
  654TMC3    H2 9739   3.915   3.708  16.855  0.8151  0.5564 -0.4939
  654TMC3    C7 9740   4.150   3.589  16.836 -0.1714 -0.1701  0.5695
  654TMC3    C8 9741   3.852   3.926  17.017  0.9017 -0.0782 -0.9200
  654TMC3    O1 9742   4.076   3.550  16.748  0.3605 -0.4780 -0.0260
  654TMC3    O2 9743   3.854   4.026  17.092  0.5183  0.3380 -0.2092
  655MPD2     C 9744   1.263   0.007  16.091  0.3526  0.3770 -0.2189
  655MPD2    C1 9745   1.176   0.078  16.010 -0.1687 -0.3320 -0.5241
  655MPD2    C2 9746   1.161   0.037  15.878  0.0823  1.1360 -0.0304
  655MPD2    C3 9747   1.226   4.668  15.825  0.0235 -0.1765  0.4323
  655MPD2    C4 9748   1.312   4.594  15.902  0.2100  0.2524  0.1014
  655MPD2    C5 9749   1.316   4.631  16.037  0.2405  0.9684  0.4297
  655MPD2     H 9750   1.085   0.089  15.821 -0.2825  0.7601  0.1107
  655MPD2    H1 9751   1.382   4.521  15.863 -0.1400  0.2685 -0.5506
  655MPD2    H2 9752   1.282   0.016  16.198 -1.0875 -0.7491  0.1443
  655MPD2    H3 9753   1.376   4.565  16.100  0.6964  0.9684 -0.0033
  655MPD2     N 9754   1.197   4.644  15.686  0.0856 -0.1165 -0.7139
  655MPD2    H5 9755   1.114   4.696  15.659  0.5265  0.0811 -1.6815
  655MPD2    N1 9756   1.101   0.182  16.059 -0.6405  0.3843  0.0554
  655MPD2    H7 9757   1.051   0.223  15.980  1.2617  2.7029  0.0561
  656TMC3    C1 9758   0.960   0.302  16.209 -1.1430  0.7678  0.6625
  656TMC3    C2 9759   0.879   0.249  16.307 -0.2471 -0.0229 -0.2170
  656TMC3    C3 9760   0.747   0.264  16.303 -0.0012  0.4852  0.1737
  656TMC3    C4 9761   0.897   0.343  16.091 -1.0543  0.0598 -0.4583
  656TMC3    C5 9762   0.762   0.326  16.083 -0.2198  0.2751  0.0318
  656TMC3    C6 9763   0.686   0.300  16.189  0.1356  0.9820 -0.1485
  656TMC3     C 9764   1.079   0.220  16.196 -0.2051  0.3845 -0.4113
  656TMC3     O 9765   1.148   0.186  16.295  0.1185  0.6682 -0.2584
  656TMC3     H 9766   0.925   0.221  16.401  1.0034  2.6078 -0.0370
  656TMC3    H1 9767   0.954   0.380  16.007 -0.2315  2.0919  0.9872
  656TMC3    H2 9768   0.584   0.265  16.191  0.5625 -0.0807  3.2654
  656TMC3    C7 9769   0.704   0.350  15.951  0.0587 -0.1227  0.0069
  656TMC3    C8 9770   0.666   0.168  16.377 -0.0088  0.7402 -0.5658
  656TMC3    O1 9771   0.782   0.390  15.861  0.0758 -0.1026  0.0545
  656TMC3    O2 9772   0.715   0.054  16.383 -0.3205 -0.1764 -0.0662
  657TMC3    C1 9773   0.031   3.860  15.155  1.2001 -0.9283  0.0447
  657TMC3    C2 9774   4.684   3.803  15.251 -0.0606 -0.5402 -0.1757
  657TMC3    C3 9775   4.548   3.795  15.232  0.1800 -0.0153  0.9142
  657TMC3    C4 9776   4.718   3.921  15.042  0.6181 -0.4314 -0.2832
  657TMC3    C5 9777   4.575   3.920  15.037 -0.2645  0.1705  0.1643
  657TMC3    C6 9778   4.493   3.860  15.127 -0.5709 -0.2693 -0.1621
  657TMC3     C 9779   0.172   3.846  15.166  0.1540  0.4135  0.5708
  657TMC3     O 9780   0.231   3.939  15.115  0.9688  0.3726  0.3499
  657TMC3     H 9781   4.726   3.751  15.337 -1.5071  0.0782  0.8997
  657TMC3    H1 9782   0.042   3.966  14.964  2.2138 -0.0186  1.2106
  657TMC3    H2 9783   4.385   3.868  15.121 -0.6771 -0.9620  0.6981
  657TMC3    C7 9784   4.510   4.022  14.954 -0.6618 -0.2543  0.0997
  657TMC3    C8 9785   4.478   3.726  15.332 -0.5721 -0.4258 -0.7652
  657TMC3    O1 9786   4.388   4.017  14.950  0.3592  0.6320  0.5019
  657TMC3    O2 9787   4.546   3.639  15.388 -0.1133  0.2842 -0.2558
  658MPD2     C 9788   1.346   4.257  14.961  0.5201 -0.3840 -0.0865
  658MPD2    C1 9789   1.272   4.372  14.960 -0.2899 -0.2081  0.5071
  658MPD2    C2 9790   1.233   4.427  14.847  0.5198 -0.1685 -0.6065
  658MPD2    C3 9791   1.247   4.361  14.729  0.2506  0.4680  0.0743
  658MPD2    C4 9792   1.329   4.245  14.730  0.3177 -0.4159  0.5339
  658MPD2    C5 9793   1.365   4.190  14.845 -0.2444  0.3128  0.5349
  658MPD2     H 9794   1.169   4.515  14.839 -0.2217 -0.6441  0.1218
  658MPD2    H1 9795   1.344   4.188  14.639  3.3331  1.2754 -0.0050
  658MPD2    H2 9796   1.386   4.220  15.055 -0.9570  2.0585  1.5222
  658MPD2    H3 9797   1.424   4.099  14.842  0.7404  0.9214  1.3306
  658MPD2     N 9798   1.184   4.405  14.616  0.5320  0.4162 -0.7215
  658MPD2    H5 9799   1.113   4.475  14.632  1.5828  1.9714 -2.8045
  658MPD2    N1 9800   1.244   4.427  15.093 -0.5876  0.1192 -0.2958
  658MPD2    H7 9801   1.281   4.377  15.173 -0.5650  1.2411  0.4014
  659TMC3    C1 9802   1.127   4.546  15.261  0.1462  0.3913  0.0137
  659TMC3    C2 9803   1.212   4.518  15.362 -0.4422  1.0456 -0.0576
  659TMC3    C3 9804   1.158   4.523  15.493 -0.4059 -0.9448 -0.6890
  659TMC3    C4 9805   0.997   4.549  15.282 -0.0607  0.1482  0.3677
  659TMC3    C5 9806   0.943   4.542  15.409 -0.5294 -0.4460  0.7464
  659TMC3    C6 9807   1.022   4.543  15.517  0.4806  0.3744  0.0542
  659TMC3     C 9808   1.164   4.535  15.124 -0.1575 -0.2386  0.3498
  659TMC3     O 9809   1.097   4.600  15.047  0.5082  0.2650  0.3778
  659TMC3     H 9810   1.319   4.517  15.346 -0.3817 -0.5770  0.4015
  659TMC3    H1 9811   0.927   4.551  15.199 -0.1937 -1.6172  0.4506
  659TMC3    H2 9812   0.976   4.527  15.614  0.3322  2.1089  0.2770
  659TMC3    C7 9813   0.802   4.538  15.421 -0.1384 -1.0628  0.2971
  659TMC3    C8 9814   1.242   4.542  15.611  0.6294  0.1689  0.6752
  659TMC3    O1 9815   0.765   4.504  15.532  0.1282  0.1967  0.6764
  659TMC3    O2 9816   1.347   4.478  15.628  0.7328 -0.0525  0.4700
  660MPD2     C 9817   3.602   2.902  12.822  0.0470  0.2677 -0.1758
  660MPD2    C1 9818   3.498   2.993  12.817 -0.6264 -0.0626  0.7176
  660MPD2    C2 9819   3.417   3.003  12.928  0.5198  1.1082 -0.5330
  660MPD2    C3 9820   3.439   2.922  13.040  0.3811 -0.7873 -0.0345
  660MPD2    C4 9821   3.545   2.839  13.040 -0.2351 -0.4710 -0.6956
  660MPD2    C5 9822   3.625   2.829  12.932 -0.7816  0.9226  0.3194
  660MPD2     H 9823   3.330   3.068  12.934  0.4789  0.8816  1.4048
  660MPD2    H1 9824   3.570   2.779  13.127  0.7854  0.3919 -0.3949
  660MPD2    H2 9825   3.667   2.891  12.736 -1.0808  0.5302 -1.0573
  660MPD2    H3 9826   3.711   2.763  12.931  0.3865  2.5033 -1.9648
  660MPD2     N 9827   3.341   2.895  13.137  0.0333 -0.2583 -0.4083
  660MPD2    H5 9828   3.363   2.816  13.197 -0.0861 -1.9070 -2.5430
  660MPD2    N1 9829   3.477   3.070  12.703 -0.4933 -0.3088 -0.6404
  660MPD2    H7 9830   3.519   3.042  12.614 -0.5187  0.7639 -1.0015
  661TMC3    C1 9831   3.340   3.196  12.548  0.1098  0.2581  0.2696
  661TMC3    C2 9832   3.402   3.141  12.444 -0.1810  0.1858 -0.4769
  661TMC3    C3 9833   3.331   3.133  12.332 -0.5408  0.3114  0.0646
  661TMC3    C4 9834   3.215   3.255  12.537  0.3126 -0.2674 -0.7408
  661TMC3    C5 9835   3.145   3.222  12.427  0.5609  0.0213  0.0916
  661TMC3    C6 9836   3.200   3.160  12.323 -0.0793  0.7971  1.1428
  661TMC3     C 9837   3.385   3.171  12.690  0.1109 -0.0545 -0.2190
  661TMC3     O 9838   3.341   3.248  12.770  0.1540  0.3339 -0.2978
  661TMC3     H 9839   3.506   3.109  12.440 -0.0566  0.5334  0.0986
  661TMC3    H1 9840   3.165   3.300  12.622  1.4382 -4.4669  2.1481
  661TMC3    H2 9841   3.152   3.125  12.232  2.7746 -2.2936  0.8346
  661TMC3    C7 9842   3.002   3.235  12.443  0.3380  0.0765  0.3112
  661TMC3    C8 9843   3.401   3.117  12.202 -0.5260  0.2759  0.1928
  661TMC3    O1 9844   2.960   3.314  12.529  0.5224 -0.2400  0.7651
  661TMC3    O2 9845   3.505   3.056  12.180 -0.2697 -0.0029  1.1928
  662MPD2     C 9846   4.211   2.880  17.055  0.5851 -0.2861  0.0523
  662MPD2    C1 9847   4.237   2.867  17.193  0.4248  0.2412 -0.3469
  662MPD2    C2 9848   4.183   2.965  17.278  1.0959 -0.4110 -0.0586
  662MPD2    C3 9849   4.093   3.059  17.232 -0.0015  0.4105  0.3492
  662MPD2    C4 9850   4.071   3.071  17.095 -0.2147  0.2776  0.5744
  662MPD2    C5 9851   4.127   2.978  17.010  0.6149  0.7029 -1.1377
  662MPD2     H 9852   4.193   2.939  17.383 -0.2337  1.0002  0.4215
  662MPD2    H1 9853   4.010   3.151  17.052  1.4957  1.9793  1.3154
  662MPD2    H2 9854   4.261   2.814  16.985  1.4601  2.5248 -1.9772
  662MPD2    H3 9855   4.115   2.983  16.902 -1.5419 -1.8860 -1.0225
  662MPD2     N 9856   4.029   3.143  17.328 -0.1787 -0.0616 -0.3387
  662MPD2    H5 9857   4.060   3.125  17.423  1.6382  1.8828 -0.5796
  662MPD2    N1 9858   4.315   2.768  17.256  0.1764  0.0949 -0.5779
  662MPD2    H7 9859   4.314   2.763  17.357 -1.2825 -1.1575 -0.6617
  663TMC3    C1 9860   4.377   2.541  17.276  0.2356 -0.6149  0.4683
  663TMC3    C2 9861   4.331   2.550  17.408 -0.8479 -0.2429  0.1650
  663TMC3    C3 9862   4.275   2.436  17.469  0.1351  0.3550 -0.0324
  663TMC3    C4 9863   4.376   2.419  17.215  0.3535 -0.4217 -0.4739
  663TMC3    C5 9864   4.315   2.312  17.283  0.1922  0.0531  1.4986
  663TMC3    C6 9865   4.267   2.314  17.405 -0.2472 -0.6417  0.4265
  663TMC3     C 9866   4.375   2.663  17.192  0.0938 -0.7977  0.1751
  663TMC3     O 9867   4.382   2.645  17.072  0.1091  0.1152 -0.1385
  663TMC3     H 9868   4.328   2.643  17.463 -1.3078  1.0541 -2.0458
  663TMC3    H1 9869   4.406   2.402  17.113 -1.0628  0.2737 -1.0122
  663TMC3    H2 9870   4.178   2.255  17.424 -0.3725 -0.6990 -0.3178
  663TMC3    C7 9871   4.317   2.181  17.215  0.9128  0.2231  0.2685
  663TMC3    C8 9872   4.155   2.477  17.546 -0.1214 -0.1512 -0.5453
  663TMC3    O1 9873   4.338   2.174  17.095 -0.3521 -0.1590 -0.2763
  663TMC3    O2 9874   4.121   2.595  17.535 -0.8491  0.2334  0.2008
  664MPD2     C 9875   2.020   0.813  17.433 -0.1241 -0.3291  0.0835
  664MPD2    C1 9876   2.133   0.884  17.480 -0.0091  0.9450 -0.6306
  664MPD2    C2 9877   2.165   0.886  17.614 -0.5262 -0.2901  0.3023
  664MPD2    C3 9878   2.081   0.822  17.707 -0.8156 -0.9459  0.3364
  664MPD2    C4 9879   1.971   0.747  17.661  0.0595 -0.6443 -0.7549
  664MPD2    C5 9880   1.944   0.745  17.524  0.2206 -0.6149  0.9376
  664MPD2     H 9881   2.248   0.944  17.653 -0.9552  0.3600  0.2524
  664MPD2    H1 9882   1.900   0.694  17.725  1.3381 -0.5408  0.7449
  664MPD2    H2 9883   1.993   0.803  17.329  1.5227  0.0878 -0.3863
  664MPD2    H3 9884   1.856   0.697  17.483  0.4327 -0.1965 -0.0039
  664MPD2     N 9885   2.111   0.820   0.102  0.1091  0.2489 -0.1941
  664MPD2    H5 9886   2.199   0.859   0.132  1.5509 -3.4541  0.3984
  664MPD2    N1 9887   2.229   0.939  17.389 -0.0369  0.5250  0.6733
  664MPD2    H7 9888   2.310   0.978  17.436  0.4452 -1.4576  1.4959
  665TMC3    C1 9889   2.114   0.760   0.320 -0.7720 -0.7283  0.0918
  665TMC3    C2 9890   2.049   0.704   0.426 -0.1349 -0.3128 -0.9943
  665TMC3    C3 9891   2.120   0.703   0.546  1.0688 -0.0874  0.2924
  665TMC3    C4 9892   2.234   0.828   0.343  0.2592 -0.5359  0.2936
  665TMC3    C5 9893   2.292   0.831   0.465 -0.3091 -0.2869  0.3248
  665TMC3    C6 9894   2.239   0.764   0.571 -0.9042 -0.5286 -0.0107
  665TMC3     C 9895   2.039   0.761   0.198  0.0636  0.2878 -0.0574
  665TMC3     O 9896   1.944   0.687   0.193 -0.4393 -0.3074  0.4155
  665TMC3     H 9897   1.948   0.665   0.422 -0.5131  0.2886  2.5189
  665TMC3    H1 9898   2.292   0.860   0.257  2.1369 -4.0656  0.2125
  665TMC3    H2 9899   2.282   0.760   0.671  1.0679 -2.1178 -0.9193
  665TMC3    C7 9900   2.411   0.919   0.499 -0.1937 -0.0197  0.4431
  665TMC3    C8 9901   2.057   0.653   0.665 -1.0916  0.2534 -0.7997
  665TMC3    O1 9902   2.467   0.946   0.390 -0.1341  0.2595 -0.0206
  665TMC3    O2 9903   2.093   0.706   0.768 -0.4775  0.8565  0.1700
  666TMC3    C1 9904   0.966   0.196   9.946 -0.6119 -0.2994  0.1271
  666TMC3    C2 9905   1.062   0.126   9.872 -0.1569 -0.0776  0.0026
  666TMC3    C3 9906   1.159   0.207   9.808 -0.4953  0.8057  0.1325
  666TMC3    C4 9907   0.954   0.332   9.944  0.2065 -0.3797 -0.7194
  666TMC3    C5 9908   1.057   0.406   9.888 -0.1897  0.5975  0.5226
  666TMC3    C6 9909   1.143   0.339   9.808  0.3665 -0.3675  0.0572
  666TMC3     C 9910   0.865   0.130  10.030 -0.5825  0.0413 -0.1096
  666TMC3     O 9911   0.791   0.203  10.093  0.6310 -1.0635  0.1980
  666TMC3     H 9912   1.060   0.022   9.843  0.8868 -0.3596  0.9459
  666TMC3    H1 9913   0.878   0.385  10.001  1.9966  4.5540 -2.9326
  666TMC3    H2 9914   1.201   0.394   9.734  0.2740 -0.5884 -0.1791
  666TMC3    C7 9915   1.091   0.527   9.953 -0.3703 -0.7796 -0.2949
  666TMC3    C8 9916   1.222   0.145   9.697 -0.6634 -0.1000 -0.2466
  666TMC3    O1 9917   1.001   0.576  10.027 -0.4261 -0.2504 -0.1775
  666TMC3    O2 9918   1.161   0.051   9.654  0.5907  0.0511  0.8937
  667MPD2     C 9919   3.126   0.581  15.055 -0.8047 -0.5148 -0.4046
  667MPD2    C1 9920   3.024   0.670  15.017  0.5510 -0.0712  0.4057
  667MPD2    C2 9921   2.916   0.627  14.942 -0.8541 -0.4791 -0.0520
  667MPD2    C3 9922   2.909   0.490  14.907  0.3942 -0.0365  0.2986
  667MPD2    C4 9923   3.007   0.404  14.946 -0.1467  0.3310 -1.1578
  667MPD2    C5 9924   3.110   0.448  15.022 -0.3200  0.2073  0.0809
  667MPD2     H 9925   2.842   0.699  14.909 -0.2055  0.4742  0.5975
  667MPD2    H1 9926   2.993   0.298  14.931  0.4590  0.0357  0.4072
  667MPD2    H2 9927   3.205   0.602  15.126 -1.8573  1.4087  0.1716
  667MPD2    H3 9928   3.180   0.379  15.066 -1.0794  0.1832  1.2679
  667MPD2     N 9929   2.799   0.443  14.831 -0.2524 -0.2097 -0.1144
  667MPD2    H5 9930   2.805   0.345  14.802  0.5568  0.0051 -0.6761
  667MPD2    N1 9931   3.032   0.807  15.043  0.6591  0.1446 -0.3935
  667MPD2    H7 9932   2.943   0.857  15.043  1.7149  2.0253 -0.4806
  668TMC3    C1 9933   3.103   0.996  15.165  0.0733 -0.0862  0.6499
  668TMC3    C2 9934   3.196   1.094  15.189  0.4561  0.5562  0.5888
  668TMC3    C3 9935   3.169   1.194  15.278 -0.3670  0.3353  0.5621
  668TMC3    C4 9936   2.986   0.985  15.235 -0.5920  0.3629  0.4379
  668TMC3    C5 9937   2.953   1.095  15.318 -0.6964  0.0814  0.0325
  668TMC3    C6 9938   3.041   1.196  15.342 -0.8441 -0.0898 -0.0539
  668TMC3     C 9939   3.138   0.871  15.100 -0.2727 -0.2612  0.2308
  668TMC3     O 9940   3.255   0.844  15.075  0.1290 -0.1165 -0.4516
  668TMC3     H 9941   3.288   1.093  15.131 -1.0634  0.7008 -1.7720
  668TMC3    H1 9942   2.950   0.886  15.258 -2.1317  0.2924 -2.2514
  668TMC3    H2 9943   3.004   1.277  15.403  1.2311  0.9749 -0.2217
  668TMC3    C7 9944   2.833   1.079  15.396  0.2003 -0.4306 -0.0752
  668TMC3    C8 9945   3.250   1.306  15.308 -0.3094  0.3158 -0.3234
  668TMC3    O1 9946   2.791   0.967  15.426  0.5362  0.6716  0.1038
  668TMC3    O2 9947   3.239   1.352  15.419 -0.3346 -0.1527 -0.3340
  669TMC3    C1 9948   0.882   0.866  15.026 -0.4856  0.5321  0.7738
  669TMC3    C2 9949   0.806   0.809  14.927 -0.3949 -0.0845  0.0123
  669TMC3    C3 9950   0.839   0.848  14.799  0.2866  0.3162 -0.0179
  669TMC3    C4 9951   0.990   0.947  15.008 -1.1906 -0.3608 -0.0029
  669TMC3    C5 9952   1.011   0.986  14.876 -0.0813  0.5780 -0.0080
  669TMC3    C6 9953   0.938   0.936  14.773  0.1442 -0.1388 -0.4493
  669TMC3     C 9954   0.856   0.803  15.155 -0.0994  0.1404 -0.3576
  669TMC3     O 9955   0.740   0.794  15.190  0.2252 -0.5863  0.2934
  669TMC3     H 9956   0.735   0.729  14.944 -4.7274  4.4815  3.4784
  669TMC3    H1 9957   1.047   0.993  15.087  0.2480 -1.8829 -0.1540
  669TMC3    H2 9958   0.956   0.961  14.669  2.4415 -1.6476 -0.4013
  669TMC3    C7 9959   1.110   1.091  14.850 -0.3023 -0.1069 -0.2573
  669TMC3    C8 9960   0.768   0.806  14.680  0.4481 -0.5372 -0.3422
  669TMC3    O1 9961   1.217   1.081  14.908  0.3685  0.3751 -0.1071
  669TMC3    O2 9962   0.826   0.784  14.573 -0.3741  0.3337  0.1517
  670MPD2     C 9963   3.679   3.163  13.747  0.3227  0.1076 -0.2587
  670MPD2    C1 9964   3.786   3.255  13.743  0.6547 -0.7865  0.1067
  670MPD2    C2 9965   3.811   3.333  13.856 -0.8659  0.2798 -0.9976
  670MPD2    C3 9966   3.741   3.313  13.971 -0.4744  0.1869  0.5558
  670MPD2    C4 9967   3.647   3.208  13.974  0.4701 -0.0041  0.4456
  670MPD2    C5 9968   3.612   3.138  13.860 -0.8011 -0.2047 -0.6094
  670MPD2     H 9969   3.887   3.410  13.860  0.8291 -1.4449 -0.5960
  670MPD2    H1 9970   3.596   3.184  14.066 -1.0831  0.5835 -0.2678
  670MPD2    H2 9971   3.646   3.107  13.660  0.9565 -0.0114 -0.4185
  670MPD2    H3 9972   3.539   3.058  13.869 -1.7375  0.7004 -0.0764
  670MPD2     N 9973   3.770   3.390  14.085 -0.5090 -0.6823 -0.4334
  670MPD2    H5 9974   3.843   3.460  14.082 -1.9470  0.8149 -0.0977
  670MPD2    N1 9975   3.863   3.279  13.631 -0.1258  0.1446 -0.3098
  670MPD2    H7 9976   3.936   3.349  13.643 -0.4288  0.2551  0.9626
  671TMC3    C1 9977   3.745   3.456  14.321  0.1567  0.4476 -0.0650
  671TMC3    C2 9978   3.871   3.503  14.323  0.1664  0.4203 -0.4271
  671TMC3    C3 9979   3.921   3.537  14.447 -0.1188 -0.8293  0.6673
  671TMC3    C4 9980   3.678   3.422  14.434  0.2764 -0.3490  0.0664
  671TMC3    C5 9981   3.749   3.434  14.552  0.3349  0.6068  0.4907
  671TMC3    C6 9982   3.865   3.502  14.568 -0.1592  0.0568 -0.8076
  671TMC3     C 9983   3.716   3.365  14.214 -0.4270  0.7254  0.4326
  671TMC3     O 9984   3.652   3.271  14.253 -0.2301  0.0760 -0.0162
  671TMC3     H 9985   3.910   3.532  14.226  1.0384 -1.1729 -0.5555
  671TMC3    H1 9986   3.578   3.379  14.430 -0.4094  0.9935  2.4966
  671TMC3    H2 9987   3.918   3.505  14.663  0.5370  2.1102 -1.2557
  671TMC3    C7 9988   3.750   3.311  14.630 -0.7869 -0.1943 -0.3050
  671TMC3    C8 9989   4.063   3.545  14.454 -0.3985 -0.5091 -0.5599
  671TMC3    O1 9990   3.819   3.305  14.728  0.2492 -0.2737  0.3860
  671TMC3    O2 9991   4.116   3.611  14.541 -0.0137  0.5975  0.0313
  672MPD2     C 9992   0.205   4.350   0.433  0.1415  0.2656 -0.3229
  672MPD2    C1 9993   0.263   4.299   0.541 -0.0356 -0.2576  0.8553
  672MPD2    C2 9994   0.363   4.371   0.609 -0.3894 -0.3057 -0.2460
  672MPD2    C3 9995   0.389   4.506   0.583  0.2037 -0.6225  0.1142
  672MPD2    C4 9996   0.310   4.565   0.485  0.1563 -0.7222 -0.9497
  672MPD2    C5 9997   0.227   4.483   0.410  0.8954 -0.4106 -0.4090
  672MPD2     H 9998   0.412   4.335   0.699  0.4834  1.3913 -0.0338
  672MPD2    H1 9999   0.315   4.670   0.461  0.6181 -0.1293  1.7113
  672MPD2    H210000   0.131   4.303   0.369 -1.5020  2.0500  0.2536
  672MPD2    H310001   0.174   4.539   0.334  0.3499 -0.1198  0.1740
  672MPD2     N10002   0.469   4.592   0.665  0.1118  0.2476  0.4138
  672MPD2    H510003   0.465   4.692   0.647  0.6987  0.0854 -0.6499
  672MPD2    N110004   0.228   4.172   0.577 -0.0318  0.4057  0.0215
  672MPD2    H710005   0.274   4.133   0.659 -1.0766 -1.7600 -0.4314
  673TMC3    C110006   0.111   3.975   0.602 -0.3027 -0.0372 -0.2984
  673TMC3    C210007   0.217   3.921   0.674  1.0477 -0.2965 -0.8736
  673TMC3    C310008   0.188   3.809   0.745  0.0233  0.7372  0.7974
  673TMC3    C410009   4.721   3.917   0.601 -0.1392 -0.1144  0.2396
  673TMC3    C510010   4.703   3.804   0.671  0.2143  0.0014 -0.1234
  673TMC3    C610011   0.063   3.754   0.750 -0.0385 -0.1293 -0.1801
  673TMC3     C10012   0.125   4.097   0.527 -0.0474 -0.5511 -0.2372
  673TMC3     O10013   0.048   4.109   0.430 -0.5253  0.3420 -0.0937
  673TMC3     H10014   0.317   3.962   0.681  1.7251 -2.4047  1.4117
  673TMC3    H110015   4.650   3.966   0.536 -0.0985  1.4346  1.3563
  673TMC3    H210016   0.044   3.654   0.785  2.6696  0.0058  1.6999
  673TMC3    C710017   4.564   3.767   0.708  0.0841  0.3999  0.1037
  673TMC3    C810018   0.297   3.752   0.829 -1.0209  0.4856 -0.4539
  673TMC3    O110019   4.547   3.667   0.779 -0.5411  0.4058 -0.1905
  673TMC3    O210020   0.393   3.823   0.853 -0.0947  0.0877  0.0414
  674MPD2     C10021   4.228   3.511  17.344 -0.5261 -0.2774 -0.3047
  674MPD2    C110022   4.284   3.494  17.474  0.2596  0.6431  0.0491
  674MPD2    C210023   4.264   3.593  17.562  0.2576 -0.9203  0.5744
  674MPD2    C310024   4.200   3.712  17.530 -0.3777 -0.1848 -0.2061
  674MPD2    C410025   4.143   3.733  17.406  0.2716  0.6765  0.1028
  674MPD2    C510026   4.157   3.625  17.316  0.2905  0.2626  0.7264
  674MPD2     H10027   4.313   3.588  17.659 -1.6980 -2.7433  1.4617
  674MPD2    H110028   4.086   3.820  17.375 -0.7813 -0.6268 -1.6455
  674MPD2    H210029   4.246   3.432  17.272  1.8348  2.3265 -2.5816
  674MPD2    H310030   4.112   3.633  17.218  0.5570 -2.0345  0.4010
  674MPD2     N10031   4.184   3.804  17.637  0.5931  0.0068 -0.1681
  674MPD2    H510032   4.224   3.773  17.725  0.6931 -0.8722 -0.5253
  674MPD2    N110033   4.361   3.385  17.519 -0.1809  0.2856  0.1206
  674MPD2    H710034   4.387   3.395  17.616  0.2438 -1.7840  0.2228
  675TMC3    C110035   4.405   3.178  17.568 -0.4535 -0.5890 -0.0829
  675TMC3    C210036   4.298   3.109  17.618  0.4430 -0.1436 -0.4988
  675TMC3    C310037   4.307   3.052  17.738  0.5743 -0.1163  0.4309
  675TMC3    C410038   4.523   3.188  17.631  0.4617 -0.1077 -0.2277
  675TMC3    C510039   4.531   3.124   0.000  0.6987 -0.3660  0.6827
  675TMC3    C610040   4.428   3.055   0.055 -0.0861  0.0119  1.2053
  675TMC3     C10041   4.364   3.266  17.460  0.1211  0.2034 -0.2439
  675TMC3     O10042   4.307   3.226  17.360  0.4918 -0.4141  0.3711
  675TMC3     H10043   4.200   3.103  17.572  0.7303 -0.6703 -1.0500
  675TMC3    H110044   4.615   3.228  17.588  0.5999  0.2596  0.4091
  675TMC3    H210045   4.456   2.992   0.138  1.6025 -0.6443  0.1312
  675TMC3    C710046   4.661   3.110   0.062 -0.8343  0.0056  0.7408
  675TMC3    C810047   4.183   2.995   0.055 -0.2266  0.5749 -0.3028
  675TMC3    O110048   0.020   3.107  17.735  0.1169 -0.2227  0.6495
  675TMC3    O210049   4.089   2.971  17.730 -0.2045 -0.5676 -0.1704
  676MPD2     C10050   2.104   1.693  11.545 -0.3788 -0.1242  0.5321
  676MPD2    C110051   2.064   1.603  11.646 -0.1781 -0.4296  0.3982
  676MPD2    C210052   1.980   1.500  11.610 -0.2701 -0.0911 -0.0085
  676MPD2    C310053   1.941   1.476  11.481 -0.3676 -0.4883  0.3976
  676MPD2    C410054   1.983   1.568  11.385 -0.3658 -0.2449  0.2500
  676MPD2    C510055   2.064   1.674  11.418 -0.2165 -0.0062  0.5178
  676MPD2     H10056   1.954   1.424  11.682 -2.3458 -0.5116 -1.1858
  676MPD2    H110057   1.957   1.560  11.280  2.3554  0.0143 -0.4484
  676MPD2    H210058   2.159   1.783  11.566  0.0771 -0.4221  0.6181
  676MPD2    H310059   2.090   1.745  11.340 -2.6610  0.7157  0.3493
  676MPD2     N10060   1.873   1.359  11.433 -0.1954  0.8424  0.2406
  676MPD2    H510061   1.843   1.358  11.336  2.9568  4.3937 -0.7488
  676MPD2    N110062   2.096   1.623  11.783 -0.5494  0.1003 -0.4506
  676MPD2    H710063   2.054   1.553  11.844 -0.3891 -1.4440 -2.1133
  677TMC3    C110064   2.114   1.762  11.966  0.5193 -0.2511 -1.0716
  677TMC3    C210065   2.113   1.661  12.065  0.1748 -0.3119  0.7564
  677TMC3    C310066   2.044   1.703  12.182 -0.8999  0.2942  0.7342
  677TMC3    C410067   2.061   1.889  11.977 -0.1985  0.4127  0.2027
  677TMC3    C510068   2.022   1.928  12.102 -0.6966 -0.5059  0.0887
  677TMC3    C610069   2.010   1.834  12.202  0.2861  0.8554  0.5943
  677TMC3     C10070   2.156   1.735  11.836 -0.0438  0.4878 -0.7009
  677TMC3     O10071   2.218   1.823  11.777  0.3110 -0.1203  0.9145
  677TMC3     H10072   2.170   1.570  12.051  0.1458  0.1520 -2.2960
  677TMC3    H110073   2.058   1.948  11.887 -0.7597 -0.8693 -0.6231
  677TMC3    H210074   1.996   1.871  12.303 -1.1702  1.0949  0.3068
  677TMC3    C710075   1.985   2.063  12.126 -0.0688  0.0356 -0.4900
  677TMC3    C810076   2.027   1.625  12.304  0.1173  0.1278  0.4002
  677TMC3    O110077   1.885   2.077  12.192 -0.5928  0.4615  0.0023
  677TMC3    O210078   2.003   1.678  12.412  0.4733 -0.1611  0.1673
  678MPD2     C10079   3.881   1.136   1.535  0.3550 -1.0391  0.0369
  678MPD2    C110080   3.880   1.209   1.414 -0.0995  0.0883  0.4537
  678MPD2    C210081   3.764   1.270   1.379  0.5388  0.1889  1.2088
  678MPD2    C310082   3.647   1.258   1.448  0.9111  0.4410  0.0566
  678MPD2    C410083   3.648   1.196   1.568  0.5369  0.9370  0.2706
  678MPD2    C510084   3.764   1.131   1.611  0.3729  0.4818  0.0004
  678MPD2     H10085   3.760   1.321   1.283 -0.2227 -0.6871  0.7814
  678MPD2    H110086   3.564   1.193   1.637  0.2263  1.2921 -0.0918
  678MPD2    H210087   3.960   1.076   1.579 -0.0413  0.1055  2.2797
  678MPD2    H310088   3.763   1.093   1.712  1.9911  0.3198 -0.0549
  678MPD2     N10089   3.533   1.298   1.385 -0.0109  0.7476  0.6258
  678MPD2    H510090   3.547   1.329   1.289 -0.7800  0.7327  0.5098
  678MPD2    N110091   3.993   1.222   1.331  0.6797 -0.2736  0.1613
  678MPD2    H710092   3.973   1.274   1.247 -0.1888  4.3553  3.2079
  679TMC3    C110093   4.354   1.089   1.093  0.8220  0.2217  0.0167
  679TMC3    C210094   4.301   1.100   1.218  0.0878 -0.0041 -0.3013
  679TMC3    C310095   4.202   1.191   1.233 -0.2522  0.0415  0.7162
  679TMC3    C410096   4.326   1.173   0.989 -0.1169  0.5000 -0.5600
  679TMC3    C510097   4.225   1.266   1.009 -0.7435  0.6297  0.4813
  679TMC3    C610098   4.156   1.267   1.129 -0.4729 -0.1629  0.7946
  679TMC3     C10099   4.463   0.995   1.062  0.0483 -0.7837 -0.0896
  679TMC3     O10100   4.535   1.021   0.968 -0.0151  0.6747  0.2283
  679TMC3     H10101   4.332   1.035   1.299 -0.4045 -0.2798 -0.3378
  679TMC3    H110102   4.360   1.156   0.887  3.7155  0.9922  0.6323
  679TMC3    H210103   4.072   1.335   1.140  0.5096  1.4059 -1.4382
  679TMC3    C710104   4.212   1.373   0.909 -0.2037  0.1513 -0.4052
  679TMC3    C810105   4.115   1.166   1.345  0.4437  0.0135  0.1796
  679TMC3    O110106   4.116   1.443   0.933  0.3152 -0.1649 -0.0824
  679TMC3    O210107   4.161   1.100   1.439 -0.1083  0.6730  0.2574
  680MPD2     C10108   3.155   0.677  14.169 -0.0396  0.4202 -0.6831
  680MPD2    C110109   3.261   0.643  14.250 -0.4310  0.5783 -1.3681
  680MPD2    C210110   3.330   0.752  14.306  0.0789 -0.2908  0.3858
  680MPD2    C310111   3.286   0.886  14.294 -0.6392 -0.0542 -0.0420
  680MPD2    C410112   3.178   0.911  14.209 -0.0045  0.0360 -0.6306
  680MPD2    C510113   3.118   0.810  14.145 -0.1086  0.6392  0.2488
  680MPD2     H10114   3.429   0.733  14.348  1.0351  1.0201 -1.2642
  680MPD2    H110115   3.154   1.009  14.169 -0.8883 -0.4876 -1.3690
  680MPD2    H210116   3.118   0.598  14.105 -1.4391  0.9679 -0.5532
  680MPD2    H310117   3.034   0.829  14.078 -2.0737  1.3454  2.9303
  680MPD2     N10118   3.381   0.987  14.329  0.3707 -0.1527 -0.1226
  680MPD2    H510119   3.378   1.067  14.267  1.9527  0.0636  0.0888
  680MPD2    N110120   3.322   0.517  14.264 -0.1807 -1.0242  0.8141
  680MPD2    H710121   3.403   0.512  14.325  1.6049  1.9060 -1.2753
  681TMC3    C110122   3.332   0.291  14.299 -0.6773  0.3845  0.9056
  681TMC3    C210123   3.327   0.318  14.435 -0.9076  0.5021 -0.3781
  681TMC3    C310124   3.438   0.308  14.501 -0.5546  0.4766 -1.0263
  681TMC3    C410125   3.445   0.231  14.244 -0.0125 -0.5021 -0.7377
  681TMC3    C510126   3.545   0.193  14.322 -0.5496  0.3091  0.1673
  681TMC3    C610127   3.546   0.246  14.448  0.3680  0.2906 -0.5480
  681TMC3     C10128   3.272   0.393  14.217 -0.3641  0.2669  0.4696
  681TMC3     O10129   3.162   0.378  14.163  0.4149  0.7383 -0.0094
  681TMC3     H10130   3.254   0.386  14.477  0.0378  1.6230 -0.5434
  681TMC3    H110131   3.457   0.239  14.137  2.0547  1.0357 -0.3801
  681TMC3    H210132   3.641   0.234  14.498  0.5028 -0.5542 -1.0037
  681TMC3    C710133   3.675   0.216  14.265  0.9054  0.1404 -0.3449
  681TMC3    C810134   3.441   0.359  14.636 -0.5548 -0.3015 -0.2340
  681TMC3    O110135   3.758   0.275  14.330  0.2454  0.2953 -0.7071
  681TMC3    O210136   3.332   0.379  14.691 -0.4566  0.1264  0.1925
  682MPD2     C10137   0.883   1.628  10.594 -0.8022 -0.2232  0.6708
  682MPD2    C110138   0.808   1.513  10.624 -0.3280  0.5526 -0.0374
  682MPD2    C210139   0.680   1.527  10.672 -0.3506  0.5135 -0.3765
  682MPD2    C310140   0.638   1.656  10.705  0.1305 -0.0020 -0.4042
  682MPD2    C410141   0.708   1.768  10.665 -0.2103 -0.5870  0.1995
  682MPD2    C510142   0.835   1.752  10.607 -0.1829 -0.0894 -0.5728
  682MPD2     H10143   0.626   1.438  10.702 -0.0295 -0.1770 -1.8130
  682MPD2    H110144   0.672   1.865  10.697  1.8082 -0.1167  1.0438
  682MPD2    H210145   0.989   1.615  10.572 -0.7454 -0.0561  0.8455
  682MPD2    H310146   0.895   1.839  10.582  1.0535 -1.0158 -0.8490
  682MPD2     N10147   0.518   1.681  10.778 -0.0142 -0.0602  0.5536
  682MPD2    H510148   0.516   1.778  10.807 -1.7045  0.0195  0.1371
  682MPD2    N110149   0.854   1.381  10.590  0.2409  0.2494  0.8412
  682MPD2    H710150   0.799   1.297  10.601 -1.5090  1.3840  0.8063
  683TMC3    C110151   0.335   1.732  11.133 -0.3071  0.1297 -0.8748
  683TMC3    C210152   0.257   1.627  11.187  0.4035 -0.4841 -0.1362
  683TMC3    C310153   0.222   1.540  11.091 -0.1734 -0.1625  0.2007
  683TMC3    C410154   0.375   1.737  11.000 -0.0658  0.2042  0.3974
  683TMC3    C510155   0.343   1.626  10.922  0.8200 -0.0856  0.3537
  683TMC3    C610156   0.262   1.526  10.963 -1.2980  0.1088 -0.2815
  683TMC3     C10157   0.398   1.818  11.229  0.7761 -0.2173  0.3215
  683TMC3     O10158   0.431   1.929  11.182  0.3308 -1.1779 -0.2208
  683TMC3     H10159   0.201   1.624  11.280 -0.1750 -0.1947 -0.4727
  683TMC3    H110160   0.446   1.813  10.971  0.7718 -0.9800 -0.6447
  683TMC3    H210161   0.231   1.437  10.910 -2.1302  0.2708 -0.0766
  683TMC3    C710162   0.434   1.584  10.816  0.6012 -0.4213 -0.4233
  683TMC3    C810163   0.171   1.408  11.139 -1.0318  0.5594 -0.4433
  683TMC3    O110164   0.415   1.467  10.780  0.0875  0.1677  0.1239
  683TMC3    O210165   0.069   1.364  11.090  0.1497  0.9141 -0.2046
  684MPD2     C10166   3.991   1.365  16.528  0.2696  0.2785 -0.6787
  684MPD2    C110167   3.924   1.431  16.419 -0.4169 -0.8336  0.2865
  684MPD2    C210168   3.899   1.563  16.425 -0.6206 -0.0597  0.3766
  684MPD2    C310169   3.946   1.642  16.533  0.1501  0.4686  0.1540
  684MPD2    C410170   4.023   1.579  16.626 -0.8850  0.1203 -1.0218
  684MPD2    C510171   4.040   1.440  16.625  0.6908  0.0322 -0.2926
  684MPD2     H10172   3.846   1.602  16.339 -0.7754  2.3322  1.5439
  684MPD2    H110173   4.077   1.632  16.704 -1.7719  0.8056 -0.8775
  684MPD2    H210174   4.009   1.258  16.526  1.6825  0.4838  0.8329
  684MPD2    H310175   4.102   1.394  16.701  2.3977  1.0503 -1.0609
  684MPD2     N10176   3.950   1.784  16.538 -0.2699  0.2730 -0.8181
  684MPD2    H510177   4.013   1.820  16.610 -3.5895 -1.6939  3.0631
  684MPD2    N110178   3.903   1.364  16.297  0.6041 -0.5364 -0.3043
  684MPD2    H710179   3.845   1.406  16.225 -0.6049 -0.5818  0.6418
  685TMC3    C110180   3.921   1.211  16.124  0.2255  0.4676 -0.2747
  685TMC3    C210181   3.844   1.299  16.052 -0.1125  0.5491 -0.4341
  685TMC3    C310182   3.865   1.302  15.912  0.5925 -0.6165  0.1318
  685TMC3    C410183   4.021   1.138  16.064 -0.1855 -0.6364 -0.4513
  685TMC3    C510184   4.040   1.154  15.932 -0.5405  0.2546 -0.4568
  685TMC3    C610185   3.965   1.233  15.855  0.8051 -0.1338  0.5591
  685TMC3     C10186   3.951   1.237  16.262  0.3505 -0.7567 -0.4498
  685TMC3     O10187   4.035   1.167  16.311 -0.0556  0.0510 -0.6181
  685TMC3     H10188   3.755   1.339  16.098 -1.4490 -0.3292 -2.2468
  685TMC3    H110189   4.055   1.045  16.108  1.7438  0.0489 -0.4952
  685TMC3    H210190   3.956   1.221  15.748 -0.7596 -0.7957  0.7715
  685TMC3    C710191   4.178   1.148  15.897 -0.1251  0.6188  0.0563
  685TMC3    C810192   3.753   1.348  15.833 -0.0991  0.3076 -0.8269
  685TMC3    O110193   4.207   1.158  15.781  0.1481 -0.3959  0.6734
  685TMC3    O210194   3.725   1.289  15.733  0.3649 -0.2320 -0.2202
  686MPD2     C10195   0.540   1.637  15.500  0.1017  0.3749 -0.1118
  686MPD2    C110196   0.604   1.541  15.568  0.1135  0.3226  0.4208
  686MPD2    C210197   0.662   1.435  15.499  0.0143 -0.5144  0.0136
  686MPD2    C310198   0.653   1.419  15.365  0.1965 -0.6055 -0.7681
  686MPD2    C410199   0.588   1.523  15.296  0.4144  0.0693 -0.3004
  686MPD2    C510200   0.536   1.631  15.363  0.0609  0.3986  0.4216
  686MPD2     H10201   0.730   1.375  15.560  1.2842  0.2438 -0.6638
  686MPD2    H110202   0.574   1.529  15.189  0.9711  0.9747 -0.3201
  686MPD2    H210203   0.490   1.722  15.545  1.7140  1.9406 -1.2614
  686MPD2    H310204   0.500   1.718  15.311 -1.0613  0.7489  1.7907
  686MPD2     N10205   0.695   1.313  15.280  0.1815  0.0669 -0.9284
  686MPD2    H510206   0.702   1.349  15.185  0.3127  0.4121 -0.7870
  686MPD2    N110207   0.607   1.548  15.712  0.0464 -0.7199  0.4224
  686MPD2    H710208   0.556   1.629  15.746  0.1346 -1.3692  2.0756
  687TMC3    C110209   0.705   1.139  15.453 -0.2908  0.0728 -0.1900
  687TMC3    C210210   0.577   1.117  15.496 -0.5081  0.1277  0.5289
  687TMC3    C310211   0.552   1.083  15.623  0.2802  0.8018  0.3118
  687TMC3    C410212   0.809   1.102  15.530 -0.4637  0.1300  0.4193
  687TMC3    C510213   0.781   1.069  15.660  0.6211 -0.4696 -0.8048
  687TMC3    C610214   0.655   1.055  15.709  0.4429  0.1870  0.0972
  687TMC3     C10215   0.736   1.190  15.322 -0.7693 -0.2724 -0.4142
  687TMC3     O10216   0.782   1.109  15.241 -0.2109 -0.2199  0.4161
  687TMC3     H10217   0.499   1.154  15.431  1.0148  1.3143 -0.6372
  687TMC3    H110218   0.910   1.116  15.494 -0.8089 -1.4779 -1.1851
  687TMC3    H210219   0.641   1.034  15.814 -0.0775 -0.1915 -0.0527
  687TMC3    C710220   0.890   1.057  15.758  0.2104 -0.6168  0.5441
  687TMC3    C810221   0.429   1.123  15.682  0.9254  0.4883 -0.7016
  687TMC3    O110222   0.919   0.955  15.808 -0.0248  0.4937  0.2700
  687TMC3    O210223   0.401   1.066  15.790  0.2213 -0.1046  0.5315
  688MPD2     C10224   4.472   0.212  17.690  0.4115  0.1373  0.7158
  688MPD2    C110225   4.512   0.087  17.662  0.0455  0.0751 -0.8085
  688MPD2    C210226   4.617   0.066  17.572 -0.0167  0.2392 -0.5140
  688MPD2    C310227   4.691   0.174  17.535 -0.2423 -0.3601 -0.5223
  688MPD2    C410228   4.654   0.300  17.566 -0.3119 -0.2460  0.6190
  688MPD2    C510229   4.546   0.319  17.637 -0.3738 -0.5005 -0.0034
  688MPD2     H10230   4.643   4.701  17.548 -0.2147  0.0213  0.1933
  688MPD2    H110231   4.701   0.379  17.509 -0.6093 -1.0088 -0.6705
  688MPD2    H210232   4.392   0.241   0.010 -0.4289 -0.0470 -0.2035
  688MPD2    H310233   4.514   0.421  17.657 -1.9394 -0.9301 -0.3913
  688MPD2     N10234   0.062   0.167  17.451  0.0053 -0.4174 -0.1190
  688MPD2    H510235   0.105   0.254  17.424 -0.7897  1.1925  3.9044
  688MPD2    N110236   4.452   4.703  17.713  0.0125 -0.5685  0.3264
  688MPD2    H710237   4.488   4.614  17.681 -0.0009 -0.6310  0.4836
  689TMC3    C110238   4.303   4.572   0.099  0.6644 -0.3554  0.4197
  689TMC3    C210239   4.289   4.574   0.235  0.7616 -0.1316 -0.9450
  689TMC3    C310240   4.320   4.455   0.298  0.3811 -0.2373  0.4218
  689TMC3    C410241   4.342   4.465   0.027  0.6776  0.5363  0.7294
  689TMC3    C510242   4.358   4.350   0.097 -0.2129  0.0497  0.0051
  689TMC3    C610243   4.350   4.342   0.231 -0.5491 -0.1969  0.0403
  689TMC3     C10244   4.342   4.702   0.052  0.2982 -0.6611  0.7146
  689TMC3     O10245   4.277   0.064   0.082  0.7730 -0.0175  0.3496
  689TMC3     H10246   4.258   4.661   0.291  2.3132  1.3754 -2.4390
  689TMC3    H110247   4.367   4.482  17.670  0.4562 -0.0561  0.5826
  689TMC3    H210248   4.359   4.246   0.282 -2.1955  0.4095  1.4436
  689TMC3    C710249   4.428   4.234   0.036  0.1368  0.2267  0.3694
  689TMC3    C810250   4.325   4.461   0.441  0.5756 -0.1827  0.0266
  689TMC3    O110251   4.491   4.151   0.102  0.1819  0.4884  0.1223
  689TMC3    O210252   4.255   4.539   0.502  0.0576  0.1651 -0.0889
  690MPD2     C10253   2.245   2.211  15.887 -0.1204  0.1574  0.4583
  690MPD2    C110254   2.223   2.203  15.750 -0.0679 -0.0877 -0.5513
  690MPD2    C210255   2.330   2.220  15.665 -0.0358  0.3780 -0.3722
  690MPD2    C310256   2.450   2.271  15.708  0.0547 -0.2144 -0.2908
  690MPD2    C410257   2.469   2.295  15.850 -0.0664 -0.4925 -0.1248
  690MPD2    C510258   2.371   2.253  15.936 -0.1107  0.9079  0.0248
  690MPD2     H10259   2.310   2.201  15.560 -0.2888 -0.7535 -0.1301
  690MPD2    H110260   2.555   2.341  15.897  0.1062  2.0092 -2.8812
  690MPD2    H210261   2.172   2.182  15.961 -0.7180  1.5152  0.3886
  690MPD2    H310262   2.390   2.259  16.042  1.9246 -2.4863 -0.1457
  690MPD2     N10263   2.547   2.312  15.612 -0.1279 -0.3835 -0.0192
  690MPD2    H510264   2.522   2.307  15.514  0.6005 -1.6817 -0.1416
  690MPD2    N110265   2.098   2.173  15.693 -0.3507  0.1799  0.6765
  690MPD2    H710266   2.096   2.171  15.592  0.6088 -0.0029  0.6661
  691TMC3    C110267   1.874   2.107  15.677 -0.5515 -0.1622 -0.5120
  691TMC3    C210268   1.761   2.086  15.748  0.3838  0.3802  0.1633
  691TMC3    C310269   1.678   1.984  15.719  0.0268 -0.1424 -0.5071
  691TMC3    C410270   1.914   2.006  15.595 -0.0842  0.3444 -1.0214
  691TMC3    C510271   1.833   1.899  15.574 -0.5257 -0.4399 -0.0910
  691TMC3    C610272   1.710   1.887  15.634  0.2563 -0.9974  0.4574
  691TMC3     C10273   1.975   2.172  15.758  0.2723 -0.0798 -0.2188
  691TMC3     O10274   1.961   2.202  15.876  0.3316 -0.0679  0.2627
  691TMC3     H10275   1.742   2.160  15.825 -0.5582 -1.4909  1.7379
  691TMC3    H110276   2.010   2.021  15.547  1.6204 -0.4569  2.0934
  691TMC3    H210277   1.642   1.812  15.596 -1.8109  0.5955  1.0043
  691TMC3    C710278   1.905   1.783  15.532  0.2808  0.0852  0.2311
  691TMC3    C810279   1.539   1.981  15.760  0.0866  0.3083 -0.0515
  691TMC3    O110280   2.030   1.791  15.516  0.0076 -0.4049 -0.2832
  691TMC3    O210281   1.476   1.877  15.741  0.1629 -0.1210  0.0443
  692TMC3    C110282   3.765   2.970  15.834  0.6106  0.5132 -0.6057
  692TMC3    C210283   3.860   3.069  15.852  0.0236 -0.5686 -0.4206
  692TMC3    C310284   3.990   3.029  15.867  0.4051 -0.4983 -0.6328
  692TMC3    C410285   3.800   2.837  15.810  0.6732 -0.2017  0.0076
  692TMC3    C510286   3.934   2.802  15.801 -0.6014 -0.5742  0.0663
  692TMC3    C610287   4.023   2.905  15.823  0.0571 -0.0264  0.1545
  692TMC3     C10288   3.624   3.012  15.847 -0.2436 -0.6086 -0.1760
  692TMC3     O10289   3.540   2.920  15.845  0.7287 -0.3210 -0.1613
  692TMC3     H10290   3.823   3.163  15.891 -2.2606 -2.6589  2.4353
  692TMC3    H110291   3.716   2.771  15.788 -1.5057  2.7765 -0.4890
  692TMC3    H210292   4.122   2.865  15.841 -0.7745 -2.0446  0.1973
  692TMC3    C710293   3.975   2.668  15.840  0.1622 -0.2847 -0.3185
  692TMC3    C810294   4.025   3.020  16.014  0.3515 -0.8016 -0.5015
  692TMC3    O110295   4.059   2.656  15.924  0.2244  0.3363  0.7628
  692TMC3    O210296   4.031   2.908  16.059  0.1263  0.1439 -0.2494
  693MPD2     C10297   2.966   1.129  11.428 -0.1100  0.2114  0.1010
  693MPD2    C110298   2.937   1.053  11.310  0.5856 -0.4305  0.5744
  693MPD2    C210299   2.967   0.918  11.313 -0.3256 -0.4324 -0.3023
  693MPD2    C310300   3.036   0.856  11.422  0.1039  0.0440  0.0754
  693MPD2    C410301   3.041   0.925  11.537  0.7790  0.4726  0.0587
  693MPD2    C510302   3.005   1.056  11.544  0.3201 -0.2562 -0.2835
  693MPD2     H10303   2.932   0.851  11.235 -0.6701  1.2075 -1.5657
  693MPD2    H110304   3.083   0.883  11.628  0.1266 -1.4153 -0.5002
  693MPD2    H210305   2.943   1.233  11.445 -0.2931 -0.1824  2.2614
  693MPD2    H310306   3.026   1.115  11.633  0.5879 -1.1727  0.2635
  693MPD2     N10307   3.068   0.718  11.424 -0.6194  0.3673 -0.3954
  693MPD2    H510308   3.106   0.681  11.511 -1.2840  1.0795  0.1956
  693MPD2    N110309   2.891   1.118  11.197  0.0162  0.1972  0.1774
  693MPD2    H710310   2.880   1.219  11.205  0.5933  0.1681  1.3350
  694TMC3    C110311   2.787   1.165  10.988 -0.4073 -0.3932 -0.3322
  694TMC3    C210312   2.705   1.081  10.915  0.7161  0.2280  0.4701
  694TMC3    C310313   2.572   1.081  10.935 -0.4883  0.2250  0.5168
  694TMC3    C410314   2.723   1.262  11.058 -0.2991  0.4567  0.1044
  694TMC3    C510315   2.589   1.260  11.080 -0.9835  0.1812  0.1510
  694TMC3    C610316   2.504   1.174  11.013 -0.0415  0.0716 -0.2563
  694TMC3     C10317   2.874   1.078  11.066  0.1083  0.5687 -0.2930
  694TMC3     O10318   2.900   0.969  11.021 -0.5860 -0.3236  0.0598
  694TMC3     H10319   2.747   0.999  10.858 -0.1945 -0.2348  0.4628
  694TMC3    H110320   2.793   1.322  11.115  1.4509 -0.3783 -1.1743
  694TMC3    H210321   2.399   1.159  11.035  0.1757 -0.4940  0.4291
  694TMC3    C710322   2.564   1.280  11.219 -0.7071 -0.6437  0.4699
  694TMC3    C810323   2.502   1.001  10.840 -0.0978  0.3887 -0.0072
  694TMC3    O110324   2.620   1.378  11.268 -0.3116  0.0469  0.7509
  694TMC3    O210325   2.541   0.883  10.824  1.1450 -0.3962 -0.4120
  695MPD2     C10326   4.056   2.460  13.906  0.3169  0.1208  0.1128
  695MPD2    C110327   4.046   2.582  13.963  0.1490 -0.1603 -0.4609
  695MPD2    C210328   3.915   2.627  13.997 -0.1398 -0.4955  0.2283
  695MPD2    C310329   3.801   2.559  13.947  0.2229 -0.2939 -0.2423
  695MPD2    C410330   3.818   2.433  13.879  0.2950 -0.2616 -0.5419
  695MPD2    C510331   3.948   2.399  13.850  0.1085  0.2056  0.4752
  695MPD2     H10332   3.910   2.724  14.046  2.2481 -0.7271  0.9302
  695MPD2    H110333   3.738   2.373  13.837  0.5285  0.4831 -2.0535
  695MPD2    H210334   4.155   2.427  13.877  0.2900  1.4592 -1.5175
  695MPD2    H310335   3.967   2.315  13.785  0.0786 -0.7987  1.7666
  695MPD2     N10336   3.679   2.619  13.986  0.7894 -0.5743 -0.4006
  695MPD2    H510337   3.677   2.704  14.041  1.0721 -0.7805 -0.0729
  695MPD2    N110338   4.164   2.658  14.002 -0.3567  0.2094 -0.3972
  695MPD2    H710339   4.152   2.738  14.063  1.1212  0.0553  0.0920
  696TMC3    C110340   3.449   2.597  14.068 -0.0414 -0.3905 -0.2031
  696TMC3    C210341   3.473   2.635  14.198 -0.5952 -0.0613 -0.1254
  696TMC3    C310342   3.380   2.717  14.251  0.0103  0.1459 -0.0841
  696TMC3    C410343   3.339   2.636  13.999  0.3877  0.4762 -0.6246
  696TMC3    C510344   3.255   2.731  14.052 -0.1442 -0.0494 -0.0923
  696TMC3    C610345   3.272   2.767  14.182 -0.6850 -0.2216 -0.7636
  696TMC3     C10346   3.562   2.539  13.999  0.0879  0.2879  0.4521
  696TMC3     O10347   3.540   2.431  13.947 -0.6756  0.5150 -0.2607
  696TMC3     H10348   3.570   2.610  14.239 -0.8353 -0.8781 -0.0367
  696TMC3    H110349   3.334   2.606  13.895  1.9541  1.4072 -0.9767
  696TMC3    H210350   3.193   2.819  14.235 -1.7825 -2.1213 -0.5400
  696TMC3    C710351   3.220   2.831  13.954  0.3137 -0.2010  0.9345
  696TMC3    C810352   3.443   2.820  14.330 -0.3469  0.0801  0.3653
  696TMC3    O110353   3.168   2.789  13.850 -0.2960  0.0744 -0.0665
  696TMC3    O210354   3.417   2.936  14.302 -0.2913  0.3232  0.2396
  697MPD2     C10355   3.173   4.698  15.940  0.2621 -0.3594  0.1294
  697MPD2    C110356   3.243   4.645  15.841  0.2386 -0.1592  0.7765
  697MPD2    C210357   3.338   4.707  15.775  0.6167 -0.1513  0.5562
  697MPD2    C310358   3.376   0.094  15.812  0.0369 -0.1906 -0.0943
  697MPD2    C410359   3.313   0.151  15.918 -0.4617  0.2078 -0.3232
  697MPD2    C510360   3.207   0.087  15.977 -0.5074 -0.1278 -0.0763
  697MPD2     H10361   3.394   4.660  15.695 -0.5723  1.5914 -1.2946
  697MPD2    H110362   3.334   0.251  15.954  1.9759  0.2104 -1.7811
  697MPD2    H210363   3.099   4.650  16.002 -0.9835  1.5775  0.1588
  697MPD2    H310364   3.151   0.141  16.053 -0.9750 -0.9838  0.1889
  697MPD2     N10365   3.484   0.155  15.744  0.2748  0.2294  0.0947
  697MPD2    H510366   3.526   0.099  15.671 -0.1888 -0.4963  0.3879
  697MPD2    N110367   3.215   4.518  15.801  0.2067  0.7361  0.4386
  697MPD2    H710368   3.283   4.486  15.732 -1.2550  0.8611 -1.0565
  698TMC3    C110369   3.617   0.316  15.661 -0.0517 -0.3965  0.1229
  698TMC3    C210370   3.635   0.456  15.642  0.3973 -0.2275  0.4284
  698TMC3    C310371   3.681   0.508  15.527  0.3007 -0.2042  0.1881
  698TMC3    C410372   3.655   0.238  15.561 -0.1458  0.3045  0.1210
  698TMC3    C510373   3.693   0.300  15.438  0.2801  0.4329  0.1595
  698TMC3    C610374   3.711   0.430  15.420  0.4032  0.1625  0.4426
  698TMC3     C10375   3.542   0.276  15.773 -0.6799 -0.0452 -0.4238
  698TMC3     O10376   3.519   0.356  15.864  0.0719  0.7763 -0.1326
  698TMC3     H10377   3.596   0.515  15.724 -3.6055 -0.5531 -1.2411
  698TMC3    H110378   3.641   0.130  15.563  2.5633 -0.0445  0.0779
  698TMC3    H210379   3.722   0.470  15.320  0.4696 -0.8858  0.0340
  698TMC3    C710380   3.655   0.224  15.323  0.3811 -0.1022  0.6240
  698TMC3    C810381   3.705   0.652  15.516 -0.1707  0.1984  0.0249
  698TMC3    O110382   3.570   0.139  15.338 -0.1225  0.0510  0.0892
  698TMC3    O210383   3.659   0.717  15.610 -0.1309 -0.6460  0.5101
  699TMC3    C110384   3.119   2.906  13.240  0.8049  0.6753 -0.3839
  699TMC3    C210385   3.154   2.780  13.286  0.8589  0.0872 -0.1070
  699TMC3    C310386   3.057   2.678  13.287 -0.2240 -0.8156  0.1705
  699TMC3    C410387   2.988   2.935  13.215 -0.2406  0.1146  0.1583
  699TMC3    C510388   2.901   2.839  13.221  0.1325  0.8514 -0.4002
  699TMC3    C610389   2.929   2.710  13.260  0.2619 -0.1791 -0.1736
  699TMC3     C10390   3.221   2.965  13.150  0.0799 -0.0032  0.4418
  699TMC3     O10391   3.202   3.081  13.118 -0.2675 -0.4994 -0.4926
  699TMC3     H10392   3.255   2.752  13.314 -0.6481 -2.8607  2.4647
  699TMC3    H110393   2.953   3.032  13.184  0.2645  0.0678 -0.5782
  699TMC3    H210394   2.847   2.641  13.276  0.0259 -0.1787 -1.3589
  699TMC3    C710395   2.762   2.879  13.218 -0.0674 -0.2896 -0.1178
  699TMC3    C810396   3.070   2.589  13.401 -0.1200  0.1792 -0.5204
  699TMC3    O110397   2.735   2.997  13.243 -0.2616  0.3587  0.1673
  699TMC3    O210398   2.963   2.552  13.447  0.0770 -0.3143  0.0367
  700TMC3    C110399   2.606   0.721  17.432  0.1308 -0.8314 -0.0001
  700TMC3    C210400   2.667   0.605  17.398 -0.1396  0.1018 -0.1573
  700TMC3    C310401   2.785   0.571  17.451 -0.3662  0.3864  0.2550
  700TMC3    C410402   2.649   0.796  17.534 -0.7464 -0.4142 -0.0257
  700TMC3    C510403   2.783   0.767  17.568  0.0949  0.0842 -0.0577
  700TMC3    C610404   2.843   0.655  17.545 -0.9526 -0.0822 -0.6368
  700TMC3     C10405   2.599   0.806  17.317  0.3848  1.6851 -0.5924
  700TMC3     O10406   2.583   0.925  17.343 -0.5726  0.3008 -0.4748
  700TMC3     H10407   2.601   0.550  17.332 -1.0561  1.8911 -0.7423
  700TMC3    H110408   2.594   0.887  17.557  0.1981  0.2087 -0.2060
  700TMC3    H210409   2.946   0.629  17.566 -1.8052 -1.7945  1.3583
  700TMC3    C710410   2.864   0.892  17.587 -0.5247  0.4606 -0.6880
  700TMC3    C810411   2.833   0.432  17.447  0.3055 -0.0499 -0.3284
  700TMC3    O110412   2.972   0.884  17.640  0.0030  0.2733 -0.6431
  700TMC3    O210413   2.935   0.409  17.515  0.1370  0.2202  0.2534
  701TMC3    C110414   2.496   4.180  15.689 -0.1471  0.1235  0.1669
  701TMC3    C210415   2.544   4.109  15.579 -0.3294 -0.1775 -0.3777
  701TMC3    C310416   2.658   4.154  15.511 -0.0486  0.2439 -0.2748
  701TMC3    C410417   2.559   4.294  15.728  0.0648  0.1154  0.3960
  701TMC3    C510418   2.672   4.332  15.670 -0.0196 -0.6398  0.3505
  701TMC3    C610419   2.722   4.259  15.563  0.5278 -0.0904 -0.1295
  701TMC3     C10420   2.368   4.127  15.734  0.4513 -0.1224  0.1906
  701TMC3     O10421   2.331   4.018  15.704 -0.6156 -0.0731 -0.1842
  701TMC3     H10422   2.504   4.011  15.554  1.4502 -0.9356 -0.2242
  701TMC3    H110423   2.516   4.361  15.801 -1.0557 -1.3386  1.0875
  701TMC3    H210424   2.813   4.296  15.516 -0.0185 -0.9241 -1.8550
  701TMC3    C710425   2.750   4.440  15.716 -0.2533  0.2337  0.3014
  701TMC3    C810426   2.704   4.094  15.390 -0.1044  0.7768 -0.5763
  701TMC3    O110427   2.852   4.469  15.652 -0.3238  0.1171 -0.1915
  701TMC3    O210428   2.823   4.112  15.358  0.1338  0.4112  0.0333
  702MPD2     C10429   1.766   1.106  10.774 -0.5632 -0.2882 -0.0921
  702MPD2    C110430   1.769   1.203  10.879 -0.1199  0.5039 -0.1427
  702MPD2    C210431   1.788   1.329  10.832 -0.6765 -0.1399 -0.1174
  702MPD2    C310432   1.815   1.363  10.699  0.1822  0.4824 -0.1912
  702MPD2    C410433   1.817   1.264  10.606 -0.4676 -0.0495  0.4692
  702MPD2    C510434   1.793   1.139  10.645  0.2135  0.5047  0.5284
  702MPD2     H10435   1.797   1.403  10.911 -1.8687  0.0109 -0.1252
  702MPD2    H110436   1.839   1.285  10.502  0.8192 -0.9153  0.5647
  702MPD2    H210437   1.748   1.002  10.802 -2.7937 -0.4714 -2.2090
  702MPD2    H310438   1.799   1.062  10.569  1.4040  1.5568 -0.4399
  702MPD2     N10439   1.848   1.495  10.658 -1.4342  0.0820 -0.8017
  702MPD2    H510440   1.900   1.506  10.572 -0.4347  1.3854 -0.0298
  702MPD2    N110441   1.754   1.182  11.019 -0.3223  0.6097  0.1896
  702MPD2    H710442   1.739   1.266  11.073 -0.4382 -0.3727  1.6740
  703TMC3    C110443   1.795   1.721  10.629 -0.1851  0.0851 -0.0249
  703TMC3    C210444   1.699   1.817  10.650  0.5208  0.1087  0.2385
  703TMC3    C310445   1.716   1.943  10.595  0.7467  0.7194 -0.1877
  703TMC3    C410446   1.900   1.746  10.556  0.2655 -0.1129  0.0032
  703TMC3    C510447   1.911   1.863  10.493 -0.4928  0.4254 -0.7299
  703TMC3    C610448   1.822   1.958  10.510 -0.4422 -0.3019 -0.0635
  703TMC3     C10449   1.797   1.609  10.719  1.0731 -0.9810 -0.4537
  703TMC3     O10450   1.708   1.594  10.807 -0.1100 -0.2708 -0.4940
  703TMC3     H10451   1.611   1.803  10.711  0.8442 -0.9628  0.4529
  703TMC3    H110452   1.990   1.686  10.557  0.2351 -0.1655 -0.4439
  703TMC3    H210453   1.829   2.047  10.449  0.8766  0.2413  0.8608
  703TMC3    C710454   2.037   1.902  10.418 -0.0846  1.3665 -0.4657
  703TMC3    C810455   1.626   2.049  10.646  0.1962  0.5439 -0.4576
  703TMC3    O110456   2.056   2.022  10.401  0.4116  0.4546 -0.3262
  703TMC3    O210457   1.680   2.152  10.670 -0.1300 -0.2911 -0.6497
  704TMC3    C110458   4.231   4.598  12.637  0.2174  0.7603  0.1184
  704TMC3    C210459   4.327   4.582  12.535  0.2776 -0.6730  0.3228
  704TMC3    C310460   4.435   4.506  12.554  0.2839  0.1541  1.0316
  704TMC3    C410461   4.236   4.513  12.747  0.1175 -0.1599  1.6159
  704TMC3    C510462   4.338   4.421  12.761 -0.0426  0.6371 -0.7419
  704TMC3    C610463   4.440   4.425  12.670 -0.1745 -0.7340 -0.2999
  704TMC3     C10464   4.129   4.702  12.639 -0.0418  0.6120 -0.1214
  704TMC3     O10465   4.057   4.699  12.736  0.0235  0.2335  0.7427
  704TMC3     H10466   4.316   4.631  12.439 -1.0331 -2.1940 -0.3142
  704TMC3    H110467   4.153   4.519  12.816 -1.8347  0.1399 -0.7250
  704TMC3    H210468   4.527   4.365  12.690 -0.3113 -0.4144  1.3292
  704TMC3    C710469   4.326   4.298  12.828  0.4264 -0.3838  0.4369
  704TMC3    C810470   4.496   4.456  12.431 -0.3626 -0.2004  0.2785
  704TMC3    O110471   4.409   4.213  12.797  0.3175  0.4539 -0.1345
  704TMC3    O210472   4.443   4.477  12.322  0.1087  0.0287 -0.8508
  705MPD2     C10473   4.237   2.574  16.609  0.4815  0.0347 -0.4533
  705MPD2    C110474   4.153   2.578  16.503  0.0182  0.9634 -0.4102
  705MPD2    C210475   4.017   2.599  16.534  0.0872  0.8299 -0.5427
  705MPD2    C310476   3.978   2.622  16.666 -0.3469  0.2690 -0.1738
  705MPD2    C410477   4.070   2.608  16.771 -0.1151 -0.7138  0.1212
  705MPD2    C510478   4.199   2.576  16.739 -0.6253 -0.1926 -0.7284
  705MPD2     H10479   3.950   2.605  16.449 -1.9290  1.6876  1.1256
  705MPD2    H110480   4.029   2.613  16.871  0.3405  0.1000  0.2701
  705MPD2    H210481   4.343   2.589  16.593  0.7621  0.0208  1.3785
  705MPD2    H310482   4.282   2.574  16.809 -2.1315  0.3418  1.0479
  705MPD2     N10483   3.839   2.641  16.705 -0.4642  0.1760 -0.1893
  705MPD2    H510484   3.822   2.678  16.798  1.2618  4.7495 -1.6911
  705MPD2    N110485   4.196   2.593  16.373  0.6997 -0.4311 -0.1152
  705MPD2    H710486   4.118   2.595  16.307  0.7581  3.2560 -0.0689
  706TMC3    C110487   4.507   2.594  15.998  0.0672 -0.5326 -0.3670
  706TMC3    C210488   4.447   2.702  15.942 -0.0900  0.2334  0.3270
  706TMC3    C310489   4.338   2.752  16.009  0.2343  0.0554  0.3001
  706TMC3    C410490   4.455   2.536  16.112 -0.6447  0.1487  0.1179
  706TMC3    C510491   4.342   2.585  16.172  1.0141 -0.8083  0.3708
  706TMC3    C610492   4.291   2.703  16.125 -0.3749  0.1980 -0.0651
  706TMC3     C10493   4.630   2.534  15.941 -0.4847 -0.0403 -0.1498
  706TMC3     O10494   4.688   2.457  16.014  0.1662  0.5669 -0.1074
  706TMC3     H10495   4.513   2.760  15.877 -2.4537  2.6128  0.0635
  706TMC3    H110496   4.500   2.443  16.145  2.3907  1.8221  0.6752
  706TMC3    H210497   4.215   2.761  16.177 -1.7139 -1.7961  0.2385
  706TMC3    C710498   4.318   2.558  16.316 -0.4918  0.1097 -0.0134
  706TMC3    C810499   4.333   2.899  15.992  0.1964  0.6754  0.1615
  706TMC3    O110500   4.417   2.509  16.366 -0.0560 -0.4136 -0.6402
  706TMC3    O210501   4.369   2.945  15.884 -0.5329  0.3704  0.0349
  707TMC3    C110502   0.985   0.508   1.353  0.6895  0.1475 -0.0711
  707TMC3    C210503   1.045   0.434   1.453 -0.0029 -1.1450 -0.6099
  707TMC3    C310504   0.976   0.436   1.573 -0.0939  0.3533 -0.2371
  707TMC3    C410505   0.874   0.583   1.368  0.1099 -0.0753 -0.4279
  707TMC3    C510506   0.814   0.584   1.494  0.1952  0.4469  0.3080
  707TMC3    C610507   0.868   0.505   1.599 -0.0419  0.1679 -0.2355
  707TMC3     C10508   1.090   0.557   1.257  0.2232 -0.2255 -0.4249
  707TMC3     O10509   1.205   0.540   1.294 -0.0800 -0.4926 -0.3133
  707TMC3     H10510   1.125   0.365   1.428  0.2984 -1.2940  0.7953
  707TMC3    H110511   0.832   0.643   1.288 -1.0855  0.4338  0.5748
  707TMC3    H210512   0.829   0.488   1.698  1.5908 -0.9900  0.2029
  707TMC3    C710513   0.697   0.669   1.513  0.6406 -0.7775  0.2105
  707TMC3    C810514   1.055   0.431   1.693 -0.0842  0.9214 -0.4441
  707TMC3    O110515   0.674   0.752   1.427 -0.2540 -0.3271  0.3402
  707TMC3    O210516   1.025   0.370   1.792  0.6183  0.5707  0.2087
  708MPD2     C10517   2.472   1.176  14.049 -1.1071 -0.1733 -0.2479
  708MPD2    C110518   2.484   1.262  14.159 -0.1709  0.2539  0.8500
  708MPD2    C210519   2.525   1.206  14.278  0.2487  0.5372  0.7705
  708MPD2    C310520   2.565   1.079  14.291  0.2423  0.1098 -0.5824
  708MPD2    C410521   2.564   1.002  14.178 -0.1757 -0.1041  0.4554
  708MPD2    C510522   2.521   1.051  14.060 -0.6185  0.1636  0.1723
  708MPD2     H10523   2.522   1.263  14.370 -0.4421  0.6774  0.6607
  708MPD2    H110524   2.612   0.905  14.169 -1.6422 -0.7283 -0.7225
  708MPD2    H210525   2.433   1.207  13.953 -2.7483 -0.4813  0.3216
  708MPD2    H310526   2.521   0.979  13.979  1.8124 -0.0934  0.3928
  708MPD2     N10527   2.599   1.028  14.411  0.5980  1.2997 -0.1491
  708MPD2    H510528   2.597   1.090  14.492 -1.9392 -1.2893  1.7563
  708MPD2    N110529   2.402   1.383  14.155  0.6373  0.0983 -0.1380
  708MPD2    H710530   2.361   1.404  14.065  0.7742 -0.7781 -0.4058
  709TMC3    C110531   2.247   1.548  14.245 -0.5116 -0.7539 -0.0766
  709TMC3    C210532   2.186   1.553  14.125  0.8613  0.1474  0.2373
  709TMC3    C310533   2.049   1.564  14.122  0.2656 -0.5756  0.5903
  709TMC3    C410534   2.167   1.548  14.360 -0.0097 -0.9501 -0.0857
  709TMC3    C510535   2.032   1.546  14.348 -0.0933 -0.2578  0.1100
  709TMC3    C610536   1.969   1.548  14.227  0.2340  0.2055  0.5511
  709TMC3     C10537   2.340   1.436  14.266 -0.5160  0.0010 -0.8917
  709TMC3     O10538   2.340   1.393  14.378 -0.0616 -0.4460  0.5831
  709TMC3     H10539   2.242   1.558  14.032  0.5064 -2.2473 -0.1148
  709TMC3    H110540   2.217   1.567  14.454 -0.5578  0.0154  0.0060
  709TMC3    H210541   1.861   1.561  14.226  0.4021  1.9016  2.3147
  709TMC3    C710542   1.978   1.447  14.440 -0.2435 -0.0805 -0.0253
  709TMC3    C810543   1.982   1.603  13.995 -0.2483 -0.0636  0.0281
  709TMC3    O110544   1.856   1.438  14.456  0.2735  0.5352  0.1756
  709TMC3    O210545   1.887   1.675  13.983 -0.3845  0.1767  0.1430
  710TMC3    C110546   3.664   1.830   0.411 -0.2844 -0.6022 -0.5932
  710TMC3    C210547   3.698   1.930   0.323  0.1554  0.3387 -0.1564
  710TMC3    C310548   3.836   1.918   0.286  0.0378 -0.2189 -0.9565
  710TMC3    C410549   3.752   1.740   0.471  0.2034 -0.5635 -0.2586
  710TMC3    C510550   3.886   1.756   0.447  0.0968  0.3818  0.7679
  710TMC3    C610551   3.929   1.844   0.348 -0.6172 -0.5151  0.1651
  710TMC3     C10552   3.555   1.855   0.501  0.1481  0.3675 -0.7847
  710TMC3     O10553   3.498   1.751   0.541  0.0829  0.7879  0.4841
  710TMC3     H10554   3.627   2.001   0.281  0.7729  1.4500  0.6638
  710TMC3    H110555   3.710   1.673   0.545  0.5737  0.1165  0.5637
  710TMC3    H210556   4.033   1.865   0.325 -0.8250 -1.4233 -1.6052
  710TMC3    C710557   3.983   1.668   0.519 -0.5146 -0.2869  0.2133
  710TMC3    C810558   3.885   2.018   0.188 -0.1536  0.6236 -0.0864
  710TMC3    O110559   3.929   1.586   0.589 -0.5829 -0.3809 -0.7760
  710TMC3    O210560   3.959   1.975   0.100  0.4058  0.1731 -0.4434
  711TMC3    C110561   3.103   3.700  15.206  0.0217  0.4349 -0.2451
  711TMC3    C210562   3.142   3.808  15.294 -0.0256 -0.2702 -0.6415
  711TMC3    C310563   3.273   3.805  15.329 -0.1481 -0.8592 -1.0454
  711TMC3    C410564   3.180   3.591  15.173  0.4396 -0.5969  0.7234
  711TMC3    C510565   3.304   3.590  15.234 -0.2208 -0.2072  0.1259
  711TMC3    C610566   3.359   3.704  15.288 -0.1309  0.1758 -0.2913
  711TMC3     C10567   2.968   3.661  15.205 -0.2986  0.0668 -0.0338
  711TMC3     O10568   2.924   3.593  15.116 -0.2129 -0.0005  1.1143
  711TMC3     H10569   3.087   3.896  15.323  0.9689  1.4001 -3.7764
  711TMC3    H110570   3.127   3.506  15.131 -0.4420  0.2525  0.1092
  711TMC3    H210571   3.464   3.695  15.313 -0.1102 -2.7675 -1.4703
  711TMC3    C710572   3.369   3.467  15.270  0.2109 -0.0839 -0.3054
  711TMC3    C810573   3.296   3.853  15.464  1.1553  0.4588 -0.6597
  711TMC3    O110574   3.463   3.483  15.348 -0.5741 -0.0744  0.4140
  711TMC3    O210575   3.197   3.874  15.530 -0.0536 -0.5640  0.3677
  712MPD2     C10576   4.722   4.287  14.156 -0.0642  0.2073 -0.1152
  712MPD2    C110577   4.640   4.315  14.053  0.3453 -0.2218  0.0861
  712MPD2    C210578   4.623   4.448  14.010 -0.4070 -0.5342 -0.1999
  712MPD2    C310579   4.704   4.545  14.065 -0.2315 -0.1331 -0.7416
  712MPD2    C410580   0.056   4.513  14.169  0.2465  0.4023  0.8292
  712MPD2    C510581   0.059   4.385  14.216  0.1482  0.3687 -0.4031
  712MPD2     H10582   4.553   4.469  13.930 -1.6675  1.1912  1.3763
  712MPD2    H110583   0.128   4.588  14.200  1.3675 -0.2687 -0.1209
  712MPD2    H210584   4.719   4.197  14.217 -0.9798  0.9097  0.8749
  712MPD2    H310585   0.126   4.350  14.294 -2.1091 -1.2983  0.7795
  712MPD2     N10586   4.700   4.682  14.025  0.8307  0.4017 -0.6097
  712MPD2    H510587   0.042   0.005  14.045  0.5994 -0.4231  2.6573
  712MPD2    N110588   4.576   4.208  13.982 -0.1161 -0.5249 -0.1635
  712MPD2    H710589   4.521   4.228  13.899  0.7327  2.6956  0.0408
  713TMC3    C110590   4.630   0.154  13.942 -0.8970 -0.3855  0.3409
  713TMC3    C210591   0.019   0.180  13.893 -0.0273 -0.9325 -0.1445
  713TMC3    C310592   0.067   0.306  13.876 -0.8464 -0.4746 -0.2392
  713TMC3    C410593   4.536   0.254  13.954 -0.5235 -0.2522 -0.1300
  713TMC3    C510594   4.584   0.385  13.929  0.0710 -0.3159  0.9802
  713TMC3    C610595   4.713   0.406  13.894  1.0116  0.1049  0.8024
  713TMC3     C10596   4.596   0.009  13.975  0.1530  0.9797 -0.2947
  713TMC3     O10597   4.484   4.705  13.964 -0.4155  0.3086 -0.3212
  713TMC3     H10598   0.084   0.102  13.856 -0.7681 -1.9012  0.5877
  713TMC3    H110599   4.436   0.237  13.993 -0.0123 -1.5880  0.5841
  713TMC3    H210600   0.026   0.502  13.886  0.9270  0.1672  1.0368
  713TMC3    C710601   4.522   0.501  13.981 -0.6430  1.2173 -0.3931
  713TMC3    C810602   0.210   0.335  13.844 -0.1657 -0.5248 -0.3443
  713TMC3    O110603   4.601   0.580  14.033 -0.3529  0.5637  0.2196
  713TMC3    O210604   0.228   0.444  13.792  0.5377 -0.0797 -0.2543
  714MPD2     C10605   2.578   3.196   1.630 -0.4935  0.3208  0.0057
  714MPD2    C110606   2.559   3.192   1.494  0.1120  0.8601  0.4604
  714MPD2    C210607   2.434   3.233   1.447 -0.2761  0.2222  0.3484
  714MPD2    C310608   2.340   3.278   1.539  0.1281  0.6756  1.0913
  714MPD2    C410609   2.363   3.280   1.679 -0.9009 -0.3913  0.4222
  714MPD2    C510610   2.486   3.232   1.722 -0.4391  0.2367 -0.0333
  714MPD2     H10611   2.407   3.255   1.344  1.8573 -1.8231 -0.6535
  714MPD2    H110612   2.279   3.293   1.745 -0.9465 -0.8835  0.4664
  714MPD2    H210613   2.677   3.173   1.668 -0.1115  4.3787  1.4457
  714MPD2    H310614   2.502   3.238   1.829 -0.1446 -1.5594  0.0187
  714MPD2     N10615   2.229   3.340   1.482 -0.1590  0.3099  0.0397
  714MPD2    H510616   2.214   3.327   1.382 -2.5936 -2.0976  0.6964
  714MPD2    N110617   2.667   3.152   1.409  0.6541 -0.3989 -0.5888
  714MPD2    H710618   2.759   3.149   1.452 -0.9867  0.4595  2.8961
  715TMC3    C110619   2.778   3.072   1.221  0.9814  0.4354 -0.4965
  715TMC3    C210620   2.782   3.013   1.096 -0.4663  0.6252 -0.3768
  715TMC3    C310621   2.895   3.005   1.019  0.7304  0.5255 -0.1345
  715TMC3    C410622   2.897   3.120   1.263 -0.2743  0.0061  0.2485
  715TMC3    C510623   3.012   3.115   1.187  0.7251 -0.7053  0.1803
  715TMC3    C610624   3.012   3.058   1.065 -0.4934  0.4685 -0.2016
  715TMC3     C10625   2.656   3.107   1.278  0.6534  0.2977  0.4308
  715TMC3     O10626   2.553   3.099   1.212 -0.0767  0.1916 -0.3635
  715TMC3     H10627   2.691   2.978   1.049  0.4974 -1.9769 -0.3674
  715TMC3    H110628   2.896   3.194   1.343 -0.6490  0.4363 -0.1538
  715TMC3    H210629   3.108   3.035   1.020 -1.4652 -0.2336 -1.9318
  715TMC3    C710630   3.137   3.181   1.230 -0.0349  0.0112  0.3680
  715TMC3    C810631   2.909   2.902   0.919  0.5302 -0.2741  0.5672
  715TMC3    O110632   3.226   3.193   1.149  0.2357 -0.0367  0.0123
  715TMC3    O210633   2.832   2.805   0.922 -0.0586 -0.2568 -0.0953
  716MPD2     C10634   1.766   1.055  10.171  0.1913  0.0768  0.6662
  716MPD2    C110635   1.738   1.113  10.051  0.1202 -0.1986 -0.0608
  716MPD2    C210636   1.750   1.034   9.935  0.5631  0.1090 -0.2077
  716MPD2    C310637   1.827   0.921   9.942  0.1111  0.2441  0.0935
  716MPD2    C410638   1.882   0.875  10.061  0.3568 -0.2197  0.1095
  716MPD2    C510639   1.839   0.940  10.171 -0.0258  0.3917  0.6299
  716MPD2     H10640   1.713   1.078   9.843  1.5312 -1.9451 -1.5739
  716MPD2    H110641   1.935   0.780  10.063  0.2557 -0.2838 -0.3106
  716MPD2    H210642   1.747   1.103  10.267  0.1370 -0.1488  0.7672
  716MPD2    H310643   1.867   0.892  10.264  0.7714  2.1591  1.2997
  716MPD2     N10644   1.834   0.846   9.823 -0.2039  0.3045  0.1115
  716MPD2    H510645   1.777   0.881   9.746  0.9764 -2.9150 -2.1946
  716MPD2    N110646   1.674   1.234  10.045  0.4819  0.6122  0.5630
  716MPD2    H710647   1.634   1.273  10.129 -2.0318  2.8414 -1.6822
  717TMC3    C110648   1.943   0.734   9.646 -0.0502  0.2257 -0.0937
  717TMC3    C210649   1.823   0.735   9.576  0.4652  0.6306 -0.2758
  717TMC3    C310650   1.826   0.743   9.441 -0.1949 -0.4665  0.3398
  717TMC3    C410651   2.064   0.754   9.579 -0.6799  0.0775  0.1422
  717TMC3    C510652   2.063   0.776   9.437 -0.0881 -0.2250 -0.1022
  717TMC3    C610653   1.945   0.761   9.371 -0.2040  0.0406 -0.8166
  717TMC3     C10654   1.933   0.753   9.792  0.8323  0.4249  0.4472
  717TMC3     O10655   2.023   0.708   9.857  0.1877 -0.2324  0.4768
  717TMC3     H10656   1.735   0.702   9.631  2.3495 -2.0303  1.1224
  717TMC3    H110657   2.154   0.756   9.639  0.1612 -0.9186 -1.0865
  717TMC3    H210658   1.942   0.767   9.263 -0.4263  2.2344 -0.7007
  717TMC3    C710659   2.171   0.830   9.360  0.0777  0.3791 -0.2643
  717TMC3    C810660   1.694   0.740   9.376  0.4443  0.0275  0.3277
  717TMC3    O110661   2.177   0.812   9.237  0.0870 -0.4279 -0.2273
  717TMC3    O210662   1.611   0.667   9.433 -0.3441  0.4525  0.6258
  718MPD2     C10663   1.492   0.226  13.198 -0.3453  0.7471  0.7984
  718MPD2    C110664   1.404   0.242  13.097  0.2945  0.3404 -0.1222
  718MPD2    C210665   1.348   0.128  13.048 -0.2042 -0.8751 -0.0049
  718MPD2    C310666   1.386   4.735  13.089 -0.3057  0.1117  0.4988
  718MPD2    C410667   1.472   4.725  13.193 -0.0602  0.0457 -0.1465
  718MPD2    C510668   1.522   0.101  13.248  0.1815  0.5839  0.6566
  718MPD2     H10669   1.276   0.131  12.967  0.2139 -0.7992 -0.3753
  718MPD2    H110670   1.510   4.634  13.238 -0.4344 -0.5417 -1.0171
  718MPD2    H210671   1.531   0.315  13.247  0.2231  0.2627  1.2260
  718MPD2    H310672   1.595   0.096  13.328 -1.0024 -1.9795  1.5955
  718MPD2     N10673   1.348   4.628  13.003 -0.3660  0.1914 -0.7014
  718MPD2    H510674   1.282   4.647  12.929 -0.6369 -0.2962 -0.5824
  718MPD2    N110675   1.368   0.367  13.049 -0.2291 -0.1119 -0.7481
  718MPD2    H710676   1.427   0.440  13.088 -2.3455  0.5673  1.1347
  719TMC3    C110677   1.272   0.531  12.903 -0.2220  0.0787  0.3161
  719TMC3    C210678   1.205   0.516  12.782 -0.2634  0.0936 -0.6898
  719TMC3    C310679   1.274   0.546  12.669 -0.4024 -0.0505 -0.4140
  719TMC3    C410680   1.398   0.587  12.908 -0.1348  0.9910  0.4067
  719TMC3    C510681   1.452   0.643  12.793 -0.1507 -0.5692  0.7256
  719TMC3    C610682   1.385   0.622  12.673 -1.3137 -0.0881 -0.1585
  719TMC3     C10683   1.268   0.397  12.963 -0.8489  0.3335  0.0668
  719TMC3     O10684   1.193   0.320  12.904 -0.5272 -0.0305 -0.0200
  719TMC3     H10685   1.102   0.481  12.782  0.4618 -2.1112  1.5202
  719TMC3    H110686   1.439   0.608  13.006  2.4875  1.3849 -0.7988
  719TMC3    H210687   1.437   0.641  12.579 -3.6268 -3.6695 -2.2038
  719TMC3    C710688   1.592   0.678  12.793 -0.3694 -0.2347  0.1049
  719TMC3    C810689   1.246   0.459  12.559 -0.0004  0.1533 -0.2543
  719TMC3    O110690   1.659   0.644  12.890  0.2362 -0.3993  0.5484
  719TMC3    O210691   1.289   0.485  12.448  0.5798  0.4255 -0.5838
  720MPD2     C10692   4.561   1.633  14.251  0.1118  0.5712 -0.3231
  720MPD2    C110693   4.613   1.725  14.166  0.4960  0.1781 -0.1803
  720MPD2    C210694   4.726   1.800  14.210 -0.2769  0.7333  0.4523
  720MPD2    C310695   0.046   1.784  14.332  0.1419 -0.0376 -0.3240
  720MPD2    C410696   4.725   1.685  14.419  0.2230  0.0385  0.2775
  720MPD2    C510697   4.616   1.619  14.373 -0.1145  0.1510  0.2000
  720MPD2     H10698   0.037   1.877  14.150  3.5955 -2.2508 -0.2779
  720MPD2    H110699   0.019   1.654  14.518 -2.1027 -0.3095  0.8923
  720MPD2    H210700   4.469   1.584  14.223  0.6192 -0.0088 -0.9610
  720MPD2    H310701   4.572   1.550  14.444 -0.5172  1.5097  1.2578
  720MPD2     N10702   0.166   1.843  14.372 -0.0153  0.0668 -0.0502
  720MPD2    H510703   0.202   1.910  14.305  1.8051 -2.1287 -1.2548
  720MPD2    N110704   4.560   1.748  14.037  0.5394 -0.4745 -0.2685
  720MPD2    H710705   4.600   1.830  13.992  1.4923 -0.0750  1.2952
  721TMC3    C110706   0.366   1.895  14.509 -0.2375 -0.4353 -0.2381
  721TMC3    C210707   0.420   1.918  14.635  0.3693 -0.2345 -0.5438
  721TMC3    C310708   0.548   1.954  14.635 -0.4334  0.3053 -0.1012
  721TMC3    C410709   0.442   1.904  14.393 -0.1748  0.3331  0.2104
  721TMC3    C510710   0.568   1.954  14.400 -0.7025 -0.0243 -0.2251
  721TMC3    C610711   0.625   1.965  14.525 -0.7014 -0.7142 -0.0054
  721TMC3     C10712   0.225   1.839  14.504 -0.5768  0.3706  0.4481
  721TMC3     O10713   0.187   1.789  14.610 -0.5919 -0.1648 -0.5566
  721TMC3     H10714   0.357   1.900  14.721 -2.2937  3.8241 -1.6606
  721TMC3    H110715   0.400   1.880  14.296  1.0829 -1.8656  0.2144
  721TMC3    H210716   0.731   1.988  14.532 -0.8544 -0.6529  2.1246
  721TMC3    C710717   0.661   1.941  14.292  0.2372  0.2093 -0.4122
  721TMC3    C810718   0.604   1.990  14.764 -0.9976  0.1510 -0.0366
  721TMC3    O110719   0.779   1.934  14.322  0.2882  0.6140 -0.4997
  721TMC3    O210720   0.726   1.990  14.776 -0.4018  0.1568  0.1632
  722MPD2     C10721   3.385   0.269  13.809  0.2412 -0.5406 -0.2518
  722MPD2    C110722   3.318   0.382  13.835  0.0950 -0.6529 -0.4099
  722MPD2    C210723   3.188   0.399  13.796  0.3078  0.0386 -0.1092
  722MPD2    C310724   3.128   0.297  13.723  0.1376 -0.2910  0.3931
  722MPD2    C410725   3.204   0.185  13.687  0.4579  0.3721  1.0915
  722MPD2    C510726   3.331   0.169  13.734  0.0995 -0.2643  1.4287
  722MPD2     H10727   3.130   0.490  13.802  2.5547  1.5396 -0.8689
  722MPD2    H110728   3.166   0.105  13.624  0.8843  2.7269 -2.1861
  722MPD2    H210729   3.488   0.254  13.841 -0.1836 -0.4152  1.1704
  722MPD2    H310730   3.385   0.076  13.725 -3.2623 -2.0414 -0.2606
  722MPD2     N10731   3.004   0.324  13.666 -0.0661 -0.3587 -0.7069
  722MPD2    H510732   2.962   0.408  13.704 -1.4447 -0.6246 -1.6378
  722MPD2    N110733   3.375   0.493  13.902  0.6715  0.4312 -0.0749
  722MPD2    H710734   3.312   0.568  13.926  0.5427  0.9537 -2.0419
  723TMC3    C110735   2.816   0.316  13.532 -0.2025  0.1548  0.3230
  723TMC3    C210736   2.724   0.234  13.474 -0.2227 -0.1593  0.8559
  723TMC3    C310737   2.614   0.304  13.430 -0.4850  0.4224 -0.3119
  723TMC3    C410738   2.816   0.455  13.524  0.4888 -0.5560 -0.9181
  723TMC3    C510739   2.709   0.518  13.467  0.8501 -0.6286 -0.4617
  723TMC3    C610740   2.603   0.447  13.420  0.2657 -0.4798  0.7278
  723TMC3     C10741   2.927   0.241  13.585 -0.9692  0.1968  0.0260
  723TMC3     O10742   2.949   0.121  13.555 -0.7929  0.1194 -0.3112
  723TMC3     H10743   2.730   0.126  13.468 -2.0334 -0.2611  0.7543
  723TMC3    H110744   2.901   0.517  13.548 -1.8931  1.8858  1.2657
  723TMC3    H210745   2.519   0.497  13.374  0.3576 -1.5122 -0.5623
  723TMC3    C710746   2.708   0.668  13.471 -0.0589 -0.4451  0.0697
  723TMC3    C810747   2.507   0.233  13.361 -0.1362  0.0787  0.4433
  723TMC3    O110748   2.793   0.728  13.537  0.5762 -0.0662 -0.0260
  723TMC3    O210749   2.399   0.287  13.361 -0.5737 -0.3489 -0.0048
  724TMC3    C110750   3.801   3.311  10.352  0.1258 -0.0666 -0.3003
  724TMC3    C210751   3.689   3.395  10.341 -0.4615  0.0260 -0.9395
  724TMC3    C310752   3.707   3.527  10.308 -0.5748  0.5962  0.1546
  724TMC3    C410753   3.924   3.358  10.326  0.4556  0.3346  0.0702
  724TMC3    C510754   3.938   3.489  10.287 -0.3471 -0.4131  0.4796
  724TMC3    C610755   3.832   3.576  10.266  0.2793  0.2282 -0.5379
  724TMC3     C10756   3.774   3.174  10.318  0.1831  0.2853  0.2832
  724TMC3     O10757   3.874   3.105  10.332  0.6442  0.1979  0.5126
  724TMC3     H10758   3.594   3.360  10.381 -0.9178  2.2210 -0.0764
  724TMC3    H110759   4.011   3.295  10.342 -0.5157 -0.7618  1.1009
  724TMC3    H210760   3.838   3.670  10.214  0.4982  0.8307  0.5607
  724TMC3    C710761   4.071   3.533  10.266  0.3280  0.3071  0.0843
  724TMC3    C810762   3.599   3.625  10.303 -0.6072  0.1655 -0.0409
  724TMC3    O110763   4.158   3.463  10.215  0.1859  0.4498 -0.0490
  724TMC3    O210764   3.492   3.581  10.253 -0.0045  0.0589  0.0170
  725TMC3    C110765   0.330   1.895  13.309  0.7134  0.5447  0.1883
  725TMC3    C210766   0.195   1.919  13.316  0.0653  0.5848  0.4106
  725TMC3    C310767   0.102   1.817  13.318 -0.2730  0.2015 -0.0105
  725TMC3    C410768   0.374   1.767  13.296 -0.1168 -0.2584 -0.6956
  725TMC3    C510769   0.289   1.661  13.320 -0.3771 -0.2341  0.2619
  725TMC3    C610770   0.153   1.684  13.329  0.0805  0.6852 -0.7956
  725TMC3     C10771   0.400   1.992  13.222 -0.1441  0.2348 -0.0807
  725TMC3     O10772   0.336   2.088  13.184  0.0455 -0.4663 -0.1605
  725TMC3     H10773   0.162   2.022  13.318 -1.1964  0.2038 -0.6525
  725TMC3    H110774   0.479   1.740  13.289 -0.6643 -1.7778 -3.3184
  725TMC3    H210775   0.078   1.605  13.331  0.7087  0.1439  1.0709
  725TMC3    C710776   0.340   1.552  13.243  0.1760 -0.1567  0.5339
  725TMC3    C810777   4.713   1.827  13.245  0.6488 -0.4468  0.3043
  725TMC3    O110778   0.435   1.564  13.168  0.2943  0.2276 -0.9128
  725TMC3    O210779   4.630   1.738  13.258  0.0590 -0.7264 -0.2063
  726MPD2     C10780   2.660   3.497  10.593  0.7840  0.3847  0.4878
  726MPD2    C110781   2.561   3.592  10.575  0.9013  0.0405 -0.1762
  726MPD2    C210782   2.430   3.558  10.618 -0.6544 -0.8444  0.3116
  726MPD2    C310783   2.389   3.432  10.663 -0.4850 -0.2609 -0.1669
  726MPD2    C410784   2.490   3.343  10.676 -0.1801 -0.2200  0.8757
  726MPD2    C510785   2.624   3.377  10.646 -0.2146 -0.7073  0.3759
  726MPD2     H10786   2.357   3.637  10.606  0.4416  0.0974 -0.2264
  726MPD2    H110787   2.471   3.243  10.712 -0.1161 -0.4890  0.1766
  726MPD2    H210788   2.764   3.524  10.579  1.0764 -1.2113 -0.4215
  726MPD2    H310789   2.708   3.311  10.667  0.6204  0.6549  1.2916
  726MPD2     N10790   2.254   3.395  10.696  0.1435 -0.0898  0.4815
  726MPD2    H510791   2.247   3.300  10.733  2.1352 -0.6089 -0.5170
  726MPD2    N110792   2.585   3.728  10.529  0.2791  0.7028 -0.3905
  726MPD2    H710793   2.512   3.789  10.492 -0.7942 -1.1391 -1.2743
  727TMC3    C110794   2.714   3.925  10.505 -0.0576 -0.2611 -0.4679
  727TMC3    C210795   2.800   4.015  10.569  0.9525  0.6818  0.4630
  727TMC3    C310796   2.782   4.141  10.532 -1.0992 -0.6138 -0.4214
  727TMC3    C410797   2.612   3.964  10.415 -0.1063  0.8952 -0.2814
  727TMC3    C510798   2.603   4.102  10.388 -0.5383  0.1938 -0.5704
  727TMC3    C610799   2.688   4.190  10.451  0.5188 -0.3176 -0.1935
  727TMC3     C10800   2.713   3.791  10.546 -0.0877 -0.0399  0.4448
  727TMC3     O10801   2.796   3.747  10.621 -0.0171  0.5665  0.6397
  727TMC3     H10802   2.880   3.977  10.632  0.7480 -0.8415 -0.1924
  727TMC3    H110803   2.555   3.898  10.351  2.3763 -2.1216  0.5816
  727TMC3    H210804   2.684   4.296  10.425 -2.5242 -1.3370 -3.9557
  727TMC3    C710805   2.523   4.154  10.275 -0.5535  1.0456  0.2149
  727TMC3    C810806   2.866   4.230  10.606 -0.3905 -0.6779  0.0739
  727TMC3    O110807   2.538   4.274  10.251  0.4662  0.3523 -0.2778
  727TMC3    O210808   2.921   4.178  10.705 -0.4347  0.5783  0.2657
  728TMC3    C110809   2.740   2.407  15.529 -0.1714  0.6365 -0.3644
  728TMC3    C210810   2.878   2.424  15.542 -0.3890  0.3221 -0.8786
  728TMC3    C310811   2.951   2.493  15.444 -0.3659  0.8061 -0.2150
  728TMC3    C410812   2.682   2.428  15.410 -0.1476  0.6802  0.7843
  728TMC3    C510813   2.758   2.490  15.313 -0.3065 -0.0553  0.4858
  728TMC3    C610814   2.888   2.525  15.327  0.0647 -0.1387 -0.6823
  728TMC3     C10815   2.672   2.362  15.643 -0.2286  0.1211  0.0535
  728TMC3     O10816   2.728   2.388  15.749  0.0884 -0.0224 -0.4614
  728TMC3     H10817   2.925   2.389  15.633 -0.9233  0.1189 -0.6802
  728TMC3    H110818   2.575   2.419  15.391  0.2395 -1.4632 -0.4144
  728TMC3    H210819   2.939   2.575  15.245  1.7794 -1.7499 -0.6169
  728TMC3    C710820   2.704   2.510  15.179  0.3816 -0.2257 -0.1380
  728TMC3    C810821   3.091   2.470  15.430  0.4420 -0.4656  0.0394
  728TMC3    O110822   2.756   2.454  15.084 -0.8169  0.0887  0.2146
  728TMC3    O210823   3.135   2.356  15.444 -0.2863 -0.7154 -0.0141
  729MPD2     C10824   4.648   3.460  17.113 -0.1502  0.3666 -0.0853
  729MPD2    C110825   0.014   3.376  17.136 -0.0718  0.0052  0.5474
  729MPD2    C210826   0.064   3.368  17.266 -0.5864  0.3580 -0.0052
  729MPD2    C310827   4.733   3.432  17.368  0.0257 -0.2717 -0.4122
  729MPD2    C410828   4.616   3.499  17.348 -0.5073  0.0261  0.4277
  729MPD2    C510829   4.574   3.503  17.220 -0.2820  0.2093  0.2615
  729MPD2     H10830   0.162   3.326  17.285 -1.0284 -0.5559  0.2571
  729MPD2    H110831   4.551   3.535  17.427 -0.7886  0.6069 -0.0646
  729MPD2    H210832   4.606   3.474  17.014 -0.0229  2.8012  0.1909
  729MPD2    H310833   4.481   3.558  17.206  1.2332  2.1377 -2.0882
  729MPD2     N10834   0.038   3.431  17.504  1.2610  0.0113  0.3512
  729MPD2    H510835   4.736   3.499  17.569 -1.7069 -2.2259  0.8963
  729MPD2    N110836   0.094   3.348  17.024  1.2435 -0.1426  0.4755
  729MPD2    H710837   0.073   3.398  16.938 -2.7501 -1.1630  0.8403
  730TMC3    C110838   0.164   3.358  17.689 -0.4222 -0.3902  0.4363
  730TMC3    C210839   0.298   3.348  17.701 -0.6253 -0.2492  0.2359
  730TMC3    C310840   0.364   3.460  17.741 -0.1296 -0.7041  0.7889
  730TMC3    C410841   0.091   3.460   0.007 -0.1481  0.0603 -0.1919
  730TMC3    C510842   0.158   3.565   0.064 -0.0697  0.7955 -0.3327
  730TMC3    C610843   0.297   3.559   0.060  0.1254 -0.1097 -0.2544
  730TMC3     C10844   0.113   3.327  17.555 -0.1435  0.3269 -0.1112
  730TMC3     O10845   0.166   3.238  17.492 -0.6788  0.5421 -0.2333
  730TMC3     H10846   0.354   3.270  17.651 -0.1402  0.7999 -0.8621
  730TMC3    H110847   4.721   3.460   0.022  0.3139  0.7944  3.1478
  730TMC3    H210848   0.351   3.644   0.100  0.2860 -0.9489  1.2575
  730TMC3    C710849   0.111   3.692   0.009 -0.1396 -0.1482  0.1423
  730TMC3    C810850   0.475   3.492  17.652 -0.1527  0.1232  0.2920
  730TMC3    O110851   0.035   3.684  17.654  0.2762 -0.3355 -0.6272
  730TMC3    O210852   0.516   3.409  17.573 -0.1798  0.3390  0.1818
  731MPD2     C10853   4.181   1.035  12.703  0.1611  0.0124 -0.2244
  731MPD2    C110854   4.286   0.966  12.654  0.2083  0.3553 -0.2121
  731MPD2    C210855   4.385   0.924  12.738  0.3603  0.6003  0.6379
  731MPD2    C310856   4.376   0.935  12.875  0.1209  0.0262 -0.1931
  731MPD2    C410857   4.263   1.002  12.919 -0.1546  0.5189  0.1027
  731MPD2    C510858   4.165   1.049  12.836  0.2621  0.3652 -0.7400
  731MPD2     H10859   4.475   0.882  12.695  1.3367  2.3464  1.0054
  731MPD2    H110860   4.244   1.012  13.025 -1.3870 -1.8159  0.1078
  731MPD2    H210861   4.099   1.064  12.639 -1.0578 -1.9026  0.4469
  731MPD2    H310862   4.082   1.111  12.865  0.9025  0.7132  0.3384
  731MPD2     N10863   4.482   0.880  12.959  0.2748 -0.6120  0.4027
  731MPD2    H510864   4.568   0.846  12.917 -0.1486 -1.5763  0.3233
  731MPD2    N110865   4.295   0.954  12.506  0.0215  0.5691 -0.1694
  731MPD2    H710866   4.214   0.988  12.455 -1.8392 -2.2936  0.8811
  732TMC3    C110867   4.373   0.903  12.295 -1.2307 -0.3837  0.2999
  732TMC3    C210868   4.239   0.896  12.253  0.1752 -0.1414 -0.5527
  732TMC3    C310869   4.220   0.899  12.116  0.2252 -0.1318  0.9974
  732TMC3    C410870   4.478   0.903  12.214  0.5878 -0.1408 -0.4619
  732TMC3    C510871   4.453   0.917  12.077  0.3156 -0.7388 -0.8716
  732TMC3    C610872   4.325   0.916  12.026 -0.6134  0.3307 -0.3348
  732TMC3     C10873   4.407   0.908  12.436  0.4051  0.6810 -0.1826
  732TMC3     O10874   4.516   0.862  12.474 -0.3856  0.2355  0.6819
  732TMC3     H10875   4.161   0.859  12.319  0.1233 -0.8606 -1.0174
  732TMC3    H110876   4.575   0.921  12.259  1.0050 -0.4805 -1.2090
  732TMC3    H210877   4.312   0.920  11.918 -1.7266  1.9360 -0.1347
  732TMC3    C710878   4.550   0.996  11.995 -0.4838 -0.0361  0.2710
  732TMC3    C810879   4.093   0.881  12.062  0.6455 -0.2530  0.0215
  732TMC3    O110880   4.556   0.946  11.882  0.2539 -0.2750 -0.1289
  732TMC3    O210881   4.092   0.836  11.949  0.1420  0.5189 -1.0912
  733TMC3    C110882   1.161   4.256  12.901  0.5051  0.5541 -0.3682
  733TMC3    C210883   1.264   4.305  12.964 -0.9729  0.2842 -0.3463
  733TMC3    C310884   1.325   4.413  12.909 -0.7426  0.5099  0.2565
  733TMC3    C410885   1.136   4.304  12.773  0.9862  0.3542  0.3812
  733TMC3    C510886   1.212   4.404  12.726 -0.5189  0.8247 -0.1095
  733TMC3    C610887   1.306   4.469  12.793 -0.8741  0.3001  0.2335
  733TMC3     C10888   1.045   4.229  12.978  0.0825 -0.0796  0.7866
  733TMC3     O10889   0.934   4.240  12.925  0.7077  0.4829  0.1133
  733TMC3     H10890   1.292   4.279  13.065 -0.6655  0.7458 -0.3140
  733TMC3    H110891   1.041   4.275  12.729  1.3148 -0.8704  0.4638
  733TMC3    H210892   1.385   4.526  12.745 -2.2836  1.9831 -0.0704
  733TMC3    C710893   1.158   4.469  12.601  0.4423 -0.0154 -0.6409
  733TMC3    C810894   1.388   4.495  13.005  0.3999  0.1069  0.1741
  733TMC3    O110895   1.103   4.412  12.509  0.4963 -0.3245  0.4062
  733TMC3    O210896   1.443   4.438  13.100  0.5599 -0.8585  0.6181
  734MPD2     C10897   3.243   2.662  12.174 -0.0984  0.0732  0.0468
  734MPD2    C110898   3.121   2.628  12.127 -1.0217 -0.3149 -0.5576
  734MPD2    C210899   3.112   2.623  11.987  0.0743 -0.3519 -0.6305
  734MPD2    C310900   3.209   2.656  11.900 -0.0026  0.1032 -0.2092
  734MPD2    C410901   3.330   2.676  11.950 -0.4128  0.2974  0.3464
  734MPD2    C510902   3.352   2.685  12.088 -0.0411 -0.0599 -0.1780
  734MPD2     H10903   3.018   2.599  11.939 -0.7635 -1.2009  1.4548
  734MPD2    H110904   3.418   2.688  11.887  0.0028 -2.4393  0.4311
  734MPD2    H210905   3.259   2.687  12.278  0.9403 -1.4375  0.2483
  734MPD2    H310906   3.445   2.699  12.141 -0.2409 -1.4864  0.5751
  734MPD2     N10907   3.184   2.621  11.767 -0.9580  0.0094 -0.4447
  734MPD2    H510908   3.089   2.588  11.752 -0.3223 -1.2202 -1.7485
  734MPD2    N110909   3.018   2.594  12.222 -0.0692 -0.4167 -0.2497
  734MPD2    H710910   3.043   2.594  12.320  2.0355  2.2487 -0.7908
  735TMC3    C110911   2.846   2.450  12.298  0.5253 -0.2600 -0.6652
  735TMC3    C210912   2.742   2.375  12.259  0.5015 -0.1565 -0.7049
  735TMC3    C310913   2.751   2.237  12.269  0.5365 -0.1365  0.3529
  735TMC3    C410914   2.946   2.393  12.378 -0.3024  0.3564  0.1873
  735TMC3    C510915   2.943   2.257  12.398 -0.4512  0.0261 -0.2762
  735TMC3    C610916   2.848   2.174  12.350  0.2746 -0.1137 -0.2735
  735TMC3     C10917   2.901   2.528  12.192  0.5021  0.1456  0.0975
  735TMC3     O10918   2.854   2.503  12.082 -0.6136  0.4275 -0.0488
  735TMC3     H10919   2.670   2.423  12.194  1.0288 -1.2159 -2.0529
  735TMC3    H110920   3.036   2.444  12.410  0.6379 -1.4618  0.4147
  735TMC3    H210921   2.858   2.067  12.360  1.1159 -0.2898 -2.9159
  735TMC3    C710922   3.075   2.202  12.418  0.0566  0.2836 -0.1374
  735TMC3    C810923   2.721   2.158  12.155 -0.2955 -0.8598 -0.0805
  735TMC3    O110924   3.162   2.282  12.392 -0.1716  0.2419 -0.0070
  735TMC3    O210925   2.710   2.037  12.157 -0.0292  0.2090  0.4925
  736MPD2     C10926   3.182   1.883  12.591 -0.2942  0.2865  0.1348
  736MPD2    C110927   3.189   1.990  12.502 -0.0072 -0.7320  0.1617
  736MPD2    C210928   3.296   2.006  12.424  0.0439 -0.1960 -0.0188
  736MPD2    C310929   3.405   1.927  12.439  0.0497 -0.4037 -0.6683
  736MPD2    C410930   3.400   1.819  12.521 -0.4136 -0.5354 -0.1740
  736MPD2    C510931   3.293   1.797  12.599 -0.1711  0.6217  0.4907
  736MPD2     H10932   3.291   2.073  12.339  1.0747 -0.2490 -0.1242
  736MPD2    H110933   3.493   1.767  12.543 -0.1296  0.0998  0.1393
  736MPD2    H210934   3.090   1.868  12.647 -0.2500  2.2894  0.7634
  736MPD2    H310935   3.288   1.705  12.657  1.8896  0.4704  0.4518
  736MPD2     N10936   3.511   1.928  12.352  0.6624  0.1177  0.0651
  736MPD2    H510937   3.575   1.850  12.360  0.3542 -0.3420 -2.0839
  736MPD2    N110938   3.078   2.077  12.483  0.7732  0.1511 -0.5109
  736MPD2    H710939   2.990   2.040  12.517  1.5370 -1.0635  0.1481
  737TMC3    C110940   3.591   1.943  12.140 -0.3927 -0.3161 -0.2070
  737TMC3    C210941   3.620   2.019  12.031  0.1722  0.2793 -0.0385
  737TMC3    C310942   3.642   1.957  11.914  0.1626 -0.6795 -0.2524
  737TMC3    C410943   3.580   1.807  12.132 -0.5825 -0.6956 -0.1933
  737TMC3    C510944   3.600   1.751  12.012  0.3640  0.5036 -0.1748
  737TMC3    C610945   3.629   1.822  11.896  0.0466  0.1824 -0.2841
  737TMC3     C10946   3.534   2.016  12.255  0.0243  0.3996  0.6605
  737TMC3     O10947   3.504   2.134  12.246  0.4322 -0.1463  0.0951
  737TMC3     H10948   3.605   2.125  12.045 -2.6796  0.1365 -1.8661
  737TMC3    H110949   3.559   1.747  12.220 -1.3899 -1.6679 -1.0580
  737TMC3    H210950   3.625   1.778  11.797  1.7417 -0.6991  0.0406
  737TMC3    C710951   3.615   1.607  12.017 -0.1544 -0.6071 -0.1678
  737TMC3    C810952   3.653   2.039  11.796 -0.4385  0.0536  0.0300
  737TMC3    O110953   3.583   1.554  12.124  0.1418  0.8720 -0.1139
  737TMC3    O210954   3.654   2.161  11.824  0.4055  0.2982  0.7747
  738MPD2     C10955   3.837   0.921  15.485  0.0293  0.3576  0.6550
  738MPD2    C110956   3.883   0.804  15.433 -0.3699  0.4700  0.1583
  738MPD2    C210957   4.014   0.815  15.375  0.1780 -0.0719 -0.0144
  738MPD2    C310958   4.087   0.935  15.369 -0.0022  0.7492  0.1115
  738MPD2    C410959   4.028   1.048  15.429  1.3014  0.0080 -0.5377
  738MPD2    C510960   3.904   1.038  15.491  1.0406 -0.0518 -0.4636
  738MPD2     H10961   4.058   0.726  15.330 -1.6763  0.2639 -2.4221
  738MPD2    H110962   4.087   1.138  15.436  1.2527 -0.1620  2.0136
  738MPD2    H210963   3.741   0.928  15.535  0.6133 -0.2082  1.8611
  738MPD2    H310964   3.864   1.122  15.546 -0.6654  0.1153 -1.9898
  738MPD2     N10965   4.210   0.953  15.310  0.0530 -0.1497  0.6399
  738MPD2    H510966   4.237   1.049  15.290 -0.2360 -0.3525 -0.7368
  738MPD2    N110967   3.813   0.677  15.436 -0.1561 -0.2162 -0.3189
  738MPD2    H710968   3.849   0.601  15.379  0.2714 -1.0417  1.0487
  739TMC3    C110969   4.382   0.890  15.174  0.1133 -0.3863  0.3319
  739TMC3    C210970   4.321   0.945  15.062  0.5275  0.4543 -0.5806
  739TMC3    C310971   4.391   0.958  14.945  0.3095  0.6669  0.7449
  739TMC3    C410972   4.503   0.834  15.166 -0.6500  0.0986 -0.1709
  739TMC3    C510973   4.563   0.828  15.040 -0.0221 -0.7458  0.6598
  739TMC3    C610974   4.507   0.887  14.932 -0.3966 -0.5442  0.5840
  739TMC3     C10975   4.299   0.854  15.274  0.5972  0.2481 -0.8243
  739TMC3     O10976   4.296   0.737  15.311  0.4005  0.2235 -0.0500
  739TMC3     H10977   4.218   0.977  15.077  0.6081  0.8161 -0.8044
  739TMC3    H110978   4.549   0.796  15.256  1.4600  1.5004 -0.6614
  739TMC3    H210979   4.563   0.884  14.839  1.4341  0.2596  1.6557
  739TMC3    C710980   4.706   0.837  15.036 -0.3358 -0.7348  0.0037
  739TMC3    C810981   4.314   0.993  14.824  0.1831 -0.2455  1.0512
  739TMC3    O110982   0.018   0.794  14.930 -0.6171 -0.1294  0.3849
  739TMC3    O210983   4.191   0.974  14.830 -0.0811  0.0735  0.1521
  740TMC3    C110984   4.580   2.196  14.606 -0.2876 -0.2938  0.4154
  740TMC3    C210985   4.647   2.154  14.719  0.1338 -0.2878  0.9765
  740TMC3    C310986   0.040   2.126  14.711 -0.6251  0.0654 -0.0844
  740TMC3    C410987   4.642   2.211  14.483 -0.3668 -0.9881  0.2286
  740TMC3    C510988   0.039   2.190  14.478 -0.1022 -0.4496 -0.4850
  740TMC3    C610989   0.101   2.141  14.589  0.6780 -0.4850  0.8388
  740TMC3     C10990   4.437   2.226  14.603 -0.2929 -0.7266  0.0250
  740TMC3     O10991   4.393   2.285  14.506  0.3299 -0.1822  0.6496
  740TMC3     H10992   4.599   2.157  14.816  0.1529 -1.2782  1.0229
  740TMC3    H110993   4.583   2.243  14.399  0.1892  0.5772  0.4281
  740TMC3    H210994   0.207   2.117  14.578 -0.1866 -3.2057 -1.5432
  740TMC3    C710995   0.108   2.186  14.355 -0.0108  0.5489  0.1837
  740TMC3    C810996   0.116   2.079  14.824 -0.8617 -0.8129  0.0418
  740TMC3    O110997   0.217   2.129  14.353  0.0382 -0.2355  0.0184
  740TMC3    O210998   0.239   2.071  14.811 -0.2748 -0.2873 -0.4431
  741TMC3    C110999   4.165   1.436  14.541  0.3485  0.3428  0.1217
  741TMC3    C211000   4.055   1.371  14.583  0.9162 -0.4961  0.1775
  741TMC3    C311001   4.050   1.297  14.698  0.2299 -0.0890  0.3093
  741TMC3    C411002   4.281   1.430  14.614 -0.0661  0.2807 -0.0732
  741TMC3    C511003   4.273   1.355  14.733  0.0666 -0.8908 -0.1381
  741TMC3    C611004   4.161   1.279  14.777  0.2764  0.6719 -0.7060
  741TMC3     C11005   4.176   1.493  14.408  0.1452 -0.2881 -0.2026
  741TMC3     O11006   4.279   1.499  14.344  0.1013 -0.0173 -0.3941
  741TMC3     H11007   3.973   1.370  14.511  1.8196 -0.5389 -0.8461
  741TMC3    H111008   4.369   1.483  14.578  1.8736 -2.2855  0.9384
  741TMC3    H211009   4.153   1.223  14.869 -0.0231  0.8386 -0.6287
  741TMC3    C711010   4.376   1.376  14.827 -0.5329  0.2924  0.2888
  741TMC3    C811011   3.922   1.221  14.732  0.7164  0.1270 -0.4470
  741TMC3    O111012   4.494   1.370  14.811  0.3172  0.1364 -0.2813
  741TMC3    O211013   3.817   1.274  14.697 -0.0459 -0.0317  0.0321
  742TMC3    C111014   4.157   0.016  15.221  0.2338 -0.0700 -0.2269
  742TMC3    C211015   4.139   0.035  15.088 -0.4701  0.6926 -0.1830
  742TMC3    C311016   4.189   4.673  15.007 -0.0634 -0.1235 -0.4329
  742TMC3    C411017   4.225   4.651  15.281  0.4191  0.2647  0.4581
  742TMC3    C511018   4.280   4.570  15.191 -0.6017 -0.4208  0.2249
  742TMC3    C611019   4.262   4.575  15.057 -0.0915  0.3522  0.9305
  742TMC3     C11020   4.070   0.096  15.299  0.5823  0.6072  0.7339
  742TMC3     O11021   4.039   0.208  15.259  0.4466  0.0207 -0.2332
  742TMC3     H11022   4.069   0.110  15.052  0.3476  0.6919 -1.7794
  742TMC3    H111023   4.244   4.645  15.388  0.5514  0.3314  0.4379
  742TMC3    H211024   4.292   4.493  14.993  0.4232  0.6646  0.7701
  742TMC3    C711025   4.357   4.459  15.246 -0.5219 -0.5017  0.1853
  742TMC3    C811026   4.130   4.640  14.876  0.2125  0.4564 -0.7693
  742TMC3    O111027   4.446   4.415  15.175 -0.3632  0.0876 -0.2361
  742TMC3    O211028   4.094   4.525  14.855 -0.1780 -0.5997  0.0966
  743MPD2     C11029   2.182   0.434   1.972  0.4706  0.3883  0.3233
  743MPD2    C111030   2.213   0.477   1.842  0.5004 -0.9464 -0.7625
  743MPD2    C211031   2.314   0.566   1.842  0.1717 -0.5658 -0.0799
  743MPD2    C311032   2.387   0.610   1.949 -0.4386 -0.5367  0.4458
  743MPD2    C411033   2.357   0.563   2.075 -0.6513  0.0812 -0.0549
  743MPD2    C511034   2.254   0.475   2.083  0.5376 -0.4703  0.0237
  743MPD2     H11035   2.339   0.608   1.745 -0.5639  1.2160  0.5017
  743MPD2    H111036   2.423   0.582   2.159  0.8079 -2.2592 -0.6824
  743MPD2    H211037   2.099   0.366   1.988 -1.7137  2.2993 -2.6831
  743MPD2    H311038   2.232   0.431   2.180 -0.1160  0.1899  0.1816
  743MPD2     N11039   2.478   0.720   1.927  0.2900  0.8219  0.5077
  743MPD2    H511040   2.489   0.749   1.830  1.2771 -0.7287  0.1476
  743MPD2    N111041   2.130   0.433   1.730  0.2417 -0.1048 -0.3104
  743MPD2    H711042   2.045   0.387   1.759  0.2967  1.2780  2.0316
  744TMC3    C111043   2.033   0.452   1.515  0.0712 -1.0462  0.1474
  744TMC3    C211044   1.906   0.458   1.579 -0.1535  0.8960 -0.5602
  744TMC3    C311045   1.802   0.445   1.494 -0.5019 -0.5082  0.3922
  744TMC3    C411046   2.046   0.457   1.382  0.4458  0.1065  0.5770
  744TMC3    C511047   1.937   0.433   1.301  0.5257  0.4617 -0.5165
  744TMC3    C611048   1.811   0.431   1.359  0.8110 -0.1853 -0.2589
  744TMC3     C11049   2.154   0.467   1.595 -0.0880 -0.2135 -0.5344
  744TMC3     O11050   2.264   0.486   1.540 -0.1939  0.5919  0.3872
  744TMC3     H11051   1.897   0.495   1.680 -0.5524  3.3807 -1.4865
  744TMC3    H111052   2.144   0.452   1.335  0.1310 -1.5677  0.0898
  744TMC3    H211053   1.719   0.425   1.302  2.0147 -2.0492 -2.0086
  744TMC3    C711054   1.957   0.452   1.161 -0.1781 -0.6598 -0.9119
  744TMC3    C811055   1.674   0.483   1.546  0.1950  0.0682 -0.3895
  744TMC3    O111056   2.047   0.527   1.126  0.1760  0.8362 -0.3567
  744TMC3    O211057   1.601   0.517   1.454 -0.1106  0.2927 -0.0436
  745TMC3    C111058   4.526   3.999  13.912  0.3781 -0.4396 -0.4175
  745TMC3    C211059   4.422   3.926  13.961  0.2005 -0.2788 -0.3217
  745TMC3    C311060   4.325   3.891  13.869 -0.3831  0.0090  0.4090
  745TMC3    C411061   4.538   4.026  13.775 -0.2297 -0.3890 -0.1127
  745TMC3    C511062   4.437   3.980  13.690 -0.1089 -0.8244  0.2864
  745TMC3    C611063   4.335   3.904  13.734  0.3443  0.5668 -0.9482
  745TMC3     C11064   4.598   4.075  14.003  0.3328  0.2014  0.6067
  745TMC3     O11065   4.654   4.021  14.098  0.2323  0.5771  0.4644
  745TMC3     H11066   4.408   3.918  14.068  3.9159 -2.1585  0.0314
  745TMC3    H111067   4.606   4.102  13.740  0.3054 -0.6046  0.4585
  745TMC3    H211068   4.259   3.861  13.670 -0.9864 -0.9673  1.6690
  745TMC3    C711069   4.404   4.047  13.562  1.0072 -0.1147 -0.3297
  745TMC3    C811070   4.196   3.949  13.900  0.2964  0.2935  0.0639
  745TMC3    O111071   4.299   4.024  13.507 -0.1614 -0.3239  0.2485
  745TMC3    O211072   4.107   3.939  13.820  0.2999  0.1202  0.1764
  746TMC3    C111073   1.779   1.153  11.417 -0.2633  0.5517 -0.1132
  746TMC3    C211074   1.791   1.161  11.284 -0.2043  0.3739 -0.1192
  746TMC3    C311075   1.750   1.054  11.218 -0.4117  0.0155 -0.1606
  746TMC3    C411076   1.721   1.046  11.479  0.8221 -0.0438  0.6131
  746TMC3    C511077   1.662   0.952  11.404  0.2047  0.3466 -0.0300
  746TMC3    C611078   1.687   0.947  11.272  0.3522 -0.0077 -0.5221
  746TMC3     C11079   1.830   1.253  11.507  0.6522 -0.2211 -0.2830
  746TMC3     O11080   1.819   1.237  11.630 -0.8091 -0.4904  0.2880
  746TMC3     H11081   1.861   1.229  11.237 -1.2811  2.1662  0.8553
  746TMC3    H111082   1.713   1.042  11.587  0.1488 -0.3343  0.5499
  746TMC3    H211083   1.635   0.875  11.209 -1.3730  1.5773 -0.9115
  746TMC3    C711084   1.603   0.830  11.465  0.0980  0.1909 -1.1898
  746TMC3    C811085   1.754   1.056  11.073  0.8034 -0.0272 -0.6315
  746TMC3    O111086   1.587   0.741  11.383 -0.2185 -0.1824  0.6126
  746TMC3    O211087   1.771   0.951  11.014 -0.5217  0.1772  0.1157
  747TMC3    C111088   4.340   1.288  11.474  0.6955  0.2571  0.5752
  747TMC3    C211089   4.241   1.229  11.547  0.5734 -0.3928  0.5061
  747TMC3    C311090   4.267   1.207  11.676  0.0837  0.2386 -0.3888
  747TMC3    C411091   4.467   1.300  11.526 -0.0584 -0.6741  0.2740
  747TMC3    C511092   4.497   1.264  11.653  0.6665 -0.9102 -0.2784
  747TMC3    C611093   4.394   1.210  11.729  0.4449 -0.2039 -0.0354
  747TMC3     C11094   4.301   1.364  11.355  0.3042  0.1784  1.2259
  747TMC3     O11095   4.373   1.460  11.320  0.0059  0.0928 -0.6750
  747TMC3     H11096   4.139   1.229  11.509  0.8004  1.8492 -0.1188
  747TMC3    H111097   4.534   1.357  11.463  0.6238 -1.7797  0.0089
  747TMC3    H211098   4.403   1.184  11.834 -0.2965  0.7895  0.2823
  747TMC3    C711099   4.584   1.350  11.737 -0.4486  0.1456 -0.1990
  747TMC3    C811100   4.157   1.195  11.763 -0.2942  0.9411 -0.1390
  747TMC3    O111101   4.560   1.353  11.858  0.0220 -0.6408  0.2731
  747TMC3    O211102   4.163   1.110  11.847  0.0822 -0.2051  0.2563
  748MPD2     C11103   1.011   2.451   1.698  0.5167  0.2056 -0.4230
  748MPD2    C111104   1.006   2.346   1.610 -0.8674  0.9510  0.2677
  748MPD2    C211105   1.121   2.275   1.585  0.0965  0.1798 -0.0356
  748MPD2    C311106   1.246   2.309   1.639 -0.3964  0.3128  0.6344
  748MPD2    C411107   1.245   2.410   1.723 -0.1009 -0.3548  0.0155
  748MPD2    C511108   1.134   2.484   1.755  0.5368 -0.2278 -0.6698
  748MPD2     H11109   1.117   2.200   1.507  1.0763  0.2696 -0.1739
  748MPD2    H111110   1.326   2.443   1.787  2.1228 -1.4739 -2.2146
  748MPD2    H211111   0.920   2.505   1.719  0.4354  0.2463 -0.8924
  748MPD2    H311112   1.126   2.569   1.821 -1.3474  1.3563 -2.9143
  748MPD2     N11113   1.366   2.249   1.591 -0.2117 -0.0337  0.1559
  748MPD2    H511114   1.359   2.166   1.532 -4.5258  0.6261 -0.2737
  748MPD2    N111115   0.887   2.334   1.527 -0.3708 -0.8712 -0.0263
  748MPD2    H711116   0.812   2.397   1.552  0.2177 -0.7094  1.3191
  749TMC3    C111117   1.592   2.236   1.534 -0.3916 -0.1556 -0.0881
  749TMC3    C211118   1.600   2.099   1.532 -0.2829 -0.0997  0.1588
  749TMC3    C311119   1.692   2.041   1.445  0.3146 -0.2857  0.6807
  749TMC3    C411120   1.666   2.318   1.457  0.8405  0.2189  0.3918
  749TMC3    C511121   1.763   2.257   1.379  0.2841  0.3522 -0.0491
  749TMC3    C611122   1.776   2.122   1.376  0.3482  0.2383 -0.1755
  749TMC3     C11123   1.489   2.299   1.622 -0.7587 -0.8114  0.3213
  749TMC3     O11124   1.529   2.394   1.688  1.0046 -0.3182  0.4550
  749TMC3     H11125   1.539   2.044   1.603 -1.3904 -0.4563 -1.0921
  749TMC3    H111126   1.636   2.422   1.445  0.9931  0.3910  1.4886
  749TMC3    H211127   1.846   2.068   1.313 -1.0131 -0.2048 -1.3007
  749TMC3    C711128   1.858   2.346   1.303 -0.4594 -0.0572  0.1459
  749TMC3    C811129   1.679   1.904   1.410  0.7936  0.1553  0.0869
  749TMC3    O111130   1.831   2.465   1.302  0.5973  0.4398 -0.8065
  749TMC3    O211131   1.565   1.863   1.413 -0.4959 -0.0987 -0.0738
  750MPD2     C11132   1.466   3.008  11.830 -0.7614 -0.3489  0.3280
  750MPD2    C111133   1.372   3.071  11.757  0.0036 -0.5093  0.0846
  750MPD2    C211134   1.308   3.012  11.651  0.2876 -0.3390 -0.0215
  750MPD2    C311135   1.350   2.884  11.605  0.5404 -0.2642 -0.4262
  750MPD2    C411136   1.450   2.824  11.684 -0.1393 -0.0429 -0.5210
  750MPD2    C511137   1.505   2.885  11.796 -0.4350  0.2861  0.3514
  750MPD2     H11138   1.219   3.052  11.605 -0.5338  0.9387  2.6657
  750MPD2    H111139   1.473   2.719  11.667 -0.7564 -0.3512  0.5314
  750MPD2    H211140   1.517   3.048  11.917  1.3381 -3.0709  0.3146
  750MPD2    H311141   1.581   2.829  11.850  0.9031  0.9883 -0.8183
  750MPD2     N11142   1.297   2.807  11.500 -0.1011  0.1557 -0.0133
  750MPD2    H511143   1.346   2.721  11.477  0.4719  0.1129  1.3990
  750MPD2    N111144   1.337   3.202  11.808 -0.0353 -0.2216  0.2629
  750MPD2    H711145   1.397   3.244  11.878  2.1404 -2.6139 -0.1551
  751TMC3    C111146   1.176   2.744  11.305 -0.1396  0.4680  0.1832
  751TMC3    C211147   1.047   2.714  11.280  0.1057 -0.5318 -0.1322
  751TMC3    C311148   1.027   2.652  11.156 -0.0248 -0.4146  0.1735
  751TMC3    C411149   1.278   2.726  11.220  0.4527 -0.1960  0.3931
  751TMC3    C511150   1.252   2.669  11.098 -0.5332 -0.3990  0.8578
  751TMC3    C611151   1.123   2.634  11.068  0.0130 -0.8362  0.6732
  751TMC3     C11152   1.196   2.844  11.410 -0.6809 -0.6855 -0.2060
  751TMC3     O11153   1.105   2.925  11.431  0.1667  0.4375  0.1071
  751TMC3     H11154   0.972   2.722  11.358  0.2317 -2.7984  0.2288
  751TMC3    H111155   1.374   2.770  11.244 -1.0136  3.4492 -0.5594
  751TMC3    H211156   1.108   2.587  10.971  0.3370  0.2441  0.1083
  751TMC3    C711157   1.364   2.619  11.021 -0.6487 -0.6857  0.5031
  751TMC3    C811158   0.941   2.542  11.147 -0.0338 -0.1561 -0.8130
  751TMC3    O111159   1.347   2.589  10.901 -0.0540 -0.6453 -0.1826
  751TMC3    O211160   0.993   2.444  11.097  0.8817 -0.3061 -0.3840
  752TMC3    C111161   0.917   2.934  17.634  0.2550 -0.0338 -0.2987
  752TMC3    C211162   0.960   2.856  17.743  0.0865  0.0904  0.2087
  752TMC3    C311163   0.941   2.906   0.123 -0.4347  0.1673  0.3629
  752TMC3    C411164   0.893   3.068  17.647 -0.3397 -0.3363  0.0012
  752TMC3    C511165   0.891   3.118   0.024  0.1590  0.2346  0.6085
  752TMC3    C611166   0.914   3.044   0.137 -0.2214 -0.1917  0.1146
  752TMC3     C11167   0.932   2.886  17.503 -0.5683 -0.3997  0.0905
  752TMC3     O11168   1.005   2.791  17.477  0.7602 -0.4495 -0.0060
  752TMC3     H11169   0.967   2.751  17.718 -0.3903  0.0485  0.2471
  752TMC3    H111170   0.884   3.137  17.564  1.0779 -1.5959 -1.2044
  752TMC3    H211171   0.895   3.082   0.237 -0.9780 -0.5304  0.0965
  752TMC3    C711172   0.862   3.261   0.031  0.0987 -0.0611  0.4405
  752TMC3    C811173   0.999   2.831   0.237 -0.3279 -0.4480  0.5298
  752TMC3    O111174   0.784   3.295  17.691  0.0339  0.6038 -0.1767
  752TMC3    O211175   1.030   2.903   0.333 -0.5008  0.1071  0.1750
  753TMC3    C111176   2.735   4.473  13.787  0.6878  0.2559  0.3248
  753TMC3    C211177   2.728   4.427  13.917 -1.0110  0.2001  0.6201
  753TMC3    C311178   2.674   4.304  13.934 -0.3178  0.0614 -0.9738
  753TMC3    C411179   2.699   4.395  13.683  0.7544  0.7373  0.2388
  753TMC3    C511180   2.634   4.277  13.712 -2.0193 -0.2978  0.5235
  753TMC3    C611181   2.625   4.223  13.838 -0.2477  0.8152 -0.0418
  753TMC3     C11182   2.726   4.616  13.769  0.4106 -0.1238 -0.5060
  753TMC3     O11183   2.674   4.657  13.665  0.2666 -0.1433  0.2799
  753TMC3     H11184   2.748   4.493  14.001 -1.5848  1.2887 -0.1118
  753TMC3    H111185   2.710   4.436  13.583  0.4351 -0.1036 -0.1398
  753TMC3    H211186   2.571   4.133  13.865  0.3045  0.7520  0.8526
  753TMC3    C711187   2.572   4.197  13.608  0.2250 -0.1141 -0.9006
  753TMC3    C811188   2.654   4.263  14.072 -0.1645 -0.4516 -0.1183
  753TMC3    O111189   2.568   4.079  13.635  0.2811  0.4550  0.1740
  753TMC3    O211190   2.576   4.173  14.101  0.0626  0.4339 -0.3015
  754MPD2     C11191   1.062   3.215  12.782 -0.0702  0.0473 -0.2926
  754MPD2    C111192   1.073   3.087  12.829 -0.3517 -0.5200 -0.0455
  754MPD2    C211193   0.981   2.994  12.799 -0.1713  0.0525 -0.1762
  754MPD2    C311194   0.865   3.023  12.729  0.5136 -0.3464 -1.2685
  754MPD2    C411195   0.858   3.151  12.678  0.0730 -0.3514 -0.4615
  754MPD2    C511196   0.956   3.244  12.708  0.5394  0.4114  0.3462
  754MPD2     H11197   0.988   2.892  12.835 -0.9337 -0.8324 -2.5484
  754MPD2    H111198   0.771   3.183  12.621 -0.2271  0.6554  0.5485
  754MPD2    H211199   1.126   3.295  12.817  0.0998  0.7227 -2.1367
  754MPD2    H311200   0.942   3.347  12.678  0.1363  0.3103  0.1809
  754MPD2     N11201   0.755   2.932  12.715  0.2001 -0.3475  0.6311
  754MPD2    H511202   0.667   2.960  12.674  0.2628  0.3667  0.9870
  754MPD2    N111203   1.184   3.063  12.921  0.4046  0.5344 -0.1655
  754MPD2    H711204   1.237   3.143  12.954  0.8019 -0.4381  1.5278
  755MPD2     C11205   4.673   3.139  12.651  0.2970 -0.0018 -0.7559
  755MPD2    C111206   4.661   3.048  12.752 -0.1449 -0.2638 -0.5996
  755MPD2    C211207   0.042   2.989  12.796 -0.1474 -0.2871 -0.4798
  755MPD2    C311208   0.161   3.005  12.719 -0.1148  0.1551 -0.1633
  755MPD2    C411209   0.166   3.106  12.630  0.2744  0.0873  0.4480
  755MPD2    C511210   0.057   3.167  12.591 -0.3897  0.3138  0.3163
  755MPD2     H11211   0.035   2.910  12.870  0.1298  0.2709  0.1363
  755MPD2    H111212   0.257   3.118  12.571  0.7247 -1.1253  0.8969
  755MPD2    H211213   4.593   3.197  12.607 -1.1042 -0.8144  0.7339
  755MPD2    H311214   0.058   3.245  12.516 -1.5353 -1.2557 -1.3501
  755MPD2     N11215   0.271   2.913  12.723  0.1342  0.2346 -0.0851
  755MPD2    H511216   0.342   2.921  12.652 -1.0760 -2.0454 -1.5624
  755MPD2    N111217   4.544   3.022  12.828 -0.2425  0.3527  0.9350
  755MPD2    H711218   4.550   2.955  12.904  0.0229 -0.7991 -0.0993
  756MPD2     C11219   1.702   4.067  10.201  0.4694 -0.1322  0.2229
  756MPD2    C111220   1.611   4.014  10.287  0.8726 -0.3505 -0.5599
  756MPD2    C211221   1.530   3.909  10.252  0.1106  0.0789 -0.2264
  756MPD2    C311222   1.564   3.840  10.139  0.1587 -0.0824  0.3735
  756MPD2    C411223   1.662   3.892  10.055  0.0718 -0.2237  0.0828
  756MPD2    C511224   1.729   4.001  10.082  0.1557 -0.0943  0.1538
  756MPD2     H11225   1.453   3.882  10.323 -1.5691  3.5522 -0.7075
  756MPD2    H111226   1.678   3.840   9.961 -0.8748  0.7546 -0.6218
  756MPD2    H211227   1.755   4.158  10.228 -1.3459  1.1255 -0.4522
  756MPD2    H311228   1.803   4.053  10.023  1.4172 -1.4134  0.5938
  756MPD2     N11229   1.495   3.719  10.112  0.1734  0.1014 -0.4429
  756MPD2    H511230   1.436   3.687  10.188  0.0143 -0.0934 -0.6495
  756MPD2    N111231   1.574   4.084  10.407  0.7464  0.0719  0.5253
  756MPD2    H711232   1.512   4.032  10.469  1.2259  0.4896  1.3509
  757MPD2     C11233   1.319   2.658  10.022 -0.8827  0.2726 -0.5975
  757MPD2    C111234   1.202   2.734  10.015  0.4117  0.5771  0.4075
  757MPD2    C211235   1.203   2.871  10.023  0.4949 -0.4197 -0.0310
  757MPD2    C311236   1.324   2.940  10.040  0.4635 -1.1213 -0.3932
  757MPD2    C411237   1.444   2.867  10.032  0.5551  0.3506 -0.1417
  757MPD2    C511238   1.433   2.729  10.042  0.4033  0.7601  0.0581
  757MPD2     H11239   1.113   2.931  10.023 -0.0300 -1.2201  0.2550
  757MPD2    H111240   1.541   2.916  10.039  1.1702 -0.4893 -2.7268
  757MPD2    H211241   1.325   2.550  10.034  0.9843  0.5473  0.9016
  757MPD2    H311242   1.521   2.671  10.068  0.2533  0.9684  1.0473
  757MPD2     N11243   1.319   3.077  10.049 -0.0585 -0.3917  0.8311
  757MPD2    H511244   1.226   3.118  10.048 -0.5231 -1.4850 -1.3697
  757MPD2    N111245   1.089   2.651   9.998 -0.8482 -0.4629 -0.5483
  757MPD2    H711246   1.104   2.551  10.004 -0.8350 -0.4050  0.3970
  758MPD2     C11247   1.628   3.025  15.857  0.4109  0.0219 -0.8659
  758MPD2    C111248   1.612   2.951  15.975  0.3023 -0.0545 -0.6496
  758MPD2    C211249   1.539   3.002  16.077 -0.1235 -0.1646 -0.4977
  758MPD2    C311250   1.487   3.134  16.075  0.6449  0.5082 -0.0461
  758MPD2    C411251   1.506   3.204  15.955  0.1860  0.2427 -0.2031
  758MPD2    C511252   1.573   3.147  15.849 -0.6662  0.3568 -0.0943
  758MPD2     H11253   1.524   2.939  16.163  1.1593 -0.3304 -0.3883
  758MPD2    H111254   1.471   3.307  15.950 -0.9052 -0.0422  1.5940
  758MPD2    H211255   1.683   2.989  15.770 -1.2494 -0.5462 -1.6708
  758MPD2    H311256   1.584   3.208  15.760  0.1892 -1.4236 -1.2078
  758MPD2     N11257   1.431   3.202  16.191 -0.6751  0.7131 -0.4244
  758MPD2    H511258   1.395   3.296  16.180 -0.6777  0.8622  0.7891
  758MPD2    N111259   1.676   2.828  15.973  0.5654  0.0086  0.6336
  758MPD2    H711260   1.715   2.797  15.885 -2.1699  0.8703 -0.8782
  759MPD2     C11261   0.895   0.295  10.408  0.0327 -0.8113 -0.4118
  759MPD2    C111262   0.775   0.331  10.468  1.1412  0.0147  0.4502
  759MPD2    C211263   0.721   0.459  10.452 -0.2352  1.0072 -0.0774
  759MPD2    C311264   0.785   0.553  10.370 -0.1476 -0.2370  0.0650
  759MPD2    C411265   0.903   0.518  10.305  0.6017 -0.6422  0.0693
  759MPD2    C511266   0.960   0.393  10.341 -0.5351 -0.9029  0.4325
  759MPD2     H11267   0.628   0.479  10.503  1.0195  0.8991  2.2292
  759MPD2    H111268   0.967   0.585  10.249  1.1682 -0.8297  0.4942
  759MPD2    H211269   0.936   0.196  10.421  0.1445 -0.3497  2.7467
  759MPD2    H311270   1.042   0.364  10.276 -0.9035  1.7374 -1.2354
  759MPD2     N11271   0.725   0.679  10.359 -0.2052  0.4073  0.4040
  759MPD2    H511272   0.632   0.694  10.399 -0.9881  0.7193 -1.5277
  759MPD2    N111273   0.696   0.244  10.547 -0.2506  0.1651  0.4909
  759MPD2    H711274   0.611   0.283  10.586 -0.1700 -1.6902  2.5245
  760MPD2     C11275   4.174   2.479  11.932 -0.2693  0.4702 -0.1182
  760MPD2    C111276   4.263   2.573  11.968  0.2965  0.1242 -0.2548
  760MPD2    C211277   4.360   2.548  12.063 -0.2477  0.3352 -0.2113
  760MPD2    C311278   4.365   2.423  12.119  0.5737  0.8168 -0.2331
  760MPD2    C411279   4.265   2.329  12.096 -0.2112 -0.2169 -0.1030
  760MPD2    C511280   4.173   2.359  12.000  0.0780  0.1787 -0.2406
  760MPD2     H11281   4.425   2.628  12.096  1.3881 -1.1350  0.1671
  760MPD2    H111282   4.268   2.233  12.147 -1.7818  0.6460  1.6043
  760MPD2    H211283   4.088   2.501  11.870 -0.6324 -0.4007  0.0672
  760MPD2    H311284   4.087   2.293  12.001  1.6967 -1.9072  0.7609
  760MPD2     N11285   4.454   2.395  12.224 -0.3790  0.1467  0.1004
  760MPD2    H511286   4.440   2.307  12.273 -0.8949  1.0220  1.4874
  760MPD2    N111287   4.244   2.698  11.907  0.3713  0.4777  0.0870
  760MPD2    H711288   4.167   2.705  11.841 -0.0736  1.1548  0.6694
  761MPD2     C11289   0.526   2.265  11.262 -0.7397 -0.3691 -0.6250
  761MPD2    C111290   0.635   2.239  11.178  0.0864  0.3214 -0.6251
  761MPD2    C211291   0.734   2.338  11.164  0.3764 -0.9741 -1.2272
  761MPD2    C311292   0.727   2.457  11.228  0.6224  0.3732 -0.0435
  761MPD2    C411293   0.611   2.488  11.299  0.7458  0.7911 -0.1375
  761MPD2    C511294   0.514   2.393  11.313 -0.4082 -0.3986 -0.3631
  761MPD2     H11295   0.822   2.323  11.103  0.2241 -3.2772 -0.8594
  761MPD2    H111296   0.588   2.580  11.352  1.5072 -0.5056  2.4518
  761MPD2    H211297   0.448   2.192  11.277 -0.4137 -0.4138  0.8064
  761MPD2    H311298   0.431   2.420  11.377  1.1846 -1.3596  2.1326
  761MPD2     N11299   0.829   2.554  11.222 -0.1214 -0.0160 -0.0624
  761MPD2    H511300   0.810   2.639  11.272  3.2098  0.9230 -0.3945
  761MPD2    N111301   0.643   2.113  11.120 -0.5414  0.5303  0.6048
  761MPD2    H711302   0.571   2.046  11.143  0.0045 -0.2913 -0.0660
  762MPD2     C11303   1.204   2.185  10.881  0.1302 -0.3604 -0.0741
  762MPD2    C111304   1.188   2.058  10.839  0.4091  0.0929 -0.0478
  762MPD2    C211305   1.288   1.999  10.765  0.0025 -0.1647 -0.5125
  762MPD2    C311306   1.402   2.074  10.736 -0.5255  0.3567  0.0042
  762MPD2    C411307   1.422   2.203  10.787 -0.3026  0.0583 -0.2149
  762MPD2    C511308   1.321   2.255  10.861 -0.5500 -0.7985 -0.1980
  762MPD2     H11309   1.273   1.901  10.721  0.1767 -0.6730  0.5751
  762MPD2    H111310   1.518   2.252  10.775 -0.0145 -1.1312 -2.8078
  762MPD2    H211311   1.126   2.237  10.934 -0.1178 -1.4889  0.6874
  762MPD2    H311312   1.337   2.349  10.913 -0.2970 -2.5080  2.8301
  762MPD2     N11313   1.499   2.005  10.672 -0.4098  0.1510  0.0850
  762MPD2    H511314   1.483   1.907  10.650  1.9170 -0.3674  0.6235
  762MPD2    N111315   1.060   1.993  10.865 -0.3811  0.2636  0.0354
  762MPD2    H711316   0.985   2.046  10.908 -1.9290 -1.7775 -0.1324
  763MPD2     C11317   3.696   2.837  16.236 -0.2417  0.7656  0.0271
  763MPD2    C111318   3.563   2.876  16.207 -0.5162  0.4051  0.1674
  763MPD2    C211319   3.516   2.984  16.282 -0.1409  0.3463  0.1339
  763MPD2    C311320   3.586   3.042  16.388  0.0986 -0.4667  0.2256
  763MPD2    C411321   3.697   2.976  16.435 -0.3482  0.2359 -0.2646
  763MPD2    C511322   3.749   2.869  16.363 -0.5086  0.0248  0.0744
  763MPD2     H11323   3.422   3.029  16.254  0.8999  1.5795 -1.3973
  763MPD2    H111324   3.768   3.017  16.506 -0.0456  0.5503 -0.7447
  763MPD2    H211325   3.743   2.753  16.186  0.7556  1.1435  0.3245
  763MPD2    H311326   3.848   2.834  16.390 -0.5176  0.9825  1.3382
  763MPD2     N11327   3.544   3.163  16.445 -0.9365  0.0622 -0.1058
  763MPD2    H511328   3.594   3.189  16.530  1.2350 -2.0133 -0.7436
  763MPD2    N111329   3.478   2.809  16.118  0.2790  0.6299 -0.4767
  763MPD2    H711330   3.383   2.846  16.126  0.2789  0.6346 -0.5016
  764MPD2     C11331   2.170   4.440   0.118 -0.5032 -0.5092 -0.4616
  764MPD2    C111332   2.070   4.412   0.026 -0.1396  0.3693  0.0587
  764MPD2    C211333   1.965   4.329   0.060 -0.3816  0.0978  0.4537
  764MPD2    C311334   1.948   4.289   0.191  0.1315 -0.1614 -0.6509
  764MPD2    C411335   2.043   4.316   0.287  0.0766  0.0489 -0.2849
  764MPD2    C511336   2.155   4.387   0.243 -1.1259  0.0516  0.4217
  764MPD2     H11337   1.889   4.309  17.732 -0.1016 -0.6271  0.3661
  764MPD2    H111338   2.034   4.290   0.392 -2.1436  1.9726 -0.0091
  764MPD2    H211339   2.248   4.511   0.093 -1.4545  0.5674 -0.3779
  764MPD2    H311340   2.223   4.417   0.322 -1.3631 -0.8946  0.9847
  764MPD2     N11341   1.837   4.213   0.233 -0.2081 -0.4041  0.3048
  764MPD2    H511342   1.757   4.201   0.171  0.3879  0.1236 -0.5644
  764MPD2    N111343   2.087   4.460  17.641  0.2912 -0.5400  0.2033
  764MPD2    H711344   2.036   4.409  17.569  0.8421  0.3835 -0.8237
  765MPD2     C11345   1.085   2.211  15.785  0.1349 -0.4664  0.4017
  765MPD2    C111346   1.180   2.294  15.839  0.1413 -0.4843  0.0978
  765MPD2    C211347   1.310   2.254  15.839 -0.9949  0.3165 -0.1113
  765MPD2    C311348   1.354   2.131  15.792  0.2890 -0.0362  0.3993
  765MPD2    C411349   1.252   2.056  15.741 -0.5666  0.1701  0.3695
  765MPD2    C511350   1.121   2.093  15.729  0.0346  0.7671 -1.0596
  765MPD2     H11351   1.380   2.316  15.894 -0.4422 -0.5681  0.1946
  765MPD2    H111352   1.270   1.961  15.690  2.1587  0.6909  0.3456
  765MPD2    H211353   0.984   2.245  15.768  0.5454  0.3469 -0.4461
  765MPD2    H311354   1.056   2.020  15.681 -0.9811  0.3979  0.8693
  765MPD2     N11355   1.492   2.106  15.793 -0.0711 -0.4176 -0.3294
  765MPD2    H511356   1.552   2.184  15.815 -1.9371  0.1179  2.8844
  765MPD2    N111357   1.128   2.420  15.888  0.3234 -0.1371 -0.8689
  765MPD2    H711358   1.028   2.435  15.881  0.4097  0.4183 -0.8951
  766MPD2     C11359   0.577   2.578  15.644  0.5052 -0.0156 -0.1782
  766MPD2    C111360   0.713   2.560  15.647  0.4709  0.5536  0.5280
  766MPD2    C211361   0.769   2.485  15.553 -0.8729 -0.2928  0.2037
  766MPD2    C311362   0.696   2.434  15.448 -0.1468 -0.4098 -0.8608
  766MPD2    C411363   0.559   2.453  15.447  0.1369  0.1401 -0.1161
  766MPD2    C511364   0.500   2.524  15.545 -0.0701  0.1116 -0.2702
  766MPD2     H11365   0.877   2.478  15.549 -0.8017 -0.1363  2.0835
  766MPD2    H111366   0.493   2.401  15.379  2.4605  0.2443 -2.4508
  766MPD2    H211367   0.535   2.650  15.714 -1.5097  0.5798 -2.0079
  766MPD2    H311368   0.393   2.544  15.546 -0.2423 -0.6912 -2.1458
  766MPD2     N11369   0.760   2.377  15.328 -0.0549 -0.0541 -0.4368
  766MPD2    H511370   0.708   2.370  15.241  0.8024  0.4785 -0.9979
  766MPD2    N111371   0.801   2.607  15.748 -0.2611 -0.2275  0.1918
  766MPD2    H711372   0.898   2.583  15.735 -0.2226 -0.2969  0.6230
  767MPD2     C11373   0.351   2.563  15.174 -0.0055 -0.0424  0.4367
  767MPD2    C111374   0.476   2.603  15.131 -0.5397  0.4364 -0.2669
  767MPD2    C211375   0.530   2.546  15.020  0.1445 -0.5662  0.0969
  767MPD2    C311376   0.455   2.456  14.940  0.1736 -0.2767 -0.1949
  767MPD2    C411377   0.339   2.405  14.984 -0.6038 -0.2728 -0.0748
  767MPD2    C511378   0.288   2.461  15.100 -0.4354  0.0892 -0.7312
  767MPD2     H11379   0.631   2.569  14.990 -0.6056 -0.6329 -2.4911
  767MPD2    H111380   0.280   2.329  14.935 -0.4896  0.4241 -1.2863
  767MPD2    H211381   0.303   2.605  15.261 -0.1886  0.6822 -0.0149
  767MPD2    H311382   0.188   2.423  15.118 -0.4886  0.6702  0.1820
  767MPD2     N11383   0.509   2.410  14.819  0.0695 -0.6948  0.8341
  767MPD2    H511384   0.602   2.425  14.781 -0.2967  0.3511  0.3465
  767MPD2    N111385   0.555   2.690  15.215  0.2423 -0.3220 -0.0893
  767MPD2    H711386   0.510   2.732  15.296  0.9877 -1.5306  0.9308
  768MPD2     C11387   1.585   0.208  11.238  0.7433 -0.5010 -0.1979
  768MPD2    C111388   1.517   0.296  11.329  0.2634 -0.2881 -0.2588
  768MPD2    C211389   1.595   0.367  11.419 -0.1637 -0.2238  1.0664
  768MPD2    C311390   1.734   0.345  11.420 -0.4959 -0.0383  0.1940
  768MPD2    C411391   1.801   0.261  11.340  0.0801  0.0134  0.1453
  768MPD2    C511392   1.724   0.191  11.242  0.1197 -0.2691  0.3874
  768MPD2     H11393   1.544   0.430  11.491 -2.1784  0.7692 -1.2490
  768MPD2    H111394   1.906   0.246  11.358  0.0889 -0.5806 -0.3905
  768MPD2    H211395   1.534   0.162  11.155 -1.4095 -0.5096  1.1123
  768MPD2    H311396   1.769   0.120  11.175 -1.6647 -1.0003 -0.0492
  768MPD2     N11397   1.806   0.399  11.532  0.1069  0.4006 -0.5631
  768MPD2    H511398   1.764   0.483  11.570  1.7974  1.3757 -0.8314
  768MPD2    N111399   1.376   0.306  11.339  0.6151 -1.0091 -0.0198
  768MPD2    H711400   1.351   0.375  11.409  1.9345 -0.1665 -0.3704
  769MPD2     C11401   2.584   3.789  14.989 -0.6484  0.5673  0.1888
  769MPD2    C111402   2.474   3.821  15.060 -0.1335 -0.4296 -0.3411
  769MPD2    C211403   2.492   3.901  15.170  0.5882 -0.4077 -0.3281
  769MPD2    C311404   2.609   3.948  15.208 -0.3228 -0.9937  0.2651
  769MPD2    C411405   2.724   3.928  15.127 -0.3641  0.2211 -0.3458
  769MPD2    C511406   2.707   3.843  15.018  0.1608  0.4876  0.2997
  769MPD2     H11407   2.416   3.927  15.242 -0.8055  0.3138 -2.0380
  769MPD2    H111408   2.820   3.972  15.148  0.1441 -0.3167 -1.5371
  769MPD2    H211409   2.567   3.715  14.912  0.1124 -2.1550  2.6621
  769MPD2    H311410   2.795   3.822  14.959  0.0083  0.8367 -0.0555
  769MPD2     N11411   2.602   4.030  15.319  0.0843 -0.2882  0.0393
  769MPD2    H511412   2.508   4.042  15.355  0.2246  1.5657 -0.2337
  769MPD2    N111413   2.343   3.773  15.029  0.0640 -0.1879  0.3121
  769MPD2    H711414   2.275   3.777  15.105 -1.0696 -0.9405 -0.6621
  770MPD2     C11415   1.728   3.077  15.270 -0.6529  0.0275  1.0842
  770MPD2    C111416   1.781   3.054  15.147 -0.0182  0.1365 -0.2196
  770MPD2    C211417   1.829   3.157  15.064  0.5500  0.1093  0.0914
  770MPD2    C311418   1.824   3.286  15.108 -0.1093 -0.7539 -0.4534
  770MPD2    C411419   1.772   3.307  15.227  0.4548 -0.2033 -0.5602
  770MPD2    C511420   1.712   3.208  15.305  0.1235 -0.5009 -0.2529
  770MPD2     H11421   1.868   3.141  14.964 -1.1233  3.0549 -1.0603
  770MPD2    H111422   1.760   3.409  15.262  1.1079 -0.7301  1.2199
  770MPD2    H211423   1.686   2.997  15.330 -0.8248 -0.2194  0.6398
  770MPD2    H311424   1.657   3.230  15.395 -2.2477 -0.0507 -1.7948
  770MPD2     N11425   1.876   3.388  15.023  0.4744 -0.4651 -0.6739
  770MPD2    H511426   1.910   3.366  14.930 -0.1531  0.5013 -1.1413
  770MPD2    N111427   1.782   2.915  15.104  0.3974  0.5338 -0.4298
  770MPD2    H711428   1.744   2.850  15.172 -1.3979  2.7470  0.6845
  771MPD2     C11429   3.026   1.662  14.260  1.0984 -0.0481 -0.3581
  771MPD2    C111430   2.955   1.741  14.176 -0.0528 -0.8834 -0.3129
  771MPD2    C211431   2.886   1.678  14.072  0.1648  0.7401  0.1451
  771MPD2    C311432   2.873   1.542  14.057  0.0899  0.2782  0.6463
  771MPD2    C411433   2.945   1.458  14.137  0.9742  0.2843  0.4256
  771MPD2    C511434   3.018   1.521  14.233  0.0390  0.1274 -0.3359
  771MPD2     H11435   2.835   1.742  14.000 -0.2262 -0.6092 -0.7815
  771MPD2    H111436   2.945   1.349  14.129 -1.1455  0.2640  0.6853
  771MPD2    H211437   3.074   1.699  14.349 -0.3473  1.9028 -0.3774
  771MPD2    H311438   3.059   1.454  14.308  0.0305 -1.6784 -1.9408
  771MPD2     N11439   2.794   1.506  13.949  0.0792 -0.3844 -0.0928
  771MPD2    H511440   2.749   1.580  13.898 -2.9786 -1.5092  1.0080
  771MPD2    N111441   2.958   1.884  14.172  0.6084  0.1322 -0.3711
  771MPD2    H711442   2.899   1.928  14.103 -0.3855  1.9044  1.6104
  772MPD2     C11443   2.410   2.288  14.094  0.2124  0.0209 -0.2423
  772MPD2    C111444   2.479   2.255  14.207 -0.2304 -0.5956  0.4143
  772MPD2    C211445   2.409   2.225  14.330 -0.0070  0.2666  0.1118
  772MPD2    C311446   2.267   2.247  14.329 -0.0502  0.0254 -0.0776
  772MPD2    C411447   2.201   2.286  14.214  0.2146  0.7649  0.1895
  772MPD2    C511448   2.270   2.305  14.094  0.1966 -0.4446  0.2754
  772MPD2     H11449   2.469   2.200  14.416  0.9486  0.1763 -0.5832
  772MPD2    H111450   2.093   2.287  14.204  0.2665  3.9195 -0.1648
  772MPD2    H211451   2.456   2.316  14.000 -1.1559  2.5198 -0.1455
  772MPD2    H311452   2.217   2.345  14.008 -0.5552 -0.4355  0.7431
  772MPD2     N11453   2.189   2.220  14.439  0.2664  0.0575  0.0931
  772MPD2    H511454   2.090   2.240  14.434  0.7769  2.3374 -0.6315
  772MPD2    N111455   2.621   2.260  14.213  0.3128  0.1193 -0.2263
  772MPD2    H711456   2.665   2.236  14.302 -1.7743 -0.0559  0.7622
  773MPD2     C11457   2.018   3.035   0.386 -0.2373  0.1899 -0.3782
  773MPD2    C111458   2.028   3.003   0.247  0.2502  0.1537  0.0011
  773MPD2    C211459   2.127   2.917   0.208  0.3919 -0.0127  0.2270
  773MPD2    C311460   2.228   2.864   0.295 -0.0072 -0.1099 -0.3025
  773MPD2    C411461   2.230   2.907   0.426  0.0187  0.2142  0.0567
  773MPD2    C511462   2.123   2.991   0.466  0.0022 -0.1506 -0.3046
  773MPD2     H11463   2.125   2.883   0.105  0.3048  1.0221 -0.1098
  773MPD2    H111464   2.292   2.869   0.507  2.6901  2.2467 -1.0674
  773MPD2    H211465   1.949   3.104   0.432 -0.1914 -0.9496  1.4057
  773MPD2    H311466   2.122   3.020   0.570  2.4537 -0.6765 -0.1247
  773MPD2     N11467   2.313   2.772   0.234 -0.3690  0.0340  0.2859
  773MPD2    H511468   2.301   2.756   0.134 -0.7210 -0.5330  0.4212
  773MPD2    N111469   1.941   3.065   0.151 -0.7607  0.1532 -0.2376
  773MPD2    H711470   1.964   3.042   0.055  0.4123 -0.8794  0.2917
  774MPD2     C11471   1.510   2.182  13.308 -0.5433  0.1306  0.1785
  774MPD2    C111472   1.490   2.269  13.408  0.1152  0.3630 -0.1698
  774MPD2    C211473   1.491   2.407  13.391 -0.3760 -0.0112  0.1711
  774MPD2    C311474   1.519   2.463  13.273  0.0056 -0.1618  0.4731
  774MPD2    C411475   1.541   2.378  13.170  0.2852 -1.1172  0.1086
  774MPD2    C511476   1.533   2.238  13.184 -0.3619 -0.3523 -0.1805
  774MPD2     H11477   1.479   2.466  13.481 -1.8483  2.1830 -1.4550
  774MPD2    H111478   1.553   2.423  13.072  0.8246 -1.5365 -0.0206
  774MPD2    H211479   1.503   2.075  13.321 -0.7162 -0.0596 -1.4217
  774MPD2    H311480   1.551   2.177  13.097 -0.2653 -2.6749  1.4897
  774MPD2     N11481   1.508   2.603  13.257  0.1937  0.3605  0.8822
  774MPD2    H511482   1.472   2.654  13.337 -0.2566 -1.1446  1.6451
  774MPD2    N111483   1.469   2.208  13.530 -0.4792  0.0558 -0.4052
  774MPD2    H711484   1.437   2.113  13.520 -2.4653  0.7091 -0.3681
  775MPD2     C11485   2.847   3.486  15.716  0.0277 -0.1299  0.2485
  775MPD2    C111486   2.778   3.588  15.787 -0.3065  0.3088  0.2657
  775MPD2    C211487   2.820   3.714  15.778 -0.1559 -0.1315 -0.5286
  775MPD2    C311488   2.943   3.746  15.715  0.0284 -0.6016  0.5180
  775MPD2    C411489   3.013   3.641  15.649 -0.6638  0.1474  0.0289
  775MPD2    C511490   2.969   3.511  15.662  0.5000  1.0631  0.7204
  775MPD2     H11491   2.761   3.799  15.813  0.3783 -0.5815  1.4937
  775MPD2    H111492   3.109   3.657  15.603 -0.6958 -0.2113 -0.1552
  775MPD2    H211493   2.815   3.383  15.712  2.3461 -0.7639 -1.5295
  775MPD2    H311494   3.033   3.434  15.622 -1.1097 -0.0024  0.2145
  775MPD2     N11495   2.985   3.876  15.699 -0.8252  0.4925  0.2883
  775MPD2    H511496   3.071   3.888  15.646 -1.4923 -0.7086 -1.0785
  775MPD2    N111497   2.661   3.549  15.855 -0.0021 -0.3903 -0.0527
  775MPD2    H711498   2.658   3.449  15.872  1.4305 -0.7733 -2.0006
  776MPD2     C11499   0.891   3.739  11.441  0.1305  0.1417  0.2377
  776MPD2    C111500   0.976   3.787  11.544  0.4663  0.1512  0.3674
  776MPD2    C211501   1.025   3.915  11.535  0.2365  0.5665 -0.4134
  776MPD2    C311502   0.999   3.991  11.420 -0.1637 -0.7266 -0.1223
  776MPD2    C411503   0.911   3.943  11.327  0.9131 -0.3411 -0.3738
  776MPD2    C511504   0.861   3.818  11.337 -0.7693  0.1149 -0.2988
  776MPD2     H11505   1.095   3.950  11.610 -0.2962  1.1507 -0.1956
  776MPD2    H111506   0.884   3.998  11.237  5.0700  1.3991 -0.5331
  776MPD2    H211507   0.835   3.646  11.451  0.0430  0.3101  1.2542
  776MPD2    H311508   0.797   3.789  11.254 -0.2382  1.5975 -1.2277
  776MPD2     N11509   1.059   4.110  11.402 -0.6721  0.4983  0.2110
  776MPD2    H511510   1.036   4.165  11.320 -2.2132 -0.6563 -0.1190
  776MPD2    N111511   1.000   3.702  11.652  0.4998 -0.5711 -0.2159
  776MPD2    H711512   0.945   3.617  11.652  1.2535 -1.0539 -0.3786
  777MPD2     C11513   2.714   1.175   0.808  0.0466 -0.1361 -0.6070
  777MPD2    C111514   2.597   1.171   0.873 -0.3355 -0.0835  0.3376
  777MPD2    C211515   2.495   1.109   0.801 -0.2683 -0.1058  0.0704
  777MPD2    C311516   2.520   1.047   0.681 -0.1513 -0.2749 -0.5883
  777MPD2    C411517   2.641   1.062   0.615  0.3124  0.1347 -0.1933
  777MPD2    C511518   2.743   1.123   0.684 -0.3284  0.3565  0.4767
  777MPD2     H11519   2.396   1.100   0.845 -1.6696 -0.1497 -3.1250
  777MPD2    H111520   2.657   1.017   0.518  0.8573  0.4385 -0.2405
  777MPD2    H211521   2.796   1.232   0.850  0.5760 -0.8682 -0.6575
  777MPD2    H311522   2.839   1.120   0.635 -1.1834 -1.2783 -1.1065
  777MPD2     N11523   2.420   0.968   0.627  0.0595  0.5876  0.3044
  777MPD2    H511524   2.337   0.955   0.684 -0.5214  2.8533 -0.0199
  777MPD2    N111525   2.584   1.240   0.998  0.0231 -0.1582 -0.6374
  777MPD2    H711526   2.670   1.267   1.045  1.2765 -2.1077 -1.8107
  778MPD2     C11527   3.316   1.594  15.284  0.1988 -0.6859  0.4539
  778MPD2    C111528   3.360   1.494  15.192 -0.1167  0.4435 -0.2673
  778MPD2    C211529   3.443   1.534  15.090 -0.6599 -0.2750  0.8247
  778MPD2    C311530   3.489   1.659  15.080 -0.1541 -0.1403  0.5357
  778MPD2    C411531   3.454   1.754  15.171 -0.7831 -0.7974  0.3343
  778MPD2    C511532   3.367   1.718  15.270  0.1347  0.1836 -0.1000
  778MPD2     H11533   3.470   1.467  15.009  0.0068  0.1448  0.7018
  778MPD2    H111534   3.493   1.855  15.161  0.2165 -1.2170  0.0075
  778MPD2    H211535   3.265   1.580  15.378  0.1842 -0.5642  0.4642
  778MPD2    H311536   3.359   1.798  15.343 -1.7444 -1.1844  1.1879
  778MPD2     N11537   3.563   1.691  14.964 -0.0127  0.3061  0.3883
  778MPD2    H511538   3.578   1.618  14.895  0.1704  1.8404 -1.1970
  778MPD2    N111539   3.317   1.360  15.204  0.2558 -0.0224 -0.1574
  778MPD2    H711540   3.328   1.297  15.125 -0.8222 -0.6211  0.1766
  779MPD2     C11541   2.911   0.441  14.516 -0.1938  0.5134  0.0277
  779MPD2    C111542   3.029   0.438  14.584 -0.2867 -0.0681  0.0937
  779MPD2    C211543   3.094   0.549  14.609 -0.2384 -0.3022 -0.1727
  779MPD2    C311544   3.063   0.667  14.555  0.0218 -0.5923 -0.2200
  779MPD2    C411545   2.953   0.673  14.475 -0.0653  0.8813 -0.1478
  779MPD2    C511546   2.879   0.558  14.449 -0.2004 -1.0232  0.2324
  779MPD2     H11547   3.189   0.546  14.661 -0.4663 -2.3065  0.1289
  779MPD2    H111548   2.917   0.761  14.423  2.4894  0.3477 -2.8124
  779MPD2    H211549   2.851   0.353  14.498  1.3764 -0.4137 -0.5739
  779MPD2    H311550   2.810   0.569  14.366 -1.2122 -2.2034  0.9047
  779MPD2     N11551   3.143   0.780  14.593  0.3780  0.1220 -0.2641
  779MPD2    H511552   3.227   0.763  14.649  0.5442  1.2783 -0.1640
  779MPD2    N111553   3.080   0.321  14.647  0.0181 -0.5486 -0.6362
  779MPD2    H711554   3.171   0.331  14.690 -1.7452 -1.2259  3.2816
  780MPD2     C11555   3.014   0.331   0.897  0.1439 -0.8359  1.0127
  780MPD2    C111556   2.989   0.252   0.787 -0.0673  0.4761 -0.0109
  780MPD2    C211557   3.001   0.303   0.661 -0.8575 -0.2701  0.2700
  780MPD2    C311558   3.024   0.436   0.641 -0.4880  0.6543 -0.1122
  780MPD2    C411559   3.055   0.513   0.747 -1.0214  0.2705  0.0770
  780MPD2    C511560   3.053   0.464   0.865  0.0969  0.6083 -0.5913
  780MPD2     H11561   2.970   0.250   0.572 -1.2814 -0.0033  0.2555
  780MPD2    H111562   3.089   0.616   0.741  0.9174 -0.4397 -0.7725
  780MPD2    H211563   3.019   0.297   1.000 -0.3706  0.2804  1.4086
  780MPD2    H311564   3.082   0.520   0.954 -0.7323 -0.5467  0.4024
  780MPD2     N11565   3.013   0.491   0.519 -0.0748  0.1857 -0.5335
  780MPD2    H511566   2.983   0.432   0.441 -0.5745  1.6144 -1.4250
  780MPD2    N111567   2.963   0.118   0.806 -0.5677 -0.1061  0.1604
  780MPD2    H711568   2.902   0.094   0.883  0.8288 -1.8243  0.7184
  781MPD2     C11569   4.219   1.880  12.335  0.5714  0.0395 -0.7703
  781MPD2    C111570   4.273   1.841  12.454  0.2448  0.5636  0.5069
  781MPD2    C211571   4.405   1.809  12.451  0.2565 -0.3220  0.0342
  781MPD2    C311572   4.485   1.800  12.333  0.5871 -0.6807  0.0722
  781MPD2    C411573   4.414   1.830  12.218 -0.0123 -0.1729  0.1494
  781MPD2    C511574   4.288   1.877  12.216 -0.3325  0.6455 -0.4797
  781MPD2     H11575   4.449   1.777  12.545 -0.8953  1.2255  1.0851
  781MPD2    H111576   4.467   1.831  12.123 -1.7236  0.2687 -0.7840
  781MPD2    H211577   4.118   1.920  12.335  1.0972  1.3720  0.4302
  781MPD2    H311578   4.242   1.897  12.120  0.0749  0.2957 -0.7470
  781MPD2     N11579   4.621   1.780  12.325 -0.2061 -0.2003 -0.1386
  781MPD2    H511580   4.666   1.797  12.235  0.5891 -1.2722  0.0563
  781MPD2    N111581   4.202   1.829  12.575  0.1207  0.0862 -0.5230
  781MPD2    H711582   4.256   1.791  12.653  0.5760 -1.4999 -1.6182
  782MPD2     C11583   1.765   2.894  10.206  0.4922  0.1028 -0.0677
  782MPD2    C111584   1.794   2.852  10.337  1.0364 -0.6842  0.9372
  782MPD2    C211585   1.784   2.945  10.438  0.2443  0.3897 -0.2758
  782MPD2    C311586   1.752   3.079  10.418  0.4949 -1.0641  0.0766
  782MPD2    C411587   1.733   3.122  10.291 -0.7601  0.3650 -0.8330
  782MPD2    C511588   1.737   3.026  10.189  0.4284  0.4755 -0.0570
  782MPD2     H11589   1.794   2.909  10.540  1.8919  1.8409  0.0735
  782MPD2    H111590   1.724   3.226  10.262  0.3746  0.3298 -1.2953
  782MPD2    H211591   1.752   2.825  10.123  1.9702  2.8257 -2.5442
  782MPD2    H311592   1.728   3.063  10.088  0.6544 -1.0423 -0.6340
  782MPD2     N11593   1.750   3.157  10.535 -0.2526 -0.5475  0.0999
  782MPD2    H511594   1.766   3.103  10.619  1.6424 -0.1183  0.0098
  782MPD2    N111595   1.808   2.718  10.376 -0.1960  0.2950 -0.4720
  782MPD2    H711596   1.822   2.691  10.473  0.6421 -0.7058 -0.8626
  783MPD2     C11597   1.662   2.448  11.161  0.0923  0.2957 -0.4809
  783MPD2    C111598   1.573   2.500  11.063  0.5391 -0.3458 -0.1599
  783MPD2    C211599   1.620   2.501  10.926  0.0642 -0.8516  0.6271
  783MPD2    C311600   1.745   2.447  10.897  0.0024 -0.0946 -0.0716
  783MPD2    C411601   1.830   2.396  10.997  0.3853  0.9534  0.4374
  783MPD2    C511602   1.785   2.406  11.125 -0.1225  0.1844  0.6054
  783MPD2     H11603   1.564   2.549  10.847 -1.2543 -0.4350  1.8108
  783MPD2    H111604   1.927   2.348  10.989 -0.6911 -1.2628  0.5410
  783MPD2    H211605   1.638   2.443  11.266  2.1797 -2.3764 -0.1218
  783MPD2    H311606   1.855   2.364  11.196 -0.8588 -1.5801  0.2719
  783MPD2     N11607   1.789   2.445  10.761 -0.0546 -0.8067  0.4220
  783MPD2    H511608   1.724   2.485  10.694  0.7725 -1.1059 -0.5526
  783MPD2    N111609   1.465   2.574  11.107  0.9941  0.1912  0.0970
  783MPD2    H711610   1.453   2.572  11.208  0.1257 -0.8423 -0.0185
  784MPD2     C11611   0.431   3.468   1.223 -0.2025  0.1922  0.0605
  784MPD2    C111612   0.445   3.601   1.194  0.0348  0.4949  0.1588
  784MPD2    C211613   0.391   3.653   1.086  0.0935 -0.4172  0.2616
  784MPD2    C311614   0.317   3.572   0.997 -0.2085  0.5582  0.5925
  784MPD2    C411615   0.283   3.451   1.040  0.8436 -0.0334 -1.1028
  784MPD2    C511616   0.340   3.394   1.151  0.9707  0.0306  0.1860
  784MPD2     H11617   0.417   3.754   1.058 -1.2405 -0.5996 -1.6235
  784MPD2    H111618   0.210   3.396   0.982  1.5967 -2.3972  0.2037
  784MPD2    H211619   0.472   3.418   1.310 -0.3576 -0.5400 -0.2838
  784MPD2    H311620   0.318   3.289   1.171  2.2789 -0.4308 -0.7654
  784MPD2     N11621   0.263   3.627   0.883 -0.2804 -0.7238  0.0766
  784MPD2    H511622   0.190   3.574   0.836  1.1984 -2.8723  0.1723
  784MPD2    N111623   0.530   3.677   1.275 -0.1173 -0.0513 -0.4822
  784MPD2    H711624   0.557   3.768   1.239  1.5296 -1.0112 -1.6846
  785MPD2     C11625   0.157   0.903  10.766 -1.5507  0.4465 -0.5137
  785MPD2    C111626   0.049   0.827  10.738  0.8056  0.1051  0.6949
  785MPD2    C211627   0.065   0.734  10.636 -0.3596 -0.0965  0.2743
  785MPD2    C311628   0.188   0.726  10.564  0.3462  0.1688  0.0912
  785MPD2    C411629   0.296   0.800  10.606  0.5504 -0.3552 -0.0870
  785MPD2    C511630   0.278   0.883  10.709  0.1186  0.4676 -0.6109
  785MPD2     H11631   4.720   0.674  10.599 -0.6395  0.0942  0.5882
  785MPD2    H111632   0.393   0.799  10.558  0.9775 -1.8779  0.8166
  785MPD2    H211633   0.144   0.994  10.823 -1.3509  1.6027 -2.3162
  785MPD2    H311634   0.359   0.952  10.731  2.1704 -1.8618 -0.8221
  785MPD2     N11635   0.184   0.646  10.450 -0.3147 -0.4206  0.4379
  785MPD2    H511636   0.095   0.619  10.410  1.2083 -0.9948 -2.5472
  785MPD2    N111637   4.669   0.860  10.805 -0.1358  0.1894 -0.9490
  785MPD2    H711638   4.667   0.944  10.862  2.2268  0.2214 -0.9329
  786MPD2     C11639   3.952   0.045  14.404 -0.6382  0.1161 -0.0235
  786MPD2    C111640   3.935   4.666  14.480 -0.4813 -0.2973 -0.4453
  786MPD2    C211641   3.994   4.655  14.601  0.0469 -0.2309  0.6956
  786MPD2    C311642   4.076   0.012  14.652 -0.0903 -0.0121  0.3352
  786MPD2    C411643   4.087   0.131  14.581  0.4356  0.1219 -0.5119
  786MPD2    C511644   4.016   0.143  14.460  0.6014  0.8393  0.0709
  786MPD2     H11645   3.986   4.567  14.664 -0.3807 -0.9900 -0.4387
  786MPD2    H111646   4.144   0.217  14.616  1.8283 -0.6699 -0.7963
  786MPD2    H211647   3.913   0.055  14.304 -0.7353 -2.4505 -0.2448
  786MPD2    H311648   4.029   0.227  14.392  1.1226  1.6053  1.1259
  786MPD2     N11649   4.134   0.008  14.785 -0.3466 -0.3610  0.1144
  786MPD2    H511650   4.175   0.096  14.817 -2.3593  0.4456  0.4663
  786MPD2    N111651   3.864   4.553  14.442  0.6332  0.0051  0.2193
  786MPD2    H711652   3.851   4.483  14.514 -0.5407 -1.6792 -1.6106
  787MPD2     C11653   3.669   4.183  14.899 -0.6327 -0.4974  0.0285
  787MPD2    C111654   3.715   4.112  14.791 -0.5559 -0.4923  0.5644
  787MPD2    C211655   3.795   4.003  14.808 -0.1774  0.5435  0.3710
  787MPD2    C311656   3.822   3.962  14.934 -0.4608 -0.2442  0.8633
  787MPD2    C411657   3.773   4.033  15.042 -0.0436  0.5017  0.1056
  787MPD2    C511658   3.696   4.144  15.029 -0.6292  0.0862 -0.1426
  787MPD2     H11659   3.828   3.948  14.720 -2.5331 -0.5217  0.1323
  787MPD2    H111660   3.819   4.007  15.137  0.2755  2.4640  0.4842
  787MPD2    H211661   3.615   4.276  14.884 -0.1409 -0.3668 -0.9328
  787MPD2    H311662   3.657   4.209  15.107  0.6135  3.0113 -1.9660
  787MPD2     N11663   3.914   3.856  14.948 -0.0156 -0.4957  0.2649
  787MPD2    H511664   3.947   3.829  14.856 -0.1195  1.8109 -0.4735
  787MPD2    N111665   3.676   4.161  14.658  0.4487  1.0372  0.0275
  787MPD2    H711666   3.624   4.248  14.655  1.1964  1.6140  3.8014
  788MPD2     C11667   1.147   2.897   1.352  0.7305  0.7182 -0.1089
  788MPD2    C111668   1.087   2.837   1.243 -0.3457  0.0713 -0.2559
  788MPD2    C211669   1.039   2.922   1.144 -0.0534 -0.4715  0.3640
  788MPD2    C311670   1.041   3.060   1.161  0.6286  0.4833 -0.1706
  788MPD2    C411671   1.112   3.118   1.262 -0.3530 -0.1056 -0.5526
  788MPD2    C511672   1.164   3.031   1.360 -0.1666  0.3001  0.0424
  788MPD2     H11673   1.009   2.865   1.057 -1.4600  0.4764  0.2207
  788MPD2    H111674   1.134   3.224   1.267 -0.7236 -0.1358  1.5907
  788MPD2    H211675   1.208   2.843   1.424 -0.6692  0.9247  1.2376
  788MPD2    H311676   1.224   3.065   1.443  0.1389 -2.3042  0.8881
  788MPD2     N11677   0.991   3.147   1.063  0.1163 -0.3991  0.6891
  788MPD2    H511678   0.996   3.247   1.079 -1.3889 -0.2122  0.0675
  788MPD2    N111679   1.081   2.703   1.234  0.3171 -0.1888  0.3006
  788MPD2    H711680   1.043   2.668   1.147  2.3219  1.7451 -1.3485
  789MPD2     C11681   1.478   2.484  16.775  0.8205 -0.1599 -0.6171
  789MPD2    C111682   1.427   2.462  16.643 -0.0807  0.8893  0.2173
  789MPD2    C211683   1.327   2.543  16.601 -0.6100 -0.1483 -0.2215
  789MPD2    C311684   1.279   2.653  16.669  0.3739 -0.2185  0.3702
  789MPD2    C411685   1.340   2.686  16.792  0.4092 -0.4108  0.1032
  789MPD2    C511686   1.437   2.599  16.839 -0.3003 -0.4367  0.8694
  789MPD2     H11687   1.277   2.523  16.507 -1.9380 -0.9642  0.6548
  789MPD2    H111688   1.312   2.759  16.867  1.0608 -1.9479  1.8349
  789MPD2    H211689   1.557   2.426  16.823  1.2666  0.0525 -1.0957
  789MPD2    H311690   1.472   2.625  16.938 -0.4276  1.8643  0.3096
  789MPD2     N11691   1.170   2.731  16.628  0.1413 -0.5246 -0.2433
  789MPD2    H511692   1.153   2.818  16.679  1.1457  0.2392 -1.2226
  789MPD2    N111693   1.462   2.357  16.560 -0.3003 -0.0056  0.5656
  789MPD2    H711694   1.407   2.342  16.476  2.0340 -0.4925 -0.8944
  790MPD2     C11695   2.388   3.279  13.254 -0.6991  0.0649 -0.1977
  790MPD2    C111696   2.409   3.411  13.291 -0.1183 -0.2338 -0.9219
  790MPD2    C211697   2.304   3.501  13.279  0.9328  0.2320 -0.5323
  790MPD2    C311698   2.182   3.461  13.223 -1.2819 -0.2137 -0.3080
  790MPD2    C411699   2.169   3.338  13.169 -0.2784  0.3927 -0.2461
  790MPD2    C511700   2.270   3.249  13.189 -0.1602  0.3529 -0.4992
  790MPD2     H11701   2.305   3.603  13.318 -1.1911  0.3122 -0.7102
  790MPD2    H111702   2.077   3.300  13.125  0.9814 -2.6603 -0.2068
  790MPD2    H211703   2.464   3.203  13.267 -1.7678 -0.5798  2.3061
  790MPD2    H311704   2.264   3.146  13.154  1.6222  0.2323 -0.4924
  790MPD2     N11705   2.072   3.551  13.203  0.4765  0.4441  0.1504
  790MPD2    H511706   2.087   3.651  13.192 -4.7745  1.4984  2.7440
  790MPD2    N111707   2.535   3.442  13.348  0.1656 -0.2692 -0.1104
  790MPD2    H711708   2.595   3.363  13.368 -2.3317 -1.9017  0.9586
  791MPD2     C11709   1.195   3.841  13.055  0.3569 -0.4197  0.1264
  791MPD2    C111710   1.266   3.726  13.065  0.4353  0.2383  0.1673
  791MPD2    C211711   1.189   3.606  13.064 -0.0478 -0.3177  0.0475
  791MPD2    C311712   1.054   3.610  13.026  0.2824  0.2627  0.9209
  791MPD2    C411713   0.993   3.731  13.013  0.0843  0.5353  0.3804
  791MPD2    C511714   1.058   3.845  13.040  0.8864  0.4778 -0.6321
  791MPD2     H11715   1.230   3.509  13.091  0.6436 -0.3850 -1.2410
  791MPD2    H111716   0.886   3.740  13.000  0.5837  1.6178 -2.8557
  791MPD2    H211717   1.238   3.940  13.066  1.5697 -0.8695 -0.6859
  791MPD2    H311718   1.003   3.938  13.029  1.5231  1.0588  1.1774
  791MPD2     N11719   0.983   3.490  13.029  0.3024 -0.5676 -0.1492
  791MPD2    H511720   1.030   3.407  13.066 -0.6638 -1.2198 -0.3907
  791MPD2    N111721   1.408   3.729  13.085  0.5834 -0.0562 -1.0795
  791MPD2    H711722   1.450   3.820  13.105  0.9992 -0.2717 -0.9734
  792MPD2     C11723   1.812   3.497  11.623  0.0976 -0.0468 -0.8893
  792MPD2    C111724   1.735   3.603  11.590 -0.3128 -0.3469 -0.3414
  792MPD2    C211725   1.604   3.572  11.543  0.2123 -0.0261 -0.2536
  792MPD2    C311726   1.554   3.444  11.541  0.3056  0.5376 -1.0317
  792MPD2    C411727   1.641   3.342  11.575 -0.0646 -0.3068  0.1833
  792MPD2    C511728   1.766   3.368  11.616  0.2048 -0.2050 -0.2860
  792MPD2     H11729   1.537   3.655  11.526  1.4174  0.8319 -0.8070
  792MPD2    H111730   1.618   3.237  11.565 -2.1719  0.4614 -2.8657
  792MPD2    H211731   1.917   3.505  11.649 -0.0015  0.1547 -0.5592
  792MPD2    H311732   1.823   3.279  11.640  0.4686 -0.5413 -2.1948
  792MPD2     N11733   1.432   3.398  11.496  0.2887 -0.2178  0.1218
  792MPD2    H511734   1.422   3.299  11.476  0.9291 -0.1520 -0.5088
  792MPD2    N111735   1.795   3.730  11.584 -0.7110 -0.1935  0.0034
  792MPD2    H711736   1.891   3.734  11.617 -1.0526  2.4163  0.7390
  793MPD2     C11737   1.017   3.984  10.852  1.0787  0.1139 -0.8190
  793MPD2    C111738   1.141   3.926  10.874  0.5590 -0.6323 -0.5978
  793MPD2    C211739   1.144   3.810  10.945 -0.7032  0.0629  0.8499
  793MPD2    C311740   1.033   3.756  11.011 -0.7352 -0.1498  0.1567
  793MPD2    C411741   0.905   3.822  10.991 -0.7427 -0.6324  0.0577
  793MPD2    C511742   0.903   3.931  10.905 -0.6428 -0.2685 -0.1393
  793MPD2     H11743   1.242   3.772  10.971 -0.0411  0.2186 -1.4192
  793MPD2    H111744   0.813   3.791  11.040  0.7811 -1.9540  2.0663
  793MPD2    H211745   1.017   4.080  10.800  0.4547 -0.2102 -1.4062
  793MPD2    H311746   0.813   3.987  10.881  0.7678  1.5710 -1.0509
  793MPD2     N11747   1.029   3.634  11.089 -0.2363 -0.3750 -0.6973
  793MPD2    H511748   0.937   3.615  11.128  0.8723 -0.6184  1.8566
  793MPD2    N111749   1.265   3.983  10.840  0.1889  0.1323  0.5708
  793MPD2    H711750   1.352   3.937  10.864 -1.1613 -2.6672  0.0242
  794MPD2     C11751   1.490   3.686  17.543  0.4098  0.0633 -0.8553
  794MPD2    C111752   1.535   3.578  17.470  0.2135 -0.2467  0.0401
  794MPD2    C211753   1.584   3.601  17.340  0.7509  0.5777 -0.9047
  794MPD2    C311754   1.585   3.733  17.289  0.3446  1.1854  0.1080
  794MPD2    C411755   1.530   3.835  17.362 -0.2130 -0.2930 -0.2738
  794MPD2    C511756   1.488   3.816  17.492  0.0833  0.2968  0.1037
  794MPD2     H11757   1.635   3.523  17.285  1.4131  0.2492  0.1729
  794MPD2    H111758   1.527   3.933  17.315  1.4670 -0.8825 -1.6274
  794MPD2    H211759   1.465   3.671  17.647  2.5674  1.5297 -0.1224
  794MPD2    H311760   1.449   3.894  17.556 -1.7861  1.0222 -1.9579
  794MPD2     N11761   1.646   3.766  17.161  0.3316 -0.0975  0.1480
  794MPD2    H511762   1.652   3.866  17.143  0.2553 -0.4707 -1.9156
  794MPD2    N111763   1.566   3.447  17.528  0.5302  0.9125 -0.0154
  794MPD2    H711764   1.604   3.373  17.471  0.2077 -1.7257  3.2326
  795MPD2     C11765   4.161   0.841  14.099 -0.5605 -0.2678 -0.0077
  795MPD2    C111766   4.099   0.739  14.036  0.1523  0.5469  0.7419
  795MPD2    C211767   4.173   0.638  13.980  0.4882 -1.0395 -0.1158
  795MPD2    C311768   4.310   0.636  14.000 -0.6011 -0.4232  0.8874
  795MPD2    C411769   4.365   0.753  14.050 -0.4013 -0.2140  0.2290
  795MPD2    C511770   4.294   0.859  14.086  0.2545  0.6045  0.0514
  795MPD2     H11771   4.137   0.559  13.915  2.9033  0.6504 -3.5314
  795MPD2    H111772   4.472   0.765  14.045 -0.3278 -0.7626  0.4919
  795MPD2    H211773   4.113   0.911  14.165 -1.4717 -0.2097 -0.7342
  795MPD2    H311774   4.344   0.936  14.144 -0.7620  1.1157  0.2413
  795MPD2     N11775   4.382   0.516  13.959  1.0030 -0.8355  0.5061
  795MPD2    H511776   4.332   0.440  13.915  0.4132  0.4025 -0.9194
  795MPD2    N111777   3.960   0.731  14.024 -0.0497  0.2916  0.2127
  795MPD2    H711778   3.925   0.665  13.955 -1.9991  0.8203  0.6908
  796MPD2     C11779   3.810   2.183  15.919  0.4142 -0.1443 -0.6811
  796MPD2    C111780   3.885   2.264  16.004 -0.1508  0.2251 -0.2058
  796MPD2    C211781   3.921   2.392  15.955 -0.1892 -0.7991 -0.0178
  796MPD2    C311782   3.883   2.436  15.831 -0.1800  0.5101 -0.2296
  796MPD2    C411783   3.815   2.345  15.750 -0.3294 -0.7913  1.1880
  796MPD2    C511784   3.781   2.220  15.792 -0.4799 -0.2067  0.0038
  796MPD2     H11785   3.955   2.472  16.021  1.8264 -0.0343 -1.9850
  796MPD2    H111786   3.796   2.370  15.646 -2.6557  0.5828  1.9465
  796MPD2    H211787   3.775   2.087  15.955  0.2517 -0.3791 -1.4675
  796MPD2    H311788   3.747   2.145  15.722 -2.1817  0.7845 -0.2451
  796MPD2     N11789   3.900   2.573  15.785 -0.5045  0.1612  0.3429
  796MPD2    H511790   3.872   2.595  15.690 -0.9643 -2.0390 -0.0455
  796MPD2    N111791   3.890   2.223  16.138  0.3087  0.4948  0.5942
  796MPD2    H711792   3.827   2.149  16.168 -0.5775  2.0128  2.5489
  797MPD2     C11793   0.465   1.666  17.362 -0.0346  0.2672  0.0353
  797MPD2    C111794   0.452   1.788  17.430  0.1524 -0.1856  0.3048
  797MPD2    C211795   0.336   1.863  17.424  0.2891  0.0762 -0.4510
  797MPD2    C311796   0.224   1.816  17.359 -0.1344  0.9160 -0.3871
  797MPD2    C411797   0.230   1.695  17.290  0.3957 -0.3784  0.0159
  797MPD2    C511798   0.344   1.618  17.300  0.0703 -0.1624 -0.1486
  797MPD2     H11799   0.339   1.961  17.468 -3.0945 -0.6730  1.5063
  797MPD2    H111800   0.139   1.651  17.251 -0.1650 -0.8879  1.9518
  797MPD2    H211801   0.552   1.603  17.360  0.4688  1.0088 -1.3453
  797MPD2    H311802   0.335   1.516  17.264  0.9138  0.5113 -2.2915
  797MPD2     N11803   0.101   1.887  17.348  0.7779 -0.8297  0.4381
  797MPD2    H511804   0.022   1.851  17.295  0.6435 -0.5662  0.4581
  797MPD2    N111805   0.563   1.853  17.489  0.2330 -0.0601  0.4845
  797MPD2    H711806   0.540   1.945  17.526  2.6096  0.4498  0.6592
  798MPD2     C11807   0.285   2.521  17.520 -0.0385 -1.1119  0.4455
  798MPD2    C111808   0.252   2.388  17.521 -0.2633 -0.1093  0.3782
  798MPD2    C211809   0.356   2.303  17.552 -0.0004  0.4850 -0.2146
  798MPD2    C311810   0.483   2.349  17.578  0.4567  0.5633  0.4294
  798MPD2    C411811   0.509   2.484  17.570  0.8442 -0.4773  0.5584
  798MPD2    C511812   0.412   2.568  17.531  0.7588 -0.4825 -1.0592
  798MPD2     H11813   0.337   2.196  17.558 -2.8266  0.8213 -2.9476
  798MPD2    H111814   0.611   2.519  17.579  0.3484  1.1625 -0.2913
  798MPD2    H211815   0.210   2.596  17.496 -0.8421 -2.5136 -1.4233
  798MPD2    H311816   0.434   2.674  17.527 -2.8085  0.2562 -1.2228
  798MPD2     N11817   0.586   2.251  17.602  0.0868  0.3819  0.3363
  798MPD2    H511818   0.550   2.156  17.597  1.9700 -0.3479  0.8547
  798MPD2    N111819   0.125   2.334  17.496 -0.0465  0.0315  0.3332
  798MPD2    H711820   0.121   2.233  17.482 -0.1645  0.1160 -0.2799
  799MPD2     C11821   3.619   3.615  15.033  0.2865 -0.8251 -0.4945
  799MPD2    C111822   3.597   3.508  14.940 -0.7660  0.6798 -0.9683
  799MPD2    C211823   3.564   3.545  14.810  0.4138  0.0399 -0.4099
  799MPD2    C311824   3.530   3.683  14.776 -0.1530  0.1174  0.0083
  799MPD2    C411825   3.543   3.776  14.876 -0.0395  0.1223 -0.0011
  799MPD2    C511826   3.583   3.747  15.005  0.2328 -0.2023  1.0259
  799MPD2     H11827   3.562   3.474  14.728 -1.3662  1.0011 -1.1936
  799MPD2    H111828   3.526   3.878  14.845 -4.3203 -1.4320 -2.7189
  799MPD2    H211829   3.646   3.597  15.136 -0.2241 -1.5787 -0.4869
  799MPD2    H311830   3.592   3.818  15.086 -0.9853  2.5579 -1.2694
  799MPD2     N11831   3.492   3.723  14.644 -0.0419 -0.2233 -0.4837
  799MPD2    H511832   3.472   3.819  14.619 -1.6112 -0.4667 -0.1575
  799MPD2    N111833   3.627   3.374  14.964  0.1619 -0.8049 -0.1814
  799MPD2    H711834   3.598   3.302  14.899  0.5283 -0.0937 -1.1434
  800MPD2     C11835   3.994   4.389  14.051  0.5071  0.2968 -0.1214
  800MPD2    C111836   4.124   4.377  14.100 -0.3018 -0.7219  0.3192
  800MPD2    C211837   4.195   4.268  14.064  0.2629 -0.2075  0.2823
  800MPD2    C311838   4.131   4.149  14.020  1.2330 -0.1616  0.2941
  800MPD2    C411839   4.006   4.159  13.976 -0.2943 -0.0085 -0.1803
  800MPD2    C511840   3.948   4.281  13.972 -0.3652  0.6185 -0.1186
  800MPD2     H11841   4.297   4.256  14.099  0.3569 -1.7920 -0.4847
  800MPD2    H111842   3.956   4.071  13.939  0.7166 -1.9939  3.1372
  800MPD2    H211843   3.944   4.485  14.046 -1.0270 -0.5432 -1.0671
  800MPD2    H311844   3.849   4.285  13.930  0.2353 -0.6751 -1.6573
  800MPD2     N11845   4.213   4.037  14.004  0.1664  0.5136  0.6587
  800MPD2    H511846   4.310   4.051  14.033  0.9935 -1.9132 -0.9109
  800MPD2    N111847   4.186   4.493  14.156  1.0888  0.5286 -0.8734
  800MPD2    H711848   4.144   4.584  14.138  1.7493  0.6538 -1.8382
  801MPD2     C11849   4.175   0.481  14.360 -0.1447 -0.0028  0.6064
  801MPD2    C111850   4.266   0.419  14.438 -0.2312 -1.1975 -0.9965
  801MPD2    C211851   4.296   0.479  14.562  0.9439 -0.2903 -0.7932
  801MPD2    C311852   4.237   0.596  14.600  0.2561  0.1885 -0.3624
  801MPD2    C411853   4.150   0.649  14.515  0.2794 -0.3615  0.0628
  801MPD2    C511854   4.121   0.599  14.396 -0.0311 -0.0267 -0.5604
  801MPD2     H11855   4.366   0.423  14.624  2.4180  0.7626 -1.4982
  801MPD2    H111856   4.096   0.740  14.537 -1.8004 -1.3272 -1.0394
  801MPD2    H211857   4.152   0.444  14.261 -1.8148  4.2729 -0.5910
  801MPD2    H311858   4.056   0.657  14.331  0.1614  1.0175  0.1729
  801MPD2     N11859   4.248   0.640  14.729  0.1239 -0.2775 -0.0555
  801MPD2    H511860   4.191   0.720  14.754 -0.5476 -0.7236 -0.1494
  801MPD2    N111861   4.333   0.297  14.409  0.4524 -0.0398  0.4111
  801MPD2    H711862   4.393   0.252  14.477 -0.1784 -2.0918 -0.4019
  802MPD2     C11863   3.464   1.577   0.905  0.0016 -0.4605  0.5692
  802MPD2    C111864   3.425   1.521   0.777 -0.0670 -0.1331 -0.8791
  802MPD2    C211865   3.518   1.444   0.702 -1.2803 -0.7779  0.1781
  802MPD2    C311866   3.646   1.420   0.737 -0.8667 -0.4102  0.1840
  802MPD2    C411867   3.684   1.475   0.861  0.3513 -0.0619 -0.1625
  802MPD2    C511868   3.595   1.555   0.933  0.3585 -0.1678  0.6096
  802MPD2     H11869   3.492   1.408   0.603  1.3399  0.6716 -1.0658
  802MPD2    H111870   3.786   1.472   0.899  0.9800 -2.2234 -2.0732
  802MPD2    H211871   3.417   1.650   0.970  0.2237 -0.0220  0.2417
  802MPD2    H311872   3.638   1.599   1.022 -1.4025  1.0484  0.8476
  802MPD2     N11873   3.727   1.340   0.658 -0.0330  0.2286  0.6813
  802MPD2    H511874   3.712   1.307   0.563  2.3331 -1.1578  0.7894
  802MPD2    N111875   3.292   1.544   0.725 -0.4622 -0.2432 -0.4031
  802MPD2    H711876   3.272   1.492   0.640 -0.7561 -0.3265 -0.2828
  803MPD2     C11877   4.248   3.525  12.194  0.3909 -0.3899  0.3719
  803MPD2    C111878   4.365   3.584  12.229 -0.0845 -0.3933  0.4466
  803MPD2    C211879   4.401   3.589  12.364  0.2527 -0.6002  0.1614
  803MPD2    C311880   4.311   3.538  12.460  0.2716  0.5656  0.0754
  803MPD2    C411881   4.197   3.474  12.419  0.2668 -0.1962  0.0122
  803MPD2    C511882   4.167   3.465  12.284 -0.0745  1.0350  0.0193
  803MPD2     H11883   4.493   3.641  12.385 -0.8951  0.9395  1.3924
  803MPD2    H111884   4.141   3.423  12.497 -3.9215 -0.4817 -3.1550
  803MPD2    H211885   4.224   3.512  12.090  1.5977  0.6649 -0.0364
  803MPD2    H311886   4.085   3.398  12.266  0.5938  0.1460  0.2707
  803MPD2     N11887   4.342   3.545  12.600  0.0656 -0.2329  0.5080
  803MPD2    H511888   4.268   3.523  12.666 -1.3176  0.5588 -0.7659
  803MPD2    N111889   4.449   3.653  12.136  0.0797  0.1205  0.1983
  803MPD2    H711890   4.528   3.705  12.173  1.8517 -1.2111 -1.6993
  804MPD2     C11891   4.438   0.482  17.160  0.6085  1.3450  0.7296
  804MPD2    C111892   4.406   0.452  17.290  0.2232  0.1276  0.2529
  804MPD2    C211893   4.445   0.537  17.395 -0.2129 -0.3137  0.7386
  804MPD2    C311894   4.539   0.640  17.367  0.2896  0.1332 -0.0801
  804MPD2    C411895   4.566   0.665  17.232 -0.3555  0.1209 -0.5294
  804MPD2    C511896   4.516   0.589  17.131  0.5436 -0.6951 -0.9277
  804MPD2     H11897   4.413   0.520  17.497 -1.6002  0.3755  0.4191
  804MPD2    H111898   4.640   0.738  17.200 -1.0988  1.0140 -0.2239
  804MPD2    H211899   4.405   0.427  17.072  1.7272 -0.1747  1.2620
  804MPD2    H311900   4.536   0.612  17.027  0.4428  1.3282 -0.5054
  804MPD2     N11901   4.590   0.713  17.477  0.1680 -0.2439 -0.4809
  804MPD2    H511902   4.560   0.687  17.570 -2.2540  1.1128 -0.8922
  804MPD2    N111903   4.336   0.331  17.328 -0.0752 -0.3372 -0.2884
  804MPD2    H711904   4.310   0.312  17.425  2.6850  0.1362  0.5280
  805MPD2     C11905   3.408   3.862  15.749 -0.4664 -0.3075 -0.0452
  805MPD2    C111906   3.477   3.831  15.634 -0.4276  0.7023 -0.5417
  805MPD2    C211907   3.613   3.809  15.640 -0.1186  1.1879 -0.0376
  805MPD2    C311908   3.681   3.819  15.761  0.1177  0.2075  0.1679
  805MPD2    C411909   3.606   3.854  15.878 -0.8925 -0.0572 -0.3766
  805MPD2    C511910   3.476   3.870  15.870 -0.3777  0.2691 -0.2904
  805MPD2     H11911   3.666   3.803  15.545 -0.2300 -0.2378 -0.0070
  805MPD2    H111912   3.652   3.869  15.975 -0.1421 -0.0900 -0.7273
  805MPD2    H211913   3.308   3.902  15.739 -0.5531 -0.8380 -1.2972
  805MPD2    H311914   3.424   3.889  15.963 -0.3662 -1.6238  0.1053
  805MPD2     N11915   3.813   3.772  15.761  0.8100  0.5526  0.1099
  805MPD2    H511916   3.852   3.741  15.673 -0.2929  1.8122 -0.8263
  805MPD2    N111917   3.426   3.836  15.500 -0.0719  0.6547  0.0805
  805MPD2    H711918   3.495   3.815  15.429  1.2106 -0.5301  1.6689
  806MPD2     C11919   3.906   2.807   0.435 -0.3808  0.2189 -0.6366
  806MPD2    C111920   3.981   2.908   0.481 -0.2638 -0.2888 -0.6678
  806MPD2    C211921   4.075   2.968   0.395 -0.6659  0.7112  0.7075
  806MPD2    C311922   4.093   2.923   0.265 -0.8441  0.2643  0.2132
  806MPD2    C411923   4.009   2.819   0.218  0.3939 -0.4002 -0.7722
  806MPD2    C511924   3.914   2.760   0.300 -0.4951  0.6354 -0.3399
  806MPD2     H11925   4.124   3.057   0.434 -1.5021  2.1953 -1.6045
  806MPD2    H111926   4.015   2.777   0.118  0.5671 -1.9452 -0.1184
  806MPD2    H211927   3.845   2.760   0.511  0.7556  0.4490  0.4149
  806MPD2    H311928   3.864   2.670   0.267 -0.7216  1.4596 -2.2563
  806MPD2     N11929   4.193   2.990   0.194 -0.1198  0.0700  0.2897
  806MPD2    H511930   4.251   3.061   0.238 -1.3169  0.2180  1.6487
  806MPD2    N111931   3.963   2.951   0.621 -0.5774 -0.8430 -0.7243
  806MPD2    H711932   3.885   2.914   0.673 -0.9481 -0.7804 -1.2364
  807MPD2     C11933   3.592   2.719   1.208 -0.0755  0.6418 -0.6949
  807MPD2    C111934   3.671   2.683   1.098 -0.0473  0.0273  0.7395
  807MPD2    C211935   3.662   2.554   1.054 -0.2779  0.6676 -0.7133
  807MPD2    C311936   3.587   2.456   1.120  0.7785 -0.9953  0.1863
  807MPD2    C411937   3.505   2.497   1.221 -1.0954  0.2756  0.6045
  807MPD2    C511938   3.520   2.624   1.268 -0.0344  0.6087 -0.0364
  807MPD2     H11939   3.727   2.526   0.973 -1.4512 -1.0824 -1.0535
  807MPD2    H111940   3.437   2.429   1.272 -0.0566 -0.3494  1.1573
  807MPD2    H211941   3.596   2.818   1.250  1.6447  0.7420 -1.0841
  807MPD2    H311942   3.463   2.664   1.350 -1.4011 -1.8300  0.2226
  807MPD2     N11943   3.613   2.325   1.089 -0.0676 -0.2590 -0.5764
  807MPD2    H511944   3.683   2.315   1.016 -1.0374 -1.1560 -1.3858
  807MPD2    N111945   3.759   2.771   1.027  0.5774 -0.2360  0.4374
  807MPD2    H711946   3.825   2.733   0.960 -0.2502 -1.6453  0.4302
  808MPD2     C11947   4.001   0.017  10.988  0.4528 -0.0693  0.2782
  808MPD2    C111948   3.947   0.041  10.865  0.2484 -0.5257 -0.8992
  808MPD2    C211949   4.012   0.142  10.799 -0.0985  0.0542 -0.7800
  808MPD2    C311950   4.123   0.210  10.849 -0.6131  0.2940  0.9628
  808MPD2    C411951   4.174   0.174  10.966  0.5278  0.1542  0.3116
  808MPD2    C511952   4.109   0.081  11.038 -0.5522 -0.3311 -0.5464
  808MPD2     H11953   3.978   0.173  10.700 -2.7890  1.8580  0.7148
  808MPD2    H111954   4.274   0.202  10.999  0.1610 -0.1437  1.6276
  808MPD2    H211955   3.964   4.685  11.063  0.3020  0.4463  0.6775
  808MPD2    H311956   4.151   0.050  11.133 -0.3092 -1.5527 -1.0551
  808MPD2     N11957   4.193   0.313  10.773  0.9104  0.0490 -0.0616
  808MPD2    H511958   4.271   0.351  10.826  0.9132  0.5877 -0.4506
  808MPD2    N111959   3.834   4.714  10.801  0.6323 -0.4555 -0.6056
  808MPD2    H711960   3.800   0.001  10.709  1.2394 -0.6129 -0.8696
  809MPD2     C11961   3.977   0.086   9.983  0.3667 -0.2449  0.1705
  809MPD2    C111962   4.098   0.145   9.944 -0.7650 -0.1271  0.4772
  809MPD2    C211963   4.182   0.200  10.043  0.1330 -0.1564 -0.2196
  809MPD2    C311964   4.135   0.216  10.168 -0.2106  0.4745  0.0570
  809MPD2    C411965   4.006   0.178  10.202  0.2198  0.0084  0.9556
  809MPD2    C511966   3.931   0.120  10.107  0.3187 -0.2803 -0.6397
  809MPD2     H11967   4.284   0.228  10.016  0.2236 -0.4633 -0.1929
  809MPD2    H111968   3.964   0.199  10.299 -3.1503 -1.4121 -0.2157
  809MPD2    H211969   3.917   0.021   9.920  1.1684 -2.3284  1.5509
  809MPD2    H311970   3.830   0.096  10.137  0.0668  0.9852 -0.4877
  809MPD2     N11971   4.202   0.274  10.272  0.2759  0.0804 -0.9259
  809MPD2    H511972   4.154   0.292  10.359  0.8276  0.5997 -0.7270
  809MPD2    N111973   4.155   0.132   9.819  0.6893  0.7697 -0.2959
  809MPD2    H711974   4.254   0.155   9.808  0.5894  1.7080  0.7862
  810MPD2     C11975   3.558   3.746  10.805  0.3401 -0.0288 -0.2992
  810MPD2    C111976   3.449   3.818  10.787  0.2051  0.1048  0.2240
  810MPD2    C211977   3.436   3.939  10.843  0.0034  0.1100 -0.0359
  810MPD2    C311978   3.546   3.998  10.897 -0.6166 -0.5566 -0.6200
  810MPD2    C411979   3.668   3.931  10.902  0.1789  0.4720 -0.0695
  810MPD2    C511980   3.668   3.804  10.867 -0.9423 -0.0887 -0.5197
  810MPD2     H11981   3.345   3.997  10.833  1.7982  3.0447  0.9466
  810MPD2    H111982   3.762   3.961  10.947  0.5465 -1.9715  0.7661
  810MPD2    H211983   3.564   3.647  10.760 -0.7286 -0.2805  0.1056
  810MPD2    H311984   3.757   3.743  10.873 -1.0043 -0.0690  0.6498
  810MPD2     N11985   3.528   4.129  10.944  0.2950 -0.1762 -0.1513
  810MPD2    H511986   3.437   4.169  10.924  0.6062  0.8775  0.5506
  810MPD2    N111987   3.347   3.772  10.696 -0.0604  0.8261 -0.6249
  810MPD2    H711988   3.363   3.686  10.645 -1.1529 -0.5059  1.2782
  811MPD2     C11989   2.714   3.999  10.031 -0.9454  0.1344 -0.5230
  811MPD2    C111990   2.816   4.028  10.113 -0.7652 -1.1777 -0.4191
  811MPD2    C211991   2.857   4.162  10.100 -0.0756  0.0716  0.5501
  811MPD2    C311992   2.793   4.248  10.014  0.0308 -0.4058  0.2111
  811MPD2    C411993   2.679   4.213   9.947 -0.8478 -0.2658 -0.2964
  811MPD2    C511994   2.645   4.081   9.947 -0.1989 -0.2111  0.4889
  811MPD2     H11995   2.947   4.191  10.152  1.8669  1.4135 -3.5844
  811MPD2    H111996   2.624   4.283   9.885  1.7646  0.4262 -1.8182
  811MPD2    H211997   2.687   3.894  10.021 -2.5166  0.5981 -1.2272
  811MPD2    H311998   2.563   4.048   9.883 -0.3133 -0.3983  0.7310
  811MPD2     N11999   2.835   4.378   9.997  0.3385  0.2853  0.2011
  811MPD2    H512000   2.901   4.409  10.068 -0.2766 -2.3437  1.9495
  811MPD2    N112001   2.877   3.928  10.196 -0.5531 -0.2095 -0.9352
  811MPD2    H712002   2.834   3.836  10.194 -2.8063  0.8114 -0.0512
  812MPD2     C12003   1.938   3.720  12.191 -0.2161  0.7575 -0.1347
  812MPD2    C112004   2.057   3.791  12.201  0.2748 -0.5724 -0.1271
  812MPD2    C212005   2.146   3.754  12.306  0.0114  0.5149  0.2695
  812MPD2    C312006   2.109   3.657  12.404 -0.3861 -0.0701  0.0851
  812MPD2    C412007   1.980   3.610  12.405  0.6333  0.3908  0.1227
  812MPD2    C512008   1.908   3.633  12.290  0.3431 -0.7643  0.3255
  812MPD2     H12009   2.243   3.801  12.315  0.3778 -0.2131  0.0467
  812MPD2    H112010   1.942   3.528  12.464  0.9417 -0.8353 -1.3970
  812MPD2    H212011   1.864   3.753  12.119 -0.4961  1.0247  0.2705
  812MPD2    H312012   1.814   3.578  12.278  0.1013 -0.1136 -0.7414
  812MPD2     N12013   2.201   3.627  12.510 -0.2533 -0.4243 -0.6193
  812MPD2    H512014   2.292   3.670  12.496 -0.2424 -0.3733 -0.3937
  812MPD2    N112015   2.077   3.898  12.111  0.3422 -0.4329 -0.3151
  812MPD2    H712016   1.998   3.927  12.055  0.2041  0.0967  0.1616
  813MPD2     C12017   1.912   1.205  13.772 -0.3752  0.2849 -0.1318
  813MPD2    C112018   1.842   1.223  13.656 -0.1490  0.2720  0.2656
  813MPD2    C212019   1.728   1.304  13.654 -0.2417  0.2881  0.4238
  813MPD2    C312020   1.683   1.370  13.759 -0.6219 -0.1790 -0.1467
  813MPD2    C412021   1.753   1.353  13.883 -0.0285 -0.1312 -0.1849
  813MPD2    C512022   1.861   1.264  13.884  0.4958 -0.3969 -0.1570
  813MPD2     H12023   1.677   1.321  13.560  2.3526  0.4225 -0.9582
  813MPD2    H112024   1.734   1.406  13.976  0.7097 -1.5012  0.7604
  813MPD2    H212025   2.003   1.146  13.781 -0.5771 -0.0328 -0.1578
  813MPD2    H312026   1.926   1.256  13.970 -2.2944 -1.1437  1.8894
  813MPD2     N12027   1.562   1.444  13.740  0.3120  0.1760  0.1603
  813MPD2    H512028   1.526   1.449  13.645  1.2760 -0.7802 -0.2449
  813MPD2    N112029   1.892   1.159  13.536 -0.4510  0.6617  0.0902
  813MPD2    H712030   1.970   1.098  13.555 -1.1818  0.1724  1.5042
  814MPD2     C12031   1.900   2.113  12.910 -0.3254 -0.0229 -0.2272
  814MPD2    C112032   2.028   2.122  12.872 -0.1315  0.5882 -0.1070
  814MPD2    C212033   2.084   2.248  12.884 -0.3834  0.0437 -0.2654
  814MPD2    C312034   2.008   2.367  12.894  0.0824  0.7530  0.2144
  814MPD2    C412035   1.873   2.351  12.910  0.2141  0.8132  0.6403
  814MPD2    C512036   1.822   2.226  12.913 -0.4592 -0.0760 -0.3039
  814MPD2     H12037   2.191   2.242  12.863 -0.5007 -1.8196 -0.3469
  814MPD2    H112038   1.807   2.437  12.912  0.4703  1.0452 -0.3995
  814MPD2    H212039   1.851   2.020  12.936 -0.2851 -0.1437 -0.5962
  814MPD2    H312040   1.716   2.217  12.933 -0.7617  3.4099 -0.3966
  814MPD2     N12041   2.062   2.497  12.889 -0.0291 -0.7984  0.6316
  814MPD2    H512042   1.999   2.576  12.875  1.8189  0.1993 -2.0964
  814MPD2    N112043   2.102   2.013  12.825 -0.3895  0.7889 -0.2582
  814MPD2    H712044   2.200   2.026  12.803  0.2596 -0.5940  1.8182
  815MPD2     C12045   2.952   0.680  12.232  0.2975  0.0258 -0.3395
  815MPD2    C112046   2.888   0.558  12.219  0.1893 -0.1556  0.4010
  815MPD2    C212047   2.811   0.518  12.332 -0.5807  0.1603 -0.4198
  815MPD2    C312048   2.790   0.606  12.438  0.2505  0.3597  0.2685
  815MPD2    C412049   2.865   0.717  12.452  0.5924 -0.3374 -0.1552
  815MPD2    C512050   2.954   0.746  12.352 -0.7463  0.6841  0.3037
  815MPD2     H12051   2.753   0.427  12.335 -0.0862 -0.1057  1.0983
  815MPD2    H112052   2.865   0.777  12.542  0.8032 -1.5206  0.6394
  815MPD2    H212053   2.999   0.729  12.148 -0.2979 -0.5208 -0.9824
  815MPD2    H312054   3.012   0.836  12.368 -1.3719  1.4208 -1.5807
  815MPD2     N12055   2.698   0.560  12.541 -0.2170  0.2326  0.1122
  815MPD2    H512056   2.653   0.472  12.518  0.5662 -0.2807  0.5346
  815MPD2    N112057   2.891   0.477  12.105  0.6309 -0.8335 -0.5207
  815MPD2    H712058   2.929   0.513  12.018 -1.5903  2.6511 -0.0252
  816MPD2     C12059   2.640   0.127  17.317 -0.2421 -0.5556 -0.4359
  816MPD2    C112060   2.748   0.201  17.366 -1.1616 -0.5982 -0.1761
  816MPD2    C212061   2.873   0.139  17.376  0.2982  0.1714 -0.2807
  816MPD2    C312062   2.886   0.017  17.344 -0.4674 -0.7148 -0.5636
  816MPD2    C412063   2.781   4.672  17.302  0.3764  0.0439  0.0946
  816MPD2    C512064   2.661   4.727  17.290 -0.0076  0.4550  0.6849
  816MPD2     H12065   2.959   0.198  17.405  0.2929 -0.1123  0.3099
  816MPD2    H112066   2.793   4.568  17.274 -2.3216 -0.1274 -0.3674
  816MPD2    H212067   2.545   0.175  17.296  0.4983  1.4403  0.8240
  816MPD2    H312068   2.595   4.671  17.225  1.3773  1.7236 -1.8141
  816MPD2     N12069   3.020   4.702  17.357 -0.5958 -0.0395  0.3970
  816MPD2    H512070   3.087   0.038  17.376 -0.0688 -0.1776 -0.9728
  816MPD2    N112071   2.731   0.340  17.405  0.3335  0.1295 -0.7169
  816MPD2    H712072   2.635   0.369  17.400 -0.0611 -0.8175  1.3550
  817MPD2     C12073   1.796   1.534  10.225 -0.3247  0.0218 -0.8743
  817MPD2    C112074   1.908   1.557  10.150 -0.6016  0.4552 -0.6568
  817MPD2    C212075   1.935   1.683  10.097  0.4865 -0.1490 -0.3001
  817MPD2    C312076   1.861   1.788  10.147 -0.0974 -0.1889  1.0607
  817MPD2    C412077   1.754   1.771  10.235  0.1796  0.2351  0.4051
  817MPD2    C512078   1.714   1.641  10.261  0.0042  0.0209  0.2404
  817MPD2     H12079   2.026   1.706  10.042  1.3123 -0.9558  0.7285
  817MPD2    H112080   1.688   1.846  10.276  0.3150  1.1176 -0.9988
  817MPD2    H212081   1.778   1.434  10.261 -0.5578 -0.1804 -1.5576
  817MPD2    H312082   1.632   1.630  10.332  0.1387  0.8696  0.5347
  817MPD2     N12083   1.898   1.920  10.109 -0.2438 -0.6534  0.0096
  817MPD2    H512084   1.988   1.921  10.063 -0.7227  0.0937 -0.9056
  817MPD2    N112085   1.984   1.445  10.106 -0.5174 -0.1573  0.1304
  817MPD2    H712086   2.046   1.467  10.029  0.0868 -2.7905 -0.1094
  818MPD2     C12087   1.434   0.857  10.139  0.7007 -0.5720 -0.2493
  818MPD2    C112088   1.304   0.823  10.179 -0.0314  0.5133  0.7763
  818MPD2    C212089   1.239   0.714  10.119  0.1899 -0.5571 -0.1469
  818MPD2    C312090   1.290   0.664   9.999  0.5434 -0.0634  0.5648
  818MPD2    C412091   1.413   0.702   9.958 -0.0641  0.3890 -0.2684
  818MPD2    C512092   1.486   0.786  10.031 -0.4064 -0.3130  0.0276
  818MPD2     H12093   1.149   0.667  10.158  0.6610 -0.0189  1.5478
  818MPD2    H112094   1.455   0.657   9.869  1.0623  0.0323  0.4438
  818MPD2    H212095   1.494   0.932  10.189  1.7884 -1.0084 -0.9273
  818MPD2    H312096   1.583   0.822   9.999  0.2166 -1.2953  0.8142
  818MPD2     N12097   1.225   0.560   9.925  0.0566 -0.2733  0.3246
  818MPD2    H512098   1.274   0.520   9.846  2.3443  3.7959 -0.2957
  818MPD2    N112099   1.231   0.890  10.276 -0.3379  0.3728 -0.5794
  818MPD2    H712100   1.137   0.859  10.298  0.1524 -0.4124  0.3964
  819MPD2     C12101   4.459   3.276  15.438 -0.0456  1.0983 -0.3855
  819MPD2    C112102   4.384   3.196  15.522 -0.1370 -0.0551 -0.1997
  819MPD2    C212103   4.433   3.150  15.641 -0.2569  0.1406  0.9828
  819MPD2    C312104   4.557   3.196  15.682 -0.3525 -0.1302 -0.2652
  819MPD2    C412105   4.637   3.273  15.593 -0.4941  0.4154 -0.3216
  819MPD2    C512106   4.586   3.312  15.471 -0.1330 -0.1922 -0.0475
  819MPD2     H12107   4.365   3.081  15.689 -0.6510 -1.4274 -1.8427
  819MPD2    H112108   0.003   3.301  15.611 -0.9169  0.4661  1.9872
  819MPD2    H212109   4.425   3.289  15.335 -1.6949 -1.3319 -0.1607
  819MPD2    H312110   4.645   3.362  15.395 -1.5322 -0.8874 -1.5815
  819MPD2     N12111   4.603   3.155  15.816 -0.1270 -0.1566 -0.1719
  819MPD2    H512112   4.536   3.113  15.879 -0.6685  1.1400  0.1195
  819MPD2    N112113   4.257   3.162  15.478  0.3843  0.4015 -0.6923
  819MPD2    H712114   4.218   3.222  15.406  1.4229  2.2910  0.3145
  820MPD2     C12115   3.236   3.126  15.281 -0.1035  0.7252 -0.4824
  820MPD2    C112116   3.328   3.223  15.294 -0.1943  0.2677 -0.0614
  820MPD2    C212117   3.458   3.194  15.325 -0.1293  0.3766  0.0358
  820MPD2    C312118   3.490   3.061  15.346 -0.3979  0.3724  0.2197
  820MPD2    C412119   3.400   2.962  15.314 -0.0861 -0.2657  0.0015
  820MPD2    C512120   3.272   2.995  15.285 -0.1901 -0.2507  0.4648
  820MPD2     H12121   3.535   3.269  15.336  0.2046  0.0316  0.0379
  820MPD2    H112122   3.426   2.857  15.319 -0.6220 -0.4511 -1.4190
  820MPD2    H212123   3.134   3.145  15.249 -1.1334 -0.5495  2.0578
  820MPD2    H312124   3.209   2.919  15.240 -1.4442  0.4380  1.0322
  820MPD2     N12125   3.621   3.020  15.383 -0.1404 -0.2670 -0.1474
  820MPD2    H512126   3.640   2.921  15.370  1.7599  0.1836 -0.7315
  820MPD2    N112127   3.287   3.354  15.253 -0.1509  0.0334  0.3559
  820MPD2    H712128   3.197   3.368  15.210 -0.3907  0.1654  0.9041
  821MPD2     C12129   4.412   4.237  13.327  0.6028  0.0457  0.0240
  821MPD2    C112130   4.516   4.216  13.417  0.6109  0.2417  0.0306
  821MPD2    C212131   4.641   4.270  13.396 -0.0697 -0.0470 -0.6854
  821MPD2    C312132   4.661   4.351  13.286 -0.3687 -0.2504  0.3875
  821MPD2    C412133   4.555   4.383  13.208  0.1933  0.2030  0.1610
  821MPD2    C512134   4.435   4.322  13.223 -0.1985 -0.7691 -0.1256
  821MPD2     H12135   4.719   4.250  13.470  0.8343  2.6973 -0.8900
  821MPD2    H112136   4.564   4.452  13.126  3.4985  0.0836  0.4204
  821MPD2    H212137   4.318   4.188  13.349  1.8792 -1.0848  2.9592
  821MPD2    H312138   4.358   4.360  13.158  1.0360  1.3039 -0.4071
  821MPD2     N12139   0.049   4.412  13.250  0.2059 -0.1112 -0.1843
  821MPD2    H512140   0.043   4.466  13.164  0.9571 -0.3219 -0.3690
  821MPD2    N112141   4.513   4.121  13.519 -0.2140  0.5571 -1.4390
  821MPD2    H712142   4.607   4.120  13.558 -0.7003  0.3576 -0.2858
  822MPD2     C12143   0.426   4.688  15.972 -0.0916  0.0476  0.2732
  822MPD2    C112144   0.421   4.654  16.104  0.3922  0.7513 -0.3389
  822MPD2    C212145   0.330   4.718  16.186 -0.3960  0.2889  0.1901
  822MPD2    C312146   0.257   0.085  16.137  0.4281  0.2109  0.2459
  822MPD2    C412147   0.269   0.123  15.999 -0.3765  0.1190  0.5850
  822MPD2    C512148   0.347   0.045  15.913  0.3594  0.1841 -0.3116
  822MPD2     H12149   0.320   4.690  16.290  0.4228 -0.0762  0.1662
  822MPD2    H112150   0.221   0.210  15.955  0.1565 -0.3766 -0.9530
  822MPD2    H212151   0.493   4.636  15.905  0.2781  0.0101  0.6670
  822MPD2    H312152   0.348   0.060  15.805  0.5354 -1.4756 -0.5441
  822MPD2     N12153   0.181   0.150  16.226 -0.3865  0.7219  0.3660
  822MPD2    H512154   0.175   0.113  16.321  0.6326  0.8052  0.4568
  822MPD2    N112155   0.510   4.566  16.167  0.0938 -0.5818  0.0447
  822MPD2    H712156   0.492   4.555  16.267 -0.8646 -3.9581 -0.5065
  823MPD2     C12157   4.657   0.268  16.999 -0.0227 -0.1853 -0.1864
  823MPD2    C112158   4.714   0.192  16.898  0.3362  0.4859  0.5217
  823MPD2    C212159   0.016   0.059  16.930 -0.5054  0.2026 -0.0246
  823MPD2    C312160   0.003   0.003  17.059 -0.1812 -0.4195  0.5872
  823MPD2    C412161   4.668   0.083  17.145  0.1955 -0.6048 -0.3439
  823MPD2    C512162   4.634   0.216  17.123 -0.6610  0.8148 -0.1951
  823MPD2     H12163   0.060   4.721  16.866  0.1263  1.1410 -0.6913
  823MPD2    H112164   4.655   0.033  17.241 -1.6300  1.2363  0.3513
  823MPD2    H212165   4.614   0.364  16.969  0.5238  0.0939 -0.0764
  823MPD2    H312166   4.598   0.270  17.209  2.9154  0.2072  1.6632
  823MPD2     N12167   0.057   4.620  17.103  0.2273 -0.3161  0.8136
  823MPD2    H512168   0.067   4.606  17.203  0.4426  2.3432  1.1578
  823MPD2    N112169   0.002   0.267  16.782  0.4788  0.4930 -0.8274
  823MPD2    H712170   4.720   0.367  16.791 -1.7845  0.0677 -1.1133
  824MPD2     C12171   0.898   3.815  16.169 -0.2622 -0.0525  0.3999
  824MPD2    C112172   0.933   3.928  16.105  0.3987  0.0411 -0.6902
  824MPD2    C212173   1.012   3.924  15.993 -0.1055  0.2739  0.1276
  824MPD2    C312174   1.063   3.807  15.950 -0.5848 -0.9106  0.2155
  824MPD2    C412175   1.025   3.692  16.014  0.0045 -0.7184  1.3573
  824MPD2    C512176   0.948   3.691  16.127 -0.3161  0.2175 -0.0282
  824MPD2     H12177   1.028   4.019  15.943  1.0283 -0.8177 -1.5742
  824MPD2    H112178   1.060   3.596  15.977  2.3444  0.4958  0.4446
  824MPD2    H212179   0.821   3.817  16.245  2.2407  2.4082  2.8992
  824MPD2    H312180   0.922   3.606  16.190  0.6629  0.1278  0.2604
  824MPD2     N12181   1.149   3.780  15.839 -1.0523 -0.3331 -0.7435
  824MPD2    H512182   1.187   3.686  15.841 -0.7192 -0.1848 -0.0077
  824MPD2    N112183   0.879   4.054  16.147  0.2082  0.1314 -0.7162
  824MPD2    H712184   0.887   4.134  16.085  0.1262  1.1147  0.5542
  825MPD2     C12185   1.590   3.832  15.046 -0.0438  0.3437  0.2530
  825MPD2    C112186   1.579   3.918  15.148  0.6260 -0.0947 -0.7419
  825MPD2    C212187   1.619   4.052  15.131 -0.3375 -0.6205 -0.1395
  825MPD2    C312188   1.671   4.096  15.004  0.6135  0.0138 -0.5734
  825MPD2    C412189   1.669   4.006  14.899  0.5000  0.2792  0.5098
  825MPD2    C512190   1.634   3.880  14.924  0.5666 -0.6176  0.0277
  825MPD2     H12191   1.638   4.115  15.217 -0.2976 -1.3628  0.3985
  825MPD2    H112192   1.719   4.029  14.806  1.3478  0.2637  0.9575
  825MPD2    H212193   1.566   3.727  15.057  1.3212 -0.0162 -0.1993
  825MPD2    H312194   1.633   3.812  14.840  0.0794  0.4149 -0.8040
  825MPD2     N12195   1.708   4.232  14.979 -0.2870 -0.2484  0.2434
  825MPD2    H512196   1.722   4.246  14.880  0.4437 -0.2394  0.3478
  825MPD2    N112197   1.528   3.860  15.268  1.1268 -0.3382 -0.1237
  825MPD2    H712198   1.506   3.761  15.268  0.0340 -0.0941  0.3222
  826MPD2     C12199   0.282   3.799  13.303  0.7684 -0.5102  0.3970
  826MPD2    C112200   0.307   3.779  13.440 -0.2135 -0.0213 -0.3763
  826MPD2    C212201   0.266   3.875  13.530 -0.0290  0.0868  0.2293
  826MPD2    C312202   0.222   3.996  13.487 -0.1135  0.0329  0.3767
  826MPD2    C412203   0.201   4.015  13.355  0.7376  0.2157 -0.2641
  826MPD2    C512204   0.226   3.917  13.263 -0.0296  0.1307  0.3875
  826MPD2     H12205   0.280   3.851  13.635  0.6080  1.1853  0.3932
  826MPD2    H112206   0.161   4.110  13.321 -0.4217 -1.1993 -2.8513
  826MPD2    H212207   0.317   3.727  13.230 -0.3473  0.7811 -1.4286
  826MPD2    H312208   0.216   3.936  13.157 -1.1428  1.3480  0.7140
  826MPD2     N12209   0.197   4.102  13.576 -0.3137 -0.0536 -0.7271
  826MPD2    H512210   0.189   4.195  13.536 -0.3170  0.3542  0.2322
  826MPD2    N112211   0.370   3.655  13.482  0.6965  0.2742 -0.1244
  826MPD2    H712212   0.384   3.581  13.414  1.6251  1.2055 -0.9348
  827MPD2     C12213   2.047   0.421   9.987 -0.5887 -0.0843  0.1371
  827MPD2    C112214   1.977   0.351  10.083 -1.1149  0.0466  0.0508
  827MPD2    C212215   1.883   0.256  10.040  0.7503  0.1622 -0.2786
  827MPD2    C312216   1.867   0.230   9.906 -0.1656  0.1378  0.5860
  827MPD2    C412217   1.931   0.312   9.814 -0.7282  0.0525  0.1278
  827MPD2    C512218   2.019   0.404   9.858  0.0681  0.4774  0.4765
  827MPD2     H12219   1.825   0.202  10.114 -0.8233 -0.2686 -1.8365
  827MPD2    H112220   1.900   0.310   9.710 -0.5589  0.6830  0.0706
  827MPD2    H212221   2.128   0.486  10.017 -0.1963 -0.3930 -0.2607
  827MPD2    H312222   2.080   0.457   9.785 -0.2322  0.6174  0.3294
  827MPD2     N12223   1.783   0.124   9.870  0.0859  0.4443  0.2846
  827MPD2    H512224   1.731   0.081   9.945  1.4952 -1.2649  0.2815
  827MPD2    N112225   2.003   0.383  10.217 -0.2786 -0.1455 -0.0752
  827MPD2    H712226   2.067   0.459  10.238 -1.2932  1.3846 -2.5643
  828MPD2     C12227   0.041   4.735  12.558  0.0057 -0.3960  0.0286
  828MPD2    C112228   4.667   0.064  12.494 -0.3630  0.5829 -0.1408
  828MPD2    C212229   4.670   0.085  12.357  0.0326  0.6599 -0.1042
  828MPD2    C312230   0.043   0.046  12.286 -0.1632  0.2554 -0.1797
  828MPD2    C412231   0.149   4.717  12.349 -0.1968  0.2734  0.2670
  828MPD2    C512232   0.145   4.687  12.479 -0.2044  0.4209 -0.1689
  828MPD2     H12233   4.582   0.125  12.308 -1.5615  1.1493  3.1505
  828MPD2    H112234   0.236   4.695  12.288 -0.4937 -0.0306 -0.0470
  828MPD2    H212235   0.054   4.736  12.666 -2.3555  1.6521  0.3000
  828MPD2    H312236   0.228   4.637  12.526  0.2117  0.6040 -0.7070
  828MPD2     N12237   0.065   0.055  12.150  0.1946 -0.4867  0.2921
  828MPD2    H512238   0.148   0.008  12.114  0.4817  0.1585  0.1084
  828MPD2    N112239   4.554   0.110  12.562  0.1404  0.8264  0.3721
  828MPD2    H712240   4.477   0.145  12.506 -1.1591 -1.2267  0.8543
  829MPD2     C12241   3.981   0.605  12.211  0.2760  0.1311  0.1058
  829MPD2    C112242   3.911   0.592  12.332  0.0668  0.1028 -0.5615
  829MPD2    C212243   3.975   0.537  12.438 -0.2747  0.4476  0.6795
  829MPD2    C312244   4.108   0.499  12.427 -0.2637  0.3601 -0.1594
  829MPD2    C412245   4.183   0.520  12.310  0.3761 -0.3656 -0.2281
  829MPD2    C512246   4.115   0.577  12.205  0.4479 -0.7303 -0.3247
  829MPD2     H12247   3.926   0.523  12.534 -0.4623  0.7008  0.6203
  829MPD2    H112248   4.289   0.501  12.306  0.2425 -1.3390  0.7719
  829MPD2    H212249   3.929   0.641  12.124 -0.9983 -1.0383  0.3835
  829MPD2    H312250   4.168   0.603  12.114  0.3939  0.5943  0.0241
  829MPD2     N12251   4.174   0.422  12.527 -0.2421 -0.4552  0.2903
  829MPD2    H512252   4.272   0.403  12.514 -0.6020 -1.7129 -0.5500
  829MPD2    N112253   3.779   0.632  12.326 -0.0407  0.4686  0.2624
  829MPD2    H712254   3.752   0.663  12.233  1.2272  0.8191  0.0099
  830MPD2     C12255   0.287   2.664  16.224  0.2093 -0.5283 -0.0504
  830MPD2    C112256   0.195   2.742  16.161  0.1725  0.6409 -0.7100
  830MPD2    C212257   0.233   2.817  16.046 -0.1929 -0.2732 -0.6785
  830MPD2    C312258   0.363   2.812  16.000 -0.3318  0.3245  0.0883
  830MPD2    C412259   0.449   2.735  16.073  0.1265  0.3227 -0.0653
  830MPD2    C512260   0.411   2.656  16.174 -0.3464  0.1454  0.4777
  830MPD2     H12261   0.157   2.866  15.987 -0.3887  0.1366 -0.0920
  830MPD2    H112262   0.554   2.731  16.047  0.0879 -2.9048  0.2209
  830MPD2    H212263   0.268   2.585  16.296  0.7292 -0.9553 -0.3860
  830MPD2    H312264   0.479   2.602  16.239 -1.5941 -3.9998 -1.6801
  830MPD2     N12265   0.411   2.867  15.873  0.3292  0.1941 -0.2012
  830MPD2    H512266   0.503   2.846  15.834  0.3031 -0.0859 -0.1083
  830MPD2    N112267   0.068   2.747  16.214 -0.5664 -0.3845 -0.1016
  830MPD2    H712268   0.044   2.688  16.293  0.4182 -1.0710 -0.3094
  831MPD2     C12269   0.430   0.232  16.640  0.1060  0.1851 -0.0949
  831MPD2    C112270   0.484   0.156  16.541 -0.3026 -0.6561  0.0284
  831MPD2    C212271   0.458   0.019  16.527 -0.4581 -0.4407 -0.2828
  831MPD2    C312272   0.370   4.708  16.623 -0.2043 -0.8778 -0.5907
  831MPD2    C412273   0.340   0.043  16.737 -0.0832  0.4318  0.4274
  831MPD2    C512274   0.352   0.178  16.739 -0.6773 -0.3206 -0.3315
  831MPD2     H12275   0.475   4.706  16.433  0.8781  0.2142 -0.3927
  831MPD2    H112276   0.279   0.002  16.816 -1.3074  0.8176 -0.3045
  831MPD2    H212277   0.444   0.339  16.649  0.7297  0.1154 -0.2453
  831MPD2    H312278   0.313   0.234  16.823  2.0742  2.6476 -1.0351
  831MPD2     N12279   0.311   4.580  16.612  0.3414 -0.1898  0.4890
  831MPD2    H512280   0.264   4.555  16.698  0.4848 -0.5483  0.4604
  831MPD2    N112281   0.560   0.222  16.446 -0.5823  0.3078 -0.1226
  831MPD2    H712282   0.559   0.323  16.454  1.8323  0.4037 -1.0786
  832MPD2     C12283   3.590   1.109   0.025 -0.7502  1.2389  0.0307
  832MPD2    C112284   3.604   1.232  17.703  0.8714 -0.3233 -0.3762
  832MPD2    C212285   3.507   1.271  17.607  0.5413 -0.0715  0.1913
  832MPD2    C312286   3.394   1.197  17.592 -0.3956 -0.0086 -0.4218
  832MPD2    C412287   3.385   1.083  17.659 -0.1918  0.6065 -0.2214
  832MPD2    C512288   3.483   1.033  17.741  0.3158  0.3819 -0.4811
  832MPD2     H12289   3.513   1.367  17.558  0.0042 -0.0176  0.2317
  832MPD2    H112290   3.300   1.018  17.647 -1.4105  2.0655  0.5235
  832MPD2    H212291   3.671   1.063   0.081  1.0179  3.4305 -0.7358
  832MPD2    H312292   3.476   0.937   0.045 -1.6179  1.3337  1.0544
  832MPD2     N12293   3.306   1.211  17.486  0.4808  0.0985 -0.8494
  832MPD2    H512294   3.245   1.131  17.473 -1.0518  1.2576 -0.7602
  832MPD2    N112295   3.729   1.296  17.721 -0.2201  0.2337  0.7407
  832MPD2    H712296   3.788   1.264   0.051  0.0099 -0.6064  0.2106
  833MPD2     C12297   0.295   2.475  12.566  0.4064 -0.1111 -0.0371
  833MPD2    C112298   0.268   2.567  12.472  0.0300 -0.0957 -1.0873
  833MPD2    C212299   0.334   2.564  12.350  1.0543  0.9459 -0.2777
  833MPD2    C312300   0.414   2.458  12.313  0.0445  0.2825  0.3490
  833MPD2    C412301   0.438   2.361  12.411  0.2090  0.7696  0.4322
  833MPD2    C512302   0.376   2.371  12.532 -0.3659 -0.3489 -0.0219
  833MPD2     H12303   0.309   2.646  12.284 -0.6613 -0.5330 -1.4605
  833MPD2    H112304   0.510   2.285  12.386 -1.6085 -0.9915  0.5736
  833MPD2    H212305   0.255   2.473  12.667  0.3290 -2.0833 -0.1033
  833MPD2    H312306   0.396   2.306  12.617  0.2190  0.7571  0.6923
  833MPD2     N12307   0.478   2.439  12.187  0.3757  0.2536 -0.3601
  833MPD2    H512308   0.548   2.368  12.168  0.4745  0.1507  0.3845
  833MPD2    N112309   0.164   2.660  12.493  0.3486 -0.6737  0.3335
  833MPD2    H712310   0.118   2.645  12.582  0.6536  0.2868  0.6560
  834MPD2     C12311   0.600   1.724  11.511  0.3708 -0.2463  0.3262
  834MPD2    C112312   0.516   1.806  11.440  0.0888  0.7018 -0.5452
  834MPD2    C212313   0.498   1.937  11.481 -0.0162  0.2709 -0.2774
  834MPD2    C312314   0.566   1.987  11.592 -0.2120 -0.0756  0.2618
  834MPD2    C412315   0.650   1.907  11.657  0.0145  0.0032 -0.8958
  834MPD2    C512316   0.670   1.774  11.620  0.4571  0.4498 -0.2722
  834MPD2     H12317   0.417   1.992  11.434 -3.1450 -1.6461  2.9242
  834MPD2    H112318   0.707   1.933  11.746 -0.5095 -0.1518 -0.5160
  834MPD2    H212319   0.614   1.620  11.482  1.7583  0.1369 -0.3836
  834MPD2    H312320   0.739   1.711  11.674 -0.7129 -2.0276 -1.6801
  834MPD2     N12321   0.525   2.114  11.648 -0.2034 -0.0056 -0.1940
  834MPD2    H512322   0.446   2.159  11.603 -0.2412 -1.3145 -1.4252
  834MPD2    N112323   0.444   1.749  11.336  0.1248 -0.0201  0.9478
  834MPD2    H712324   0.445   1.648  11.323  0.9524  0.1801 -0.5504
  835MPD2     C12325   0.422   4.595  11.091 -0.0144 -0.2076 -0.5844
  835MPD2    C112326   0.398   4.721  11.144  0.1821  0.3435 -0.0763
  835MPD2    C212327   0.502   0.038  11.223  0.4715  1.1256 -0.1056
  835MPD2    C312328   0.612   4.703  11.243  0.3687  0.2793 -0.4688
  835MPD2    C412329   0.632   4.584  11.183 -1.0306 -0.2099 -0.3777
  835MPD2    C512330   0.534   4.521  11.119 -0.8830 -0.3505  0.1199
  835MPD2     H12331   0.489   0.133  11.273 -0.1453  1.3810 -0.7552
  835MPD2    H112332   0.712   4.518  11.213 -0.1059  0.8324 -0.5495
  835MPD2    H212333   0.336   4.548  11.044 -0.8597  0.4855  0.2572
  835MPD2    H312334   0.542   4.419  11.082  1.3546 -0.6958  1.5765
  835MPD2     N12335   0.717   0.001  11.325 -0.2498  0.0976  0.2697
  835MPD2    H512336   0.782   4.662  11.343  1.7551  1.4503 -1.2973
  835MPD2    N112337   0.272   0.046  11.126  0.1550  0.6284  0.2549
  835MPD2    H712338   0.201   4.719  11.094  2.7048 -2.5921  1.0330
  836MPD2     C12339   0.378   0.363  11.691  0.8668 -0.1665 -0.3586
  836MPD2    C112340   0.433   0.288  11.795 -0.0831 -0.2862 -0.2468
  836MPD2    C212341   0.369   0.285  11.914 -0.5724 -0.9897 -1.0162
  836MPD2    C312342   0.274   0.385  11.935 -0.1828 -0.7392  0.3197
  836MPD2    C412343   0.225   0.464  11.839  0.6184  0.3248  0.5323
  836MPD2    C512344   0.279   0.455  11.714  0.0446 -0.2797  0.0332
  836MPD2     H12345   0.405   0.210  11.984  1.8546  0.4964 -0.6636
  836MPD2    H112346   0.169   0.553  11.865 -1.3906 -1.0953  1.0735
  836MPD2    H212347   0.430   0.376  11.596  0.0674 -3.3098 -1.2299
  836MPD2    H312348   0.267   0.538  11.646 -0.4594  0.1446  0.6420
  836MPD2     N12349   0.214   0.414  12.064 -0.4208 -0.1461 -0.1346
  836MPD2    H512350   0.127   0.465  12.069  0.1846  0.6506  2.2076
  836MPD2    N112351   0.549   0.214  11.762 -0.3668  0.2600  0.2622
  836MPD2    H712352   0.584   0.226  11.668  1.9114  1.2484  1.2293
  837MPD2     C12353   3.047   0.265  10.366  0.0770  0.5429 -0.7247
  837MPD2    C112354   2.973   0.297  10.254  0.4373  0.2182 -0.0874
  837MPD2    C212355   2.928   0.420  10.239  0.5059 -0.0894  0.0637
  837MPD2    C312356   2.967   0.530  10.314  0.9520 -1.2269  0.6617
  837MPD2    C412357   3.066   0.500  10.404 -0.0149  0.4026 -0.1474
  837MPD2    C512358   3.096   0.369  10.434  0.1302 -1.0366  0.6071
  837MPD2     H12359   2.853   0.432  10.162  0.5693  0.1116  0.0306
  837MPD2    H112360   3.115   0.572  10.468  1.7825 -2.2934  1.5404
  837MPD2    H212361   3.097   0.169  10.378  0.4285  0.8167 -0.0132
  837MPD2    H312362   3.174   0.355  10.508  0.7888  1.0737  0.3286
  837MPD2     N12363   2.914   0.654  10.272 -0.0439 -0.3570 -0.4730
  837MPD2    H512364   2.866   0.660  10.183 -0.4720  0.8670 -0.1664
  837MPD2    N112365   2.943   0.202  10.151  0.2312 -0.1212  0.7629
  837MPD2    H712366   2.897   0.237  10.068  1.9899  0.0637 -0.1319
  838MPD2     C12367   2.532   3.166  11.938 -0.1334  0.5882 -0.2231
  838MPD2    C112368   2.431   3.075  11.948  0.4372  0.1067  0.3846
  838MPD2    C212369   2.352   3.070  12.056 -0.2453 -0.2631  0.0659
  838MPD2    C312370   2.368   3.149  12.164 -0.0758  0.6207  0.6654
  838MPD2    C412371   2.484   3.229  12.174 -0.2204  0.1407 -0.0409
  838MPD2    C512372   2.560   3.239  12.059 -0.2653  0.3196 -0.5279
  838MPD2     H12373   2.264   3.007  12.058 -1.0479  0.6695 -4.4325
  838MPD2    H112374   2.509   3.297  12.254 -1.9864 -0.5177  1.0689
  838MPD2    H212375   2.594   3.182  11.851 -1.1890  2.1237 -0.7008
  838MPD2    H312376   2.643   3.309  12.062 -0.1431  0.1520 -0.0379
  838MPD2     N12377   2.273   3.137  12.267 -0.4962 -0.3603  0.1790
  838MPD2    H512378   2.216   3.056  12.249 -2.0968  0.6533  0.6693
  838MPD2    N112379   2.396   2.983  11.844 -0.5236 -0.1758  0.3632
  838MPD2    H712380   2.302   2.945  11.856  0.2471 -1.9289  0.7766
  839MPD2     C12381   1.968   2.354  12.150  0.1320  0.2523 -0.2422
  839MPD2    C112382   2.030   2.293  12.043  0.3327 -0.2923  0.2483
  839MPD2    C212383   2.094   2.373  11.946  0.9624  0.5683 -0.0250
  839MPD2    C312384   2.095   2.507  11.952  0.3737 -0.8478 -0.8371
  839MPD2    C412385   2.035   2.566  12.058  0.6434 -0.1009 -0.4404
  839MPD2    C512386   1.975   2.492  12.158  0.3901 -0.7239 -0.8447
  839MPD2     H12387   2.138   2.321  11.862  1.6507  1.2013 -0.0603
  839MPD2    H112388   2.045   2.674  12.061  0.9631 -0.0673 -2.8819
  839MPD2    H212389   1.908   2.297  12.220  2.3132 -0.7158  0.8296
  839MPD2    H312390   1.916   2.546  12.231  0.6895 -0.8563 -0.5055
  839MPD2     N12391   2.140   2.599  11.851  0.3641  0.6097  0.7079
  839MPD2    H512392   2.147   2.696  11.877 -2.2060  1.1919 -0.7109
  839MPD2    N112393   2.034   2.152  12.035  0.2784  0.3579 -0.3195
  839MPD2    H712394   2.085   2.117  11.954  0.0502  0.9711 -0.7292
  840MPD2     C12395   2.115   0.959  10.507  0.0653  0.5792  0.1464
  840MPD2    C112396   2.194   0.862  10.560  0.1633 -0.7704  0.0781
  840MPD2    C212397   2.294   0.905  10.646  1.2050  0.7054 -0.8660
  840MPD2    C312398   2.312   1.041  10.679  0.0612 -0.7482  1.0885
  840MPD2    C412399   2.234   1.129  10.618 -0.7396 -0.2303  0.6906
  840MPD2    C512400   2.136   1.092  10.533 -0.1907 -0.5894  0.3505
  840MPD2     H12401   2.364   0.832  10.684 -1.9501 -1.1437  1.4107
  840MPD2    H112402   2.244   1.237  10.622  2.5921 -0.4695 -1.0165
  840MPD2    H212403   2.037   0.930  10.438 -0.1883 -0.1498  0.7319
  840MPD2    H312404   2.069   1.170  10.498  1.5186  0.5565 -0.3336
  840MPD2     N12405   2.403   1.081  10.776  0.0711 -0.0864 -0.4770
  840MPD2    H512406   2.407   1.181  10.788  0.5564 -0.2388  0.6483
  840MPD2    N112407   2.161   0.724  10.533  0.1480 -0.1328 -0.5901
  840MPD2    H712408   2.089   0.695  10.468 -0.0211 -2.6908  0.7187
  841MPD2     C12409   1.819   0.588  14.303 -0.0472 -0.3738  0.2777
  841MPD2    C112410   1.876   0.473  14.253 -0.1244  0.7820  0.8736
  841MPD2    C212411   2.004   0.426  14.298 -1.1856  0.1716 -0.2876
  841MPD2    C312412   2.076   0.501  14.389  0.2789  0.5113  0.4847
  841MPD2    C412413   2.017   0.616  14.437  0.4749 -0.7102 -0.3201
  841MPD2    C512414   1.893   0.662  14.394  0.0744 -0.1858 -0.3163
  841MPD2     H12415   2.051   0.334  14.264  1.3789  1.2349  0.4309
  841MPD2    H112416   2.061   0.664  14.524 -0.5511  0.0686 -0.2313
  841MPD2    H212417   1.724   0.633  14.277 -0.2876 -0.5805  0.7998
  841MPD2    H312418   1.855   0.750  14.446 -0.8618 -3.2726  4.2022
  841MPD2     N12419   2.196   0.447  14.450 -0.0598  0.6436 -0.0704
  841MPD2    H512420   2.224   0.356  14.415 -1.9418  0.2017 -0.4438
  841MPD2    N112421   1.815   0.391  14.160  0.4260 -0.5823  0.1696
  841MPD2    H712422   1.862   0.302  14.145 -2.3879 -2.3407  1.8927
  842MPD2     C12423   1.977   1.240  16.555 -0.8057  0.1191  0.2118
  842MPD2    C112424   2.110   1.270  16.543 -0.3314  0.4882  0.2783
  842MPD2    C212425   2.202   1.225  16.635  0.4189 -0.0407  0.6938
  842MPD2    C312426   2.160   1.138  16.740  0.0359  0.1264  0.2667
  842MPD2    C412427   2.026   1.110  16.754 -0.0289  0.9491  0.0803
  842MPD2    C512428   1.936   1.146  16.657  0.3355  0.4599  0.2771
  842MPD2     H12429   2.309   1.240  16.625  0.4156 -0.7832 -0.4993
  842MPD2    H112430   1.986   1.057  16.839  0.8853  0.7983  0.4192
  842MPD2    H212431   1.905   1.289  16.490  1.3645  0.4935 -1.9170
  842MPD2    H312432   1.834   1.112  16.669  1.3228 -2.5525 -0.0618
  842MPD2     N12433   2.244   1.078  16.837  0.0291  0.3481 -0.0735
  842MPD2    H512434   2.208   1.020  16.912  0.2902 -0.4851 -0.5902
  842MPD2    N112435   2.141   1.371  16.452 -0.0884 -0.2396 -0.0293
  842MPD2    H712436   2.075   1.397  16.380  0.6719  0.4324 -0.4798
  843MPD2     C12437   0.428   1.673   0.155 -0.8999  0.7474 -0.1313
  843MPD2    C112438   0.564   1.682   0.157  0.6221  0.1037 -0.5628
  843MPD2    C212439   0.625   1.793   0.197 -0.4539 -0.3255  0.1700
  843MPD2    C312440   0.548   1.895   0.241  0.1894  0.3546 -0.0984
  843MPD2    C412441   0.414   1.895   0.235  0.0352 -0.0110  0.4316
  843MPD2    C512442   0.357   1.780   0.195  0.1347  0.4596 -0.1389
  843MPD2     H12443   0.733   1.797   0.205 -0.2491 -3.1192 -1.1883
  843MPD2    H112444   0.362   1.985   0.266 -0.7190 -0.6901  1.1772
  843MPD2    H212445   0.377   1.586   0.114 -0.4536 -0.2610  1.4640
  843MPD2    H312446   0.251   1.774   0.175  0.3160 -0.1439 -0.9262
  843MPD2     N12447   0.607   2.005   0.303 -0.2609 -0.3002 -0.2130
  843MPD2    H512448   0.545   2.079   0.335 -0.0426 -0.5856  0.8504
  843MPD2    N112449   0.635   1.560   0.124 -0.0430 -0.2760  0.1710
  843MPD2    H712450   0.581   1.475   0.120 -0.2821 -0.1257  0.1854
  844MPD2     C12451   3.067   0.687  17.011  0.5484 -0.5043 -0.6039
  844MPD2    C112452   3.147   0.750  16.914  0.1120 -0.0469  0.5968
  844MPD2    C212453   3.253   0.836  16.959 -0.0335 -0.1869 -0.9024
  844MPD2    C312454   3.279   0.839  17.095 -0.3152 -0.3659  0.1675
  844MPD2    C412455   3.196   0.776  17.185 -0.0563 -1.1099  0.2062
  844MPD2    C512456   3.089   0.704  17.145 -0.3121 -0.1798  0.6247
  844MPD2     H12457   3.318   0.890  16.892 -1.5574  1.5364 -0.9906
  844MPD2    H112458   3.208   0.790  17.292 -0.8654  0.1736  0.1281
  844MPD2    H212459   2.975   0.635  16.988  0.0696 -0.0656  0.2833
  844MPD2    H312460   3.025   0.660  17.221  2.5439 -3.7709  0.9259
  844MPD2     N12461   3.384   0.921  17.145 -0.1120  0.2096 -0.3607
  844MPD2    H512462   3.425   0.992  17.085 -0.9757  0.8220 -0.2284
  844MPD2    N112463   3.139   0.729  16.776 -0.1070  0.1787  0.4718
  844MPD2    H712464   3.210   0.774  16.719 -1.0869  2.1774  0.8348
  845MPD2     C12465   3.935   1.736  17.025  0.7876 -0.5029 -0.1365
  845MPD2    C112466   3.893   1.762  17.154  0.6499 -0.3928 -0.5464
  845MPD2    C212467   3.828   1.655  17.221  0.0883  0.7565  0.4383
  845MPD2    C312468   3.808   1.532  17.163 -0.7771 -0.3886  0.0368
  845MPD2    C412469   3.844   1.519  17.032 -0.2788 -0.3412  0.7768
  845MPD2    C512470   3.912   1.617  16.960  0.2884 -0.8772  0.5975
  845MPD2     H12471   3.787   1.679  17.318  0.4617  1.5163  0.4065
  845MPD2    H112472   3.840   1.422  16.983  0.7025 -1.9813  3.9329
  845MPD2    H212473   3.980   1.815  16.965  1.3277  0.2767  1.2878
  845MPD2    H312474   3.939   1.600  16.857  1.6394 -0.4400  0.8809
  845MPD2     N12475   3.759   1.422  17.240 -0.0758 -0.1282  0.1771
  845MPD2    H512476   3.788   1.402  17.335 -0.1458 -0.7544  0.0659
  845MPD2    N112477   3.892   1.895  17.197  0.3982 -0.2686 -0.1184
  845MPD2    H712478   3.937   1.961  17.135  1.0287  0.6754  1.3594
  846MPD2     C12479   0.085   2.190  13.841 -0.0366  0.9283 -0.2270
  846MPD2    C112480   4.713   2.258  13.897  0.5283  0.0746 -0.2554
  846MPD2    C212481   4.706   2.283  14.032 -0.3121 -0.0986  0.2977
  846MPD2    C312482   0.055   2.228  14.117  0.8206  0.2442 -0.5137
  846MPD2    C412483   0.153   2.147  14.064  0.8425  0.6257 -0.4397
  846MPD2    C512484   0.170   2.131  13.928 -0.3981  0.4283  0.0814
  846MPD2     H12485   4.631   2.351  14.070  0.9157  1.9822 -1.0014
  846MPD2    H112486   0.221   2.091  14.126  0.0745  0.6026  0.3757
  846MPD2    H212487   0.109   2.185  13.735  0.5609 -0.7609 -0.0125
  846MPD2    H312488   0.253   2.070  13.893  1.4353  2.3104  1.1840
  846MPD2     N12489   0.030   2.242  14.256  0.4010 -0.5550  0.2514
  846MPD2    H512490   4.685   2.298  14.278 -0.2658 -1.8616  1.0302
  846MPD2    N112491   4.633   2.341  13.813 -0.2878  0.2300 -0.3906
  846MPD2    H712492   4.563   2.397  13.860 -0.2746  0.1261 -0.2489
  847MPD2     C12493   0.322   3.064  14.291  0.4353 -0.2897  0.1949
  847MPD2    C112494   0.401   3.137  14.379  0.6309  0.0471  1.0233
  847MPD2    C212495   0.474   3.076  14.481  0.3228 -0.2275  0.1223
  847MPD2    C312496   0.450   2.943  14.511  0.1370 -0.5692 -0.0484
  847MPD2    C412497   0.365   2.868  14.428  0.3080  0.2911 -0.0471
  847MPD2    C512498   0.305   2.928  14.321  0.6959 -0.3370 -0.3486
  847MPD2     H12499   0.542   3.129  14.546 -1.9744 -2.0281  3.9952
  847MPD2    H112500   0.353   2.761  14.442 -2.1539  0.4987 -0.4620
  847MPD2    H212501   0.265   3.104  14.208  0.6274 -1.4636 -0.5065
  847MPD2    H312502   0.250   2.871  14.247 -1.4179 -0.7163  1.5305
  847MPD2     N12503   0.504   2.912  14.632  0.7057 -0.3796  0.0869
  847MPD2    H512504   0.556   2.983  14.682 -0.0011  0.9399 -1.0690
  847MPD2    N112505   0.400   3.286  14.378 -0.3054 -0.8212 -0.2597
  847MPD2    H712506   0.471   3.329  14.438 -1.2081  0.1779  0.0897
  848MPD2     C12507   3.558   1.597  16.827 -0.5898  0.1249  0.8515
  848MPD2    C112508   3.422   1.592  16.859  0.4646 -0.2147  0.4754
  848MPD2    C212509   3.336   1.687  16.819  0.3464 -0.2570  0.1233
  848MPD2    C312510   3.396   1.802  16.764  0.1917 -0.1664  0.0979
  848MPD2    C412511   3.532   1.817  16.748  0.6329  0.2279 -0.6661
  848MPD2    C512512   3.612   1.711  16.778  0.4789 -0.0916  0.6228
  848MPD2     H12513   3.233   1.697  16.849  0.6260 -0.3937  1.1374
  848MPD2    H112514   3.576   1.913  16.722  0.6936  1.2092  3.0782
  848MPD2    H212515   3.630   1.524  16.863 -0.8124 -1.8495 -2.7441
  848MPD2    H312516   3.719   1.711  16.762  0.8062 -2.2649  2.8807
  848MPD2     N12517   3.319   1.916  16.728  0.0777  0.0796 -0.0569
  848MPD2    H512518   3.373   2.001  16.719 -2.1728  1.6655  1.3711
  848MPD2    N112519   3.377   1.483  16.930 -0.5466  0.1857  0.0726
  848MPD2    H712520   3.443   1.421  16.976  1.3823  0.0308 -2.8939
  849MPD2     C12521   1.990   1.283  14.700 -0.3853 -0.4845 -0.5237
  849MPD2    C112522   2.081   1.282  14.604 -0.1991 -0.3687 -0.7692
  849MPD2    C212523   2.181   1.190  14.614 -0.7606  0.1482 -0.1356
  849MPD2    C312524   2.193   1.104  14.723 -0.1994 -0.7107 -0.5747
  849MPD2    C412525   2.098   1.111  14.823 -0.2612 -0.3790 -0.0115
  849MPD2    C512526   1.996   1.199  14.801 -0.0517 -0.4544  0.5517
  849MPD2     H12527   2.255   1.179  14.536 -0.2370 -1.9038  0.6553
  849MPD2    H112528   2.091   1.046  14.910  2.6216 -0.4861  0.1191
  849MPD2    H212529   1.898   1.341  14.695 -0.2695 -0.1930  0.6946
  849MPD2    H312530   1.926   1.204  14.885 -1.0860  1.4137 -0.4250
  849MPD2     N12531   2.296   1.006  14.725  0.8254  0.5781  0.1787
  849MPD2    H512532   2.348   1.000  14.638  0.2101  0.0995 -0.1525
  849MPD2    N112533   2.080   1.367  14.493 -0.5666  0.0076 -0.1834
  849MPD2    H712534   2.163   1.356  14.437 -0.0413  3.1445 -0.0521
  850MPD2     C12535   0.333   4.461  15.205  0.2234  0.0919 -0.1053
  850MPD2    C112536   0.401   4.395  15.307 -0.4840  0.1066  0.4066
  850MPD2    C212537   0.523   4.452  15.353 -0.0766 -0.0417  0.3716
  850MPD2    C312538   0.586   4.557  15.291 -0.3807  0.3031  0.9106
  850MPD2    C412539   0.529   4.614  15.180  0.4795 -0.5539 -0.5819
  850MPD2    C512540   0.399   4.572  15.153 -0.1580  0.7015  1.2950
  850MPD2     H12541   0.586   4.406  15.429  1.7306 -0.3189 -1.2906
  850MPD2    H112542   0.581   4.698  15.137  1.7334  0.0202  2.0761
  850MPD2    H212543   0.233   4.445  15.165  0.2596  1.0894 -0.6073
  850MPD2    H312544   0.344   4.613  15.070  1.5134 -2.4744 -1.3907
  850MPD2     N12545   0.726   4.590  15.320  0.9010  0.2279 -0.4865
  850MPD2    H512546   0.769   4.662  15.263 -0.7065  1.3211 -0.3507
  850MPD2    N112547   0.342   4.284  15.371 -0.3144  0.7768 -0.5866
  850MPD2    H712548   0.247   4.260  15.346 -0.6275  0.5562  0.8232
  851MPD2     C12549   0.747   3.718  15.707 -0.3111 -0.2694 -0.0918
  851MPD2    C112550   0.612   3.684  15.701  0.3837 -0.2196  0.0431
  851MPD2    C212551   0.586   3.549  15.719  0.5654  0.1156  0.0402
  851MPD2    C312552   0.688   3.451  15.726 -0.3654 -0.2511 -0.8722
  851MPD2    C412553   0.824   3.489  15.722  0.3349 -0.6057 -0.2310
  851MPD2    C512554   0.844   3.622  15.718  0.1459 -0.1686 -0.1158
  851MPD2     H12555   0.484   3.513  15.719  0.9939 -1.1603 -2.4973
  851MPD2    H112556   0.904   3.416  15.726 -0.4843 -1.5182 -0.5180
  851MPD2    H212557   0.778   3.822  15.703  0.2658 -0.4219  0.5752
  851MPD2    H312558   0.948   3.650  15.727 -0.3370  1.2501  0.9989
  851MPD2     N12559   0.641   3.319  15.724  0.2475 -0.4236 -0.1138
  851MPD2    H512560   0.540   3.308  15.731  0.2896 -0.9979 -0.4177
  851MPD2    N112561   0.521   3.795  15.689 -0.3706  0.0334 -0.0269
  851MPD2    H712562   0.561   3.885  15.665 -1.1356  0.3204 -0.2110
  852MPD2     C12563   0.270   1.164   9.895 -0.4345 -0.0272 -0.5062
  852MPD2    C112564   0.167   1.128   9.985 -0.7116 -0.7233 -0.8125
  852MPD2    C212565   0.096   1.228  10.046  0.5259 -0.1607 -0.8618
  852MPD2    C312566   0.119   1.366  10.015 -0.1901 -0.1517  1.1163
  852MPD2    C412567   0.215   1.392   9.919  0.1990 -0.1991  0.0658
  852MPD2    C512568   0.292   1.289   9.859  0.6699 -0.3392  0.4927
  852MPD2     H12569   0.025   1.202  10.123 -0.3890 -0.3948 -1.7840
  852MPD2    H112570   0.234   1.493   9.884  1.1408 -0.1518  0.7073
  852MPD2    H212571   0.339   1.089   9.858 -0.4007  0.6455 -1.7916
  852MPD2    H312572   0.370   1.308   9.786  1.1446 -0.9641  0.8329
  852MPD2     N12573   0.060   1.465  10.095 -0.0725  0.3705 -0.1551
  852MPD2    H512574   4.725   1.433  10.160  0.8014  1.2854  1.2701
  852MPD2    N112575   0.144   0.993  10.031 -0.3736 -0.5137  0.2049
  852MPD2    H712576   0.064   0.968  10.088 -1.8944  0.0802 -1.7162
  853MPD2     C12577   0.756   1.702  12.172 -0.1788 -0.1643 -0.1304
  853MPD2    C112578   0.867   1.672  12.251 -0.4374 -0.7609  0.0899
  853MPD2    C212579   0.985   1.612  12.195 -0.1431  0.1410  0.3110
  853MPD2    C312580   0.977   1.581  12.060 -0.6114  0.4245 -0.1726
  853MPD2    C412581   0.862   1.610  11.987 -0.3446  0.6146 -0.4401
  853MPD2    C512582   0.763   1.675  12.039 -0.1084  0.0774 -0.0888
  853MPD2     H12583   1.079   1.608  12.248  0.1105  0.2109 -0.1294
  853MPD2    H112584   0.847   1.590  11.881  2.1181 -0.0299 -0.6602
  853MPD2    H212585   0.667   1.745  12.217 -1.3248 -0.9588 -1.6522
  853MPD2    H312586   0.684   1.715  11.975 -1.5186 -0.9220  1.0396
  853MPD2     N12587   1.079   1.518  11.990 -0.2916  0.2994 -0.1780
  853MPD2    H512588   1.065   1.485  11.895  1.1501 -1.4961  0.2357
  853MPD2    N112589   0.852   1.698  12.388 -0.0496  1.0685  0.3755
  853MPD2    H712590   0.759   1.722  12.421 -0.8557 -2.1196  0.4787
  854MPD2     C12591   2.926   1.969  13.001 -0.0266  0.0242 -0.0224
  854MPD2    C112592   3.064   1.974  13.031 -0.3420 -0.3923 -0.2454
  854MPD2    C212593   3.111   1.883  13.121  0.6033  0.7086 -0.3071
  854MPD2    C312594   3.030   1.801  13.189 -0.5474  0.2410 -0.8624
  854MPD2    C412595   2.893   1.803  13.167 -0.2282 -0.3965 -0.0870
  854MPD2    C512596   2.844   1.880  13.064 -0.2323  0.6428  0.1169
  854MPD2     H12597   3.218   1.868  13.127  0.4679  0.4910  1.5044
  854MPD2    H112598   2.826   1.732  13.213 -1.5732 -0.0507 -1.5013
  854MPD2    H212599   2.884   2.036  12.927 -0.8743 -2.1729 -1.5525
  854MPD2    H312600   2.737   1.878  13.047 -0.2980 -0.0501  0.5980
  854MPD2     N12601   3.077   1.704  13.280 -0.2456 -0.1434  0.4247
  854MPD2    H512602   3.009   1.637  13.313 -0.4806  0.0750  0.3816
  854MPD2    N112603   3.150   2.059  12.955 -0.2134 -0.2519  0.8561
  854MPD2    H712604   3.103   2.115  12.885  1.6489  0.2514  0.0349
  855MPD2     C12605   3.425   1.614  14.193  0.0005 -0.1437 -0.6371
  855MPD2    C112606   3.503   1.519  14.128 -0.6252  0.3641  0.4825
  855MPD2    C212607   3.491   1.501  13.989 -0.3441  0.1875  0.2692
  855MPD2    C312608   3.393   1.581  13.925  0.0072  0.1668 -0.7544
  855MPD2    C412609   3.316   1.676  13.996  0.0681 -0.0522 -0.2275
  855MPD2    C512610   3.335   1.693  14.126 -0.7008 -0.0743  0.1809
  855MPD2     H12611   3.546   1.422  13.939 -2.5357  1.6153 -4.3551
  855MPD2    H112612   3.226   1.726  13.960  0.3438  0.6997  0.1269
  855MPD2    H212613   3.435   1.631  14.299  1.5588 -1.0714 -0.6362
  855MPD2    H312614   3.275   1.763  14.183 -1.5140 -0.3921 -0.2801
  855MPD2     N12615   3.365   1.580  13.789  0.2626 -0.1628  0.0448
  855MPD2    H512616   3.285   1.633  13.756  1.8636  1.9402 -0.4179
  855MPD2    N112617   3.573   1.420  14.203  0.1651 -0.4540  0.5466
  855MPD2    H712618   3.544   1.406  14.300  3.4101  1.0570  1.7196
  856MPD2     C12619   0.708   2.669  14.146  0.2395 -0.2267  0.7165
  856MPD2    C112620   0.791   2.776  14.165 -0.6712  0.3888  0.1726
  856MPD2    C212621   0.745   2.906  14.134 -0.6385  0.6189  0.6371
  856MPD2    C312622   0.607   2.921  14.099 -0.6197  0.0845 -0.4044
  856MPD2    C412623   0.529   2.813  14.083  0.2886 -0.3251  0.2397
  856MPD2    C512624   0.580   2.687  14.114 -0.4028  0.7220 -1.0822
  856MPD2     H12625   0.807   2.993  14.147 -1.6163  1.4292 -0.1205
  856MPD2    H112626   0.433   2.817  14.033 -0.1717 -0.5449  1.1055
  856MPD2    H212627   0.745   2.568  14.163 -0.0625 -0.5503 -0.5507
  856MPD2    H312628   0.516   2.602  14.096  1.4587 -0.9949  0.3117
  856MPD2     N12629   0.547   3.046  14.063  0.0353  0.1278 -0.0641
  856MPD2    H512630   0.449   3.030  14.042  0.2181  0.4861 -1.1872
  856MPD2    N112631   0.924   2.776  14.211  0.3918 -0.4398  0.3783
  856MPD2    H712632   0.961   2.870  14.216  0.2418 -0.3927  0.6151
  857MPD2     C12633   2.316   4.589  13.079  0.4074  0.6086  0.2623
  857MPD2    C112634   2.444   4.580  13.064  0.6113  0.6415 -0.2076
  857MPD2    C212635   2.530   4.666  13.134  0.0688  0.3203  0.6628
  857MPD2    C312636   2.473   0.025  13.223 -0.3889 -0.0856  0.2112
  857MPD2    C412637   2.334   0.032  13.237  0.9508 -0.2153  0.4872
  857MPD2    C512638   2.261   4.677  13.167  0.3563  0.0453  0.0474
  857MPD2     H12639   2.637   4.670  13.118  0.1697 -0.3752  1.1313
  857MPD2    H112640   2.278   0.097  13.303  1.4325 -1.2051  1.8716
  857MPD2    H212641   2.249   4.525  13.022  2.1494 -0.8200 -0.1807
  857MPD2    H312642   2.153   4.669  13.165  0.1989  1.8173  1.7175
  857MPD2     N12643   2.551   0.117  13.301  0.0220  0.2184 -0.0297
  857MPD2    H512644   2.652   0.104  13.297 -0.2878 -1.1733 -3.6798
  857MPD2    N112645   2.485   4.488  12.966 -0.2389 -0.3147  0.0943
  857MPD2    H712646   2.411   4.426  12.935  0.9465 -0.9728 -1.4476
  858MPD2     C12647   3.272   3.577  16.943 -0.0980  0.0690  0.0276
  858MPD2    C112648   3.407   3.561  16.930 -0.2542  0.0318 -0.8921
  858MPD2    C212649   3.487   3.581  17.044  0.3497 -0.6127 -0.0107
  858MPD2    C312650   3.442   3.648  17.156  0.2050 -0.3470 -0.4900
  858MPD2    C412651   3.305   3.672  17.156 -1.4033 -0.0993 -0.0392
  858MPD2    C512652   3.223   3.629  17.058 -0.3443  0.0677  0.1096
  858MPD2     H12653   3.589   3.546  17.032  0.8370  0.1524  2.0035
  858MPD2    H112654   3.260   3.736  17.232 -0.4755 -0.8466  1.1432
  858MPD2    H212655   3.212   3.567  16.854 -1.2524 -0.1790  0.8386
  858MPD2    H312656   3.117   3.637  17.079 -0.6176 -3.2029 -0.0161
  858MPD2     N12657   3.515   3.690  17.268 -0.7521  0.6426 -0.4178
  858MPD2    H512658   3.465   3.760  17.322 -1.0315  0.5011 -0.4949
  858MPD2    N112659   3.467   3.505  16.817 -0.1013  0.0786  0.2545
  858MPD2    H712660   3.405   3.471  16.744  0.6288 -2.7701  0.9354
  859MPD2     C12661   2.270   0.714  15.633 -0.2931 -0.0886  0.7525
  859MPD2    C112662   2.208   0.688  15.519  0.4303 -0.1343  0.2720
  859MPD2    C212663   2.179   0.557  15.485  0.8520 -0.2439  0.0780
  859MPD2    C312664   2.210   0.457  15.577  0.6395  0.0488 -0.0258
  859MPD2    C412665   2.258   0.485  15.703 -0.0846  0.1981 -0.2274
  859MPD2    C512666   2.298   0.613  15.725 -0.0335  0.4949  0.0928
  859MPD2     H12667   2.136   0.538  15.387  1.2877 -1.0900  0.0531
  859MPD2    H112668   2.280   0.414  15.782  1.8206  0.7835 -0.2310
  859MPD2    H212669   2.290   0.817  15.662  1.0130 -0.4849  1.2623
  859MPD2    H312670   2.341   0.645  15.820  1.9742  0.1020 -0.6720
  859MPD2     N12671   2.192   0.320  15.543  0.4398 -0.3918 -0.1420
  859MPD2    H512672   2.210   0.253  15.618 -0.1432 -1.5943 -1.0633
  859MPD2    N112673   2.181   0.794  15.435  0.3149  0.0318 -0.3870
  859MPD2    H712674   2.210   0.890  15.450  1.4417 -0.1754 -1.1909
  860MPD2     C12675   3.812   0.823  12.008 -0.0282 -0.0486 -0.1231
  860MPD2    C112676   3.857   0.886  12.121  0.3652  0.5881 -0.2980
  860MPD2    C212677   3.765   0.931  12.214  0.1749 -0.8205  0.1073
  860MPD2    C312678   3.626   0.919  12.189 -0.4775  0.2626 -0.7378
  860MPD2    C412679   3.585   0.846  12.082 -0.2600  0.3036  0.1710
  860MPD2    C512680   3.679   0.794  11.995 -0.2289  0.1400 -0.1523
  860MPD2     H12681   3.792   0.989  12.302 -1.0986 -1.2533  0.7821
  860MPD2    H112682   3.477   0.831  12.077  0.0862 -1.4249 -2.0518
  860MPD2    H212683   3.867   0.796  11.919  0.6039 -0.4780  0.3977
  860MPD2    H312684   3.643   0.738  11.909 -1.0201 -0.0849  0.3225
  860MPD2     N12685   3.544   0.981  12.281  0.6228 -0.1023 -0.4490
  860MPD2    H512686   3.595   1.044  12.344  0.3076 -0.0121 -0.2850
  860MPD2    N112687   3.991   0.925  12.146  0.2361 -0.3832 -0.6486
  860MPD2    H712688   4.016   0.978  12.229  0.2651 -0.1555 -0.8034
  861MPD2     C12689   3.038   3.919  11.221  0.7713  0.0178  0.2124
  861MPD2    C112690   2.945   3.975  11.307  0.2886 -0.2398 -0.7039
  861MPD2    C212691   2.851   4.056  11.247  0.0794  0.0638  0.2293
  861MPD2    C312692   2.848   4.091  11.112 -0.5833  0.0764 -0.4776
  861MPD2    C412693   2.945   4.034  11.032 -0.5062 -0.3879 -0.0030
  861MPD2    C512694   3.035   3.947  11.089  0.2361 -0.2876  0.0288
  861MPD2     H12695   2.771   4.093  11.309  0.6248  0.1579  0.8679
  861MPD2    H112696   2.951   4.051  10.925 -1.4211 -0.5370 -0.0757
  861MPD2    H212697   3.124   3.865  11.258  0.8020 -0.0209  0.0840
  861MPD2    H312698   3.109   3.886  11.038  0.6714  0.5669 -0.3669
  861MPD2     N12699   2.757   4.187  11.054 -0.4628 -0.0796 -0.4232
  861MPD2    H512700   2.783   4.206  10.957  0.8114 -2.0969 -0.4875
  861MPD2    N112701   2.946   3.956  11.447  0.6297  1.0861 -0.0891
  861MPD2    H712702   2.870   3.996  11.501 -0.0739 -0.0625 -0.2408
  862MPD2     C12703   2.372   4.439  10.514  0.4646 -0.1304 -0.5857
  862MPD2    C112704   2.464   4.426  10.613 -0.4990  0.7685  0.6888
  862MPD2    C212705   2.468   4.308  10.692 -0.0403 -0.2721  0.3582
  862MPD2    C312706   2.393   4.199  10.656 -0.0870  0.4462 -0.3382
  862MPD2    C412707   2.294   4.218  10.565  0.1029  0.0421  0.3060
  862MPD2    C512708   2.281   4.336  10.495 -0.7060 -0.4897  0.1303
  862MPD2     H12709   2.540   4.291  10.772  2.2231 -0.4459 -1.7222
  862MPD2    H112710   2.222   4.141  10.543 -0.8136  1.0757 -0.2711
  862MPD2    H212711   2.370   4.526  10.449 -1.3520 -0.6122 -1.1544
  862MPD2    H312712   2.213   4.345  10.411  1.3122 -0.1789 -1.4482
  862MPD2     N12713   2.402   4.070  10.703 -0.0145 -0.4808 -0.4191
  862MPD2    H512714   2.331   4.010  10.663  0.8523 -2.5597  1.1568
  862MPD2    N112715   2.549   4.541  10.630 -0.6196  0.0313  0.1132
  862MPD2    H712716   2.540   4.603  10.551  2.9700  1.3117  0.7341
  863MPD2     C12717   1.655   2.793  16.554  0.1537 -0.6982 -0.3809
  863MPD2    C112718   1.630   2.877  16.658  0.4801  0.5379  0.0133
  863MPD2    C212719   1.680   2.844  16.788  0.4033  0.4941 -0.9050
  863MPD2    C312720   1.748   2.728  16.815  0.1503  0.1115 -0.1153
  863MPD2    C412721   1.760   2.629  16.716  0.9009 -0.0339  0.7746
  863MPD2    C512722   1.720   2.671  16.588  0.3116 -0.1844  0.0665
  863MPD2     H12723   1.652   2.906  16.873  1.3289  1.9198 -1.6503
  863MPD2    H112724   1.814   2.536  16.727  1.2630  0.3830  2.5705
  863MPD2    H212725   1.623   2.820  16.454  0.9147  2.4016  0.2131
  863MPD2    H312726   1.746   2.608  16.504  1.7764  0.1333  0.2957
  863MPD2     N12727   1.800   2.706  16.949 -0.1351 -0.1342 -0.0195
  863MPD2    H512728   1.809   2.789  17.007  0.3222  0.0719 -0.3832
  863MPD2    N112729   1.552   2.990  16.628  1.6009  0.0361 -0.8494
  863MPD2    H712730   1.512   3.001  16.535 -0.4485 -0.8120 -0.0624
  864MPD2     C12731   2.501   4.210  17.252  0.3061  0.4778  0.7645
  864MPD2    C112732   2.567   4.104  17.193 -0.1594 -0.6244 -0.3070
  864MPD2    C212733   2.651   4.131  17.085  0.4639  0.7011  0.4863
  864MPD2    C312734   2.675   4.257  17.047 -0.2467 -0.6473 -0.0483
  864MPD2    C412735   2.618   4.363  17.115  0.2610 -0.4138  0.0942
  864MPD2    C512736   2.537   4.339  17.218 -0.4943  0.3640 -0.1837
  864MPD2     H12737   2.684   4.049  17.023  0.5716 -0.0229  1.5099
  864MPD2    H112738   2.643   4.464  17.087 -2.6814  0.0149 -0.9865
  864MPD2    H212739   2.430   4.184  17.330 -1.3837  2.3632 -0.1351
  864MPD2    H312740   2.501   4.424  17.275 -1.6256  1.2613 -2.2772
  864MPD2     N12741   2.768   4.269  16.943 -0.7747 -0.5774 -0.0699
  864MPD2    H512742   2.809   4.185  16.905 -1.7527 -0.0293 -2.3737
  864MPD2    N112743   2.514   3.979  17.220  0.1504  0.3760  0.0873
  864MPD2    H712744   2.441   3.977  17.290 -0.4119  0.0104 -0.5102
  865MPD2     C12745   2.263   4.155  16.197  0.1670  0.1616  0.4913
  865MPD2    C112746   2.350   4.056  16.236 -0.0536  0.4447  0.1524
  865MPD2    C212747   2.457   4.089  16.316 -0.2353 -0.1165  0.1900
  865MPD2    C312748   2.479   4.220  16.361 -0.1111 -0.1067 -0.2356
  865MPD2    C412749   2.382   4.313  16.333  0.0952 -0.1223  0.1319
  865MPD2    C512750   2.278   4.283  16.252  0.1155 -0.1340 -0.4236
  865MPD2     H12751   2.540   4.019  16.325 -0.0554  0.4306  3.0858
  865MPD2    H112752   2.389   4.420  16.349 -1.8687 -0.2807  2.1412
  865MPD2    H212753   2.187   4.136  16.123 -0.0180 -1.2559  1.0528
  865MPD2    H312754   2.204   4.350  16.210 -1.9466 -1.2920  1.3256
  865MPD2     N12755   2.598   4.264  16.430  0.1902 -0.1116  0.7701
  865MPD2    H512756   2.618   4.364  16.434 -3.1236  0.4442  3.0718
  865MPD2    N112757   2.331   3.925  16.179  0.5051 -0.6435  0.4861
  865MPD2    H712758   2.256   3.913  16.110  1.0277  1.2278 -0.4092
  866MPD2     C12759   3.679   4.197  11.645  0.3399 -0.4809 -0.0419
  866MPD2    C112760   3.669   4.158  11.518  0.2122 -0.1629  0.2582
  866MPD2    C212761   3.552   4.203  11.449  0.2267 -0.2521  0.3234
  866MPD2    C312762   3.449   4.269  11.519  0.2569 -0.3849  0.2768
  866MPD2    C412763   3.467   4.309  11.649  0.2210  0.0612 -0.5380
  866MPD2    C512764   3.588   4.282  11.705 -0.1761  0.6588  0.3676
  866MPD2     H12765   3.532   4.179  11.345  1.8008 -1.0108  0.1961
  866MPD2    H112766   3.395   4.373  11.699  0.3118 -0.8297  0.7420
  866MPD2    H212767   3.769   4.169  11.699 -0.4884 -0.4922  1.3435
  866MPD2    H312768   3.611   4.324  11.802 -0.5392 -0.4561  0.9385
  866MPD2     N12769   3.319   4.306  11.463 -0.3266  0.0663 -0.5553
  866MPD2    H512770   3.260   4.355  11.531  0.7654 -1.0453  1.1811
  866MPD2    N112771   3.763   4.077  11.446 -0.0067 -0.2445 -0.2403
  866MPD2    H712772   3.858   4.067  11.481 -0.6368  0.2367  1.6224
  867MPD2     C12773   2.243   4.195  16.683  0.5037  0.0955  0.2575
  867MPD2    C112774   2.160   4.172  16.793  0.7221 -0.5848  0.5014
  867MPD2    C212775   2.174   4.249  16.905  0.0956 -0.5325 -0.3824
  867MPD2    C312776   2.263   4.351  16.919 -0.0185 -0.6009  0.1638
  867MPD2    C412777   2.346   4.371  16.814 -0.6553 -0.3294  0.2707
  867MPD2    C512778   2.329   4.301  16.696 -0.0828  0.5123 -0.4944
  867MPD2     H12779   2.111   4.237  16.992 -2.1558 -0.7929 -2.0525
  867MPD2    H112780   2.420   4.450  16.811 -3.3523  2.1532 -0.2518
  867MPD2    H212781   2.244   4.144  16.588  0.6346 -0.2609  0.4490
  867MPD2    H312782   2.393   4.328  16.613  0.8077  2.3543  0.7722
  867MPD2     N12783   2.260   4.434  17.032  0.5860  0.1343 -0.2920
  867MPD2    H512784   2.327   4.511  17.040  0.9132 -0.3887  1.9698
  867MPD2    N112785   2.070   4.063  16.781 -0.0703  0.5631 -0.6085
  867MPD2    H712786   2.063   4.017  16.691 -1.6142  1.1600 -0.7945
  868MPD2     C12787   2.466   2.670  13.164 -0.0138 -0.1852 -1.0131
  868MPD2    C112788   2.542   2.775  13.220  0.3989 -0.2187  0.2758
  868MPD2    C212789   2.479   2.871  13.301 -0.1101  0.3723 -0.5315
  868MPD2    C312790   2.341   2.861  13.320 -0.6798  0.7072 -0.0993
  868MPD2    C412791   2.271   2.756  13.268  0.5995 -0.1270  0.4846
  868MPD2    C512792   2.336   2.662  13.188 -0.6471  0.3382 -0.5782
  868MPD2     H12793   2.536   2.953  13.344  0.2913  0.0437 -0.4336
  868MPD2    H112794   2.162   2.752  13.267  0.5341  1.7408  1.5851
  868MPD2    H212795   2.510   2.599  13.095  2.4700 -0.0948  0.4889
  868MPD2    H312796   2.279   2.584  13.138  1.1340 -2.1249  1.1928
  868MPD2     N12797   2.289   2.976  13.395  0.3212 -0.0697 -1.0328
  868MPD2    H512798   2.349   3.043  13.443 -0.3420  0.4593 -0.9525
  868MPD2    N112799   2.679   2.775  13.191 -0.2165  0.4491 -0.5976
  868MPD2    H712800   2.716   2.691  13.148 -2.6317  0.0560 -1.8945
  869MPD2     C12801   4.315   0.123   0.470 -0.1952 -0.0817  0.5840
  869MPD2    C112802   4.330   0.228   0.391 -0.3485 -0.1795 -0.3077
  869MPD2    C212803   4.448   0.302   0.399 -0.3461 -0.5491 -0.0807
  869MPD2    C312804   4.538   0.278   0.502 -0.0276 -0.1322  0.4493
  869MPD2    C412805   4.504   0.180   0.596 -0.1215 -0.7198  0.2398
  869MPD2    C512806   4.393   0.099   0.581  0.5190  0.0237 -0.2174
  869MPD2     H12807   4.450   0.399   0.351  0.7914  0.4408  1.9716
  869MPD2    H112808   4.566   0.153   0.681 -0.0051 -1.5105 -0.0987
  869MPD2    H212809   4.216   0.078   0.474 -0.3407 -0.0279 -2.1903
  869MPD2    H312810   4.395   0.017   0.653 -1.4671 -0.3415 -0.5901
  869MPD2     N12811   4.647   0.362   0.515  0.4319  0.9717  0.3958
  869MPD2    H512812   4.704   0.356   0.598  0.1948  1.9541  0.6321
  869MPD2    N112813   4.229   0.280   0.302 -0.2314  0.0443  0.3164
  869MPD2    H712814   4.266   0.337   0.226  1.0472  0.0088  0.9112
  870MPD2     C12815   3.455   4.598   1.999 -0.1469  0.1911  0.0387
  870MPD2    C112816   3.532   4.607   1.892 -0.0650  0.5295  0.6132
  870MPD2    C212817   3.485   4.540   1.774 -0.6236  0.7512 -0.3521
  870MPD2    C312818   3.366   4.469   1.776  0.1604  0.2557 -0.1703
  870MPD2    C412819   3.290   4.473   1.889 -0.0985  0.2644  0.0665
  870MPD2    C512820   3.334   4.539   1.998 -0.7327  0.2611 -0.8046
  870MPD2     H12821   3.552   4.544   1.689  0.2473  0.4105  0.3274
  870MPD2    H112822   3.190   4.432   1.895  0.2493 -0.5597  0.2716
  870MPD2    H212823   3.481   4.650   2.091  1.8914  0.3480 -0.6354
  870MPD2    H312824   3.278   4.537   2.091  2.6389  1.1105  1.2709
  870MPD2     N12825   3.323   4.408   1.650 -0.2225 -0.1905 -0.7857
  870MPD2    H512826   3.391   4.428   1.578 -1.4242  1.0659 -1.5744
  870MPD2    N112827   3.654   4.682   1.896  0.1011  0.4662  0.1250
  870MPD2    H712828   3.661   4.735   1.983  1.1142 -0.2838  0.5062
  871MPD2     C12829   0.429   4.053  16.715 -0.1880  0.0342  0.5772
  871MPD2    C112830   0.358   4.010  16.821 -0.4271  1.5156 -0.0564
  871MPD2    C212831   0.350   3.874  16.848 -0.2323  0.4776 -0.9169
  871MPD2    C312832   0.390   3.778  16.758  0.2725 -0.8244 -0.3335
  871MPD2    C412833   0.446   3.829  16.643  0.1499 -1.1400 -0.3435
  871MPD2    C512834   0.471   3.964  16.627  0.0187  0.4915  0.1491
  871MPD2     H12835   0.305   3.834  16.939 -0.0304  0.2970 -0.8955
  871MPD2    H112836   0.479   3.767  16.560  0.8573  0.9353 -1.5945
  871MPD2    H212837   0.453   4.158  16.703  1.2504 -0.2832  0.7253
  871MPD2    H312838   0.523   4.000  16.539 -0.1975  1.5146  0.4326
  871MPD2     N12839   0.370   3.640  16.784  0.2940 -0.1390  0.3652
  871MPD2    H512840   0.322   3.622  16.871 -0.7212 -1.4877 -0.4716
  871MPD2    N112841   0.319   4.109  16.909  0.0121  0.1696  0.8704
  871MPD2    H712842   0.335   4.204  16.875  1.0825 -0.3046  0.0508
  872MPD2     C12843   0.780   2.070  13.816 -0.2486  0.0216 -0.0241
  872MPD2    C112844   0.865   2.019  13.912 -0.1178  0.8861  0.9088
  872MPD2    C212845   0.815   1.971  14.036  0.0924 -0.2841 -0.1667
  872MPD2    C312846   0.675   1.978  14.048  0.6314  0.0237 -0.0887
  872MPD2    C412847   0.598   2.025  13.945  0.6528  1.0810  0.5809
  872MPD2    C512848   0.648   2.065  13.827 -0.3512 -0.2514  0.3610
  872MPD2     H12849   0.878   1.930  14.115  1.0173 -1.4399 -1.4914
  872MPD2    H112850   0.490   2.024  13.946  0.6559  0.5893  0.5018
  872MPD2    H212851   0.811   2.103  13.718 -0.7779  0.9976  0.1395
  872MPD2    H312852   0.584   2.095  13.744  1.3914 -1.2219 -1.3533
  872MPD2     N12853   0.602   1.957  14.169 -0.0750  0.2569 -0.4758
  872MPD2    H512854   0.501   1.962  14.157 -0.0313 -1.7290 -1.7578
  872MPD2    N112855   1.004   2.028  13.905  0.1299  0.8128 -0.1492
  872MPD2    H712856   1.048   1.999  13.992 -0.2489  1.1012  0.1417
  873MPD2     C12857   3.403   1.129   0.790  0.6187 -0.7916  0.1311
  873MPD2    C112858   3.294   1.171   0.865 -0.0853 -0.5488  0.0302
  873MPD2    C212859   3.171   1.111   0.854 -0.1583 -0.7374  0.1093
  873MPD2    C312860   3.157   0.999   0.774  0.2904  0.2518  0.2342
  873MPD2    C412861   3.254   0.968   0.683  0.4154 -0.5877  0.5519
  873MPD2    C512862   3.379   1.028   0.697  0.2520  0.3024  0.2632
  873MPD2     H12863   3.078   1.144   0.898 -0.1757  0.0597 -0.5228
  873MPD2    H112864   3.245   0.887   0.612  0.1065  0.7784 -0.9738
  873MPD2    H212865   3.503   1.170   0.802 -0.2304  1.2676  0.1819
  873MPD2    H312866   3.457   0.997   0.629 -0.4079  0.6733 -0.6507
  873MPD2     N12867   3.047   0.918   0.780 -0.2966 -0.1073 -0.0175
  873MPD2    H512868   3.043   0.843   0.711  1.1043 -1.0505  0.9239
  873MPD2    N112869   3.321   1.273   0.964  0.1887  0.4761 -0.3949
  873MPD2    H712870   3.411   1.301   1.001 -0.0131  1.9468 -1.0177
  874MPD2     C12871   2.635   2.090  16.062  0.0007  0.2276 -0.5078
  874MPD2    C112872   2.617   2.019  16.180  0.1545 -0.2242  0.3187
  874MPD2    C212873   2.674   2.073  16.297  0.1470  0.0220 -0.0501
  874MPD2    C312874   2.770   2.172  16.294  0.0241  0.0736 -0.3231
  874MPD2    C412875   2.795   2.223  16.172 -0.4185 -0.1648  0.6334
  874MPD2    C512876   2.731   2.184  16.055 -0.4008 -0.9468 -1.1156
  874MPD2     H12877   2.651   2.034  16.396  1.1491  0.3686  0.3199
  874MPD2    H112878   2.875   2.296  16.159  0.3621 -1.1987 -0.4198
  874MPD2    H212879   2.584   2.066  15.970  0.3659  2.3031 -1.2650
  874MPD2    H312880   2.763   2.229  15.962 -0.1827  0.3610 -0.4058
  874MPD2     N12881   2.849   2.224  16.403  0.4842 -0.2864  0.0029
  874MPD2    H512882   2.925   2.286  16.378  1.2861 -0.4567  1.9910
  874MPD2    N112883   2.531   1.904  16.179 -0.4834 -0.0418 -0.1569
  874MPD2    H712884   2.481   1.886  16.094  0.1982 -1.3716 -0.2802
  875MPD2     C12885   3.677   0.084  14.825  0.4909 -0.8388 -0.0834
  875MPD2    C112886   3.572   0.074  14.911 -0.5322  0.1000  0.3567
  875MPD2    C212887   3.592   0.125  15.040 -0.2917  0.5574  0.2901
  875MPD2    C312888   3.708   0.193  15.078 -0.1754 -0.0906 -0.8135
  875MPD2    C412889   3.810   0.190  14.991 -0.7906  0.2601  0.0261
  875MPD2    C512890   3.794   0.137  14.865  0.1684  0.1106 -0.2224
  875MPD2     H12891   3.513   0.127  15.115  1.3649 -2.5231  2.1123
  875MPD2    H112892   3.907   0.232  15.018 -0.5467 -1.4101  1.7810
  875MPD2    H212893   3.682   0.050  14.722 -2.6164 -1.9037  0.1270
  875MPD2    H312894   3.877   0.144  14.796  0.9228  0.4640  0.7351
  875MPD2     N12895   3.726   0.251  15.207 -0.5236 -0.4120  0.2727
  875MPD2    H512896   3.806   0.308  15.234 -1.5318 -0.3648  3.2136
  875MPD2    N112897   3.443   0.057  14.865  0.2593  0.5186 -0.8305
  875MPD2    H712898   3.374   0.098  14.927  0.0155  0.1891 -0.8783
  876MPD2     C12899   2.173   1.620  15.804  0.1833  0.1681 -0.3121
  876MPD2    C112900   2.299   1.676  15.840  0.0419  0.0978  0.8641
  876MPD2    C212901   2.387   1.615  15.925  0.1417  0.4946 -0.0764
  876MPD2    C312902   2.349   1.497  15.977  0.1311  0.6914  0.2045
  876MPD2    C412903   2.222   1.447  15.952 -0.2109 -0.1134 -0.4204
  876MPD2    C512904   2.143   1.506  15.867  0.3450  0.1959 -0.1321
  876MPD2     H12905   2.485   1.656  15.949  0.8345 -3.1904  3.4278
  876MPD2    H112906   2.200   1.345  15.983 -1.2621 -0.2850 -1.7286
  876MPD2    H212907   2.106   1.662  15.730  0.5437  1.0154 -0.1548
  876MPD2    H312908   2.052   1.456  15.836 -0.3395  0.4145  1.5161
  876MPD2     N12909   2.444   1.428  16.058 -0.0863  0.0655  0.2068
  876MPD2    H512910   2.536   1.471  16.057  0.0297 -0.2012 -0.5426
  876MPD2    N112911   2.330   1.788  15.764 -0.5042 -0.3633  0.1283
  876MPD2    H712912   2.262   1.807  15.690 -0.1048 -0.8958 -0.3685
  877MPD2     C12913   2.915   2.211  15.232 -0.4659  0.5895 -0.2692
  877MPD2    C112914   2.809   2.133  15.198  0.2719  0.3415  0.6393
  877MPD2    C212915   2.795   2.097  15.068 -0.1140  0.8027 -0.8156
  877MPD2    C312916   2.887   2.126  14.969  0.9719 -0.1010 -0.0972
  877MPD2    C412917   2.993   2.210  15.010  0.7455 -0.7190  0.4356
  877MPD2    C512918   3.010   2.247  15.137  0.4994 -0.4474  0.3574
  877MPD2     H12919   2.707   2.041  15.040  1.2801 -1.2085 -1.2056
  877MPD2    H112920   3.066   2.249  14.939  2.0572  0.1950  2.2960
  877MPD2    H212921   2.927   2.248  15.334 -1.2539  0.8069 -0.2605
  877MPD2    H312922   3.092   2.311  15.169  0.7865 -2.0214  2.7558
  877MPD2     N12923   2.889   2.075  14.836  0.0071 -0.0345 -0.4763
  877MPD2    H512924   2.977   2.084  14.786 -0.4348 -1.8553 -1.5794
  877MPD2    N112925   2.718   2.078  15.288  0.3200  0.3500 -0.0093
  877MPD2    H712926   2.636   2.033  15.250  1.9216 -0.8552 -2.0231
  878MPD2     C12927   2.033   1.689  13.492  0.4419 -0.6284 -0.3143
  878MPD2    C112928   2.098   1.570  13.521 -0.0587  0.1337 -0.4257
  878MPD2    C212929   2.100   1.533  13.657 -0.6587  0.4911 -0.1294
  878MPD2    C312930   2.047   1.611  13.751  0.5275 -0.4792 -0.3683
  878MPD2    C412931   1.975   1.727  13.720 -0.5653  0.5199 -0.6652
  878MPD2    C512932   1.979   1.768  13.589  0.6914  0.3997  0.5549
  878MPD2     H12933   2.147   1.439  13.685  0.0187  0.9591  0.2970
  878MPD2    H112934   1.925   1.789  13.794  0.2375  1.2539 -0.7371
  878MPD2    H212935   2.025   1.727  13.391 -3.5369 -0.3371  0.0920
  878MPD2    H312936   1.926   1.859  13.562  1.9310  1.2368  0.9902
  878MPD2     N12937   2.056   1.566  13.888  0.3593  0.8105 -0.3977
  878MPD2    H512938   2.113   1.483  13.901 -0.4575  0.0731 -1.5102
  878MPD2    N112939   2.122   1.484  13.409  0.5637  0.0334  0.2246
  878MPD2    H712940   2.101   1.525  13.318  0.0395  0.3539  0.4827
  879MPD2     C12941   3.130   1.900  17.115  0.4738  0.2699  0.0102
  879MPD2    C112942   3.093   2.028  17.108  0.1974 -0.2669 -0.0801
  879MPD2    C212943   2.977   2.062  17.040 -0.0525  0.7388 -0.2651
  879MPD2    C312944   2.895   1.965  16.992  0.3136  0.5285  0.0493
  879MPD2    C412945   2.927   1.835  17.008 -0.3732  0.0788 -0.6296
  879MPD2    C512946   3.049   1.802  17.068 -0.1007  0.1472  0.1814
  879MPD2     H12947   2.957   2.168  17.033  0.2459  0.6946 -1.7130
  879MPD2    H112948   2.857   1.755  16.987  0.3774 -0.2350 -1.8762
  879MPD2    H212949   3.223   1.866  17.158 -0.2334 -0.6762  0.8071
  879MPD2    H312950   3.084   1.702  17.090 -0.2856 -0.1606 -0.9279
  879MPD2     N12951   2.772   1.991  16.934  0.0548  0.2417 -1.0134
  879MPD2    H512952   2.711   1.916  16.902  0.5802 -1.3928  1.8239
  879MPD2    N112953   3.185   2.119  17.169 -0.3954 -0.2922  0.1616
  879MPD2    H712954   3.249   2.082  17.238 -0.2239 -0.9397 -0.3577
  880MPD2     C12955   4.106   3.979   0.813  0.3604 -0.4349 -0.1581
  880MPD2    C112956   4.164   4.039   0.711 -0.1990  0.3408  0.2208
  880MPD2    C212957   4.280   3.993   0.654  0.4450 -0.4668 -0.1510
  880MPD2    C312958   4.342   3.882   0.706 -0.0038  0.4278 -0.2188
  880MPD2    C412959   4.284   3.807   0.813  0.0489 -0.7103 -0.1086
  880MPD2    C512960   4.164   3.859   0.861 -0.0248 -0.1871  0.5833
  880MPD2     H12961   4.324   4.041   0.567  0.8966  1.7536  1.3118
  880MPD2    H112962   4.335   3.719   0.851  0.7263  0.8276  2.6076
  880MPD2    H212963   4.008   4.007   0.848 -0.0037 -2.9399  0.7632
  880MPD2    H312964   4.120   3.821   0.953  0.6471  0.3348  1.1219
  880MPD2     N12965   4.472   3.856   0.653  0.3033  0.3268 -0.1509
  880MPD2    H512966   4.518   3.925   0.595 -0.6510  1.0302 -0.0556
  880MPD2    N112967   4.093   4.155   0.671  0.2264 -0.5159 -0.0064
  880MPD2    H712968   4.016   4.181   0.731  0.3712 -0.6043  0.2179
  881MPD2     C12969   3.737   0.100  17.620 -0.5051 -0.0056  0.3087
  881MPD2    C112970   3.863   0.057  17.656  0.3145  0.6917  0.0809
  881MPD2    C212971   3.876   4.716   0.021  0.1554  0.2289 -0.1284
  881MPD2    C312972   3.768   4.693   0.106  0.1904  0.0425  0.2863
  881MPD2    C412973   3.642   0.010   0.070 -0.3022  0.3871 -0.1950
  881MPD2    C512974   3.628   0.081  17.702 -0.1831  0.6983 -0.0176
  881MPD2     H12975   3.975   4.677   0.038 -1.5840 -3.3805  1.6898
  881MPD2    H112976   3.550   4.729   0.123  0.7929 -1.5541  1.0464
  881MPD2    H212977   3.703   0.129  17.522  0.0498 -0.2978  0.0293
  881MPD2    H312978   3.531   0.103  17.659  0.0616  2.7576  0.4452
  881MPD2     N12979   3.789   4.625   0.231  0.5632 -0.0724 -0.3713
  881MPD2    H512980   3.715   4.641   0.298  0.2653  0.7789 -0.8956
  881MPD2    N112981   3.955   0.047  17.555 -0.0390 -0.0672 -0.0332
  881MPD2    H712982   3.940   0.102  17.470  0.9280 -0.6983 -0.6117
  882MPD2     C12983   2.282   1.910  14.297  0.0836  0.3934 -0.2961
  882MPD2    C112984   2.315   1.897  14.427 -0.7602  0.0757  0.0197
  882MPD2    C212985   2.215   1.883  14.520 -0.0711  0.1634 -0.3629
  882MPD2    C312986   2.083   1.869  14.475  0.1199  0.0866 -0.6264
  882MPD2    C412987   2.055   1.895  14.344  0.6060 -0.8288 -0.7172
  882MPD2    C512988   2.152   1.912  14.251 -0.0307  0.1852  0.3918
  882MPD2     H12989   2.246   1.873  14.623 -1.3160  0.8804  0.0710
  882MPD2    H112990   1.954   1.890  14.306  0.7522 -0.7979 -1.1183
  882MPD2    H212991   2.359   1.927  14.222  1.4773 -1.4077  0.7154
  882MPD2    H312992   2.143   1.922  14.143 -0.4255  0.6420  0.4722
  882MPD2     N12993   1.967   1.828  14.553 -0.0810  0.0346  0.3221
  882MPD2    H512994   1.885   1.813  14.497  0.3537  0.6484 -0.4699
  882MPD2    N112995   2.448   1.897  14.478 -0.4109 -0.2798  0.7397
  882MPD2    H712996   2.463   1.912  14.577  0.7269 -2.4954  0.9044
  883MPD2     C12997   4.491   1.811  16.704  0.3416 -0.0656 -0.5155
  883MPD2    C112998   4.547   1.888  16.607 -0.1181 -1.0150  0.4402
  883MPD2    C212999   4.672   1.944  16.640 -0.0239  0.9102 -0.1225
  883MPD2    C313000   0.005   1.907  16.754 -0.0443 -0.0798 -0.0091
  883MPD2    C413001   4.678   1.832  16.844 -0.2558 -0.0587  0.2500
  883MPD2    C513002   4.547   1.798  16.830  0.2795 -0.0830 -0.1086
  883MPD2     H13003   4.716   2.019  16.576  0.6378  0.8152  0.2183
  883MPD2    H113004   4.727   1.800  16.936  0.6830 -1.5577 -0.7610
  883MPD2    H213005   4.392   1.767  16.694 -0.3133  1.1047  0.9649
  883MPD2    H313006   4.497   1.749  16.913 -0.6681  0.5061 -0.3281
  883MPD2     N13007   0.134   1.955  16.789 -0.1552 -0.0050 -0.0332
  883MPD2    H513008   0.171   2.012  16.714 -0.5401 -0.2742 -0.4254
  883MPD2    N113009   4.484   1.917  16.488 -0.8800  0.6076  0.0271
  883MPD2    H713010   4.536   1.967  16.416 -0.4860 -0.8389 -0.7006
  884MPD2     C13011   1.528   2.512  15.460  0.5325 -0.2542 -0.1268
  884MPD2    C113012   1.480   2.542  15.337 -0.0455  0.5261 -1.0779
  884MPD2    C213013   1.356   2.589  15.328 -0.6171  0.3722 -0.0157
  884MPD2    C313014   1.274   2.606  15.436 -0.7659 -0.0991  0.1925
  884MPD2    C413015   1.323   2.586  15.566 -0.4583  0.2309 -0.3996
  884MPD2    C513016   1.451   2.533  15.574  0.8065 -0.5072 -0.8967
  884MPD2     H13017   1.328   2.626  15.230  1.2383 -0.0725 -0.7257
  884MPD2    H113018   1.270   2.616  15.656  0.0122 -1.9161  0.5783
  884MPD2    H213019   1.619   2.457  15.481  1.5259  0.5195 -2.4957
  884MPD2    H313020   1.485   2.501  15.671  1.2839  1.0244 -0.5522
  884MPD2     N13021   1.149   2.676  15.411 -0.1768  0.5197  0.6016
  884MPD2    H513022   1.131   2.700  15.314  4.0948 -0.0830 -0.3510
  884MPD2    N113023   1.554   2.531  15.224  0.3276 -0.1778  0.0431
  884MPD2    H713024   1.508   2.578  15.147  0.9914 -0.7606 -0.7110
  885MPD2     C13025   4.495   2.659   0.255 -0.4643 -0.1226 -0.2560
  885MPD2    C113026   4.612   2.726   0.243  0.1817 -0.4030 -0.2012
  885MPD2    C213027   4.650   2.769   0.116 -0.5357 -0.1610 -0.4207
  885MPD2    C313028   4.559   2.760   0.008 -0.0268  0.6488  0.1514
  885MPD2    C413029   4.431   2.709   0.029  0.1645  0.4673  0.6645
  885MPD2    C513030   4.404   2.651   0.151  0.0925 -0.3873  1.3828
  885MPD2     H13031   0.015   2.804   0.101 -1.5133  2.4465 -0.8965
  885MPD2    H113032   4.350   2.711  17.704 -1.4471  0.2264  2.4767
  885MPD2    H213033   4.478   2.606   0.348 -0.3912  0.9154  0.3515
  885MPD2    H313034   4.313   2.592   0.154 -0.6206  0.6685  0.6631
  885MPD2     N13035   4.606   2.825  17.635  0.5516 -1.1847  0.0986
  885MPD2    H513036   4.707   2.826  17.630  0.4758 -0.2485 -1.1545
  885MPD2    N113037   4.692   2.729   0.356 -0.2852  0.1312  0.2096
  885MPD2    H713038   4.655   2.709   0.448  0.4342  1.9427  0.8993
  886MPD2     C13039   1.099   1.269  15.347  0.6796 -0.2908  0.4322
  886MPD2    C113040   1.139   1.326  15.465  0.6590  0.4589 -0.3566
  886MPD2    C213041   1.129   1.462  15.487 -0.3032 -0.0633  0.1553
  886MPD2    C313042   1.068   1.543  15.394 -0.7183 -0.5220  0.6188
  886MPD2    C413043   1.018   1.485  15.274 -0.4924  0.4912 -0.3742
  886MPD2    C513044   1.045   1.355  15.253 -0.0282 -0.0781 -0.2221
  886MPD2     H13045   1.180   1.496  15.576 -0.1417  0.7899 -0.2609
  886MPD2    H113046   0.970   1.548  15.201 -0.0596  0.9272 -0.2851
  886MPD2    H213047   1.125   1.168  15.318  0.2805 -1.1763  3.1978
  886MPD2    H313048   1.002   1.319  15.161 -0.0985  1.4559 -0.7986
  886MPD2     N13049   1.061   1.685  15.396 -0.1305 -0.4324  0.2536
  886MPD2    H513050   1.018   1.729  15.315  0.8729  0.0473 -0.0068
  886MPD2    N113051   1.224   1.253  15.552 -0.6765 -0.5944 -0.3639
  886MPD2    H713052   1.282   1.309  15.614 -2.7189  0.0265  1.0016
  887MPD2     C13053   1.922   1.274  15.537 -0.5167  0.8010 -0.5876
  887MPD2    C113054   1.788   1.317  15.558 -0.5935  0.1788  0.0374
  887MPD2    C213055   1.753   1.453  15.556 -0.1224 -0.1603  0.2503
  887MPD2    C313056   1.848   1.543  15.523  0.5325  1.1826 -0.1029
  887MPD2    C413057   1.983   1.499  15.517  0.0862 -0.4150 -0.8501
  887MPD2    C513058   2.017   1.365  15.516 -0.0282 -0.6090  0.5725
  887MPD2     H13059   1.651   1.483  15.572 -0.2751  0.1461 -1.3530
  887MPD2    H113060   2.064   1.568  15.501 -0.4215 -0.2136 -2.5323
  887MPD2    H213061   1.946   1.169  15.549  1.6753  1.6451  2.3847
  887MPD2    H313062   2.122   1.339  15.502  0.0335  0.3192 -0.6630
  887MPD2     N13063   1.814   1.680  15.528  0.4049  0.0120  0.2660
  887MPD2    H513064   1.714   1.693  15.541  0.0590 -2.2847 -0.1748
  887MPD2    N113065   1.682   1.230  15.594 -0.4041  0.1180 -0.0639
  887MPD2    H713066   1.595   1.278  15.615 -0.2004  0.6940 -0.5196
  888MPD2     C13067   3.598   1.156  15.303  0.0282  1.0637 -0.1432
  888MPD2    C113068   3.606   1.216  15.429 -0.0786  0.2906 -0.3470
  888MPD2    C213069   3.655   1.346  15.430  0.6963  0.4734 -0.3046
  888MPD2    C313070   3.712   1.406  15.321  0.0914  0.3211  0.0326
  888MPD2    C413071   3.699   1.349  15.199 -0.4131 -0.0035 -0.5086
  888MPD2    C513072   3.639   1.223  15.193  1.3120  0.1463  0.5259
  888MPD2     H13073   3.669   1.401  15.522  0.1526 -1.0187  0.6783
  888MPD2    H113074   3.718   1.401  15.105 -0.7099  0.9445 -0.0434
  888MPD2    H213075   3.546   1.061  15.299  1.4666  0.2184  1.3655
  888MPD2    H313076   3.631   1.178  15.095  0.2355  0.4187  0.4936
  888MPD2     N13077   3.749   1.546  15.338 -0.5841 -0.3276 -0.3317
  888MPD2    H513078   3.744   1.594  15.427  0.1708  0.9190 -0.9627
  888MPD2    N113079   3.567   1.143  15.544  0.3017  0.0645  0.0979
  888MPD2    H713080   3.598   1.188  15.629  0.0774  0.6731 -0.1441
  889MPD2     C13081   2.551   0.871  13.213  0.1565  0.2641  0.4922
  889MPD2    C113082   2.612   0.846  13.334  0.2285  0.6112 -0.7030
  889MPD2    C213083   2.611   0.950  13.426  0.4406  0.2755 -0.3630
  889MPD2    C313084   2.573   1.080  13.390  0.4019  0.6293  0.2514
  889MPD2    C413085   2.544   1.110  13.253  1.4387 -0.2651  0.2766
  889MPD2    C513086   2.530   1.000  13.171 -0.5049 -0.5539 -0.2771
  889MPD2     H13087   2.627   0.937  13.533 -0.8643  2.3353  0.0990
  889MPD2    H113088   2.509   1.206  13.217  0.8832  0.7854  3.6862
  889MPD2    H213089   2.536   0.792  13.139 -1.0713  1.4705 -0.5436
  889MPD2    H313090   2.480   1.016  13.076 -0.9613 -1.0944 -0.1298
  889MPD2     N13091   2.570   1.176  13.488  0.0166 -0.4780 -0.1474
  889MPD2    H513092   2.599   1.145  13.580  0.9243  0.3395 -0.1511
  889MPD2    N113093   2.621   0.712  13.372 -0.5384  0.3341 -0.6260
  889MPD2    H713094   2.584   0.642  13.309 -1.7467 -0.5411  1.0514
  890MPD2     C13095   2.345   2.762  14.903 -0.1785  0.7487 -0.2694
  890MPD2    C113096   2.338   2.803  15.035 -0.2119  0.5792 -0.6904
  890MPD2    C213097   2.430   2.751  15.126  0.3136 -0.0690  0.0023
  890MPD2    C313098   2.522   2.659  15.080 -0.1074  0.2556 -0.5711
  890MPD2    C413099   2.526   2.623  14.946  0.1286  0.1556 -0.5305
  890MPD2    C513100   2.438   2.672  14.861 -0.6844 -0.4116  0.0635
  890MPD2     H13101   2.428   2.778  15.231  0.2487  0.7751 -0.2105
  890MPD2    H113102   2.609   2.565  14.910 -1.1796 -0.9693 -1.7311
  890MPD2    H213103   2.275   2.790  14.825  0.2101  3.3817  0.3537
  890MPD2    H313104   2.436   2.638  14.758 -0.3881 -1.2210  0.3309
  890MPD2     N13105   2.608   2.609  15.180  0.4598 -0.4696 -1.0393
  890MPD2    H513106   2.576   2.641  15.271  1.9415 -4.2333  0.8185
  890MPD2    N113107   2.251   2.915  15.050 -0.0153  0.3129  0.3684
  890MPD2    H713108   2.207   2.945  14.963  0.8076 -1.1655 -0.5472
  891MPD2     C13109   0.673   1.253  16.593 -0.6436  0.0304  0.0069
  891MPD2    C113110   0.587   1.183  16.669  0.0431 -0.0717 -0.6466
  891MPD2    C213111   0.638   1.119  16.789  0.1361 -0.7658  1.1283
  891MPD2    C313112   0.774   1.118  16.821 -0.0123 -0.8811  0.0611
  891MPD2    C413113   0.854   1.192  16.742  0.7207 -0.3674  0.0333
  891MPD2    C513114   0.803   1.269  16.638  0.0333  0.4738  0.1618
  891MPD2     H13115   0.571   1.062  16.853  0.0912 -2.4454 -0.4195
  891MPD2    H113116   0.957   1.212  16.770  0.9418  0.7640 -1.6126
  891MPD2    H213117   0.637   1.299  16.502 -0.1905  0.0483 -0.1645
  891MPD2    H313118   0.868   1.338  16.586  2.5994 -2.8067 -0.9117
  891MPD2     N13119   0.820   1.052  16.939  0.1156 -0.3826  0.1309
  891MPD2    H513120   0.763   1.001  17.005 -0.6371 -2.0794 -1.8417
  891MPD2    N113121   0.453   1.171  16.624  0.6906 -0.1319  0.5430
  891MPD2    H713122   0.424   1.230  16.547 -2.7929 -0.0791  1.8988
  892MPD2     C13123   1.511   2.193  15.367  0.3888  0.5196 -0.5085
  892MPD2    C113124   1.462   2.195  15.235 -0.2933  0.6474  0.1090
  892MPD2    C213125   1.519   2.100  15.141  0.1785  0.3405  0.1819
  892MPD2    C313126   1.636   2.030  15.175 -0.8155 -0.1598  0.8212
  892MPD2    C413127   1.697   2.059  15.298 -0.0778 -0.4738  0.1173
  892MPD2    C513128   1.631   2.126  15.402  0.0404 -0.0835  0.1900
  892MPD2     H13129   1.454   2.061  15.064 -0.0240 -0.9374  0.9999
  892MPD2    H113130   1.795   2.017  15.318  0.3970  0.0442 -1.1314
  892MPD2    H213131   1.463   2.257  15.440 -0.9883  1.8325 -2.5718
  892MPD2    H313132   1.674   2.154  15.498 -0.6650 -0.8558  0.7376
  892MPD2     N13133   1.691   1.924  15.093 -0.1234  0.4228  0.1704
  892MPD2    H513134   1.785   1.900  15.122  1.5392 -0.0309 -5.7047
  892MPD2    N113135   1.341   2.265  15.210 -0.0589 -0.4245  0.0036
  892MPD2    H713136   1.290   2.298  15.291 -0.2851  1.6151 -0.9731
  893MPD2     C13137   2.893   4.457   1.090 -0.3484 -0.7131  0.2208
  893MPD2    C113138   2.999   4.442   1.001 -0.6095 -0.1630  0.8273
  893MPD2    C213139   3.001   4.331   0.921 -0.1871  0.5972 -0.4993
  893MPD2    C313140   2.895   4.241   0.937 -0.1756 -0.9523 -0.5537
  893MPD2    C413141   2.807   4.254   1.041  0.6214 -0.1468 -0.3641
  893MPD2    C513142   2.800   4.364   1.110  0.3524 -0.4693 -0.4210
  893MPD2     H13143   3.081   4.308   0.851 -0.4599 -1.7368 -0.0607
  893MPD2    H113144   2.747   4.168   1.069 -0.1673  0.2405 -0.8548
  893MPD2    H213145   2.881   4.546   1.151 -0.1028  0.2717 -1.1536
  893MPD2    H313146   2.713   4.381   1.173  0.4204 -2.0608  0.1141
  893MPD2     N13147   2.879   4.129   0.853  0.2808 -0.7801  0.8690
  893MPD2    H513148   2.793   4.078   0.874 -0.8251 -0.1744 -2.1883
  893MPD2    N113149   3.094   4.545   1.001  0.1945 -0.2251  0.9422
  893MPD2    H713150   3.078   4.625   1.061 -0.4156  0.0088  0.4773
  894MPD2     C13151   1.563   4.069   1.810 -0.0233  0.2399 -0.2680
  894MPD2    C113152   1.614   3.965   1.877  0.5170 -0.3238 -0.0585
  894MPD2    C213153   1.683   3.869   1.808  0.5031 -0.7092  0.0457
  894MPD2    C313154   1.718   3.880   1.679 -0.5259 -0.6918 -0.2491
  894MPD2    C413155   1.675   3.991   1.620  0.1478 -0.2520  0.2884
  894MPD2    C513156   1.597   4.083   1.684  0.0295  0.2517 -0.4205
  894MPD2     H13157   1.711   3.779   1.862  2.7686  0.0254  0.1183
  894MPD2    H113158   1.701   4.026   1.520  0.8990  2.5777  1.4728
  894MPD2    H213159   1.489   4.137   1.852 -1.0419  0.1593 -1.9275
  894MPD2    H313160   1.557   4.164   1.623  1.3728  0.7736 -0.5952
  894MPD2     N13161   1.793   3.777   1.612  0.0275  0.4173  0.1831
  894MPD2    H513162   1.827   3.704   1.675 -0.0550  0.8054  0.6690
  894MPD2    N113163   1.582   3.940   2.009  0.4258  0.1556  0.3042
  894MPD2    H713164   1.605   3.852   2.054 -0.5416  0.6570  1.7436
  895MPD2     C13165   0.962   1.083  13.934 -0.5499 -0.2460 -0.2123
  895MPD2    C113166   0.883   1.099  13.832 -0.1521  0.9427 -0.5566
  895MPD2    C213167   0.905   1.025  13.715  0.2023  0.0998  1.0199
  895MPD2    C313168   0.988   0.922  13.705  0.3232 -0.1634 -0.4257
  895MPD2    C413169   1.065   0.899  13.824  0.2933  0.5825  0.7486
  895MPD2    C513170   1.057   0.981  13.931  0.1358 -0.5758 -0.0304
  895MPD2     H13171   0.828   1.031  13.639  0.1873  2.0717  1.1772
  895MPD2    H113172   1.135   0.817  13.833 -1.9483 -1.1290  2.7962
  895MPD2    H213173   0.955   1.134  14.029 -1.9530  0.9023 -0.9283
  895MPD2    H313174   1.125   0.955  14.012  0.0250 -1.3898 -0.1936
  895MPD2     N13175   0.989   0.832  13.603 -0.2627  0.6275  0.1435
  895MPD2    H513176   1.024   0.743  13.637 -2.3769 -0.4358 -0.4169
  895MPD2    N113177   0.769   1.187  13.829 -0.4895 -0.1014  0.2409
  895MPD2    H713178   0.716   1.177  13.743  1.0690  1.7101 -0.9514
  896MPD2     C13179   3.395   4.044   1.573  0.0644  0.2381 -0.7440
  896MPD2    C113180   3.410   3.973   1.457 -0.7467 -0.1592 -0.6957
  896MPD2    C213181   3.327   3.863   1.433  0.3800  0.0293 -0.1968
  896MPD2    C313182   3.221   3.824   1.517 -0.3229  0.0815 -0.1271
  896MPD2    C413183   3.212   3.903   1.639 -0.0173 -0.2335 -0.7208
  896MPD2    C513184   3.296   4.005   1.662 -0.1598 -0.6123  0.4220
  896MPD2     H13185   3.342   3.828   1.332 -2.6492  1.1218 -1.0190
  896MPD2    H113186   3.135   3.889   1.714 -0.6914 -0.3896 -1.4452
  896MPD2    H213187   3.465   4.123   1.597 -0.9735  0.2908  2.0867
  896MPD2    H313188   3.286   4.061   1.754 -1.8900 -0.6807  0.2818
  896MPD2     N13189   3.137   3.719   1.478 -0.1474 -0.6644 -1.2264
  896MPD2    H513190   3.147   3.693   1.380 -2.1521 -2.7513 -0.8844
  896MPD2    N113191   3.505   4.029   1.364  0.6310  0.4035 -0.4120
  896MPD2    H713192   3.564   4.102   1.402 -0.6773  1.2975 -0.1184
  897MPD2     C13193   3.711   0.414  10.768  0.4608 -0.0299  0.1249
  897MPD2    C113194   3.669   0.540  10.820 -0.1793  0.1351 -0.0046
  897MPD2    C213195   3.579   0.534  10.926 -0.3349  0.0649  0.5474
  897MPD2    C313196   3.531   0.415  10.975 -0.5446 -0.4243  0.0403
  897MPD2    C413197   3.566   0.299  10.910  0.3006  0.5314 -0.1765
  897MPD2    C513198   3.657   0.297  10.803 -0.7637  0.2103 -0.1976
  897MPD2     H13199   3.526   0.625  10.954  1.7447  1.3769  0.2162
  897MPD2    H113200   3.536   0.201  10.945  0.6725  1.3599  2.4507
  897MPD2    H213201   3.778   0.413  10.683 -0.6767  1.4518 -0.7784
  897MPD2    H313202   3.683   0.204  10.752 -2.0665 -1.1456  1.6129
  897MPD2     N13203   3.439   0.423  11.081 -0.2819 -0.0295  0.6909
  897MPD2    H513204   3.421   0.520  11.105 -1.6750 -0.4913  1.4922
  897MPD2    N113205   3.703   0.656  10.763 -0.1662  0.3773  0.1437
  897MPD2    H713206   3.759   0.647  10.678  0.8530 -4.4222  1.3634
  898MPD2     C13207   1.655   2.137   0.477 -0.7657  0.8496  0.2365
  898MPD2    C113208   1.605   2.093   0.358  0.0944 -0.3067  0.3023
  898MPD2    C213209   1.540   2.184   0.279 -0.5351 -0.4663 -0.1470
  898MPD2    C313210   1.516   2.315   0.320 -0.6976  0.2713  0.0340
  898MPD2    C413211   1.566   2.354   0.444  0.5270  0.3693  0.7611
  898MPD2    C513212   1.632   2.263   0.517  0.0576  0.0575  0.5512
  898MPD2     H13213   1.509   2.149   0.181  0.3312 -0.1348 -0.5395
  898MPD2    H113214   1.543   2.456   0.473 -3.1053 -0.3098  0.2891
  898MPD2    H213215   1.730   2.080   0.530  0.4850  2.7213  0.4652
  898MPD2    H313216   1.682   2.297   0.607 -1.2470  0.1245  1.2582
  898MPD2     N13217   1.449   2.399   0.225 -0.5431 -0.0862  0.1223
  898MPD2    H513218   1.400   2.348   0.153 -0.9566  0.5967 -0.0669
  898MPD2    N113219   1.619   1.959   0.308 -0.0068  0.2231 -0.3530
  898MPD2    H713220   1.574   1.945   0.218 -2.8836 -0.9049  1.2327
  899MPD2     C13221   1.868   1.993  17.285 -0.1525 -0.1264 -0.1310
  899MPD2    C113222   1.900   2.098  17.373 -0.5461 -0.5579 -0.4251
  899MPD2    C213223   1.946   2.064  17.498  0.0597 -0.3449  0.0942
  899MPD2    C313224   1.956   1.929  17.541  0.6658 -0.7662  0.5329
  899MPD2    C413225   1.938   1.833  17.442  0.9136 -0.2579 -0.2021
  899MPD2    C513226   1.889   1.863  17.319  0.0177  0.2248 -0.0571
  899MPD2     H13227   1.984   2.145  17.559  0.8691 -1.4756  1.0775
  899MPD2    H113228   1.956   1.731  17.474  1.6309  0.4591  1.6525
  899MPD2    H213229   1.825   2.010  17.187 -1.7338  2.6188  1.0483
  899MPD2    H313230   1.860   1.789  17.246  0.0389  0.1870 -0.0272
  899MPD2     N13231   2.000   1.876  17.666  0.2791 -0.0143 -0.1727
  899MPD2    H513232   2.025   1.778  17.657  0.6204  0.0405  0.1721
  899MPD2    N113233   1.890   2.230  17.330 -0.1175  0.5190 -0.0534
  899MPD2    H713234   1.878   2.241  17.229  0.0571 -5.3351 -0.7069
  900MPD2     C13235   1.180   3.532  12.407 -0.1789  0.1691 -0.3828
  900MPD2    C113236   1.107   3.422  12.386 -0.0886  0.6724 -0.4473
  900MPD2    C213237   0.981   3.441  12.336  0.1739 -0.0781 -0.3469
  900MPD2    C313238   0.939   3.562  12.283  0.1888  0.3627 -0.5018
  900MPD2    C413239   1.020   3.673  12.299  0.3349 -0.4532 -0.1258
  900MPD2    C513240   1.139   3.653  12.358  0.1085  0.2082  0.2074
  900MPD2     H13241   0.911   3.358  12.326  0.0510 -0.0001 -0.1312
  900MPD2    H113242   1.007   3.776  12.269 -1.1434 -1.0844 -1.6423
  900MPD2    H213243   1.277   3.522  12.453 -0.3072  1.2317  0.1190
  900MPD2    H313244   1.199   3.738  12.388  0.8155  0.2433 -1.3217
  900MPD2     N13245   0.821   3.572  12.207  0.3251 -0.4460 -0.4097
  900MPD2    H513246   0.754   3.497  12.210 -0.2257  0.1226  1.3946
  900MPD2    N113247   1.166   3.299  12.430 -0.7275 -0.2991  0.9545
  900MPD2    H713248   1.252   3.295  12.483 -1.5364 -1.6658  2.1922
  901MPD2     C13249   1.192   2.213  12.400  0.2219 -0.4334 -0.6251
  901MPD2    C113250   1.295   2.263  12.480  0.6214 -0.1965  0.7049
  901MPD2    C213251   1.295   2.396  12.522 -0.9242 -0.2058  0.3459
  901MPD2    C313252   1.193   2.483  12.477 -0.0535 -0.3040  0.4742
  901MPD2    C413253   1.087   2.429  12.407  0.6260  0.6143 -0.8278
  901MPD2    C513254   1.085   2.291  12.375  0.7080  0.3226 -0.7423
  901MPD2     H13255   1.369   2.441  12.587  1.2690 -0.9623 -1.6285
  901MPD2    H113256   1.004   2.485  12.366  1.0232  1.2535 -0.7443
  901MPD2    H213257   1.184   2.109  12.373 -1.4455 -0.1826 -1.0711
  901MPD2    H313258   0.997   2.245  12.331  0.3757  0.2404  0.0068
  901MPD2     N13259   1.197   2.613  12.524 -0.1512  0.1150 -0.4469
  901MPD2    H513260   1.272   2.629  12.591 -1.4328 -2.7879  1.6862
  901MPD2    N113261   1.399   2.174  12.509 -0.0156  0.3247  0.5112
  901MPD2    H713262   1.386   2.082  12.469  2.1384  0.7041 -1.0533
  902MPD2     C13263   0.096   1.276  13.164  0.9279 -0.2299  0.0878
  902MPD2    C113264   0.215   1.349  13.149 -0.6177  0.0029 -0.0315
  902MPD2    C213265   0.282   1.340  13.025 -0.3266 -0.1783 -1.3960
  902MPD2    C313266   0.244   1.251  12.931 -0.2415  0.5097  0.4252
  902MPD2    C413267   0.118   1.187  12.948  0.2111 -0.1465  0.6852
  902MPD2    C513268   0.051   1.198  13.065  0.1563  0.1792 -0.6096
  902MPD2     H13269   0.374   1.395  13.016  0.4383 -0.7917  2.7551
  902MPD2    H113270   0.075   1.121  12.873 -0.1159 -0.3100  1.0158
  902MPD2    H213271   0.035   1.294  13.252 -0.4478  0.6865 -1.0489
  902MPD2    H313272   4.685   1.165  13.071 -0.2362  1.2024 -1.9798
  902MPD2     N13273   0.308   1.235  12.807 -0.0101  0.3691 -0.8376
  902MPD2    H513274   0.261   1.197  12.725 -2.7291  2.0428 -0.0456
  902MPD2    N113275   0.249   1.446  13.250 -0.2598  0.4161 -0.4638
  902MPD2    H713276   0.191   1.446  13.334 -0.7795  1.8694 -0.8217
  903MPD2     C13277   0.267   1.229  11.960 -0.1974 -0.2467  0.5238
  903MPD2    C113278   0.219   1.245  12.091  0.2067 -0.0208  0.7066
  903MPD2    C213279   0.095   1.200  12.121  0.4680  0.3265 -0.1863
  903MPD2    C313280   0.005   1.149  12.026 -0.1258  0.4056 -0.5283
  903MPD2    C413281   0.053   1.144  11.898  0.9227  0.0719 -0.1490
  903MPD2    C513282   0.179   1.187  11.865 -0.3386  0.1462  0.3197
  903MPD2     H13283   0.064   1.200  12.225  0.8397  1.1019 -0.0783
  903MPD2    H113284   4.724   1.109  11.820 -0.2230  2.3946 -0.2444
  903MPD2    H213285   0.368   1.259  11.931  0.2991  0.4060  2.9435
  903MPD2    H313286   0.220   1.177  11.765  0.0271 -0.2195  0.5034
  903MPD2     N13287   4.629   1.080  12.066 -0.8530  0.7363 -0.2355
  903MPD2    H513288   4.604   1.095  12.164  1.6039  0.8927  0.3676
  903MPD2    N113289   0.310   1.297  12.191  0.0436 -0.1572 -0.5486
  903MPD2    H713290   0.404   1.315  12.157 -0.3032 -0.5123 -1.6810
  904MPD2     C13291   0.953   0.864  14.228  0.2129  0.1492  1.0560
  904MPD2    C113292   0.827   0.893  14.182  0.0334  0.6466 -0.3362
  904MPD2    C213293   0.753   0.985  14.250 -0.7129 -0.7040 -0.3681
  904MPD2    C313294   0.804   1.056  14.358 -0.3599 -0.4116  0.4747
  904MPD2    C413295   0.934   1.037  14.394  0.4636 -0.0427  0.3297
  904MPD2    C513296   1.004   0.938  14.330  0.8347 -0.7235 -0.3130
  904MPD2     H13297   0.652   1.011  14.223 -1.2746 -2.2274  0.3036
  904MPD2    H113298   0.983   1.090  14.475 -2.5882  1.0243  1.4983
  904MPD2    H213299   1.018   0.787  14.188  0.6806  0.7171  0.7134
  904MPD2    H313300   1.106   0.924  14.365 -0.0494 -0.9899  2.1669
  904MPD2     N13301   0.713   1.139  14.421 -0.7013  0.0129  0.4661
  904MPD2    H513302   0.625   1.158  14.375 -2.0353 -0.7016  2.7178
  904MPD2    N113303   0.759   0.818  14.085  0.2644 -0.3075 -0.5437
  904MPD2    H713304   0.671   0.849  14.046 -0.1225 -2.4410 -1.3525
  905MPD2     C13305   0.229   0.513  13.487 -0.3588 -0.3195  0.7662
  905MPD2    C113306   0.326   0.609  13.507 -0.6326  0.3887 -0.0796
  905MPD2    C213307   0.405   0.658  13.395  0.2941 -0.4513  1.3443
  905MPD2    C313308   0.385   0.610  13.273 -0.2054  0.5474 -0.6519
  905MPD2    C413309   0.275   0.528  13.255  0.0921  0.9045 -0.0488
  905MPD2    C513310   0.198   0.483  13.353 -0.8089 -0.1232 -0.0356
  905MPD2     H13311   0.484   0.732  13.404 -0.1252 -0.0053  1.3881
  905MPD2    H113312   0.259   0.485  13.157 -2.1092  0.7009  0.4114
  905MPD2    H213313   0.173   0.474  13.572  0.3131 -1.1375  0.8335
  905MPD2    H313314   0.116   0.415  13.337 -0.8674 -0.2845  0.9365
  905MPD2     N13315   0.476   0.627  13.162 -0.3987  0.3963  0.0653
  905MPD2    H513316   0.435   0.597  13.075 -0.3118  2.3919 -0.6529
  905MPD2    N113317   0.364   0.639  13.642 -0.1071 -0.1864 -0.4417
  905MPD2    H713318   0.309   0.596  13.715  1.1995 -0.7762  0.1904
  906MPD2     C13319   2.653   1.206  11.499  0.2216  0.7000  0.1175
  906MPD2    C113320   2.579   1.128  11.411 -0.1851  0.4887  0.5559
  906MPD2    C213321   2.530   1.007  11.455  0.4275  0.3497  0.4936
  906MPD2    C313322   2.547   0.968  11.586 -0.1251  0.3332  0.5632
  906MPD2    C413323   2.623   1.041  11.674 -0.1432 -0.1488 -0.3726
  906MPD2    C513324   2.675   1.164  11.629 -0.1919 -0.4865 -0.3420
  906MPD2     H13325   2.471   0.957  11.379 -1.6238  2.8448  0.4351
  906MPD2    H113326   2.640   1.018  11.778  2.2588 -1.8688 -1.1578
  906MPD2    H213327   2.693   1.301  11.466 -2.9457  1.8330 -0.5149
  906MPD2    H313328   2.729   1.230  11.696 -1.5262  0.6102 -0.3528
  906MPD2     N13329   2.489   0.845  11.630 -0.1445 -0.5386  0.0697
  906MPD2    H513330   2.537   0.797  11.705 -1.0834 -0.8184  0.4911
  906MPD2    N113331   2.538   1.165  11.283  0.7614  0.3493 -0.1179
  906MPD2    H713332   2.508   1.089  11.223  0.0934  1.0256 -0.6337
  907MPD2     C13333   1.792   0.275  15.284 -0.2400 -0.3281  0.1576
  907MPD2    C113334   1.748   0.148  15.310  0.1875  0.3251 -0.8705
  907MPD2    C213335   1.734   0.116  15.445 -0.3803  0.3266  0.2086
  907MPD2    C313336   1.771   0.203  15.545 -0.9503 -0.3115  0.4058
  907MPD2    C413337   1.815   0.330  15.512  0.0245  0.4588  0.8066
  907MPD2    C513338   1.827   0.363  15.382 -0.3784 -0.1987  0.0172
  907MPD2     H13339   1.700   0.019  15.479 -0.5790 -0.7355 -3.0618
  907MPD2    H113340   1.841   0.410  15.580  3.6941  0.2951 -0.4032
  907MPD2    H213341   1.793   0.307  15.181 -0.9997 -2.0146 -0.3679
  907MPD2    H313342   1.862   0.462  15.354  1.0783 -1.0125 -1.0651
  907MPD2     N13343   1.766   0.153  15.680  0.2535  0.4834 -0.3273
  907MPD2    H513344   1.730   0.059  15.687 -0.4182  0.7682  0.0439
  907MPD2    N113345   1.725   0.056  15.212 -0.5095 -0.6445  0.0746
  907MPD2    H713346   1.676   4.710  15.242 -1.3383 -0.4211 -0.6739
  908MPD2     C13347   3.842   0.789   9.895 -0.2149 -0.4649  0.2421
  908MPD2    C113348   3.792   0.680   9.965  0.2891 -0.1660 -0.2193
  908MPD2    C213349   3.760   0.707  10.102 -0.3687 -0.7101 -0.1895
  908MPD2    C313350   3.778   0.834  10.166 -1.1712 -0.0399  0.3100
  908MPD2    C413351   3.825   0.940  10.083  0.1574  0.7437 -0.1835
  908MPD2    C513352   3.860   0.910   9.955  0.0264 -0.4622  0.1086
  908MPD2     H13353   3.721   0.626  10.163  1.0714 -0.7478  0.6634
  908MPD2    H113354   3.848   1.040  10.119  0.7894  0.1877  0.9501
  908MPD2    H213355   3.872   0.780   9.791 -0.2168 -3.1389  0.4814
  908MPD2    H313356   3.900   0.998   9.907 -0.0074 -0.9851 -0.8667
  908MPD2     N13357   3.746   0.864  10.303  0.4146 -0.6924 -0.3060
  908MPD2    H513358   3.741   0.783  10.364 -1.1548 -2.7145 -3.1370
  908MPD2    N113359   3.779   0.562   9.896 -0.1600 -0.8065 -0.2386
  908MPD2    H713360   3.811   0.554   9.800 -1.4841 -2.5897 -0.5179
  909MPD2     C13361   4.031   2.773  11.460 -0.9458 -0.2210 -0.4764
  909MPD2    C113362   4.047   2.910  11.459 -0.1561  0.3113 -0.3113
  909MPD2    C213363   4.033   2.980  11.577 -0.8720  0.3899 -0.4575
  909MPD2    C313364   3.997   2.923  11.694  0.6946  0.0389 -0.0956
  909MPD2    C413365   3.961   2.789  11.684  0.2198 -0.8667 -0.1730
  909MPD2    C513366   3.978   2.717  11.568 -0.4456  0.8789 -0.2989
  909MPD2     H13367   4.044   3.087  11.578 -0.4240  0.3219  1.6738
  909MPD2    H113368   3.925   2.738  11.772  1.5872  0.2692  1.0386
  909MPD2    H213369   4.054   2.706  11.378  1.3695 -0.4231  0.3222
  909MPD2    H313370   3.958   2.611  11.555  0.4561  0.6704  0.0708
  909MPD2     N13371   3.984   3.014  11.808 -0.3137  0.3761  0.0811
  909MPD2    H513372   3.996   3.114  11.795  1.3815 -0.0925 -1.8018
  909MPD2    N113373   4.097   2.986  11.347 -0.0199  0.2989 -0.6737
  909MPD2    H713374   4.125   3.079  11.376 -1.3005  0.7268 -0.8087
  910MPD2     C13375   1.268   0.672  16.382 -0.1638  0.1286  0.3629
  910MPD2    C113376   1.147   0.635  16.439  0.0612  0.3268 -0.3585
  910MPD2    C213377   1.040   0.649  16.357 -0.4182 -0.2825 -0.0920
  910MPD2    C313378   1.053   0.685  16.219 -0.3653  0.4257  0.1533
  910MPD2    C413379   1.173   0.730  16.173 -0.0294 -0.0039 -0.5116
  910MPD2    C513380   1.279   0.721  16.254  0.4402 -0.3407  0.6374
  910MPD2     H13381   0.946   0.619  16.403 -0.4436  2.0962  1.3756
  910MPD2    H113382   1.186   0.756  16.068 -2.1938  3.0541 -0.0240
  910MPD2    H213383   1.362   0.670  16.436 -0.5118 -3.1059  0.8563
  910MPD2    H313384   1.374   0.742  16.206 -0.4989  0.6681 -0.7825
  910MPD2     N13385   0.946   0.684  16.127 -1.2011 -0.7763  1.3317
  910MPD2    H513386   0.978   0.700  16.032 -2.0381 -0.1690  1.1478
  910MPD2    N113387   1.125   0.601  16.573  0.0704  0.4455  0.2490
  910MPD2    H713388   1.032   0.578  16.606 -0.2094 -1.3315 -1.7270
  911MPD2     C13389   3.611   1.159  16.376 -0.1720  0.6014 -0.5099
  911MPD2    C113390   3.660   1.215  16.494 -0.3429 -0.5602  0.4782
  911MPD2    C213391   3.621   1.344  16.532  0.1864 -0.2194  0.3810
  911MPD2    C313392   3.555   1.425  16.443 -0.4342 -0.1340  0.3184
  911MPD2    C413393   3.534   1.378  16.313  0.6519 -0.0770  0.9288
  911MPD2    C513394   3.557   1.244  16.289  0.2007  0.4115  0.3470
  911MPD2     H13395   3.650   1.394  16.624 -2.5376  0.0995  1.0631
  911MPD2    H113396   3.487   1.430  16.231 -1.2395 -0.0503  2.0332
  911MPD2    H213397   3.610   1.052  16.365  1.8583  0.6691 -1.3982
  911MPD2    H313398   3.534   1.203  16.191  2.9160 -0.1820 -0.0591
  911MPD2     N13399   3.525   1.560  16.486 -0.0965 -0.3445  0.6257
  911MPD2    H513400   3.519   1.582  16.585  2.1347  0.0814  0.6730
  911MPD2    N113401   3.735   1.124  16.573  0.1692  0.5415  0.0637
  911MPD2    H713402   3.750   1.033  16.533 -2.5082 -0.8034  2.0993
  912MPD2     C13403   3.190   1.249  16.115 -0.1743  0.6859  0.9065
  912MPD2    C113404   3.181   1.254  16.248  0.1998 -0.0540 -0.1499
  912MPD2    C213405   3.188   1.140  16.324  0.2333 -0.8264  0.1397
  912MPD2    C313406   3.219   1.022  16.265  0.6368  0.8610  0.3953
  912MPD2    C413407   3.240   1.017  16.129 -0.1548  0.3951  0.0821
  912MPD2    C513408   3.219   1.127  16.055  0.2258  0.1904  0.1916
  912MPD2     H13409   3.180   1.152  16.431  0.0759  1.3669 -0.1306
  912MPD2    H113410   3.249   0.925  16.073 -0.3577 -0.3889  1.3534
  912MPD2    H213411   3.178   1.338  16.054 -1.6742 -0.6552 -0.7383
  912MPD2    H313412   3.233   1.126  15.948 -2.2404 -0.6263 -0.1133
  912MPD2     N13413   3.223   0.906  16.343 -0.4310  0.2130  0.0492
  912MPD2    H513414   3.199   0.912  16.442  1.9913  1.8012  0.5503
  912MPD2    N113415   3.145   1.375  16.304 -0.8282 -0.4396 -0.6050
  912MPD2    H713416   3.133   1.451  16.238 -1.1975 -1.3249 -1.5548
  913MPD2     C13417   3.760   1.649  10.711 -0.4182  0.1484  0.1571
  913MPD2    C113418   3.747   1.767  10.783  0.0349 -0.3555 -0.5586
  913MPD2    C213419   3.685   1.877  10.728  0.2416 -0.7503 -0.0483
  913MPD2    C313420   3.637   1.860  10.597 -0.0856  0.2513  0.0349
  913MPD2    C413421   3.637   1.739  10.525  0.2792 -0.2294  0.9155
  913MPD2    C513422   3.702   1.633  10.588  0.2845  0.6534  0.1488
  913MPD2     H13423   3.680   1.973  10.779  0.4980 -1.2163  0.8356
  913MPD2    H113424   3.599   1.724  10.425  1.5051  0.6545  0.3108
  913MPD2    H213425   3.817   1.566  10.752 -1.8042 -0.9412 -0.1526
  913MPD2    H313426   3.706   1.535  10.543  0.5849  0.8783 -0.3053
  913MPD2     N13427   3.600   1.971  10.522 -0.4546 -0.6640  0.2514
  913MPD2    H513428   3.553   1.944  10.436 -1.2744  1.8352 -0.0818
  913MPD2    N113429   3.809   1.774  10.911 -0.2464  0.2452  0.1226
  913MPD2    H713430   3.855   1.691  10.947 -0.4557  0.4538  0.8850
  914MPD2     C13431   2.277   2.540  12.528 -0.2007 -0.7266 -0.4025
  914MPD2    C113432   2.152   2.586  12.489 -0.5176  0.4002 -0.4227
  914MPD2    C213433   2.047   2.498  12.479  0.1132  0.5891  0.0643
  914MPD2    C313434   2.078   2.366  12.506  0.1162 -0.2328 -0.2616
  914MPD2    C413435   2.202   2.323  12.530  0.8537  0.7121 -0.4131
  914MPD2    C513436   2.304   2.411  12.547  0.2510  0.3096  0.0257
  914MPD2     H13437   1.945   2.513  12.444 -0.6960 -3.3615  0.7417
  914MPD2    H113438   2.239   2.224  12.555 -1.3499  0.0225  0.0966
  914MPD2    H213439   2.361   2.609  12.524  0.3990 -1.2661  2.4814
  914MPD2    H313440   2.402   2.374  12.574  0.4013  0.9096  0.3127
  914MPD2     N13441   1.970   2.277  12.516 -0.1570 -0.4843 -0.4546
  914MPD2    H513442   1.877   2.318  12.511  0.4825  1.1494  0.8179
  914MPD2    N113443   2.143   2.725  12.478  0.0032  0.1260 -0.2692
  914MPD2    H713444   2.232   2.770  12.459  0.1318 -0.0210 -0.0126
  915MPD2     C13445   0.185   2.375  15.552  0.3591  0.0771  0.6685
  915MPD2    C113446   0.081   2.448  15.500 -0.1838  0.8106  0.3884
  915MPD2    C213447   4.727   2.508  15.591  0.0066  0.0081 -0.0441
  915MPD2    C313448   0.003   2.491  15.722 -0.2672 -0.0894  0.0922
  915MPD2    C413449   0.114   2.430  15.772 -0.5105  0.0083 -0.1033
  915MPD2    C513450   0.202   2.367  15.694 -0.0697 -0.6836 -0.2954
  915MPD2     H13451   4.647   2.576  15.560  1.2314  1.9805  1.0952
  915MPD2    H113452   0.117   2.406  15.878 -2.6054 -1.8975 -0.4818
  915MPD2    H213453   0.257   2.329  15.484 -1.1878  0.7471 -1.4377
  915MPD2    H313454   0.291   2.322  15.734 -0.3471 -1.8898 -1.0490
  915MPD2     N13455   4.642   2.555  15.803  0.5973 -0.9390 -0.0545
  915MPD2    H513456   4.572   2.605  15.750 -1.6834 -3.3715  0.7183
  915MPD2    N113457   0.053   2.440  15.366 -0.5362  0.2857  0.2597
  915MPD2    H713458   0.117   2.387  15.307 -0.3111 -0.7881  1.4781
  916MPD2     C13459   3.030   1.208  15.812  0.3348  0.6016  0.3793
  916MPD2    C113460   2.953   1.113  15.878 -0.5289  0.6182  0.2771
  916MPD2    C213461   2.930   0.985  15.837 -0.6449 -0.3148 -0.3076
  916MPD2    C313462   2.996   0.953  15.719  0.1154  0.6158  0.3393
  916MPD2    C413463   3.076   1.036  15.655  0.7356 -0.6228  0.0901
  916MPD2    C513464   3.095   1.163  15.705  0.2419 -0.7583  0.0548
  916MPD2     H13465   2.862   0.909  15.871 -0.2579  0.3740  1.9999
  916MPD2    H113466   3.115   1.008  15.557  0.2169  0.6465 -0.4796
  916MPD2    H213467   3.046   1.311  15.838 -0.5163  1.0731 -0.9514
  916MPD2    H313468   3.156   1.239  15.659 -2.3107  0.9732 -0.4678
  916MPD2     N13469   2.975   0.813  15.685  0.1822  0.0776 -0.0508
  916MPD2    H513470   2.907   0.761  15.739  2.8007 -1.5703  1.6790
  916MPD2    N113471   2.879   1.163  15.984 -0.1548 -0.2441 -0.0625
  916MPD2    H713472   2.873   1.264  15.996  1.2145 -0.0435 -1.0724
  917MPD2     C13473   2.592   2.426  11.490  0.2685  0.6096 -0.6711
  917MPD2    C113474   2.616   2.525  11.578  0.8860 -0.0251  0.6091
  917MPD2    C213475   2.686   2.635  11.532  0.0188 -0.2792 -0.3209
  917MPD2    C313476   2.736   2.645  11.408  0.1624  0.1120 -0.0046
  917MPD2    C413477   2.698   2.551  11.315  0.1683  0.2678 -0.5265
  917MPD2    C513478   2.628   2.444  11.357 -0.2426  0.2772 -0.0113
  917MPD2     H13479   2.703   2.718  11.600  2.5482  0.4767 -1.8960
  917MPD2    H113480   2.733   2.554  11.212  0.7330 -0.7844 -0.3541
  917MPD2    H213481   2.526   2.342  11.509 -1.5805  1.9926 -1.0308
  917MPD2    H313482   2.609   2.363  11.287 -0.3732  0.5650 -0.3077
  917MPD2     N13483   2.821   2.754  11.371  0.1722 -0.2827  0.3575
  917MPD2    H513484   2.833   2.768  11.271 -1.1608  0.4409  0.2910
  917MPD2    N113485   2.571   2.501  11.710  0.4464 -0.6229  0.1394
  917MPD2    H713486   2.521   2.415  11.729  1.8185 -0.9493  2.2160
  918MPD2     C13487   2.726   3.144  12.507 -0.0537  0.4868  0.5464
  918MPD2    C113488   2.794   3.103  12.393  0.5491 -0.5015 -0.3733
  918MPD2    C213489   2.740   3.018  12.302 -0.2530 -0.4309 -0.7276
  918MPD2    C313490   2.618   2.949  12.326 -0.1965  0.1031 -0.5352
  918MPD2    C413491   2.547   2.986  12.441 -0.0506  0.0705 -0.7873
  918MPD2    C513492   2.596   3.092  12.522 -0.4953 -0.7108  0.5939
  918MPD2     H13493   2.780   3.001  12.203  0.1706  1.6510 -0.9016
  918MPD2    H113494   2.457   2.940  12.479 -1.2365  1.3661 -2.0487
  918MPD2    H213495   2.762   3.213  12.582  2.4663  0.3635 -0.5581
  918MPD2    H313496   2.531   3.130  12.600 -1.1249  0.6018 -0.5442
  918MPD2     N13497   2.583   2.843  12.248 -0.5023 -0.2209  0.0804
  918MPD2    H513498   2.648   2.808  12.178 -3.0045  1.1405 -2.9143
  918MPD2    N113499   2.928   3.143  12.371 -1.2018 -0.1674 -0.4106
  918MPD2    H713500   2.979   3.081  12.309  0.1834 -0.3787  0.9433
  919MPD2     C13501   3.743   2.152  11.531 -0.8876  0.0521 -0.1245
  919MPD2    C113502   3.692   2.023  11.549 -0.0845  0.1397 -0.3254
  919MPD2    C213503   3.665   1.948  11.431 -0.3680  0.0261  0.0681
  919MPD2    C313504   3.659   2.013  11.309 -0.3213  0.4331  0.0656
  919MPD2    C413505   3.697   2.144  11.306  0.4156 -0.1159 -0.7761
  919MPD2    C513506   3.749   2.208  11.412  0.7093 -0.1100  0.1579
  919MPD2     H13507   3.633   1.849  11.462  0.1132 -1.3795 -3.9598
  919MPD2    H113508   3.705   2.196  11.211 -2.0903  1.7687  0.0289
  919MPD2    H213509   3.776   2.220  11.609 -0.4037  0.1762 -0.4352
  919MPD2    H313510   3.782   2.311  11.412 -1.8559  0.7086 -0.7529
  919MPD2     N13511   3.593   1.954  11.194 -0.5284  0.0458 -0.3159
  919MPD2    H513512   3.593   2.005  11.106 -0.4219 -1.5263 -1.2261
  919MPD2    N113513   3.673   1.968  11.677  0.8596  0.5588  0.1158
  919MPD2    H713514   3.651   1.869  11.676  1.0867  0.5078  0.4143
  920MPD2     C13515   3.189   2.346  10.460  0.3951 -0.2427  0.3224
  920MPD2    C113516   3.112   2.239  10.444 -0.1062  0.3342 -0.0545
  920MPD2    C213517   3.130   2.136  10.527 -0.3470  0.0544 -0.0569
  920MPD2    C313518   3.226   2.137  10.626  0.1155  0.2793  0.1485
  920MPD2    C413519   3.305   2.249  10.637  0.1401 -0.5106  0.3793
  920MPD2    C513520   3.290   2.348  10.552 -0.5694  0.0139 -0.2516
  920MPD2     H13521   3.070   2.046  10.512  0.9277 -0.7990 -0.0096
  920MPD2    H113522   3.390   2.263  10.703  0.1432  2.6311 -0.2713
  920MPD2    H213523   3.196   2.433  10.395 -0.4638  0.5940  1.3414
  920MPD2    H313524   3.355   2.435  10.548 -0.5468  0.0554  1.2137
  920MPD2     N13525   3.246   2.024  10.710  0.8131  0.2953  0.3299
  920MPD2    H513526   3.211   1.932  10.687 -0.1693  1.0497 -1.1602
  920MPD2    N113527   3.015   2.229  10.343 -0.1285 -0.4114  0.4355
  920MPD2    H713528   2.951   2.151  10.343  0.6486 -1.0592 -0.5124
  921MPD2     C13529   4.358   1.451  16.839  0.0574  0.1707  0.1195
  921MPD2    C113530   4.429   1.329  16.846 -0.7095 -0.8975  0.0399
  921MPD2    C213531   4.381   1.232  16.929  0.0310 -0.1600  0.1614
  921MPD2    C313532   4.260   1.247  17.003 -0.0344  0.0035  0.2178
  921MPD2    C413533   4.192   1.368  16.993 -0.0716  0.2722  0.1785
  921MPD2    C513534   4.243   1.470  16.912 -0.2153 -0.0421 -0.8135
  921MPD2     H13535   4.430   1.135  16.939 -1.4987 -0.9566 -0.1085
  921MPD2    H113536   4.098   1.386  17.045 -0.4976 -1.5767  0.0418
  921MPD2    H213537   4.392   1.529  16.771 -1.0589  1.1983  0.7481
  921MPD2    H313538   4.193   1.565  16.895 -2.6882 -0.9458  1.4917
  921MPD2     N13539   4.193   1.124  17.033 -0.4302 -0.0454 -0.9368
  921MPD2    H513540   4.231   1.032  17.014 -0.5318  0.1168 -1.9535
  921MPD2    N113541   4.542   1.306  16.761  0.0003 -0.3959 -0.2009
  921MPD2    H713542   4.555   1.374  16.687  0.0564 -0.3877 -0.1839
  922MPD2     C13543   0.723   3.835  17.368  0.3305  0.0084  0.4339
  922MPD2    C113544   0.691   3.893  17.488 -0.2317  0.7043 -1.0465
  922MPD2    C213545   0.615   3.826  17.575  0.3416  0.7500  0.2537
  922MPD2    C313546   0.573   3.694  17.550  0.3448 -0.0349  0.5475
  922MPD2    C413547   0.600   3.642  17.422  0.3007  0.3009 -0.0514
  922MPD2    C513548   0.680   3.715  17.342  0.2183 -0.0122 -0.4647
  922MPD2     H13549   0.588   3.876  17.668  1.5317  0.0844  0.9545
  922MPD2    H113550   0.558   3.548  17.387 -0.0490  1.4503 -2.7852
  922MPD2    H213551   0.771   3.887  17.285 -1.1020 -1.6473 -1.4416
  922MPD2    H313552   0.702   3.669  17.246 -1.3941 -3.6531  0.9327
  922MPD2     N13553   0.497   3.631  17.650 -0.0592  0.1086  0.2316
  922MPD2    H513554   0.468   3.686  17.730 -3.7242 -2.4433  0.6860
  922MPD2    N113555   0.712   4.030  17.527 -0.2244  0.0829 -0.6239
  922MPD2    H713556   0.673   4.058  17.616  2.5041  0.6253  0.3762
  923MPD2     C13557   1.390   0.836   8.967 -0.5248  0.3011 -0.0771
  923MPD2    C113558   1.359   0.795   9.097  0.3099  0.4116  0.0638
  923MPD2    C213559   1.459   0.775   9.193  0.3943 -0.2458 -0.8308
  923MPD2    C313560   1.587   0.826   9.166  0.4527 -0.0415  0.6863
  923MPD2    C413561   1.611   0.874   9.037 -0.4624  0.3011  0.0850
  923MPD2    C513562   1.511   0.882   8.943  0.3066  0.0069 -0.2276
  923MPD2     H13563   1.437   0.741   9.293 -1.4440  0.8450 -0.8600
  923MPD2    H113564   1.708   0.902   8.998 -0.0719  1.2840  1.7730
  923MPD2    H213565   1.308   0.845   8.898 -1.4569 -5.6019  0.2029
  923MPD2    H313566   1.548   0.918   8.847  1.7883 -0.1450  0.2871
  923MPD2     N13567   1.696   0.809   9.255 -0.0108 -0.4270 -0.0496
  923MPD2    H513568   1.784   0.854   9.233  0.8400 -1.4544  1.2671
  923MPD2    N113569   1.227   0.763   9.129 -0.4064  0.3956 -0.8453
  923MPD2    H713570   1.164   0.741   9.052 -2.3254 -0.3218  0.9093
  924MPD2     C13571   1.947   4.311  16.439  0.2527 -0.1661  0.9916
  924MPD2    C113572   1.988   4.438  16.453 -0.2504 -0.0057 -0.7537
  924MPD2    C213573   1.924   4.538  16.387 -0.4105  0.0325 -0.1773
  924MPD2    C313574   1.830   4.511  16.291 -0.4650 -0.5263 -0.0185
  924MPD2    C413575   1.791   4.383  16.270 -0.6907 -0.0442  0.3891
  924MPD2    C513576   1.843   4.288  16.350  0.2909 -0.7992  0.1236
  924MPD2     H13577   1.942   4.641  16.413  0.5654  0.2060 -1.5461
  924MPD2    H113578   1.711   4.364  16.199 -0.7695  3.1219 -0.4069
  924MPD2    H213579   1.980   4.223  16.493 -2.8385 -1.3801  0.8852
  924MPD2    H313580   1.809   4.186  16.343 -1.1218 -0.2198 -1.3864
  924MPD2     N13581   1.797   4.618  16.204  0.1346 -0.0559 -0.5853
  924MPD2    H513582   1.822   4.712  16.232  1.6443 -1.0792  1.5408
  924MPD2    N113583   2.080   4.460  16.558 -0.4152  0.2727  0.9570
  924MPD2    H713584   2.099   4.385  16.624 -0.7305 -1.5168 -0.9589
  925MPD2     C13585   0.661   2.070  15.052 -0.7908  0.0634 -0.1198
  925MPD2    C113586   0.534   2.069  14.996  0.3492 -0.2790 -0.2121
  925MPD2    C213587   0.430   2.112  15.078 -0.3791  0.0555 -0.1728
  925MPD2    C313588   0.452   2.129  15.218 -0.0643 -0.1635  1.0749
  925MPD2    C413589   0.574   2.102  15.274  0.0713 -0.3831  0.6712
  925MPD2    C513590   0.678   2.082  15.190  0.0761  0.2422 -0.1352
  925MPD2     H13591   0.326   2.119  15.047 -1.6748  0.6427  4.2910
  925MPD2    H113592   0.588   2.091  15.381 -1.1563  1.7033  1.0366
  925MPD2    H213593   0.751   2.040  15.000 -1.8952 -0.7650 -1.5701
  925MPD2    H313594   0.772   2.063  15.241 -0.8680 -0.7882  1.2404
  925MPD2     N13595   0.352   2.128  15.316  0.2283  0.0803  0.4564
  925MPD2    H513596   0.386   2.110  15.410  0.0574  1.3805  0.7651
  925MPD2    N113597   0.507   2.032  14.858  0.1134  0.1852 -0.2437
  925MPD2    H713598   0.412   2.041  14.823 -0.5048 -0.1538  1.3733
  926MPD2     C13599   3.888   0.254  14.078 -0.4539 -0.7490 -0.2984
  926MPD2    C113600   3.777   0.182  14.044  0.6191  0.2472 -0.2411
  926MPD2    C213601   3.761   0.151  13.909 -0.2902  0.0570  0.1075
  926MPD2    C313602   3.859   0.189  13.816  0.5197  0.1600  0.7468
  926MPD2    C413603   3.976   0.252  13.855  0.2724 -0.4872 -0.0736
  926MPD2    C513604   3.988   0.278  13.994 -0.5459 -0.4888  0.6708
  926MPD2     H13605   3.665   0.108  13.881 -1.4769  0.4626  3.6608
  926MPD2    H113606   4.049   0.279  13.780  2.0915  0.7406  2.1010
  926MPD2    H213607   3.909   0.297  14.175 -0.5613 -2.7017  0.5799
  926MPD2    H313608   4.077   0.335  14.020 -2.2603  2.3467  0.2812
  926MPD2     N13609   3.843   0.183  13.675  0.2090  0.4073 -0.3253
  926MPD2    H513610   3.915   0.228  13.621 -0.0160  0.0988 -0.8787
  926MPD2    N113611   3.674   0.167  14.137 -0.0885 -0.1051 -0.3068
  926MPD2    H713612   3.608   0.094  14.115 -1.2033  0.4158  1.3142
  927MPD2     C13613   3.754   2.349   0.107  0.2569 -0.6378  0.1139
  927MPD2    C113614   3.843   2.247   0.102  0.4297  0.9281 -0.3829
  927MPD2    C213615   3.958   2.261   0.032 -0.0053 -0.6470 -0.6101
  927MPD2    C313616   3.979   2.376  17.695 -0.3825 -0.5112  0.8588
  927MPD2    C413617   3.896   2.485  17.718 -0.1088  1.0029 -0.9792
  927MPD2    C513618   3.783   2.465   0.039 -0.2015 -0.3076 -0.0022
  927MPD2     H13619   4.039   2.189   0.038  0.8615  0.2175 -2.2213
  927MPD2    H113620   3.922   2.584  17.683 -2.9336  1.7864 -0.8573
  927MPD2    H213621   3.660   2.349   0.160  1.0209  1.0286  1.4790
  927MPD2    H313622   3.714   2.548   0.046 -1.4043 -1.3982  0.9322
  927MPD2     N13623   4.100   2.375  17.617 -0.0515  0.1888 -0.2820
  927MPD2    H513624   4.155   2.290  17.612  0.3452  0.4097  0.4434
  927MPD2    N113625   3.823   2.136   0.193 -0.2073 -0.3191 -0.1133
  927MPD2    H713626   3.753   2.143   0.266  0.6498  1.7217  0.5188
  928MPD2     C13627   1.776   0.293   0.884  0.1568 -0.1262  0.2237
  928MPD2    C113628   1.863   0.387   0.947 -0.1957  0.4501 -0.3727
  928MPD2    C213629   1.932   0.475   0.858 -0.0792 -0.2561 -0.3182
  928MPD2    C313630   1.899   0.479   0.728 -0.2442  0.0563 -0.2658
  928MPD2    C413631   1.809   0.388   0.674 -0.1659  0.0015 -0.1073
  928MPD2    C513632   1.752   0.298   0.751 -0.2153  0.0414 -0.0091
  928MPD2     H13633   1.995   0.549   0.906  1.9905 -0.9121 -1.9721
  928MPD2    H113634   1.791   0.384   0.567  0.2170  2.0455 -0.2402
  928MPD2    H213635   1.741   0.209   0.942 -0.9426  2.5055  3.3658
  928MPD2    H313636   1.691   0.218   0.712 -1.3346  0.4274  0.9463
  928MPD2     N13637   1.967   0.555   0.638  0.3421 -0.3713  0.0084
  928MPD2    H513638   1.942   0.542   0.540  0.2608 -0.2420  0.0126
  928MPD2    N113639   1.870   0.382   1.086  0.1032  0.6477  0.0577
  928MPD2    H713640   1.805   0.321   1.134  1.0373 -0.5276 -0.1579
  929MPD2     C13641   1.645   0.441   9.832  0.0208 -0.2002 -0.0128
  929MPD2    C113642   1.543   0.390   9.910 -0.0624  0.6460  0.0729
  929MPD2    C213643   1.437   0.311   9.854 -0.5273 -0.0686 -0.3525
  929MPD2    C313644   1.434   0.286   9.718  0.4326 -0.7638  0.4297
  929MPD2    C413645   1.538   0.339   9.640  0.8549  0.1084  0.4705
  929MPD2    C513646   1.640   0.414   9.697  0.0126 -0.4041  0.4020
  929MPD2     H13647   1.379   0.249   9.922  0.0575  1.3314  1.4241
  929MPD2    H113648   1.534   0.325   9.533 -0.4384  0.6308  0.4484
  929MPD2    H213649   1.722   0.499   9.880 -0.4307  1.6534 -1.5262
  929MPD2    H313650   1.723   0.431   9.630 -1.8165  0.9067 -1.5316
  929MPD2     N13651   1.343   0.199   9.652 -0.3887 -0.0395  0.1029
  929MPD2    H513652   1.376   0.161   9.564  0.6791  1.2127 -0.0410
  929MPD2    N113653   1.558   0.409  10.048 -0.0604  0.0083  0.4018
  929MPD2    H713654   1.645   0.453  10.074  0.8392  0.2339 -2.9130
  930MPD2     C13655   3.762   3.004  14.682 -0.3185 -0.0545 -0.3953
  930MPD2    C113656   3.693   3.069  14.584 -0.5314  0.1096  0.8667
  930MPD2    C213657   3.614   2.993  14.505  0.0125 -0.0499  0.3021
  930MPD2    C313658   3.606   2.850  14.515 -0.4772  0.0348 -0.3923
  930MPD2    C413659   3.690   2.791  14.608 -0.1399  0.4622 -0.5189
  930MPD2    C513660   3.766   2.867  14.694  0.4952  0.0053  0.0712
  930MPD2     H13661   3.547   3.042  14.436  1.8578  1.3861 -0.4767
  930MPD2    H113662   3.691   2.683  14.609 -0.8522  0.4799  3.4442
  930MPD2    H213663   3.807   3.067  14.759  0.2020 -0.2967 -0.4977
  930MPD2    H313664   3.829   2.825  14.772  0.6316 -0.0973 -0.0917
  930MPD2     N13665   3.525   2.769  14.428  0.2939  0.0208  0.2242
  930MPD2    H513666   3.536   2.669  14.444 -0.2009 -0.5777 -3.0516
  930MPD2    N113667   3.694   3.211  14.559 -0.3897 -0.0337 -0.1983
  930MPD2    H713668   3.642   3.236  14.475 -1.1242 -1.1368 -0.0647
  931MPD2     C13669   4.357   1.678   0.534  0.4354 -0.1692  0.0370
  931MPD2    C113670   4.230   1.638   0.572  0.0333  0.2664  0.2875
  931MPD2    C213671   4.223   1.548   0.675  0.4429 -0.2405  0.8358
  931MPD2    C313672   4.333   1.492   0.734 -0.1254 -0.3015 -0.0084
  931MPD2    C413673   4.455   1.540   0.696  0.1821 -0.2741  0.4469
  931MPD2    C513674   4.464   1.626   0.597 -0.3498  0.5029 -0.6300
  931MPD2     H13675   4.126   1.500   0.686  0.5665 -1.0070 -1.5253
  931MPD2    H113676   4.548   1.495   0.731  1.2500  0.4175 -1.4788
  931MPD2    H213677   4.378   1.746   0.452 -2.1782  2.1498  1.2960
  931MPD2    H313678   4.562   1.636   0.553 -0.3171  1.2126 -0.3976
  931MPD2     N13679   4.328   1.404   0.843  0.3417  0.2082 -0.4522
  931MPD2    H513680   4.414   1.357   0.871 -0.3810 -2.4087 -2.6473
  931MPD2    N113681   4.117   1.695   0.499  0.4139  0.4045 -0.2219
  931MPD2    H713682   4.138   1.770   0.434  1.3360  2.9494  3.0047
  932MPD2     C13683   0.092   1.191  11.336  0.4625 -0.5105  0.6729
  932MPD2    C113684   0.221   1.252  11.331  0.0598 -0.5226  0.4968
  932MPD2    C213685   0.322   1.197  11.406  0.4428  0.2183  0.4481
  932MPD2    C313686   0.305   1.077  11.478  0.5340 -0.9240 -0.1909
  932MPD2    C413687   0.184   1.017  11.471 -0.4963  0.0194  0.1302
  932MPD2    C513688   0.081   1.071  11.401  0.2137  0.5128  0.0398
  932MPD2     H13689   0.417   1.248  11.403  0.8302 -0.5324  0.1319
  932MPD2    H113690   0.179   0.921  11.522  3.5621 -0.5029 -0.4210
  932MPD2    H213691   0.008   1.214  11.272 -0.0045 -2.0327  0.7218
  932MPD2    H313692   4.722   1.021  11.398 -0.0530  0.9506  1.0397
  932MPD2     N13693   0.411   1.003  11.546  0.0250  0.3426  0.5357
  932MPD2    H513694   0.374   0.923  11.596 -2.1096  0.6489 -0.5589
  932MPD2    N113695   0.254   1.352  11.236 -0.0362  0.9854 -0.7436
  932MPD2    H713696   0.346   1.392  11.242  1.6620 -2.9858  0.0662
  933MPD2     C13697   1.536   0.435   1.879  0.1729 -0.0507  0.4366
  933MPD2    C113698   1.532   0.463   1.747 -0.0064 -0.2090  0.6120
  933MPD2    C213699   1.414   0.497   1.687 -0.9429  0.3352  0.6431
  933MPD2    C313700   1.294   0.477   1.750  0.0891  0.8949  0.2688
  933MPD2    C413701   1.299   0.445   1.886  1.0030  0.1366 -0.2106
  933MPD2    C513702   1.415   0.422   1.943 -0.3677 -0.0284 -0.0143
  933MPD2     H13703   1.411   0.515   1.580  2.4491  0.8092  0.6506
  933MPD2    H113704   1.207   0.427   1.940  0.3912 -0.5730 -1.4878
  933MPD2    H213705   1.624   0.396   1.929  1.8143  1.7725 -1.0379
  933MPD2    H313706   1.405   0.392   2.047 -0.0852 -1.5738 -0.4399
  933MPD2     N13707   1.176   0.491   1.668 -0.6522  0.4455  0.1981
  933MPD2    H513708   1.191   0.532   1.576 -3.3659  3.4161  1.0719
  933MPD2    N113709   1.652   0.452   1.677  0.0600 -0.1773 -0.4668
  933MPD2    H713710   1.732   0.418   1.729  0.0482  0.1612 -0.2202
  934MPD2     C13711   3.400   3.428   1.585 -0.4139  0.4556  0.4721
  934MPD2    C113712   3.403   3.441   1.447 -0.7030 -0.4962  0.1912
  934MPD2    C213713   3.315   3.373   1.369  0.8255  0.4376  0.1992
  934MPD2    C313714   3.220   3.293   1.434  0.3764 -0.4432  0.7316
  934MPD2    C413715   3.213   3.291   1.572  0.0618  0.3049  0.5637
  934MPD2    C513716   3.305   3.357   1.647 -0.9127  0.6187  0.6151
  934MPD2     H13717   3.324   3.386   1.262 -0.0268 -1.0278 -0.0439
  934MPD2    H113718   3.139   3.233   1.626  0.1415  0.5484  0.9307
  934MPD2    H213719   3.476   3.478   1.644 -1.1036 -0.0538  1.7939
  934MPD2    H313720   3.296   3.378   1.753  1.6437  0.1599  0.9354
  934MPD2     N13721   3.127   3.214   1.361 -0.1682  0.2140 -0.1934
  934MPD2    H513722   3.042   3.194   1.413 -2.5731  3.6113 -2.7793
  934MPD2    N113723   3.506   3.516   1.384 -0.5052  0.4314 -0.7700
  934MPD2    H713724   3.500   3.514   1.283 -1.0062  1.8365 -0.7740
  935MPD2     C13725   3.149   2.661   0.551 -0.2653 -0.2272 -0.1883
  935MPD2    C113726   3.033   2.622   0.618 -0.2563 -0.6742 -0.0603
  935MPD2    C213727   2.971   2.713   0.695 -0.7793  0.6980 -0.6891
  935MPD2    C313728   3.032   2.842   0.720  0.4997  0.2738  0.1317
  935MPD2    C413729   3.134   2.880   0.640 -0.3557 -0.4824 -0.5355
  935MPD2    C513730   3.192   2.789   0.558 -0.5417  1.0012 -0.2147
  935MPD2     H13731   2.882   2.684   0.748  0.2752 -4.0090 -1.5091
  935MPD2    H113732   3.181   2.977   0.648 -0.5436 -0.5734  1.6888
  935MPD2    H213733   3.207   2.591   0.493 -0.2448  0.1776 -0.6557
  935MPD2    H313734   3.279   2.819   0.499 -1.8228 -1.3503 -3.2798
  935MPD2     N13735   3.004   2.931   0.824  0.0756  0.2967 -0.3179
  935MPD2    H513736   3.060   3.016   0.828  0.7088 -0.0748 -1.3055
  935MPD2    N113737   2.977   2.502   0.596  0.0357 -1.0399 -0.3256
  935MPD2    H713738   2.888   2.490   0.643  0.6107  1.3335  1.3695
  936MPD2     C13739   1.168   4.709  12.415 -0.6664 -0.4894  0.1285
  936MPD2    C113740   1.178   4.720  12.548 -0.5420  0.0346  0.3634
  936MPD2    C213741   1.189   0.102  12.614 -0.6807 -0.5594  0.8176
  936MPD2    C313742   1.195   0.214  12.539  1.1087 -0.8939 -0.7399
  936MPD2    C413743   1.175   0.209  12.403  0.6669 -0.5798  0.2164
  936MPD2    C513744   1.161   0.083  12.345 -0.4282 -0.4435 -0.0552
  936MPD2     H13745   1.197   0.102  12.723 -0.4450 -0.8473  0.7994
  936MPD2    H113746   1.164   0.297  12.341 -0.8320 -0.8942  0.0369
  936MPD2    H213747   1.167   4.610  12.369  1.4700 -0.3982 -0.1403
  936MPD2    H313748   1.124   0.084  12.243  1.1521 -0.0756 -0.6186
  936MPD2     N13749   1.214   0.335  12.607  0.0524 -0.4862 -0.3082
  936MPD2    H513750   1.211   0.324  12.708 -1.0295  0.6411 -0.2074
  936MPD2    N113751   1.184   4.605  12.623  0.3718 -0.1723  0.1418
  936MPD2    H713752   1.198   4.617  12.722  0.7411 -0.6307  0.1427
  937MPD2     C13753   3.713   1.330  11.982  0.5838  0.5319 -0.0654
  937MPD2    C113754   3.753   1.432  11.901  0.1939  0.6603 -0.5137
  937MPD2    C213755   3.873   1.413  11.833  0.9638  0.3480  1.1737
  937MPD2    C313756   3.944   1.297  11.827  0.4874 -0.0647  0.3032
  937MPD2    C413757   3.891   1.196  11.909 -0.5722  0.1490 -0.3210
  937MPD2    C513758   3.781   1.212  11.989 -0.1067  0.0584  0.6610
  937MPD2     H13759   3.910   1.495  11.773  0.7536  1.7972  3.0354
  937MPD2    H113760   3.932   1.097  11.927  1.0561  1.1975  1.9386
  937MPD2    H213761   3.621   1.337  12.039  0.9617  2.2791  0.3448
  937MPD2    H313762   3.744   1.136  12.056 -0.0647  0.1809  0.8214
  937MPD2     N13763   4.066   1.297  11.758 -0.5577  0.1164  0.1290
  937MPD2    H513764   4.093   1.381  11.707 -0.2586  0.5310  0.9764
  937MPD2    N113765   3.701   1.562  11.919  0.0517 -0.1370 -0.3055
  937MPD2    H713766   3.735   1.625  11.847 -0.9967  1.9511  1.0410
  938MPD2     C13767   2.262   2.422   0.991 -0.3773 -0.4621 -0.5594
  938MPD2    C113768   2.163   2.510   1.022  0.8237  0.3901 -0.8375
  938MPD2    C213769   2.062   2.474   1.109 -1.0865 -0.4402  0.9041
  938MPD2    C313770   2.056   2.338   1.159  0.6578  0.8652  0.8609
  938MPD2    C413771   2.149   2.246   1.120  0.1066 -0.0529 -0.0393
  938MPD2    C513772   2.259   2.291   1.048  0.2994 -0.4460 -0.2046
  938MPD2     H13773   1.977   2.535   1.136 -1.4057 -1.7313  2.8157
  938MPD2    H113774   2.150   2.146   1.161  2.2763 -0.7789 -1.8180
  938MPD2    H213775   2.347   2.449   0.929  0.3002  0.0052  0.5747
  938MPD2    H313776   2.341   2.230   1.013  0.2392 -0.2230 -0.7267
  938MPD2     N13777   1.955   2.283   1.232  0.9705 -0.1157 -0.4173
  938MPD2    H513778   1.967   2.185   1.256 -0.4604  0.3421  2.2161
  938MPD2    N113779   2.171   2.649   0.983 -0.2356 -0.3809 -0.0268
  938MPD2    H713780   2.095   2.714   0.999 -1.4896 -1.9566  0.3866
  939MPD2     C13781   2.686   3.202  17.665  0.2713  0.1838  0.2564
  939MPD2    C113782   2.777   3.287  17.722 -0.3586 -0.4823 -0.7934
  939MPD2    C213783   2.911   3.256  17.734  0.4777  0.0520 -0.3443
  939MPD2    C313784   2.958   3.135  17.689 -0.3126  0.4236 -0.6412
  939MPD2    C413785   2.875   3.047  17.628 -1.1965 -0.2512  1.0503
  939MPD2    C513786   2.743   3.085  17.618  0.4905 -1.0214  0.1237
  939MPD2     H13787   2.985   3.327   0.022  0.5026  1.6289 -3.6276
  939MPD2    H113788   2.912   2.951  17.595 -3.2448 -0.6388 -0.1237
  939MPD2    H213789   2.578   3.208  17.659  0.4489  1.1379 -1.8652
  939MPD2    H313790   2.666   3.018  17.584 -1.3241  1.5338 -0.8292
  939MPD2     N13791   3.087   3.098  17.740  0.0379  0.0817 -0.5507
  939MPD2    H513792   3.140   3.179   0.024 -1.1825 -0.1184  2.1087
  939MPD2    N113793   2.717   3.410   0.018 -0.0246 -0.0928 -0.3165
  939MPD2    H713794   2.617   3.412   0.005  0.3659  1.1601 -3.0576
  940MPD2     C13795   2.593   4.717  12.663  0.6501 -0.0844 -0.0073
  940MPD2    C113796   2.460   4.713  12.705 -0.0020 -0.6258  0.7962
  940MPD2    C213797   2.367   4.630  12.653  0.3097  0.6680  0.7391
  940MPD2    C313798   2.394   4.546  12.543  0.2046  0.3954 -0.0379
  940MPD2    C413799   2.524   4.557  12.491 -0.0767 -0.1405 -0.0661
  940MPD2    C513800   2.625   4.636  12.553 -0.3040  0.2066  0.1571
  940MPD2     H13801   2.265   4.648  12.684 -0.1846  0.9511 -1.0472
  940MPD2    H113802   2.549   4.486  12.413  1.4562  2.0800 -1.6137
  940MPD2    H213803   2.673   0.035  12.711  1.5945 -1.0608 -0.4330
  940MPD2    H313804   2.730   4.629  12.526  0.0861  0.6039  1.5283
  940MPD2     N13805   2.304   4.459  12.468  0.1656 -0.2946  0.4196
  940MPD2    H513806   2.328   4.433  12.372  0.5097 -0.2361  0.4885
  940MPD2    N113807   2.413   0.056  12.809 -0.3279  0.4514 -0.3964
  940MPD2    H713808   2.320   0.039  12.844 -1.8045  2.6473 -3.2264
  941MPD2     C13809   0.853   4.099  10.524  0.4844 -0.5926 -0.4589
  941MPD2    C113810   0.979   4.063  10.477 -0.9474 -0.4138 -0.3948
  941MPD2    C213811   1.027   3.938  10.500 -0.1933 -0.1499 -0.2298
  941MPD2    C313812   0.956   3.833  10.561  0.1564 -0.1970 -0.0018
  941MPD2    C413813   0.824   3.866  10.582 -0.0049 -0.7369  0.1992
  941MPD2    C513814   0.777   3.995  10.572 -0.1715 -0.6464  0.7311
  941MPD2     H13815   1.129   3.904  10.486  0.6207  1.2898  2.1133
  941MPD2    H113816   0.756   3.789  10.617  0.8628 -1.7037 -0.2643
  941MPD2    H213817   0.810   4.198  10.514  1.0772 -0.3552 -0.6446
  941MPD2    H313818   0.674   4.013  10.602 -1.0573 -1.1062 -2.1187
  941MPD2     N13819   1.008   3.705  10.597 -0.4541  0.1451 -0.3957
  941MPD2    H513820   0.937   3.645  10.638 -0.6671  0.3761 -0.4261
  941MPD2    N113821   1.054   4.162  10.421  0.0618  0.2100  0.1968
  941MPD2    H713822   1.015   4.256  10.425  0.1798  0.3161 -1.0095
  942MPD2     C13823   1.079   0.673   9.668  0.0034  0.2246 -0.3245
  942MPD2    C113824   1.036   0.562   9.598 -0.6249  1.1594 -0.3634
  942MPD2    C213825   1.125   0.504   9.509 -0.0833  0.2131  0.1975
  942MPD2    C313826   1.257   0.552   9.475 -0.0663 -0.0103  0.1095
  942MPD2    C413827   1.298   0.656   9.557 -0.2631  0.8159  0.4701
  942MPD2    C513828   1.213   0.710   9.649 -0.0966  0.0380 -1.1664
  942MPD2     H13829   1.085   0.414   9.464  0.0763 -0.8420  2.1645
  942MPD2    H113830   1.404   0.681   9.558 -0.4186  1.5219 -0.4104
  942MPD2    H213831   1.027   0.721   9.750  1.9194  1.0557  0.4183
  942MPD2    H313832   1.253   0.784   9.718  0.4786 -1.9805  0.6700
  942MPD2     N13833   1.340   0.498   9.376 -0.1199  0.3221 -0.3903
  942MPD2    H513834   1.433   0.538   9.365  0.2625 -0.5301 -0.2814
  942MPD2    N113835   0.920   0.495   9.610 -0.0803  0.0798 -0.0322
  942MPD2    H713836   0.895   0.436   9.531 -1.1501 -0.9198  1.0442
  943MPD2     C13837   0.103   2.880  10.060 -0.3546 -1.2261 -0.2224
  943MPD2    C113838   0.011   2.930   9.978  0.0090 -0.0752  0.1317
  943MPD2    C213839   0.005   3.064   9.946 -0.0623 -0.3620 -0.6783
  943MPD2    C313840   0.105   3.149   9.996  0.4049 -0.4831 -1.1325
  943MPD2    C413841   0.205   3.092  10.069 -0.1012  0.1132  0.8602
  943MPD2    C513842   0.210   2.958  10.089 -0.5411  0.3100  0.3847
  943MPD2     H13843   4.661   3.111   9.891 -0.0154  2.1256  1.3337
  943MPD2    H113844   0.287   3.155  10.102  1.4305  0.1428 -2.9851
  943MPD2    H213845   0.113   2.778  10.096  1.1135 -0.0136  2.8059
  943MPD2    H313846   0.286   2.916  10.153  0.0488 -0.7384 -1.0064
  943MPD2     N13847   0.105   3.291   9.973 -0.0621  0.3365 -0.7465
  943MPD2    H513848   0.177   3.349  10.015 -0.4680  0.1406  0.2239
  943MPD2    N113849   4.650   2.843   9.928  0.2234  0.5151 -0.3020
  943MPD2    H713850   4.636   2.752   9.969  1.2795  1.2559  1.6786
  944MPD2     C13851   3.588   2.305  10.993 -0.1693 -0.5770  0.2266
  944MPD2    C113852   3.691   2.387  10.954  0.2921  0.3034 -0.0388
  944MPD2    C213853   3.726   2.498  11.030  0.0273  0.3545 -0.5435
  944MPD2    C313854   3.656   2.532  11.145 -0.0503 -0.3364  0.3911
  944MPD2    C413855   3.551   2.457  11.182 -0.2092  0.1595 -0.0191
  944MPD2    C513856   3.512   2.347  11.099  0.4990 -0.4398  0.1149
  944MPD2     H13857   3.811   2.562  11.010 -0.3467  0.9252 -0.3065
  944MPD2    H113858   3.500   2.468  11.277  1.6300  1.8781  0.7709
  944MPD2    H213859   3.566   2.208  10.950 -1.8562 -1.0828  2.2668
  944MPD2    H313860   3.435   2.278  11.133 -0.8058  0.5359 -0.8871
  944MPD2     N13861   3.693   2.641  11.218 -0.0492  0.2672  0.3326
  944MPD2    H513862   3.771   2.693  11.179  0.6689 -1.8071 -1.0018
  944MPD2    N113863   3.770   2.335  10.855 -0.3503  0.0186  0.2165
  944MPD2    H713864   3.743   2.247  10.812  1.3211  0.1421 -1.0505
    1TMC1    C113865   2.812   3.288  13.876 -0.0835 -0.0951 -0.4047
    1TMC1    C213866   2.881   3.196  13.958  1.0411  0.5206 -0.2472
    1TMC1    C313867   2.877   3.065  13.920 -0.2602 -0.1718  0.0030
    1TMC1    C413868   2.760   3.257  13.753 -0.3835 -0.2952 -0.8611
    1TMC1    C513869   2.769   3.127  13.719  0.1813 -0.2625 -0.4255
    1TMC1    C613870   2.817   3.030  13.806 -0.0680 -0.4414 -0.8754
    1TMC1     C13871   2.773   3.405  13.954  0.2253 -0.1577  0.2302
    1TMC1     O13872   2.819   3.435  14.062  0.1609 -0.5493  0.2882
    1TMC1     H13873   2.937   3.239  14.041  2.3123 -1.8482  0.1329
    1TMC1    H113874   2.708   3.326  13.687 -1.5030 -0.9838 -0.7075
    1TMC1    H213875   2.829   2.928  13.770  1.2207 -0.6404  0.1533
    1TMC1    C713876   2.719   3.085  13.590 -0.0358  0.7748 -0.0107
    1TMC1    C813877   2.907   2.955  14.013 -0.1316 -0.1956  0.0306
    1TMC1    O113878   2.724   3.176  13.510  0.2028 -0.2937 -0.2904
    1TMC1    O213879   2.873   2.840  13.990  0.1722  0.2785 -0.6469
    1TMC1    O313880   2.614   3.003  13.614 -0.5836  0.1757 -0.2822
    1TMC1    H313881   2.630   2.966  13.704  0.6203  2.2721  0.3588
    1TMC1    O513882   2.959   3.006  14.120  1.1736  0.2031  0.1713
    1TMC1    H513883   2.977   3.102  14.129 -4.0573  1.0823  1.2030
    2MPD2     C13884   2.521   3.854  13.944 -0.1533  1.5874 -0.2297
    2MPD2    C113885   2.467   3.770  13.844  0.0536 -0.3055  0.2782
    2MPD2    C213886   2.517   3.642  13.827 -0.5781 -0.1434 -0.0702
    2MPD2    C313887   2.622   3.597  13.909 -0.3441  0.1419 -0.4433
    2MPD2    C413888   2.674   3.683  14.011 -0.2852 -0.2240  0.1814
    2MPD2    C513889   2.625   3.807  14.020 -0.0714 -0.4817  0.3831
    2MPD2     H13890   2.491   3.574  13.746  0.5573 -0.9544  0.2422
    2MPD2    H113891   2.751   3.656  14.083 -2.0928 -3.5033  0.9036
    2MPD2    H213892   2.487   3.954  13.964  0.6161  1.7489  0.2725
    2MPD2    H313893   2.671   3.877  14.089  0.0757 -1.2242  1.0469
    2MPD2     N13894   2.673   3.471  13.888 -0.3691 -0.0529  0.0166
    2MPD2    H513895   2.634   3.424  13.807  0.0660 -1.4027  0.5766
    2MPD2    N113896   2.374   3.828  13.755  0.1214  0.6433  0.0856
    2MPD2    H713897   2.374   3.930  13.755 -0.4823  0.6528  0.8666
    3TMC2    C113898   2.211   3.842  13.580  0.1590  0.2139  0.1993
    3TMC2    C213899   2.099   3.765  13.530 -0.1914  0.0755  0.1812
    3TMC2    C313900   2.000   3.843  13.480  0.0893 -0.0633  0.6587
    3TMC2    C413901   2.225   3.974  13.573  0.4490 -0.3518 -0.2760
    3TMC2    C513902   2.122   4.044  13.512  0.1552  0.2118  0.1682
    3TMC2    C613903   2.014   3.979  13.460 -0.1547  0.2557 -0.1667
    3TMC2     C13904   2.302   3.758  13.662  0.6183  0.1804 -0.2916
    3TMC2     O13905   2.291   3.639  13.656  0.3259 -0.3725 -0.2174
    3TMC2     H13906   2.101   3.657  13.535 -1.0368 -0.1214 -3.7256
    3TMC2    H113907   2.318   4.016  13.609 -1.5649  1.2664  3.0159
    3TMC2    H213908   1.942   4.022  13.390 -1.8691 -1.4277  0.5673
    3TMC2    C713909   2.117   4.189  13.502  0.1521  0.7658  0.3124
    3TMC2    C813910   1.882   3.779  13.414 -0.6424 -0.5590  0.0669
    3TMC2    O113911   2.058   4.232  13.404  0.2999  0.2963 -0.2037
    3TMC2    O213912   1.823   3.830  13.322 -0.0661 -0.1784 -0.0298
    3TMC2    O513913   1.854   3.663  13.473  0.1294  0.4438  0.2389
    3TMC2    H513914   1.908   3.656  13.554 -0.3970 -1.0968  0.4550
    4TMC2    C113915   2.391   0.143  14.162 -0.4440  0.2157 -0.2507
    4TMC2    C213916   2.465   0.089  14.267  0.3936  0.3194 -0.5679
    4TMC2    C313917   2.508   4.698  14.267 -0.3619 -0.0626  0.5787
    4TMC2    C413918   2.375   0.067  14.051  0.1203  0.1531 -0.9681
    4TMC2    C513919   2.424   4.676  14.044 -0.6425 -0.3803 -0.4168
    4TMC2    C613920   2.488   4.619  14.156  0.2712  0.6663 -0.7188
    4TMC2     C13921   2.342   0.283  14.155 -0.5218 -0.2965 -0.8938
    4TMC2     O13922   2.386   0.357  14.241  0.6360 -0.4774 -0.6399
    4TMC2     H13923   2.476   0.148  14.357  0.1109 -0.8540  0.2320
    4TMC2    H113924   2.326   0.111  13.965 -1.1521 -0.6872 -0.6726
    4TMC2    H213925   2.508   4.512  14.160  0.2258  0.6634 -0.5771
    4TMC2    C713926   2.407   4.585  13.937 -0.3464 -0.2824 -0.0734
    4TMC2    C813927   2.530   4.625  14.392 -0.2721 -0.9369 -0.3860
    4TMC2    O113928   2.420   4.465  13.959 -0.1944 -0.0364  0.3091
    4TMC2    O213929   2.446   4.540  14.420  0.1024 -0.6756 -0.7574
    4TMC2    O513930   2.581   4.713  14.475 -0.4979  0.0718 -0.5050
    4TMC2    H513931   2.647   0.038  14.438  1.1000 -0.6174  1.1937
    5MPD2     C13932   2.059   0.678  13.966  0.3426  0.5675  0.1054
    5MPD2    C113933   2.030   0.566  13.901 -0.2888 -0.6722 -0.1642
    5MPD2    C213934   2.100   0.450  13.927 -0.1691  0.2295  0.4761
    5MPD2    C313935   2.195   0.440  14.031 -0.0376  0.0324  0.1035
    5MPD2    C413936   2.222   0.556  14.097  0.0205 -0.4249 -0.9085
    5MPD2    C513937   2.161   0.674  14.057  0.7327 -0.3534 -0.2615
    5MPD2     H13938   2.078   0.361  13.870  1.8183 -0.7881  1.2970
    5MPD2    H113939   2.278   0.559  14.190 -1.6830  0.3704  0.0850
    5MPD2    H213940   2.006   0.773  13.953 -1.3037 -0.4427 -0.6147
    5MPD2    H313941   2.192   0.766  14.106 -2.0774  0.3611  0.1859
    5MPD2     N13942   2.250   0.309  14.053 -0.2667 -0.6601  0.1387
    5MPD2    H513943   2.219   0.230  13.998 -2.4292  0.9960 -1.0543
    5MPD2    N113944   1.928   0.571  13.800  0.1670  0.0298  0.3210
    5MPD2    H713945   1.899   0.483  13.758  0.5914 -0.0658  0.2281
    6MPD1     C13946   0.878   0.678  12.144 -0.0983 -0.4981 -0.0195
    6MPD1    C113947   0.896   0.579  12.238 -0.0934  0.0382 -0.3736
    6MPD1    C213948   0.891   0.610  12.375 -0.5150  0.0878  0.2923
    6MPD1    C313949   0.861   0.738  12.416 -0.2286  0.4605  0.3903
    6MPD1    C413950   0.842   0.835  12.319 -0.2279 -0.2539  0.6928
    6MPD1    C513951   0.860   0.805  12.190  0.2333 -0.4360  0.4811
    6MPD1     H13952   0.920   0.538  12.450 -0.0825  0.7428  0.7545
    6MPD1    H113953   0.847   0.939  12.350 -2.5103  0.6175 -1.8597
    6MPD1    H213954   0.893   0.657  12.039  0.1523 -1.0603  0.1323
    6MPD1    H313955   0.885   0.895  12.135  0.4849  1.1175  3.1412
    6MPD1     N13956   0.885   0.783  12.547 -0.0138 -0.8712 -0.2488
    6MPD1    H513957   0.881   0.883  12.564  1.1949 -0.7055 -0.8918
    6MPD1    N113958   0.944   0.454  12.193 -0.2161  0.1727 -0.0060
    6MPD1    H613959   0.923   0.378  12.258  0.3166 -0.9454 -1.1292
    6MPD1    H713960   0.911   0.424  12.101 -1.9548  0.4165  0.5374
    7MPD2     C13961   1.052   0.400  13.257 -0.3283 -0.2550 -0.8199
    7MPD2    C113962   1.089   0.530  13.238  0.2201 -0.2167 -0.4538
    7MPD2    C213963   1.182   0.583  13.322  0.4562  0.1002  0.1067
    7MPD2    C313964   1.259   0.493  13.403 -0.1923 -0.7348 -0.2971
    7MPD2    C413965   1.222   0.363  13.412  1.0200  0.4182  0.1151
    7MPD2    C513966   1.113   0.315  13.339  0.3020 -0.4519  0.4339
    7MPD2     H13967   1.214   0.686  13.318 -1.5425  0.7556  0.9793
    7MPD2    H113968   1.276   0.294  13.476  0.0752 -1.8710 -1.5486
    7MPD2    H213969   0.966   0.371  13.198 -1.0373 -0.1365  0.1652
    7MPD2    H313970   1.075   0.214  13.345  1.2693 -0.9203 -1.2430
    7MPD2     N13971   1.368   0.552  13.474  0.0561 -0.1200  0.4612
    7MPD2    H513972   1.381   0.651  13.456 -0.2366 -0.1742 -0.0620
    7MPD2    N113973   1.023   0.610  13.140  0.0293  0.5296 -0.2362
    7MPD2    H713974   0.963   0.556  13.078  0.3377 -0.9375  0.7324
    8TMC3    C113975   1.590   0.573  13.544  0.5398 -0.5061 -0.4282
    8TMC3    C213976   1.685   0.569  13.641 -0.8351  0.5338  0.3317
    8TMC3    C313977   1.788   0.660  13.633 -0.6797 -0.7956  0.3210
    8TMC3    C413978   1.605   0.655  13.434  0.5292  0.1246  0.7066
    8TMC3    C513979   1.691   0.759  13.442 -0.3973 -0.7821 -0.2043
    8TMC3    C613980   1.787   0.759  13.538  0.2648 -0.1215  0.1538
    8TMC3     C13981   1.476   0.486  13.532 -0.3621  0.8161 -0.2632
    8TMC3     O13982   1.483   0.368  13.571  0.1111 -0.0358 -0.0882
    8TMC3     H13983   1.681   0.494  13.719  0.4298 -0.2866 -0.3972
    8TMC3    H113984   1.537   0.638  13.352 -0.7645  2.3167  1.3485
    8TMC3    H213985   1.865   0.835  13.536  0.9964 -0.9134 -0.8513
    8TMC3    C713986   1.709   0.823  13.314  0.4532 -0.0161  0.6427
    8TMC3    C813987   1.878   0.686  13.739  0.6231  0.7470  0.1361
    8TMC3    O113988   1.826   0.837  13.277 -0.4708 -0.0104 -0.3907
    8TMC3    O213989   1.914   0.801  13.749  0.0250  0.5963 -0.5242
    9TMC3    C113990   0.940   0.788  12.773 -0.5903  0.0507  0.1181
    9TMC3    C213991   1.002   0.904  12.753  0.0717  0.5355 -0.9111
    9TMC3    C313992   1.045   0.979  12.858 -0.6392 -0.5039  0.7745
    9TMC3    C413993   0.936   0.734  12.897 -0.6684  0.0954  0.0075
    9TMC3    C513994   0.974   0.805  13.002 -0.4073 -0.3639  0.9953
    9TMC3    C613995   1.017   0.936  12.982  0.2349  0.7865  0.0661
    9TMC3     C13996   0.910   0.709  12.659  0.2358 -0.4924 -0.0615
    9TMC3     O13997   0.893   0.588  12.676  0.2405 -0.2501 -0.6477
    9TMC3     H13998   1.037   0.937  12.656 -1.6754 -0.3366 -1.8360
    9TMC3    H113999   0.880   0.641  12.907 -1.1922  0.7972  3.4305
    9TMC3    H214000   1.024   1.005  13.066  0.4646  0.5460  0.2432
    9TMC3    C714001   1.033   0.745  13.126 -0.2882  0.3184  0.3907
    9TMC3    C814002   1.182   1.022  12.849 -0.2474 -0.4364  0.3335
    9TMC3    O114003   1.099   0.822  13.194 -0.1322  0.5873 -0.3073
    9TMC3    O214004   1.233   1.075  12.749  0.2459 -0.1740 -0.6325
   10MPD2     C14005   1.671   0.973  13.060 -0.7973 -0.0901  0.0393
   10MPD2    C114006   1.573   0.922  13.138  0.0894  0.5512 -0.0776
   10MPD2    C214007   1.438   0.936  13.102  0.6029  0.6891 -0.0736
   10MPD2    C314008   1.394   0.982  12.981 -1.0439  0.2582 -0.0215
   10MPD2    C414009   1.492   1.038  12.899  0.5965 -0.8663  0.8494
   10MPD2    C514010   1.625   1.019  12.939 -0.6005  0.2315 -0.0124
   10MPD2     H14011   1.369   0.886  13.169 -0.0701  3.6904  1.4798
   10MPD2    H114012   1.470   1.076  12.800 -0.1339  1.4466  1.9008
   10MPD2    H214013   1.777   0.953  13.068 -0.7190  0.5806  0.6323
   10MPD2    H314014   1.704   1.032  12.866  1.6490  0.3940  2.4282
   10MPD2     N14015   1.254   0.971  12.952  0.5840 -0.8511 -1.1840
   10MPD2    H514016   1.199   0.909  13.010  0.4969 -0.1506 -0.5216
   10MPD2    N114017   1.588   0.859  13.260  0.2580  0.5429 -0.0558
   10MPD2    H714018   1.506   0.834  13.314  0.4427 -0.9853 -0.4659
   11MPD2     C14019   2.161   4.489  13.496 -0.1422  0.1618 -0.1670
   11MPD2    C114020   2.218   4.399  13.584  0.7204 -0.7207  0.4576
   11MPD2    C214021   2.300   4.451  13.681 -0.0650 -0.4698 -0.0625
   11MPD2    C314022   2.310   4.586  13.702 -0.0347 -0.5322 -0.5688
   11MPD2    C414023   2.245   4.670  13.613 -0.3087 -0.7123 -0.2354
   11MPD2    C514024   2.187   4.622  13.505 -0.0235 -0.8056  0.6849
   11MPD2     H14025   2.341   4.376  13.747 -0.0802 -0.6935 -0.3075
   11MPD2    H114026   2.251   0.041  13.617  0.5390 -0.7344 -1.1630
   11MPD2    H214027   2.094   4.454  13.418 -1.7219  0.9084  0.8516
   11MPD2    H314028   2.136   4.689  13.437 -1.5795 -2.1830  0.4883
   11MPD2     N14029   2.362   4.645  13.819 -0.6566  0.6251  0.9147
   11MPD2    H514030   2.351   0.008  13.808 -0.4903  0.4803 -0.5895
   11MPD2    N114031   2.202   4.258  13.582 -0.2138  0.0663 -0.0722
   11MPD2    H714032   2.252   4.204  13.652  1.9851 -1.2578 -2.6616
    1MPD1     C14033   0.404   1.210  17.271 -0.6806  0.4889 -0.2128
    1MPD1    C114034   0.266   1.221  17.238  0.2070 -0.7649 -0.2652
    1MPD1    C214035   0.237   1.284  17.116  0.5369  0.4936 -0.2455
    1MPD1    C314036   0.333   1.343  17.032  0.8983 -0.0770  0.2359
    1MPD1    C414037   0.461   1.341  17.074 -0.1577  0.0166  0.4980
    1MPD1    C514038   0.490   1.282  17.194  0.2002  0.1376  0.2059
    1MPD1     H14039   0.132   1.287  17.089 -0.2408 -0.4400  2.6843
    1MPD1    H114040   0.538   1.388  17.014  0.8196 -2.3291 -0.0929
    1MPD1    H214041   0.435   1.158  17.361 -1.4779 -0.7079 -0.6246
    1MPD1    H314042   0.594   1.288  17.223  0.2864  1.8163 -0.4570
    1MPD1     N14043   0.298   1.422  16.918 -0.1068  0.0290 -0.1118
    1MPD1    H514044   0.380   1.449  16.864 -0.2566  1.2692  0.2912
    1MPD1    N114045   0.165   1.149  17.309  0.4870 -0.1803 -0.2949
    1MPD1    H614046   0.184   1.141  17.409 -1.2136 -0.2975  0.0177
    1MPD1    H714047   0.068   1.181  17.312  1.2959  2.1254  0.8231
    2MPD1     C14048   0.723   1.688  16.113  0.4330 -0.3743 -0.1769
    2MPD1    C114049   0.625   1.787  16.128  0.6421 -0.0574 -0.0649
    2MPD1    C214050   0.518   1.761  16.212 -0.1167 -0.2677 -0.3006
    2MPD1    C314051   0.508   1.645  16.283  0.5427  0.1105  0.3028
    2MPD1    C414052   0.615   1.556  16.275 -0.0319  0.8949 -0.2444
    2MPD1    C514053   0.723   1.575  16.192  0.2264 -0.9330 -0.1000
    2MPD1     H14054   0.445   1.840  16.225 -0.5680 -1.2040  2.9444
    2MPD1    H114055   0.614   1.472  16.343  3.0680  0.6440 -0.5174
    2MPD1    H214056   0.791   1.697  16.029  0.4016  4.4020  0.2936
    2MPD1    H314057   0.803   1.503  16.180  1.3157  0.3653 -0.6012
    2MPD1     N14058   0.394   1.628  16.362  0.3349 -0.0087  0.0937
    2MPD1    H514059   0.330   1.706  16.373 -1.1973 -1.2020 -0.3392
    2MPD1    N114060   0.616   1.905  16.046  0.1696  0.1713 -0.2370
    2MPD1    H614061   0.711   1.937  16.033  0.2490 -0.0294 -0.1530
    2MPD1    H714062   0.567   1.978  16.098 -0.3559 -0.1937 -0.2168
    3TMC3    C114063   0.259   1.545  16.522  0.8115  0.2673 -0.6946
    3TMC3    C214064   0.145   1.590  16.471 -0.7885 -0.1673 -0.4788
    3TMC3    C314065   0.037   1.596  16.557  0.9375  0.1027  0.4103
    3TMC3    C414066   0.279   1.504  16.653  0.1112 -0.7853 -0.4638
    3TMC3    C514067   0.172   1.512  16.731 -0.1449  0.0340 -0.0478
    3TMC3    C614068   0.049   1.555  16.688 -0.3889 -0.8296  0.7055
    3TMC3     C14069   0.363   1.519  16.431  0.0000 -0.0744  0.2843
    3TMC3     O14070   0.415   1.410  16.422  0.9348 -0.2665  0.4268
    3TMC3     H14071   0.148   1.624  16.368  0.2587  0.2417 -0.3083
    3TMC3    H114072   0.373   1.469  16.693  0.4062 -0.2010 -0.6341
    3TMC3    H214073   4.707   1.571  16.761  0.8267  1.0661  1.6198
    3TMC3    C714074   0.170   1.452  16.867 -0.9205  0.7035  0.4242
    3TMC3    C814075   4.647   1.557  16.503  0.2930  0.1031 -0.1968
    3TMC3    O114076   0.057   1.452  16.920 -0.5593 -0.0528 -0.1792
    3TMC3    O214077   4.588   1.485  16.577  0.2204  0.6671  0.3407
    4MPD1     C14078   4.297   1.499  16.141  0.5264  1.1937 -0.2432
    4MPD1    C114079   4.386   1.594  16.093  0.5899 -0.2311  0.1532
    4MPD1    C214080   4.500   1.617  16.174 -0.5048  0.3807 -0.6104
    4MPD1    C314081   4.499   1.580  16.306 -0.3161  0.1415  0.3077
    4MPD1    C414082   4.399   1.499  16.358  0.0902  0.7024 -0.0980
    4MPD1    C514083   4.304   1.461  16.272  0.5007  0.0075 -0.2975
    4MPD1     H14084   4.583   1.674  16.134 -1.1412  1.4055 -0.4774
    4MPD1    H114085   4.391   1.483  16.465  0.3015 -0.2409 -0.2224
    4MPD1    H214086   4.214   1.466  16.079  0.1419  0.1894  0.8054
    4MPD1    H314087   4.222   1.400  16.308  0.8935  1.3685  2.9071
    4MPD1     N14088   4.621   1.610  16.375  0.7695  0.1385  0.2468
    4MPD1    H514089   4.691   1.669  16.331  1.3377  0.4200  1.5363
    4MPD1    N114090   4.389   1.621  15.959 -0.1247  0.0236  0.6693
    4MPD1    H614091   4.296   1.646  15.929 -0.1245  0.6006  1.1488
    4MPD1    H714092   4.433   1.713  15.954 -2.6544  0.9617 -3.3700
    1TCq1    O114093   0.254   1.068  11.040 -0.1106  0.9294  0.4734
    1TCq1    C114094   0.282   0.976  11.131 -0.3465 -0.1517 -0.8953
    1TCq1    O214095   0.202   0.893  11.165 -0.2462 -0.3766  1.0290
    1TCq1    C214096   0.426   0.983  11.161  0.3740  0.0668  0.3473
    1TCq1    C314097   0.478   0.870  11.214  0.4516  1.0246  0.3145
    1TCq1    C414098   0.606   0.884  11.256  0.4566 -0.5437 -0.0293
    1TCq1    C514099   0.692   0.979  11.206  0.1733 -0.2636  0.2668
    1TCq1    C614100   0.636   1.084  11.146 -0.5633  0.8770  0.0161
    1TCq1    C714101   0.502   1.087  11.125 -0.5237 -0.2865 -0.2527
    1TCq1    C814102   0.714   1.162  11.053  0.2918  0.0504 -0.0778
    1TCq1    O414103   0.657   1.268  11.023 -0.2490 -0.0472 -0.2685
    1TCq1    C914104   0.676   0.774  11.316 -0.3217 -0.4788  0.2002
    1TCq1    O514105   0.796   0.788  11.350  0.0419 -0.1762  0.3401
    1TCq1    O614106   0.608   0.683  11.371 -0.0503 -0.0289 -0.6752
    1TCq1    H114107   0.330   1.120  11.007  1.4484 -1.1503  0.8198
    1TCq1    H214108   0.414   0.795  11.259 -1.5166  1.4522 -1.7351
    1TCq1    H314109   0.798   0.986  11.227 -0.0471 -0.3081  1.3570
    1TCq1    H414110   0.462   1.177  11.079 -0.9597 -0.6777 -0.6437
    2MPD1     C14111   1.140   1.314  10.802 -0.5013  0.4212  0.7479
    2MPD1    C114112   1.145   1.174  10.824 -0.1233  0.1872  0.6382
    2MPD1    C214113   1.043   1.108  10.898  0.4070  0.0464 -0.1642
    2MPD1    C314114   0.934   1.178  10.937  0.5294  0.1463  0.2522
    2MPD1    C414115   0.938   1.318  10.924  0.4501  0.1161 -0.2180
    2MPD1    C514116   1.043   1.388  10.859  0.4723  0.6263  0.3555
    2MPD1     H14117   1.050   1.001  10.915  2.7849  0.5215  1.8011
    2MPD1    H114118   0.860   1.379  10.967  0.3796 -0.7018  0.8211
    2MPD1    H214119   1.216   1.371  10.751 -1.2385  0.6800 -0.0637
    2MPD1    H314120   1.030   1.494  10.842  1.1987  0.5725 -0.5407
    2MPD1     N14121   0.829   1.106  11.010  0.6878  0.6374  0.1504
    2MPD1    H514122   0.851   1.009  11.034  1.5558  1.1737  1.5595
    2MPD1    N114123   1.266   1.112  10.800  0.3859  0.2662  0.2279
    2MPD1    H614124   1.260   1.011  10.807 -1.8614  0.1926 -2.6416
    2MPD1    H714125   1.330   1.149  10.731  0.8210 -0.2529  0.3589
    1TMC1    C114126   0.952   1.718   9.841  0.1889 -0.0308 -0.1258
    1TMC1    C214127   0.818   1.696   9.818 -0.0775  0.3361  0.2556
    1TMC1    C314128   0.731   1.779   9.890  0.0207 -0.7064  0.1203
    1TMC1    C414129   1.003   1.820   9.919 -0.0806 -0.1274  0.4653
    1TMC1    C514130   0.911   1.899   9.981 -0.3295 -0.0012  0.2636
    1TMC1    C614131   0.776   1.872   9.977  0.6850 -0.0045  0.0987
    1TMC1     C14132   1.048   1.617   9.797  0.1338 -0.0749 -0.8757
    1TMC1     O14133   1.006   1.503   9.778  1.0425  0.4570  0.3181
    1TMC1     H14134   0.793   1.611   9.757  1.9796 -2.8205  3.7997
    1TMC1    H114135   1.110   1.828   9.934 -0.3639  1.6583  1.5129
    1TMC1    H214136   0.704   1.932  10.032 -0.1903 -0.5543 -0.4490
    1TMC1    C714137   0.944   2.029  10.035 -0.1756  0.4417  0.2459
    1TMC1    C814138   0.595   1.730   9.910  0.7658  0.0138 -0.4472
    1TMC1    O114139   0.864   2.105  10.085 -0.1211 -0.4655 -0.0628
    1TMC1    O214140   0.564   1.744  10.024 -0.3801  0.1606 -0.2422
    1TMC1    O314141   1.073   2.059  10.007  0.0105 -0.1139 -0.4700
    1TMC1    H314142   1.110   1.974   9.973 -2.5255 -1.4938  0.2380
    1TMC1    O514143   0.587   1.616   9.838  0.0354  0.0182  0.8832
    1TMC1    H514144   0.602   1.630   9.743 -0.9943  2.8806  1.1496
    2MPD1     C14145   1.485   1.451   9.622 -0.1686  0.1973 -0.0386
    2MPD1    C114146   1.487   1.586   9.603 -0.8158 -0.7296 -0.0105
    2MPD1    C214147   1.377   1.653   9.654  0.0860  0.6147  0.9952
    2MPD1    C314148   1.280   1.596   9.727 -0.5460  0.9039 -1.0472
    2MPD1    C414149   1.284   1.460   9.740  0.1426 -0.1334 -0.4745
    2MPD1    C514150   1.386   1.388   9.690  0.1104  0.8075 -0.5543
    2MPD1     H14151   1.373   1.760   9.642  1.2181  0.5672  0.2198
    2MPD1    H114152   1.215   1.403   9.801  0.2194  0.1795 -0.1003
    2MPD1    H214153   1.572   1.392   9.593 -1.3839  0.2002 -3.6985
    2MPD1    H314154   1.393   1.280   9.692  0.7015  0.8504 -0.4075
    2MPD1     N14155   1.174   1.672   9.764  0.0135 -0.1945  0.2045
    2MPD1    H514156   1.188   1.771   9.750  0.3399 -0.1359  0.9876
    2MPD1    N114157   1.595   1.643   9.529  0.1685 -0.1515 -0.0091
    2MPD1    H614158   1.682   1.590   9.529 -1.4901 -2.8916  0.5611
    2MPD1    H714159   1.622   1.730   9.575 -0.0580  0.5323 -1.1759
    1MPD1     C14160   3.015   1.422  10.877  0.5612 -0.4524 -0.5912
    1MPD1    C114161   3.008   1.529  10.966  0.1560 -0.2377 -0.4357
    1MPD1    C214162   3.089   1.525  11.077 -0.4397  0.4358 -0.2414
    1MPD1    C314163   3.169   1.420  11.115  0.8694  0.0806  0.4987
    1MPD1    C414164   3.170   1.314  11.031  1.1442 -0.1788 -0.4519
    1MPD1    C514165   3.103   1.323  10.910 -0.5627  0.1763 -0.5960
    1MPD1     H14166   3.062   1.597  11.153  2.6782 -0.1631  1.4382
    1MPD1    H114167   3.238   1.230  11.039  0.8247 -0.3812  0.1164
    1MPD1    H214168   2.959   1.407  10.785 -2.0354  0.7521  0.8146
    1MPD1    H314169   3.116   1.239  10.843 -0.2918  0.7967 -1.3149
    1MPD1     N14170   3.236   1.425  11.239  0.3236 -0.7818 -0.6710
    1MPD1    H514171   3.205   1.491  11.309  1.4889  0.7526 -1.6262
    1MPD1    N114172   2.911   1.631  10.950 -0.4237  0.1079 -0.0816
    1MPD1    H614173   2.824   1.603  10.905 -1.4146 -1.8277  3.0518
    1MPD1    H714174   2.893   1.683  11.035 -0.9498 -1.1382  0.5565
    2MPD1     C14175   2.584   0.795  12.217 -0.1685 -0.9246 -0.4064
    2MPD1    C114176   2.501   0.744  12.126  0.0673  0.0752  0.8024
    2MPD1    C214177   2.430   0.825  12.041 -0.4579 -0.0405 -0.2979
    2MPD1    C314178   2.452   0.963  12.047  0.1110 -0.6144  0.7514
    2MPD1    C414179   2.539   1.012  12.138 -0.3246 -0.3168  0.0745
    2MPD1    C514180   2.605   0.931  12.228  0.2880 -0.0097  0.3653
    2MPD1     H14181   2.363   0.783  11.967 -0.8268 -1.8348  1.0417
    2MPD1    H114182   2.551   1.120  12.132  0.7707 -0.3761  1.2811
    2MPD1    H214183   2.634   0.745  12.300  0.1702  0.7901  0.4377
    2MPD1    H314184   2.669   0.976  12.303  0.7357  1.2888 -0.7832
    2MPD1     N14185   2.395   1.065  11.964  0.2081  0.0759 -0.5652
    2MPD1    H514186   2.434   1.158  11.955  1.3333  0.0509  3.7547
    2MPD1    N114187   2.506   0.602  12.110 -0.5442  0.0941 -0.8659
    2MPD1    H614188   2.585   0.571  12.054  1.6167 -0.0618  2.2711
    2MPD1    H714189   2.428   0.568  12.053  0.6527 -1.7872 -1.3903
    3MPD1     C14190   2.133   1.063  10.969 -0.1164 -0.2592  0.2748
    3MPD1    C114191   2.195   0.967  11.043  0.0874 -0.3940  0.1064
    3MPD1    C214192   2.223   0.998  11.180 -0.2822 -1.0904 -0.3292
    3MPD1    C314193   2.199   1.124  11.233 -0.1844  0.1466 -0.4584
    3MPD1    C414194   2.145   1.220  11.152  0.5117 -0.3871  0.2667
    3MPD1    C514195   2.118   1.187  11.021 -0.0797  0.4546  0.9897
    3MPD1     H14196   2.269   0.918  11.238  0.0419 -0.9118 -0.3418
    3MPD1    H114197   2.120   1.320  11.186 -0.4986 -0.4965 -0.1518
    3MPD1    H214198   2.095   1.036  10.871  0.1989 -0.6201  0.2521
    3MPD1    H314199   2.074   1.267  10.963  1.6595 -1.4046 -2.9253
    3MPD1     N14200   2.221   1.146  11.372  0.5570 -0.4938  0.1352
    3MPD1    H514201   2.248   1.069  11.431  0.5305  0.7684  1.7849
    3MPD1    N114202   2.211   0.832  10.994  0.4279 -0.0039  0.1251
    3MPD1    H614203   2.260   0.774  11.063 -0.5299 -0.0022  0.8171
    3MPD1    H714204   2.243   0.828  10.898  1.8110  0.8616  0.5485
    4MPD2     C14205   3.307   1.170  11.955  0.4168 -0.2366  0.7749
    4MPD2    C114206   3.361   1.291  11.924 -0.1631 -0.7916  0.2430
    4MPD2    C214207   3.315   1.397  12.007 -0.1211 -0.1537 -0.2833
    4MPD2    C314208   3.224   1.384  12.114 -0.8643  0.3963  0.4950
    4MPD2    C414209   3.179   1.262  12.142  0.1220  0.9396 -0.0881
    4MPD2    C514210   3.215   1.155  12.058 -0.4220 -0.2821 -0.2056
    4MPD2     H14211   3.348   1.496  11.981  1.3948 -0.5425  0.1653
    4MPD2    H114212   3.116   1.239  12.227  2.8049 -0.3018  1.5619
    4MPD2    H214213   3.336   1.081  11.901 -2.5868 -1.3511  1.0432
    4MPD2    H314214   3.168   1.058  12.070  0.5583 -0.7482 -0.1087
    4MPD2     N14215   3.194   1.506  12.186  0.8243 -0.3605  0.4970
    4MPD2    H514216   3.228   1.590  12.140  1.1665 -2.7778 -3.6058
    4MPD2    N114217   3.435   1.317  11.805 -0.0938  0.0166 -0.1724
    4MPD2    H714218   3.458   1.414  11.784  0.8788 -0.0038  0.8201
    5TMC3    C114219   3.509   1.287  11.585  0.3636  0.4330 -0.3467
    5TMC3    C214220   3.431   1.253  11.478  0.2679  0.1809 -0.3285
    5TMC3    C314221   3.384   1.359  11.408  0.7796 -0.1289 -0.5943
    5TMC3    C414222   3.551   1.411  11.607 -0.0249  0.2970 -0.3420
    5TMC3    C514223   3.488   1.512  11.541 -0.0302 -0.1617 -0.4047
    5TMC3    C614224   3.404   1.493  11.437 -0.2784  0.3920  0.1186
    5TMC3     C14225   3.462   1.228  11.699  0.2899 -0.5320 -0.1920
    5TMC3     O14226   3.447   1.106  11.689  0.2714  0.1524 -0.1078
    5TMC3     H14227   3.419   1.148  11.455  0.5068  0.4365 -1.5927
    5TMC3    H114228   3.617   1.432  11.691 -0.5194 -0.4806  0.2474
    5TMC3    H214229   3.362   1.581  11.391  1.6029  1.9526  1.3994
    5TMC3    C714230   3.454   1.611  11.636 -0.8227  0.7321  0.2049
    5TMC3    C814231   3.330   1.331  11.277 -0.3214  0.7769  0.3164
    5TMC3    O114232   3.460   1.576  11.752  0.4093 -0.0319  0.5449
    5TMC3    O214233   3.351   1.218  11.225 -0.1990 -0.3512 -0.1300
    6TMC3    C114234   2.283   1.167  11.789 -0.0622 -0.3094  0.5605
    6TMC3    C214235   2.261   1.156  11.653  0.6910  0.3071 -0.4804
    6TMC3    C314236   2.264   1.272  11.578  0.3956 -0.8944 -0.5539
    6TMC3    C414237   2.327   1.286  11.839 -0.9924  0.1939  0.1142
    6TMC3    C514238   2.345   1.398  11.760 -0.5539  0.2662  0.6376
    6TMC3    C614239   2.313   1.391  11.627 -0.0611 -0.3485 -0.7384
    6TMC3     C14240   2.294   1.048  11.869 -0.4289 -0.1521  0.6127
    6TMC3     O14241   2.242   0.946  11.829 -0.1015 -0.1330  0.4550
    6TMC3     H14242   2.232   1.060  11.611  0.9297  1.3237 -2.9602
    6TMC3    H114243   2.357   1.298  11.942 -1.0894 -0.8686  0.2628
    6TMC3    H214244   2.318   1.485  11.573 -2.1858 -0.1632 -0.5879
    6TMC3    C714245   2.436   1.501  11.801 -0.5093  0.9026 -0.8422
    6TMC3    C814246   2.232   1.274  11.428 -0.2170  0.1014  0.6807
    6TMC3    O114247   2.428   1.531  11.917 -0.0022 -0.3504  0.0646
    6TMC3    O214248   2.231   1.381  11.364  0.0426 -0.0564 -0.2036
    7MPD2     C14249   3.195   2.043  11.761 -0.1216  0.0791  0.2413
    7MPD2    C114250   3.221   1.932  11.838 -0.2946 -0.0599  0.4673
    7MPD2    C214251   3.284   1.824  11.775 -0.4804  0.1947  0.6454
    7MPD2    C314252   3.345   1.835  11.652  0.5411 -0.5388 -0.3196
    7MPD2    C414253   3.334   1.960  11.594  0.2067  0.2505 -0.4618
    7MPD2    C514254   3.259   2.060  11.646  0.0297  0.2391  0.2198
    7MPD2     H14255   3.282   1.729  11.827  3.2269 -0.4028 -0.3131
    7MPD2    H114256   3.401   1.993  11.516 -0.7589 -2.1962 -2.3203
    7MPD2    H214257   3.133   2.119  11.808 -1.8074 -0.5786 -0.9067
    7MPD2    H314258   3.249   2.160  11.604 -0.4961 -0.6146 -1.7007
    7MPD2     N14259   3.417   1.735  11.582  0.1287 -0.9210 -0.0081
    7MPD2    H514260   3.432   1.771  11.489  0.2207 -2.8196 -0.7251
    7MPD2    N114261   3.168   1.927  11.970 -0.2515  0.2549 -0.0495
    7MPD2    H714262   3.144   2.016  12.012  0.3723  0.1237  0.5953
    8TMC3    C114263   3.123   1.839  12.180 -0.0631  0.6701 -0.7096
    8TMC3    C214264   2.993   1.878  12.174 -0.0156  0.5080  0.5940
    8TMC3    C314265   2.907   1.787  12.217  0.1719  0.2983 -0.1206
    8TMC3    C414266   3.171   1.745  12.263  0.1395  0.5256 -0.7681
    8TMC3    C514267   3.081   1.660  12.325 -0.4109 -0.4405  0.3664
    8TMC3    C614268   2.943   1.683  12.299 -0.1615  0.7390 -0.2460
    8TMC3     C14269   3.201   1.832  12.058 -0.1298  0.3070  0.1843
    8TMC3     O14270   3.281   1.742  12.055  0.6521 -0.0508 -0.1512
    8TMC3     H14271   2.957   1.961  12.113  1.4416  1.9646  1.6897
    8TMC3    H114272   3.277   1.732  12.280  0.1568  3.6952  1.3573
    8TMC3    H214273   2.874   1.602  12.322 -0.9851  0.9134 -2.0820
    8TMC3    C714274   3.112   1.516  12.298 -0.3757  0.1702  0.5306
    8TMC3    C814275   2.807   1.744  12.127 -0.1894 -0.3598  0.7467
    8TMC3    O114276   3.055   1.432  12.370 -0.2165  0.2943  0.6244
    8TMC3    O214277   2.727   1.662  12.170  0.1130 -0.0163 -0.8899
    9MPD2     C14278   2.878   1.759  11.762 -0.4332  0.0667  0.2872
    9MPD2    C114279   2.804   1.722  11.875  0.4620 -0.6925 -0.6050
    9MPD2    C214280   2.685   1.652  11.855 -0.2965 -0.2062 -0.3564
    9MPD2    C314281   2.640   1.620  11.727 -0.6048  0.5287  0.4253
    9MPD2    C414282   2.722   1.649  11.625 -0.1771  0.0963  0.3181
    9MPD2    C514283   2.834   1.731  11.638 -0.7687 -0.2353 -0.2339
    9MPD2     H14284   2.625   1.617  11.939  2.0235  2.4677  2.4383
    9MPD2    H114285   2.697   1.611  11.527 -2.2759 -1.9749  1.6567
    9MPD2    H214286   2.971   1.815  11.773  0.1534 -0.3773 -2.6407
    9MPD2    H314287   2.906   1.742  11.558  1.1477 -1.3463  1.3407
    9MPD2     N14288   2.526   1.543  11.703  0.1816 -0.4110  0.8262
    9MPD2    H514289   2.496   1.509  11.612  0.1545  1.9706 -0.0717
    9MPD2    N114290   2.852   1.767  12.001 -0.1577 -0.6581  0.7177
    9MPD2    H714291   2.933   1.828  11.993 -0.0864 -0.7933  0.3715
    1MPD1     C14292   2.551   0.366  15.657 -0.2445  0.4518 -0.0250
    1MPD1    C114293   2.540   0.241  15.706  0.4681  0.1505 -0.3136
    1MPD1    C214294   2.541   0.138  15.616 -0.3196 -0.3893  0.0395
    1MPD1    C314295   2.550   0.164  15.475 -0.0516 -0.7796 -0.5068
    1MPD1    C414296   2.562   0.291  15.431 -0.4067  0.0762 -0.2832
    1MPD1    C514297   2.554   0.392  15.520  0.6130 -0.2375 -0.4569
    1MPD1     H14298   2.522   0.037  15.652  1.4439 -1.4867 -2.0304
    1MPD1    H114299   2.568   0.310  15.324 -1.1049 -1.2706 -0.5727
    1MPD1    H214300   2.555   0.452  15.724 -0.4402 -0.5113  1.2090
    1MPD1    H314301   2.553   0.495  15.486  1.5655 -0.3346 -0.7690
    1MPD1     N14302   2.560   0.062  15.375  0.6253  0.2851  0.2229
    1MPD1    H514303   2.574   0.099  15.282  2.3145  0.2250  0.4441
    1MPD1    N114304   2.521   0.213  15.845  0.5322  0.7548 -0.3133
    1MPD1    H614305   2.556   0.120  15.864 -1.4007 -0.2958 -1.8066
    1MPD1    H714306   2.568   0.283  15.902  0.1081  0.9342 -0.1788
    2TMC2    C114307   2.493   4.435  15.135  0.5031  0.0933 -0.5655
    2TMC2    C214308   2.562   4.490  15.024  0.4286  0.3005 -0.6299
    2TMC2    C314309   2.639   4.603  15.050 -0.2097  0.0862  0.3005
    2TMC2    C414310   2.507   4.484  15.260  0.5654 -0.0525 -0.2471
    2TMC2    C514311   2.585   4.594  15.278  0.2470  0.5523  0.7013
    2TMC2    C614312   2.646   4.661  15.175  0.4819 -0.4717  0.1021
    2TMC2     C14313   2.411   4.309  15.117 -0.4593  0.3227 -0.1413
    2TMC2     O14314   2.385   4.260  15.227 -0.4876  0.3740 -0.3547
    2TMC2     H14315   2.564   4.447  14.925 -0.3437  0.0694 -0.5503
    2TMC2    H114316   2.460   4.451  15.352  2.2787 -1.5730  0.0924
    2TMC2    H214317   2.714   0.006  15.187 -0.4453 -0.0107  2.1433
    2TMC2    C714318   2.568   4.668  15.402 -0.1779  0.4931  0.5448
    2TMC2    C814319   2.734   4.632  14.943 -0.1492  0.2324 -0.1105
    2TMC2    O114320   2.540   4.611  15.509 -0.2379 -0.2290 -0.1234
    2TMC2    O214321   2.779   4.546  14.867  0.1664 -0.1115 -0.0637
    2TMC2    O514322   2.779   0.023  14.955  0.0529  0.0169  0.5053
    2TMC2    H514323   2.724   0.089  15.002  1.9219  1.3501  0.8466
    3MPD1     C14324   2.063   4.010  14.906 -0.0342  0.0278  0.2261
    3MPD1    C114325   2.105   4.108  14.811  0.0322  0.2461  0.5109
    3MPD1    C214326   2.192   4.204  14.855  0.3639  0.1860  0.5919
    3MPD1    C314327   2.244   4.203  14.976 -0.2364 -0.4022  0.0670
    3MPD1    C414328   2.202   4.109  15.067 -0.2926  0.7320  0.3011
    3MPD1    C514329   2.108   4.012  15.038  0.0845 -0.1086 -0.1090
    3MPD1     H14330   2.223   4.279  14.783  0.3242  1.2926  1.7346
    3MPD1    H114331   2.234   4.113  15.170 -1.2458 -1.5627  0.6823
    3MPD1    H214332   1.994   3.933  14.873  0.3315 -0.5781  0.8787
    3MPD1    H314333   2.070   3.940  15.110 -3.4124  0.5259 -1.3215
    3MPD1     N14334   2.345   4.299  15.002 -0.3998 -0.9627 -0.4506
    3MPD1    H514335   2.373   4.367  14.932  0.5724 -0.6368  0.2693
    3MPD1    N114336   2.039   4.121  14.686  0.4327  0.0295 -0.3560
    3MPD1    H614337   1.995   4.035  14.654 -0.0574 -0.3720  1.3688
    3MPD1    H714338   2.086   4.164  14.607  1.0134  1.1614  0.5984
    1TMC1    C114339   0.055   4.008  12.623  0.2224 -0.6591 -0.1123
    1TMC1    C214340   4.657   4.038  12.615 -0.2124 -0.5983  0.2706
    1TMC1    C314341   4.580   3.992  12.519  0.5105 -0.0263 -0.1793
    1TMC1    C414342   0.112   3.934  12.519 -0.1425  0.0556  0.6578
    1TMC1    C514343   0.029   3.904  12.410  0.5235 -0.4785  0.6240
    1TMC1    C614344   4.630   3.928  12.408 -0.2872 -0.8255  0.0077
    1TMC1     C14345   0.136   4.094  12.707  0.0070  0.1586 -0.5147
    1TMC1     O14346   0.104   4.212  12.726 -0.3457  0.3301  0.5106
    1TMC1     H14347   4.613   4.096  12.694  0.6804  0.5120 -0.0494
    1TMC1    H114348   0.218   3.913  12.514 -0.2586 -0.4727  0.3654
    1TMC1    H214349   4.570   3.907  12.320  1.6353 -1.0275 -1.2712
    1TMC1    C714350   0.073   3.813  12.311  0.0376 -0.7115  0.5537
    1TMC1    C814351   4.443   4.015  12.503  0.9621  0.8163  0.3202
    1TMC1    O114352   4.723   3.768  12.241 -0.2316 -0.0592 -0.5549
    1TMC1    O214353   4.387   4.047  12.402 -0.2290  0.1613 -0.0092
    1TMC1    O314354   0.158   3.737  12.377  0.0169  0.3357 -0.0527
    1TMC1    H314355   0.245   3.781  12.383  0.2222 -0.4359  2.8059
    1TMC1    O514356   4.396   3.940  12.608  0.3385 -0.6949 -0.1158
    1TMC1    H514357   4.471   3.916  12.666  0.8395 -0.4741 -0.6735
    2MPD2     C14358   0.331   4.204  12.901  0.3411  0.1719  1.1286
    2MPD2    C114359   0.326   4.071  12.865  0.4926  0.3514 -0.3934
    2MPD2    C214360   0.407   3.982  12.933 -0.7675  0.1761 -0.1292
    2MPD2    C314361   0.485   4.024  13.034  0.4720 -1.0016  0.0205
    2MPD2    C414362   0.487   4.156  13.077  0.1865 -0.8286  0.1820
    2MPD2    C514363   0.404   4.240  13.009  0.0596 -0.2230 -0.8717
    2MPD2     H14364   0.405   3.875  12.912 -0.2845  0.4445 -1.5613
    2MPD2    H114365   0.552   4.191  13.156  0.4164 -0.9594  0.0516
    2MPD2    H214366   0.282   4.282  12.843  0.2673 -0.1621  0.7401
    2MPD2    H314367   0.394   4.346  13.029  1.9696 -0.3937  0.9759
    2MPD2     N14368   0.553   3.913  13.103 -0.4402  0.7086  0.2840
    2MPD2    H514369   0.558   3.829  13.047  0.3111  0.2809  0.9803
    2MPD2    N114370   0.241   4.024  12.762  0.4165 -0.0449  0.2648
    2MPD2    H714371   0.252   3.926  12.737  0.0637  0.4008 -1.6382
    3TCq1    O114372   0.981   3.708  13.494 -0.8267  0.0768  0.4502
    3TCq1    C114373   0.981   3.627  13.382  0.3164  0.6613  0.5119
    3TCq1    O214374   1.036   3.518  13.362  0.3244 -0.4240 -0.8017
    3TCq1    C214375   0.844   3.642  13.343  0.0365 -0.2260 -0.2652
    3TCq1    C314376   0.770   3.527  13.322 -0.7111 -0.0442  0.2106
    3TCq1    C414377   0.639   3.545  13.278 -0.1570  0.0425 -0.1815
    3TCq1    C514378   0.606   3.674  13.234 -0.0003 -0.2786  0.0295
    3TCq1    C614379   0.689   3.782  13.249  0.4479 -0.2578 -0.6865
    3TCq1    C714380   0.811   3.772  13.310  0.0424 -0.6420  0.0838
    3TCq1    C814381   0.631   3.914  13.216  0.4449  0.0088 -0.0050
    3TCq1    O414382   0.653   4.010  13.291  0.6152  0.0593 -0.4359
    3TCq1    C914383   0.551   3.427  13.263  0.9324 -0.0903 -0.5052
    3TCq1    O514384   0.596   3.321  13.311  0.7018  0.0961 -0.0088
    3TCq1    O614385   0.432   3.457  13.250 -0.1271  0.3522  0.5624
    3TCq1    H114386   0.894   3.749  13.512 -0.5700  0.1620  1.5371
    3TCq1    H214387   0.801   3.427  13.346 -0.2529 -0.1962 -1.0271
    3TCq1    H314388   0.514   3.688  13.180  0.1368 -1.9836 -0.6655
    3TCq1    H414389   0.884   3.851  13.323 -1.0852  0.8763 -2.7048
    1MPD2     C14390   0.701   0.434  14.638 -0.5073  0.5121 -0.6511
    1MPD2    C114391   0.613   0.389  14.736  0.2825  0.1515 -0.0263
    1MPD2    C214392   0.658   0.395  14.869  0.4322 -0.1918  0.2060
    1MPD2    C314393   0.786   0.440  14.910  0.5873  0.9703  0.7718
    1MPD2    C414394   0.871   0.483  14.803  0.0999  0.0233  0.6595
    1MPD2    C514395   0.823   0.484  14.678  0.7682 -0.9103 -0.0494
    1MPD2     H14396   0.591   0.369  14.950  0.8469  1.7201  1.1539
    1MPD2    H114397   0.967   0.528  14.827 -0.5589  1.8185 -0.0409
    1MPD2    H214398   0.653   0.445  14.542 -0.8967 -1.5169 -0.6846
    1MPD2    H314399   0.880   0.541  14.605  1.9480  0.6598  2.0667
    1MPD2     N14400   0.829   0.456  15.045  0.4211 -0.3542 -0.1541
    1MPD2    H514401   0.928   0.475  15.058  0.3332 -0.6092  0.9495
    1MPD2    N114402   0.489   0.334  14.693  0.1323  0.0531 -0.2097
    1MPD2    H714403   0.454   0.326  14.598 -0.6626 -3.1109  0.3625
    2TMC3    C114404   0.284   0.223  14.729  0.2521  0.0889 -0.7897
    2TMC3    C214405   0.241   0.123  14.817  0.0486 -0.2624 -0.7144
    2TMC3    C314406   0.115   0.107  14.841 -0.1355 -0.7117  0.1713
    2TMC3    C414407   0.196   0.315  14.674 -0.0214  0.1632 -0.3970
    2TMC3    C514408   0.065   0.289  14.703  0.0745  0.4508 -0.1147
    2TMC3    C614409   0.019   0.187  14.782 -1.0536 -0.1853 -0.6725
    2TMC3     C14410   0.400   0.281  14.785  0.3684  0.5263  0.2798
    2TMC3     O14411   0.411   0.253  14.902 -0.2059  0.1396 -0.6562
    2TMC3     H14412   0.316   0.053  14.850 -1.8349 -2.0685 -0.3277
    2TMC3    H114413   0.229   0.388  14.601  2.4172  2.5326  3.0294
    2TMC3    H214414   4.652   0.177  14.810 -0.6402  0.3811  1.0362
    2TMC3    C714415   4.702   0.363  14.629  0.2424  0.2989 -0.2627
    2TMC3    C814416   0.088   0.057  14.977  0.5913  0.1300  0.7340
    2TMC3    O114417   4.593   0.308  14.609 -0.0869 -0.1736 -0.5207
    2TMC3    O214418   4.734   4.719  15.001 -0.0055  0.3376 -0.5158
    3TCq1    O114419   0.196   1.559  14.152  0.4643  0.4961 -0.0460
    3TCq1    C114420   0.117   1.454  14.126  0.1386 -0.5958  0.1272
    3TCq1    O214421   0.075   1.428  14.015  0.3344 -0.8094  0.4564
    3TCq1    C214422   0.115   1.358  14.243 -0.0690 -0.2594  0.2049
    3TCq1    C314423   0.150   1.393  14.375 -0.1702  0.2195  0.9356
    3TCq1    C414424   0.136   1.306  14.476 -0.3179 -0.6451  0.2358
    3TCq1    C514425   0.091   1.180  14.446 -0.3735 -0.6224 -0.3225
    3TCq1    C614426   0.040   1.151  14.319 -0.1544  0.5920  0.4180
    3TCq1    C714427   0.059   1.236  14.215 -1.1527 -0.0260  0.2944
    3TCq1    C814428   4.714   1.023  14.292 -0.4374 -0.0853  0.3861
    3TCq1    O414429   4.632   1.022  14.198  0.3943  0.1998 -0.1596
    3TCq1    C914430   0.158   1.349  14.616 -0.2022  0.2813 -0.0588
    3TCq1    O514431   0.198   1.464  14.643 -0.2363  0.1313  0.2529
    3TCq1    O614432   0.116   1.267  14.701 -0.2400 -0.2287 -0.3929
    3TCq1    H114433   0.230   1.559  14.244  1.0210 -2.8498 -0.2500
    3TCq1    H214434   0.177   1.495  14.402  1.7079  0.0594 -0.3586
    3TCq1    H314435   0.074   1.110  14.526  0.9837 -0.9938 -0.3588
    3TCq1    H414436   0.037   1.211  14.112  0.4444 -2.5955  0.6036
    4MPD2     C14437   4.584   0.751  14.320  0.0049 -0.0287 -0.0825
    4MPD2    C114438   4.676   0.798  14.403  0.2678 -0.4720  0.8314
    4MPD2    C214439   4.723   0.712  14.505 -0.4784 -0.3968  0.3872
    4MPD2    C314440   4.676   0.577  14.518  0.1325 -0.2318  0.4669
    4MPD2    C414441   4.571   0.540  14.437 -0.6862 -0.3245  0.3144
    4MPD2    C514442   4.525   0.624  14.334  0.9434  0.4520 -0.2556
    4MPD2     H14443   0.060   0.750  14.575  0.6655 -1.2832 -0.3441
    4MPD2    H114444   4.548   0.434  14.439 -0.8342 -0.2792  1.1146
    4MPD2    H214445   4.553   0.820  14.242 -1.0026 -0.0024  0.3380
    4MPD2    H314446   4.447   0.593  14.266  1.4653  0.3478 -0.8093
    4MPD2     N14447   0.009   0.494  14.605  0.1639  1.3253  0.0736
    4MPD2    H514448   0.089   0.530  14.657  1.1672 -1.0121  0.1482
    4MPD2    N114449   0.003   0.928  14.384 -0.3540  0.1807 -0.4740
    4MPD2    H714450   0.074   0.949  14.454 -0.4453  1.5356 -0.7923
    5TMC2    C114451   0.716   0.273  15.455 -0.3213  0.4159  0.1089
    5TMC2    C214452   0.817   0.189  15.448 -0.4841 -0.0670  0.3530
    5TMC2    C314453   0.924   0.226  15.367  0.2925 -0.0333  0.1645
    5TMC2    C414454   0.709   0.388  15.378 -0.0863  0.9631 -0.3982
    5TMC2    C514455   0.811   0.426  15.298  0.6905  0.2283 -0.0163
    5TMC2    C614456   0.923   0.347  15.301  0.0311 -0.4080 -0.2802
    5TMC2     C14457   0.594   0.206  15.485 -0.3706  0.4616 -0.1746
    5TMC2     O14458   0.601   0.116  15.570 -0.2733 -0.4538 -0.0356
    5TMC2     H14459   0.814   0.089  15.490  0.4901  0.2207  1.1022
    5TMC2    H114460   0.623   0.453  15.391 -0.1607  0.5785  1.0291
    5TMC2    H214461   1.012   0.368  15.243  0.4095 -0.9904  0.0833
    5TMC2    C714462   0.751   0.442  15.162 -0.3112 -0.7217 -0.6633
    5TMC2    C814463   1.053   0.194  15.423 -0.1972  0.5143 -0.3295
    5TMC2    O114464   0.631   0.424  15.166  0.6868 -0.1175  0.1450
    5TMC2    O214465   1.066   0.166  15.540 -0.0132 -0.0362 -0.0462
    5TMC2    O514466   1.147   0.185  15.323 -0.1744 -0.1057 -0.2344
    5TMC2    H514467   1.108   0.188  15.234  0.6194 -0.4914 -0.5945
    6MPD2     C14468   0.161   0.026  15.265  0.3683  0.2597 -0.1342
    6MPD2    C114469   0.225   0.111  15.177 -0.0057 -0.4330  0.1070
    6MPD2    C214470   0.323   0.195  15.225  0.5474  0.3508 -0.1467
    6MPD2    C314471   0.379   0.162  15.353  0.7225 -0.5873  0.5780
    6MPD2    C414472   0.324   0.066  15.434  0.2073 -0.0598  0.9518
    6MPD2    C514473   0.211   0.007  15.395 -0.3578 -0.2055  0.3917
    6MPD2     H14474   0.372   0.270  15.164 -2.5644  1.1130 -1.6922
    6MPD2    H114475   0.364   0.048  15.533 -1.6149 -4.2852  0.9293
    6MPD2    H214476   0.091   4.692  15.221  1.1534 -1.4769  1.4346
    6MPD2    H314477   0.162   4.677  15.464 -0.3881  0.6043  1.1581
    6MPD2     N14478   0.503   0.230  15.381 -0.9997  0.3308  0.6997
    6MPD2    H514479   0.523   0.302  15.313  1.1064 -0.8514  0.0790
    6MPD2    N114480   0.191   0.125  15.047  0.4909 -0.1093  0.7461
    6MPD2    H714481   0.240   0.191  14.988 -1.3944  0.7915  0.2014
  945NH3     N114482   1.975   1.954  13.222  0.3628 -0.1366 -0.4943
  945NH3     H214483   2.052   1.947  13.288  0.8360 -0.1819 -1.0550
  945NH3     H314484   2.015   2.034  13.175  1.0886  0.9658  2.0313
  945NH3     H414485   1.910   1.999  13.285 -0.7342 -0.7992 -1.1491
  946SOD     NA14486   2.906   0.249   5.067  0.5523 -0.3679  0.6711
  947SOD     NA14487   3.879   1.295  13.881  0.0136  0.4009  0.2703
  948SOD     NA14488   3.535   3.420  13.145  0.0886  0.4243  0.4584
  949SOD     NA14489   2.995   1.058   1.444  0.1430  0.4375  0.1697
  950SOD     NA14490   1.694   1.304  14.407  0.5618  0.3168  0.1818
  951SOD     NA14491   2.124   3.907   0.315  0.1285 -0.3853  0.3203
  952SOD     NA14492   4.668   1.051  15.516 -0.1361  0.0942 -0.0291
  953SOD     NA14493   2.954   0.785   3.778 -0.2950 -0.0995  0.0771
  954SOL     OW14494   2.121   2.533   6.548  0.6519 -0.0888 -0.4340
  954SOL    HW114495   2.144   2.462   6.608 -0.3837 -0.9737 -1.0703
  954SOL    HW214496   2.133   2.608   6.605  0.5656 -0.5828  0.2421
  955SOL     OW14497   3.126   2.667   7.288  0.1598  0.2365  0.2833
  955SOL    HW114498   3.156   2.752   7.257  1.6926 -0.5520 -0.3824
  955SOL    HW214499   3.158   2.612   7.216  1.2166  0.5903  0.4816
  956SOL     OW14500   1.184   2.458   4.963  0.1335 -0.6717  0.2460
  956SOL    HW114501   1.214   2.536   5.011 -2.4039  0.8892 -0.6835
  956SOL    HW214502   1.188   2.491   4.874  0.6088  0.9939  0.8780
  957SOL     OW14503   0.049   0.183   1.834  0.2645  0.7379 -0.3859
  957SOL    HW114504   4.736   0.158   1.912  1.9539  0.4747  0.6237
  957SOL    HW214505   0.031   0.276   1.818 -2.8606  0.4090  1.1342
  958SOL     OW14506   3.418   2.341  16.459 -0.0957  0.1600  0.0080
  958SOL    HW114507   3.400   2.248  16.445 -1.5536  0.6563 -1.4616
  958SOL    HW214508   3.467   2.362  16.380  2.1478  0.9859  1.6244
  959SOL     OW14509   3.777   3.425   3.099 -0.3136  0.9047 -0.6328
  959SOL    HW114510   3.781   3.356   3.033 -1.9187 -0.6181  0.8632
  959SOL    HW214511   3.773   3.374   3.180 -0.3784  0.6742 -0.7823
  960SOL     OW14512   1.485   1.270   1.455  0.5003 -0.5405  0.3844
  960SOL    HW114513   1.459   1.184   1.487 -1.1677  0.3580  1.4943
  960SOL    HW214514   1.444   1.273   1.369 -0.8426 -1.2055  1.0035
  961SOL     OW14515   3.669   4.475   8.716 -0.5819  0.3881  0.2509
  961SOL    HW114516   3.676   4.539   8.645  1.0325  1.0431  1.0327
  961SOL    HW214517   3.720   4.405   8.674 -0.1128  0.0399  1.4121
  962SOL     OW14518   2.144   0.069   8.495 -0.0408 -0.1058 -0.2070
  962SOL    HW114519   2.084   0.085   8.568  2.0468  0.1114  1.4841
  962SOL    HW214520   2.182   4.721   8.521  0.9852 -0.4158 -2.7551
  963SOL     OW14521   0.031   3.646   3.585 -0.4564  0.2597  0.3927
  963SOL    HW114522   0.106   3.673   3.530 -0.4821 -0.4703  0.0004
  963SOL    HW214523   0.078   3.584   3.640 -0.9243  0.3394  0.8708
  964SOL     OW14524   3.030   2.728   1.841  0.0199 -0.0426  0.1205
  964SOL    HW114525   3.001   2.736   1.750 -1.4529 -1.8566  0.4281
  964SOL    HW214526   2.957   2.743   1.900 -0.4188 -1.5555 -0.0384
  965SOL     OW14527   0.697   3.170   4.783 -0.2793  0.2867 -0.2852
  965SOL    HW114528   0.616   3.147   4.829  0.0694  0.1131  0.2481
  965SOL    HW214529   0.746   3.088   4.785 -0.3275  0.1941 -3.9079
  966SOL     OW14530   4.446   3.491   9.557  0.0755 -0.1085  0.0732
  966SOL    HW114531   4.467   3.577   9.519 -0.8192  1.0623  2.2292
  966SOL    HW214532   4.474   3.431   9.488  3.0599 -0.2389  1.3917
  967SOL     OW14533   3.461   4.558  13.422 -0.3168 -0.5623  0.2139
  967SOL    HW114534   3.467   4.502  13.499  0.9668 -1.7540 -0.7624
  967SOL    HW214535   3.367   4.556  13.405 -0.3766  1.8749  0.1240
  968SOL     OW14536   1.947   3.755  10.333 -0.2582 -0.0422  0.1913
  968SOL    HW114537   1.875   3.800  10.377 -0.5426 -0.3502  0.0479
  968SOL    HW214538   1.906   3.674  10.302 -0.1448  0.4842 -1.2991
  969SOL     OW14539   1.339   4.156   6.634  0.2086  0.6291 -0.1060
  969SOL    HW114540   1.278   4.138   6.562  2.3527 -0.6424 -1.5955
  969SOL    HW214541   1.389   4.074   6.641  0.5551  0.7759 -0.8885
  970SOL     OW14542   2.354   1.754   5.206  0.2123 -0.0015 -0.0567
  970SOL    HW114543   2.363   1.778   5.114  1.6188 -0.8070 -0.1286
  970SOL    HW214544   2.294   1.680   5.200 -0.1837 -0.0929  4.9190
  971SOL     OW14545   1.208   3.049   8.176 -0.3218  0.2279 -0.2148
  971SOL    HW114546   1.271   3.050   8.248 -0.2615  2.1862 -0.2902
  971SOL    HW214547   1.231   3.136   8.144 -2.2621  0.8703  0.1305
  972SOL     OW14548   1.297   2.620   0.925 -0.2257 -0.2862 -0.2906
  972SOL    HW114549   1.292   2.621   0.829  0.7751 -2.5103 -0.3853
  972SOL    HW214550   1.322   2.711   0.942 -1.0333 -0.0867 -0.1784
  973SOL     OW14551   1.564   3.537  14.857  0.4074  0.3791  0.4755
  973SOL    HW114552   1.540   3.502  14.771  0.5886  0.3968  0.4165
  973SOL    HW214553   1.523   3.478  14.919  1.9800 -1.3232 -0.0812
  974SOL     OW14554   1.681   0.598  11.170  0.4722  0.3122 -0.0594
  974SOL    HW114555   1.776   0.597  11.180  0.4427  0.3514  0.2346
  974SOL    HW214556   1.647   0.634  11.252 -0.7576 -0.8004 -0.0705
  975SOL     OW14557   2.295   4.145   1.330 -0.4421  0.4931  0.1509
  975SOL    HW114558   2.216   4.132   1.278  1.0482 -0.8918 -1.8109
  975SOL    HW214559   2.253   4.175   1.410  1.4361  0.8496  1.0124
  976SOL     OW14560   4.359   4.529   4.928 -0.0696 -0.0086  0.2672
  976SOL    HW114561   4.317   4.530   5.014  0.8070  1.6084  0.6718
  976SOL    HW214562   4.379   4.437   4.913 -0.8498 -0.0799 -0.3629
  977SOL     OW14563   1.504   0.040   8.260 -0.3116 -0.3944  0.2877
  977SOL    HW114564   1.506   0.125   8.217 -0.9062  0.2166  1.4581
  977SOL    HW214565   1.439   0.053   8.329 -0.9109  0.5524 -0.4519
  978SOL     OW14566   1.857   0.817   4.924 -0.2340  0.6512  0.1246
  978SOL    HW114567   1.910   0.870   4.983 -2.3548  1.4993  1.2768
  978SOL    HW214568   1.898   0.837   4.839  1.9359 -0.9282  0.8092
  979SOL     OW14569   4.314   2.142   2.139  0.3463 -0.2372 -0.0230
  979SOL    HW114570   4.321   2.075   2.208  1.0716  0.2361  0.3623
  979SOL    HW214571   4.395   2.193   2.144 -0.2993  0.7385  0.4645
  980SOL     OW14572   0.240   1.947  16.080  0.6112 -0.1805 -0.9866
  980SOL    HW114573   0.177   2.015  16.058  0.2006 -0.4616 -0.6792
  980SOL    HW214574   0.303   1.991  16.137  0.4928 -0.7908 -0.3959
  981SOL     OW14575   1.250   4.673   1.525 -0.3812 -0.1758  0.2726
  981SOL    HW114576   1.327   4.722   1.499 -0.8730  1.1301  1.2977
  981SOL    HW214577   1.264   4.659   1.619  0.5590 -0.0211  0.1482
  982SOL     OW14578   2.559   2.682   3.338 -0.9060  0.3231 -0.1029
  982SOL    HW114579   2.568   2.622   3.413  0.5545 -1.8780 -2.0601
  982SOL    HW214580   2.639   2.666   3.288 -0.7082 -0.2733  0.3973
  983SOL     OW14581   3.679   2.584  10.609 -0.1856 -0.0685  0.3171
  983SOL    HW114582   3.601   2.581  10.663  1.5469  3.0658  3.0000
  983SOL    HW214583   3.746   2.587  10.677  0.6526  0.1425 -0.5077
  984SOL     OW14584   0.012   2.997   3.148 -0.8357  0.5280  0.2086
  984SOL    HW114585   0.085   2.951   3.190 -1.2890 -1.3408 -1.0738
  984SOL    HW214586   0.063   3.066   3.105 -1.0778  0.3166 -0.4118
  985SOL     OW14587   3.476   3.508   1.081  0.0064  0.1764  0.3327
  985SOL    HW114588   3.528   3.514   1.001  0.8516  0.7524  0.9343
  985SOL    HW214589   3.389   3.503   1.040 -0.5254  2.0968  1.2501
  986SOL     OW14590   2.163   1.398   2.894  0.0847 -0.1719 -0.2915
  986SOL    HW114591   2.180   1.317   2.846  0.2951 -1.2106  1.5444
  986SOL    HW214592   2.162   1.452   2.815 -1.3826 -0.7880 -0.6849
  987SOL     OW14593   1.135   2.276   7.192  0.0775 -0.2692  0.1763
  987SOL    HW114594   1.124   2.353   7.248 -2.7377  0.4668 -1.4302
  987SOL    HW214595   1.046   2.255   7.165 -0.3805  2.9612 -0.7088
  988SOL     OW14596   2.629   2.311   4.324  0.2663 -0.3137 -0.0768
  988SOL    HW114597   2.703   2.285   4.380 -1.0184 -2.4875  0.5948
  988SOL    HW214598   2.624   2.231   4.272  0.2638 -1.5373  1.8178
  989SOL     OW14599   0.812   1.880   4.569  0.1358 -0.6695 -0.4619
  989SOL    HW114600   0.793   1.802   4.620 -2.4169  2.1370  2.8047
  989SOL    HW214601   0.858   1.925   4.640  1.0310 -0.0627 -1.4193
  990SOL     OW14602   4.250   1.413   9.631 -0.4465  0.7743 -0.0877
  990SOL    HW114603   4.315   1.343   9.627 -3.0638 -1.6426 -0.4406
  990SOL    HW214604   4.296   1.497   9.623 -0.2869  0.6242 -0.7357
  991SOL     OW14605   3.795   3.625   8.505  0.6734  0.1293 -0.5283
  991SOL    HW114606   3.812   3.638   8.412 -0.7055 -0.1793 -0.8208
  991SOL    HW214607   3.723   3.564   8.491 -0.4514  1.3391 -0.0224
  992SOL     OW14608   4.559   1.231  12.299  0.1644 -0.0260 -0.5652
  992SOL    HW114609   4.493   1.260  12.362  3.0187  0.1805  2.3198
  992SOL    HW214610   4.599   1.168  12.359 -2.7574 -0.0779  1.3230
  993SOL     OW14611   3.885   3.724   8.272  0.5534 -0.2313  0.1434
  993SOL    HW114612   3.919   3.654   8.216 -2.4678 -0.7795 -0.9826
  993SOL    HW214613   3.960   3.775   8.300  1.4039 -0.0787 -2.4277
  994SOL     OW14614   0.290   0.396   0.258 -0.5989 -0.5962 -0.1275
  994SOL    HW114615   0.236   0.369   0.183  0.7188  0.4221 -1.4509
  994SOL    HW214616   0.267   0.326   0.318 -1.1606 -1.0878 -0.9169
  995SOL     OW14617   2.077   2.345   7.542 -0.2756 -0.2695  0.2513
  995SOL    HW114618   1.988   2.360   7.511  0.5068  0.2909 -1.6944
  995SOL    HW214619   2.113   2.432   7.525 -0.3625 -0.2693  0.0685
  996SOL     OW14620   0.022   2.233  10.625 -0.1508  0.1106 -0.1257
  996SOL    HW114621   0.116   2.218  10.639 -0.1529 -1.0020 -1.3436
  996SOL    HW214622   0.007   2.190  10.541  1.1667 -0.5026 -0.0530
  997SOL     OW14623   1.414   0.107   2.314  0.0012  0.5249 -0.1595
  997SOL    HW114624   1.349   0.085   2.248 -0.0442 -0.3078  0.1639
  997SOL    HW214625   1.364   0.129   2.393  0.6713 -1.8007  0.9251
  998SOL     OW14626   2.458   0.776   6.364  0.2846 -0.4086  0.2222
  998SOL    HW114627   2.484   0.684   6.364 -2.2225 -1.1249  1.9772
  998SOL    HW214628   2.521   0.825   6.311 -0.4447 -0.8262 -1.0180
  999SOL     OW14629   1.788   4.713  12.905 -0.3845 -0.3454 -0.1520
  999SOL    HW114630   1.724   0.045  12.924 -1.1608 -1.4777  1.3447
  999SOL    HW214631   1.857   0.017  12.958 -1.0542 -0.2362  0.6377
 1000SOL     OW14632   0.020   4.181   7.096 -0.4012 -0.1728 -0.4308
 1000SOL    HW114633   0.091   4.220   7.045  0.3463 -1.0428 -0.0566
 1000SOL    HW214634   4.677   4.227   7.073  0.1192  1.2792  0.6370
 1001SOL     OW14635   2.470   3.386   9.652  0.0399 -0.1073 -0.1174
 1001SOL    HW114636   2.438   3.308   9.697  0.4157  0.5473  1.2775
 1001SOL    HW214637   2.553   3.355   9.615 -0.1340 -0.7780  0.0576
 1002SOL     OW14638   2.636   0.423  16.056 -0.4019 -0.3932 -0.8221
 1002SOL    HW114639   2.716   0.405  16.006 -0.3428  0.9065 -1.1936
 1002SOL    HW214640   2.621   0.513  16.025 -1.2507 -0.6718 -1.2183
 1003SOL     OW14641   1.860   2.819   6.921  0.2319  0.1600 -0.1985
 1003SOL    HW114642   1.857   2.766   7.001 -0.9412 -1.0092 -1.0068
 1003SOL    HW214643   1.827   2.755   6.857  1.2777 -2.1538  1.6077
 1004SOL     OW14644   3.149   4.678  14.259 -0.3938  0.5157 -0.0015
 1004SOL    HW114645   3.222   4.624  14.229 -0.9543  0.2309 -0.8475
 1004SOL    HW214646   3.133   4.642  14.346  0.5332  1.8919  0.7449
 1005SOL     OW14647   0.189   4.019  11.536  0.4108 -0.2113 -0.5778
 1005SOL    HW114648   0.275   4.059  11.528  0.0771  1.1829  2.7575
 1005SOL    HW214649   0.151   4.102  11.564 -0.1560 -0.5545 -0.3079
 1006SOL     OW14650   0.414   3.458   3.536  0.2304  0.0998 -0.1336
 1006SOL    HW114651   0.332   3.479   3.580  0.3782  0.2600  0.0626
 1006SOL    HW214652   0.385   3.467   3.445 -1.1994 -0.2483  0.2919
 1007SOL     OW14653   1.630   0.931   9.653  0.4771 -0.4404  0.6017
 1007SOL    HW114654   1.564   0.969   9.710 -0.1500  0.1506 -0.5154
 1007SOL    HW214655   1.593   0.943   9.565  1.6117 -1.8626 -0.0753
 1008SOL     OW14656   0.105   0.551  14.861  0.2722  0.0235  0.3535
 1008SOL    HW114657   0.081   0.642  14.881  0.6196  0.4926 -1.3426
 1008SOL    HW214658   0.040   0.523  14.925  0.2403 -1.8730 -0.5313
 1009SOL     OW14659   2.312   2.003   2.036 -0.0320  0.5129  0.0911
 1009SOL    HW114660   2.315   2.001   2.131  0.3146 -1.7271  0.0259
 1009SOL    HW214661   2.359   2.082   2.009 -0.6606  1.3293  1.4012
 1010SOL     OW14662   3.878   0.349   7.583 -0.1654  0.3906 -0.4406
 1010SOL    HW114663   3.912   0.290   7.650 -1.4777 -0.0454 -0.1473
 1010SOL    HW214664   3.948   0.414   7.580 -0.4144  0.6561 -0.5209
 1011SOL     OW14665   1.006   1.590   7.495 -0.0984  0.1986 -0.4866
 1011SOL    HW114666   1.099   1.573   7.513  0.3570  0.5746 -2.4384
 1011SOL    HW214667   0.960   1.554   7.570 -1.2134  1.3745 -0.6021
 1012SOL     OW14668   0.910   4.431  17.160 -0.3303 -0.2701  0.4894
 1012SOL    HW114669   0.917   4.340  17.130 -1.1406 -0.2931  0.3850
 1012SOL    HW214670   0.968   4.481  17.102 -2.2686  2.2953  0.8027
 1013SOL     OW14671   0.029   0.382   7.081  0.1050  0.1432  0.1646
 1013SOL    HW114672   0.113   0.421   7.104  0.7978 -2.4299  2.0090
 1013SOL    HW214673   0.014   0.429   6.999  2.8345 -1.8006 -1.4691
 1014SOL     OW14674   3.747   2.824   5.781  0.6049 -0.5167  0.0970
 1014SOL    HW114675   3.808   2.889   5.815 -1.5438  0.2999  2.3314
 1014SOL    HW214676   3.663   2.869   5.790  0.1893 -0.7764 -2.4287
 1015SOL     OW14677   1.207   3.911  13.463  0.3111  0.2710  0.1218
 1015SOL    HW114678   1.138   3.845  13.468  1.9882 -1.2486  3.2228
 1015SOL    HW214679   1.231   3.915  13.556 -0.0057 -0.0039  0.2174
 1016SOL     OW14680   2.423   0.123   0.410 -0.2485  0.6044  0.2743
 1016SOL    HW114681   2.371   0.134   0.489  1.8454 -1.6631  1.9828
 1016SOL    HW214682   2.401   0.202   0.360  0.2873 -0.3417 -1.4892
 1017SOL     OW14683   3.115   4.274   4.002  0.0651 -0.3782 -0.0327
 1017SOL    HW114684   3.147   4.357   4.039 -0.9127 -0.4721  1.0282
 1017SOL    HW214685   3.038   4.292   3.948  1.8160  1.8550 -1.7747
 1018SOL     OW14686   2.636   3.973   2.996  0.3133  0.3592  0.1921
 1018SOL    HW114687   2.728   3.948   3.009 -0.0793 -1.7483 -1.0976
 1018SOL    HW214688   2.589   3.890   3.006  1.6229 -0.3225  0.8429
 1019SOL     OW14689   4.172   1.415   8.327  0.0270 -0.6486  0.2942
 1019SOL    HW114690   4.211   1.502   8.322  3.0174 -1.9352  1.0972
 1019SOL    HW214691   4.217   1.378   8.403  0.1414  2.2417  1.6463
 1020SOL     OW14692   1.552   0.451   3.833  0.8276  0.0528 -0.8681
 1020SOL    HW114693   1.489   0.495   3.775 -1.2286 -1.6542  0.0784
 1020SOL    HW214694   1.510   0.369   3.857 -0.2965  0.6864 -0.6917
 1021SOL     OW14695   3.342   4.167  13.082  0.3133  0.1386 -0.1296
 1021SOL    HW114696   3.389   4.084  13.089  0.2056  0.1443  0.6523
 1021SOL    HW214697   3.411   4.228  13.108  1.3657 -0.4846 -1.4954
 1022SOL     OW14698   3.164   0.855   2.545 -0.0563  0.1860  0.0501
 1022SOL    HW114699   3.154   0.773   2.593  1.3613  0.4007  0.7105
 1022SOL    HW214700   3.137   0.819   2.461 -1.7582 -2.1383  1.5997
 1023SOL     OW14701   1.651   3.848   3.693 -0.5104  0.1534  0.2761
 1023SOL    HW114702   1.559   3.850   3.664 -0.4451  0.9684  0.1388
 1023SOL    HW214703   1.644   3.901   3.773  0.1183 -0.0357  0.4506
 1024SOL     OW14704   2.688   3.401   2.824 -0.2833  0.5458 -0.2122
 1024SOL    HW114705   2.759   3.449   2.783 -0.0083  0.3306  0.0113
 1024SOL    HW214706   2.733   3.352   2.893  1.0441  0.2896 -1.2704
 1025SOL     OW14707   1.076   3.562   9.461 -0.1692  0.7880  0.3247
 1025SOL    HW114708   1.153   3.591   9.411  0.0652  0.0079  0.2361
 1025SOL    HW214709   1.095   3.620   9.535 -0.0149 -0.6270  1.3963
 1026SOL     OW14710   3.735   2.263   9.940 -0.3646 -0.3179  0.1358
 1026SOL    HW114711   3.734   2.340   9.997  1.2522  1.4277 -2.1919
 1026SOL    HW214712   3.650   2.276   9.898 -0.2647 -2.1358 -0.6221
 1027SOL     OW14713   0.325   3.019   9.791 -1.0558 -0.4522  0.0200
 1027SOL    HW114714   0.382   2.950   9.826 -1.3562 -2.0206 -2.6207
 1027SOL    HW214715   0.255   3.003   9.854 -0.5127  0.1260  0.7828
 1028SOL     OW14716   0.979   1.601  14.915  0.6674  0.0473  0.2922
 1028SOL    HW114717   0.997   1.512  14.885 -1.1057  0.2199 -1.2876
 1028SOL    HW214718   0.908   1.577  14.976 -0.0363 -3.1683 -1.8077
 1029SOL     OW14719   1.864   4.090  12.176 -0.7622 -0.1472  0.1540
 1029SOL    HW114720   1.787   4.139  12.206 -0.1118 -0.3245  2.0994
 1029SOL    HW214721   1.838   4.035  12.102  2.6979 -0.0041 -1.1642
 1030SOL     OW14722   2.299   0.201   6.100  0.5024  0.1572  0.2149
 1030SOL    HW114723   2.294   0.105   6.103  1.1018  0.0468 -3.0185
 1030SOL    HW214724   2.393   0.205   6.120  0.3940  0.6973  0.6100
 1031SOL     OW14725   1.645   0.596   8.559 -0.1356  0.0617  0.6762
 1031SOL    HW114726   1.585   0.554   8.620  0.1569 -0.1724  0.8029
 1031SOL    HW214727   1.653   0.534   8.486 -0.3774  1.5022 -0.5726
 1032SOL     OW14728   2.824   3.392   5.964 -0.9114 -0.3956 -0.0208
 1032SOL    HW114729   2.895   3.422   6.020 -2.3692  0.3627  1.4140
 1032SOL    HW214730   2.837   3.297   5.973  1.7081  0.1446  1.8924
 1033SOL     OW14731   1.531   2.690   4.067  0.4554 -0.1740 -0.0488
 1033SOL    HW114732   1.585   2.768   4.070 -2.1173  1.5961  0.2599
 1033SOL    HW214733   1.478   2.704   4.145  0.5380  0.5792 -0.1256
 1034SOL     OW14734   1.922   2.293   1.712  0.2266  0.0073 -0.5027
 1034SOL    HW114735   1.990   2.313   1.647  1.4055 -1.6249  0.2302
 1034SOL    HW214736   1.892   2.383   1.727  1.1610  0.0416  1.1941
 1035SOL     OW14737   3.593   4.388  12.045 -0.0702  0.1893  0.3653
 1035SOL    HW114738   3.505   4.425  12.035  0.2105  0.4168 -1.2006
 1035SOL    HW214739   3.581   4.293  12.043 -0.8083  0.3219 -1.1358
 1036SOL     OW14740   1.783   1.169  16.149  0.5546  0.2202 -0.2370
 1036SOL    HW114741   1.740   1.238  16.098  0.7870  1.1681  0.8390
 1036SOL    HW214742   1.769   1.190  16.241  1.4131 -2.5394  0.5174
 1037SOL     OW14743   0.056   3.279  15.207  0.1967 -0.1970 -0.3384
 1037SOL    HW114744   4.727   3.216  15.235  2.4047 -1.6579  1.6665
 1037SOL    HW214745   0.122   3.280  15.277 -0.7891 -1.3485  0.6092
 1038SOL     OW14746   1.600   3.751   8.267 -0.1575  0.5435 -0.2737
 1038SOL    HW114747   1.601   3.784   8.357  1.2803  1.3391 -0.5814
 1038SOL    HW214748   1.628   3.825   8.213 -1.2661  3.0585  2.5973
 1039SOL     OW14749   3.035   4.143   9.826 -0.1651  0.0255  0.4978
 1039SOL    HW114750   2.955   4.179   9.863 -0.8666 -0.3837 -0.6152
 1039SOL    HW214751   3.032   4.176   9.736  1.3251  0.9335  0.7740
 1040SOL     OW14752   3.797   3.047   0.231  0.6909  0.1635 -0.0630
 1040SOL    HW114753   3.707   3.022   0.211  0.3347  0.6928  0.9104
 1040SOL    HW214754   3.816   3.001   0.313 -0.8527  0.8784  0.6911
 1041SOL     OW14755   0.803   1.800  15.746  0.4754  0.1779  0.2363
 1041SOL    HW114756   0.708   1.811  15.745  0.5504  0.9685  0.9032
 1041SOL    HW214757   0.838   1.841  15.826  0.1774  1.0577 -0.0788
 1042SOL     OW14758   3.354   2.542   7.065 -0.1120  0.1678 -0.8850
 1042SOL    HW114759   3.413   2.564   6.993 -0.1558 -0.8208 -1.2236
 1042SOL    HW214760   3.268   2.570   7.033 -1.0716  1.1756  2.6547
 1043SOL     OW14761   1.329   3.434  16.150  0.1404  0.4235 -0.3137
 1043SOL    HW114762   1.349   3.524  16.175  0.0680  0.9696 -2.2397
 1043SOL    HW214763   1.239   3.419  16.180 -0.2181  1.9256 -0.6386
 1044SOL     OW14764   0.492   1.775   6.769  0.1380 -0.1063 -0.0560
 1044SOL    HW114765   0.542   1.847   6.809  0.7591 -1.1855  1.1049
 1044SOL    HW214766   0.406   1.779   6.811  0.5313 -0.9348  0.8180
 1045SOL     OW14767   1.047   3.100  16.481  0.1150  0.0051 -0.2079
 1045SOL    HW114768   0.963   3.133  16.513  0.2896 -1.5767  1.8790
 1045SOL    HW214769   1.088   3.081  16.565  0.0213  1.6157  0.2065
 1046SOL     OW14770   4.721   0.077   9.788  0.2425 -0.1148 -0.1478
 1046SOL    HW114771   0.010   0.021   9.861 -1.9817 -0.4907  0.3836
 1046SOL    HW214772   4.693   0.012   9.723 -1.5972  0.5377 -0.0153
 1047SOL     OW14773   4.617   1.546  17.111  0.0959 -0.0587 -0.3053
 1047SOL    HW114774   4.694   1.508  17.067  1.9186  1.4829  1.5764
 1047SOL    HW214775   4.545   1.503  17.064 -0.9766 -0.8267  2.0876
 1048SOL     OW14776   0.392   1.745   2.297 -0.5054  0.5154 -0.4790
 1048SOL    HW114777   0.423   1.832   2.320  0.9865 -0.2251  0.3091
 1048SOL    HW214778   0.471   1.694   2.317 -1.2579 -0.1997  0.6668
 1049SOL     OW14779   2.328   4.452  11.710 -0.5507  0.5980  0.0707
 1049SOL    HW114780   2.366   4.492  11.632  0.8363  1.6301  1.2719
 1049SOL    HW214781   2.387   4.377  11.703 -0.7750  0.6084 -1.8269
 1050SOL     OW14782   0.614   1.663   0.651 -0.1926 -0.0287 -0.6518
 1050SOL    HW114783   0.625   1.575   0.687 -0.5718  0.1485 -0.0821
 1050SOL    HW214784   0.687   1.680   0.593  0.8100  2.4056  1.3159
 1051SOL     OW14785   1.923   0.022   1.384  0.3771  0.0640 -0.5390
 1051SOL    HW114786   1.881   0.052   1.303 -1.3531  0.2457  0.4344
 1051SOL    HW214787   2.015   0.048   1.374 -0.2654  2.1116 -1.2637
 1052SOL     OW14788   3.637   2.844  12.223 -0.0839  0.1571 -0.6097
 1052SOL    HW114789   3.647   2.804  12.136  1.6165 -0.8327  0.0213
 1052SOL    HW214790   3.591   2.924  12.200 -0.5735  0.3199  0.9299
 1053SOL     OW14791   2.121   0.295   4.432  0.0015 -0.1283 -0.1705
 1053SOL    HW114792   2.059   0.319   4.500  0.4722 -0.7627  0.4758
 1053SOL    HW214793   2.202   0.324   4.473 -1.3081  0.1913  2.1968
 1054SOL     OW14794   0.018   0.123   0.167  0.4345  0.0344  0.7424
 1054SOL    HW114795   4.670   0.166   0.156  0.1238 -1.5705 -2.9969
 1054SOL    HW214796   4.732   0.065   0.240 -2.0852 -2.9046 -2.3860
 1055SOL     OW14797   3.728   1.171  13.197  0.3127 -0.4212  0.6022
 1055SOL    HW114798   3.795   1.106  13.175 -0.2096 -0.7883  0.1172
 1055SOL    HW214799   3.750   1.243  13.139 -0.8318 -1.5578 -1.2320
 1056SOL     OW14800   1.776   1.465   2.219  0.0915 -0.4018  0.5564
 1056SOL    HW114801   1.828   1.430   2.291  2.6697  0.1768 -0.9925
 1056SOL    HW214802   1.852   1.487   2.164 -0.5443 -2.1757 -1.0132
 1057SOL     OW14803   4.003   2.686  16.193  0.1238 -0.2735 -0.6027
 1057SOL    HW114804   4.008   2.781  16.183  0.8241 -0.1312  1.1620
 1057SOL    HW214805   3.998   2.661  16.100  0.5581 -2.1177 -0.1354
 1058SOL     OW14806   4.190   4.147   6.265  0.0169  0.0311  0.2507
 1058SOL    HW114807   4.117   4.103   6.222  0.3574  1.2323 -1.5673
 1058SOL    HW214808   4.262   4.119   6.208  0.4094 -0.7555  1.1475
 1059SOL     OW14809   3.324   3.794   0.672  0.0986  0.0908  0.1698
 1059SOL    HW114810   3.357   3.809   0.760 -1.2139  0.3603  0.6178
 1059SOL    HW214811   3.330   3.698   0.669  2.6954  0.1877  2.3135
 1060SOL     OW14812   2.764   0.701  15.309 -0.0431 -0.6507 -0.3090
 1060SOL    HW114813   2.760   0.786  15.352  1.5448 -1.5113  1.5000
 1060SOL    HW214814   2.714   0.730  15.233  2.3873  2.1574 -0.8107
 1061SOL     OW14815   3.259   2.198   8.084 -0.0879 -0.0812 -0.7996
 1061SOL    HW114816   3.220   2.285   8.092  0.2294 -0.2383  2.4213
 1061SOL    HW214817   3.341   2.211   8.132 -0.2081 -1.1150 -0.3318
 1062SOL     OW14818   1.325   1.252   3.764  0.4115  0.3876 -0.7782
 1062SOL    HW114819   1.308   1.322   3.701  2.2663  0.9375 -0.6803
 1062SOL    HW214820   1.385   1.289   3.829 -0.4191 -1.2830  0.9554
 1063SOL     OW14821   3.399   2.024   7.176  0.1171 -0.1430  0.6561
 1063SOL    HW114822   3.431   2.052   7.262  0.7357 -0.8955  0.6755
 1063SOL    HW214823   3.327   2.083   7.155 -0.1958 -0.6363  0.3396
 1064SOL     OW14824   4.181   0.591  16.903 -0.8295  0.0580 -0.7449
 1064SOL    HW114825   4.269   0.570  16.872 -1.5936 -0.7670 -2.3586
 1064SOL    HW214826   4.146   0.502  16.915  0.8960 -0.5378 -0.0790
 1065SOL     OW14827   0.909   1.221  16.242 -0.9898  0.5485 -0.5971
 1065SOL    HW114828   0.821   1.185  16.228 -0.7945 -0.7255  1.4627
 1065SOL    HW214829   0.948   1.188  16.161  1.8598  0.9614  0.6077
 1066SOL     OW14830   0.794   1.442  11.651  0.2709 -0.0895 -0.5191
 1066SOL    HW114831   0.804   1.415  11.560 -0.7235 -1.2536 -0.2815
 1066SOL    HW214832   0.864   1.506  11.666  1.4771 -1.5398 -0.0537
 1067SOL     OW14833   2.673   3.585   3.108 -0.0428  0.3122  0.1195
 1067SOL    HW114834   2.742   3.605   3.045 -0.0416 -0.4952 -0.1351
 1067SOL    HW214835   2.612   3.658   3.099 -0.3438  0.3084  2.0009
 1068SOL     OW14836   3.892   3.770  10.483  0.0949  0.5378 -0.2918
 1068SOL    HW114837   3.908   3.845  10.540 -2.6839  1.6256 -0.9200
 1068SOL    HW214838   3.878   3.697  10.543 -0.5570  2.2071  1.5901
 1069SOL     OW14839   2.986   4.516   6.106  0.3930  0.1524 -0.2218
 1069SOL    HW114840   2.927   4.536   6.178  0.8696  1.8330 -0.2926
 1069SOL    HW214841   3.050   4.586   6.119  1.1422 -0.0903 -2.6336
 1070SOL     OW14842   3.669   4.639   2.470  0.6680  0.0394  0.2286
 1070SOL    HW114843   3.765   4.645   2.468  0.6344 -0.5539 -2.6586
 1070SOL    HW214844   3.644   4.722   2.511  1.0378  0.6864 -0.8407
 1071SOL     OW14845   2.455   0.998   3.737  0.6845 -0.7196  0.4986
 1071SOL    HW114846   2.364   0.980   3.762  0.7971  0.4853  1.7327
 1071SOL    HW214847   2.446   1.081   3.690  1.2708 -0.1843  1.3499
 1072SOL     OW14848   1.637   2.016   3.084 -0.0553  0.0438  0.1748
 1072SOL    HW114849   1.606   1.969   3.161  0.7902 -0.7914 -0.0006
 1072SOL    HW214850   1.691   2.084   3.126  0.3865  0.3075 -0.8036
 1073SOL     OW14851   2.114   2.193  15.376  0.1644 -0.2682  0.2809
 1073SOL    HW114852   2.100   2.282  15.344 -0.8387 -1.3598 -2.2736
 1073SOL    HW214853   2.084   2.142  15.301  1.2226 -2.2430  1.1893
 1074SOL     OW14854   2.670   2.589   4.455 -0.4601 -0.1182 -0.5532
 1074SOL    HW114855   2.667   2.517   4.392  0.9545 -1.1500  0.5663
 1074SOL    HW214856   2.590   2.590   4.506  1.5260 -2.0248  2.5595
 1075SOL     OW14857   4.028   0.201   7.768  0.0096 -0.0131 -0.3131
 1075SOL    HW114858   4.108   0.152   7.786  0.6257  0.7712 -0.9314
 1075SOL    HW214859   4.051   0.281   7.814 -2.2711 -1.4563  3.3529
 1076SOL     OW14860   0.785   3.364   1.718 -0.0403 -0.3455  0.5924
 1076SOL    HW114861   0.868   3.385   1.676  0.3769 -0.6592  1.2671
 1076SOL    HW214862   0.807   3.275   1.747 -1.6168 -1.0062 -0.2169
 1077SOL     OW14863   4.598   1.118  15.297 -0.4643  0.0461 -1.0259
 1077SOL    HW114864   4.655   1.192  15.276 -1.3005  0.8848 -0.3388
 1077SOL    HW214865   4.508   1.149  15.284  0.5990  3.6083  0.0172
 1078SOL     OW14866   0.098   2.595   7.639  0.1607 -0.6067  0.9995
 1078SOL    HW114867   0.181   2.632   7.608 -1.0701  2.4618  1.3197
 1078SOL    HW214868   0.038   2.625   7.571 -1.0402 -0.0750  2.3080
 1079SOL     OW14869   1.714   2.677   2.337 -0.3876 -0.4377 -0.5023
 1079SOL    HW114870   1.789   2.648   2.284  2.0536  1.5429  1.8821
 1079SOL    HW214871   1.719   2.602   2.397 -1.2162  2.4388  3.0928
 1080SOL     OW14872   3.603   4.693   7.459  0.5573 -1.0563  0.7757
 1080SOL    HW114873   3.610   0.051   7.462  0.7168 -1.0568  0.4043
 1080SOL    HW214874   3.679   4.677   7.515  0.4390  2.2158  1.8663
 1081SOL     OW14875   4.010   3.717   4.787  0.1629 -0.4043  0.0725
 1081SOL    HW114876   4.068   3.751   4.719  0.4954 -3.1136 -1.0249
 1081SOL    HW214877   4.066   3.657   4.837 -0.0843  0.5530  1.5080
 1082SOL     OW14878   0.211   3.821   4.542 -0.0487  0.2247  0.1960
 1082SOL    HW114879   0.118   3.815   4.521  0.0480  0.6290 -0.3721
 1082SOL    HW214880   0.213   3.917   4.540 -2.7798  0.2710  0.3873
 1083SOL     OW14881   3.364   3.955  14.551  0.3814 -0.3100 -0.2217
 1083SOL    HW114882   3.335   3.978  14.463 -2.3623 -1.3782  0.4160
 1083SOL    HW214883   3.320   4.016  14.609 -0.0715 -2.1255  1.3428
 1084SOL     OW14884   1.409   4.657   4.688 -0.0747  0.1878  0.0746
 1084SOL    HW114885   1.326   4.611   4.689  0.5936 -0.9843  1.2276
 1084SOL    HW214886   1.462   4.591   4.644 -0.2691  0.0083  0.1145
 1085SOL     OW14887   4.365   3.420   8.493 -0.0301 -0.5722  0.2567
 1085SOL    HW114888   4.408   3.357   8.436  1.7350 -0.6073  1.6240
 1085SOL    HW214889   4.431   3.480   8.527 -0.0441 -0.2879 -0.2212
 1086SOL     OW14890   2.130   1.615  15.159  0.0959 -0.2028 -0.6834
 1086SOL    HW114891   2.107   1.524  15.181  1.0085 -0.1515  0.5049
 1086SOL    HW214892   2.204   1.625  15.219  1.5562 -0.2202 -2.4898
 1087SOL     OW14893   2.823   1.156   5.212  0.0245  0.1125  0.3286
 1087SOL    HW114894   2.887   1.121   5.151  1.2538  0.2848  1.5237
 1087SOL    HW214895   2.741   1.120   5.178  1.0042 -0.6881 -1.1766
 1088SOL     OW14896   3.738   3.973   9.387 -0.0503  0.2041 -0.3760
 1088SOL    HW114897   3.681   4.045   9.413 -1.1176 -0.6406 -0.3535
 1088SOL    HW214898   3.679   3.918   9.335 -0.2645  0.0170  0.0682
 1089SOL     OW14899   3.643   1.149   9.893 -0.2295  0.2957  0.9747
 1089SOL    HW114900   3.687   1.064   9.887 -1.3283  0.0715 -3.9551
 1089SOL    HW214901   3.697   1.192   9.826 -0.9462  0.4685  0.5104
 1090SOL     OW14902   2.541   1.365   3.786  0.2585 -0.4372  0.0368
 1090SOL    HW114903   2.456   1.352   3.745 -0.7461  1.8466  1.3578
 1090SOL    HW214904   2.536   1.315   3.867 -1.1847 -2.7450 -1.4918
 1091SOL     OW14905   0.542   4.241   5.506 -0.1714 -0.4506  0.4138
 1091SOL    HW114906   0.619   4.202   5.547 -0.4599 -1.7460 -0.2962
 1091SOL    HW214907   0.573   4.309   5.446 -0.4155  0.2538  1.0919
 1092SOL     OW14908   2.030   0.617  13.022  0.5418  0.3113  0.4583
 1092SOL    HW114909   1.953   0.568  12.994  0.4424 -0.8111  2.6938
 1092SOL    HW214910   1.997   0.691  13.074  1.2211 -0.6740  2.2595
 1093SOL     OW14911   2.110   2.547   7.759  0.0522 -0.1604  0.7794
 1093SOL    HW114912   2.062   2.464   7.758  2.4954 -1.5884  2.4444
 1093SOL    HW214913   2.043   2.606   7.794 -0.8818 -1.6866  1.5352
 1094SOL     OW14914   4.469   2.776   4.384  0.1724  0.1976 -0.0271
 1094SOL    HW114915   4.489   2.725   4.306  0.0538  0.6860 -0.3718
 1094SOL    HW214916   4.382   2.806   4.360 -0.2301 -0.9244  0.0062
 1095SOL     OW14917   0.148   2.393  13.064 -0.2317  0.0900  0.1282
 1095SOL    HW114918   0.126   2.486  13.072  2.5482  0.7404  0.4028
 1095SOL    HW214919   0.244   2.395  13.054 -0.0887  0.8014  1.6674
 1096SOL     OW14920   0.980   4.473  12.292  0.0556  0.5763  0.7170
 1096SOL    HW114921   1.013   4.449  12.379 -1.0517 -3.9422 -0.1124
 1096SOL    HW214922   1.008   4.391  12.251  0.4072  1.4287 -0.7474
 1097SOL     OW14923   1.882   1.821   6.442 -0.3757  0.3982  0.1862
 1097SOL    HW114924   1.829   1.743   6.423  0.7028 -0.4462  0.5921
 1097SOL    HW214925   1.823   1.874   6.496 -0.1317 -0.6497  1.4819
 1098SOL     OW14926   1.036   4.675   4.903 -1.0937 -0.1824  0.1740
 1098SOL    HW114927   0.993   4.640   4.825 -3.2715  1.2239  0.7307
 1098SOL    HW214928   1.038   0.029   4.876  2.4016  0.1923  1.6785
 1099SOL     OW14929   4.439   3.694  11.554  0.0368 -0.1807  0.0487
 1099SOL    HW114930   4.430   3.774  11.605  2.4800 -0.0386  0.2762
 1099SOL    HW214931   4.525   3.705  11.513 -0.4320 -0.5024 -1.0169
 1100SOL     OW14932   2.952   4.553   3.593  0.1111  0.4552  0.5072
 1100SOL    HW114933   2.991   4.563   3.506 -2.1746 -1.9293 -0.7912
 1100SOL    HW214934   2.909   4.470   3.572  1.0280  0.1943 -0.3429
 1101SOL     OW14935   2.129   2.129   7.288 -0.0667  0.2135  0.1718
 1101SOL    HW114936   2.169   2.147   7.373  3.0696 -2.2859 -0.8141
 1101SOL    HW214937   2.210   2.125   7.238  1.0692 -0.8823  2.1139
 1102SOL     OW14938   3.889   1.698   9.568  0.3159  0.4872 -1.0559
 1102SOL    HW114939   3.965   1.653   9.604  0.2945  0.1031 -1.4822
 1102SOL    HW214940   3.815   1.641   9.587 -0.5258  1.6569 -0.7786
 1103SOL     OW14941   1.569   0.832  10.849 -1.1428  0.3398 -0.0558
 1103SOL    HW114942   1.614   0.865  10.926  0.1308 -1.8970  0.1484
 1103SOL    HW214943   1.560   0.741  10.878  1.1027 -0.0827 -0.6494
 1104SOL     OW14944   3.839   4.155   4.684  0.2358 -0.3114  0.1208
 1104SOL    HW114945   3.914   4.121   4.733  0.5223 -2.1562 -1.5969
 1104SOL    HW214946   3.852   4.129   4.593 -1.1518 -2.6114  0.5675
 1105SOL     OW14947   0.871   2.408   5.125  0.4242  0.0665 -0.8558
 1105SOL    HW114948   0.911   2.340   5.072  1.2855  0.6392 -0.9389
 1105SOL    HW214949   0.864   2.366   5.210  3.7907  1.6744  0.1988
 1106SOL     OW14950   0.091   1.498   7.278 -0.9791  0.4284  0.2634
 1106SOL    HW114951   0.030   1.469   7.346 -2.6786  1.9406 -0.6094
 1106SOL    HW214952   0.050   1.460   7.200  1.4230 -1.6107 -0.0189
 1107SOL     OW14953   4.306   1.583   7.709  0.3241 -0.3011 -0.1845
 1107SOL    HW114954   4.244   1.597   7.637  0.6247 -0.3646 -0.4564
 1107SOL    HW214955   4.392   1.578   7.669  0.1109 -0.9135 -0.5626
 1108SOL     OW14956   2.205   4.311  14.064 -0.0663  0.1800  0.8146
 1108SOL    HW114957   2.232   4.219  14.068 -1.3699 -0.2618 -0.5331
 1108SOL    HW214958   2.276   4.350  14.013  2.3544 -1.8842  2.6398
 1109SOL     OW14959   0.006   3.554   9.395 -0.6792  0.5241 -0.6098
 1109SOL    HW114960   0.077   3.521   9.449 -0.5363 -0.9272 -1.6856
 1109SOL    HW214961   4.696   3.480   9.357  0.4865  0.3873 -1.8054
 1110SOL     OW14962   0.611   0.115   7.848  0.0261 -0.1365 -0.2053
 1110SOL    HW114963   0.521   0.086   7.862 -0.4519  1.5074  0.1542
 1110SOL    HW214964   0.621   0.183   7.914 -1.3448 -0.5215  0.4050
 1111SOL     OW14965   2.161   0.191   5.494 -0.2805  0.6058 -0.6174
 1111SOL    HW114966   2.201   0.202   5.580 -2.2450 -0.0231  0.3590
 1111SOL    HW214967   2.077   0.163   5.530 -0.3183  0.1854 -1.0262
 1112SOL     OW14968   2.062   1.775   3.095  0.3691  0.4282  0.6285
 1112SOL    HW114969   2.071   1.748   3.004  1.8420  2.0874  0.2784
 1112SOL    HW214970   2.131   1.841   3.100 -2.4115  3.1323  3.1796
 1113SOL     OW14971   0.821   1.588   8.203  0.4292  0.6901 -0.1555
 1113SOL    HW114972   0.780   1.549   8.126  1.1273  0.0345 -0.1897
 1113SOL    HW214973   0.896   1.529   8.197  0.0201  0.3137 -1.4813
 1114SOL     OW14974   3.078   2.197   7.363 -0.2008  0.0445  0.1501
 1114SOL    HW114975   3.113   2.268   7.416  0.2967 -0.7846  0.9370
 1114SOL    HW214976   3.123   2.221   7.282  2.6539  2.3907  2.4674
 1115SOL     OW14977   2.259   1.430   8.087  0.5332  0.0294 -0.0470
 1115SOL    HW114978   2.342   1.463   8.122 -0.8076  1.4063  1.8869
 1115SOL    HW214979   2.292   1.348   8.051  0.1458 -0.2590  0.2470
 1116SOL     OW14980   3.871   3.457   5.855  0.2545 -0.0208  0.5566
 1116SOL    HW114981   3.965   3.472   5.868  0.0917  2.8118 -1.5858
 1116SOL    HW214982   3.856   3.386   5.918  1.7392 -2.1429 -1.4596
 1117SOL     OW14983   1.696   2.667   1.966 -0.3776 -0.2046  0.2593
 1117SOL    HW114984   1.736   2.749   1.938  1.2818 -1.1485 -0.1031
 1117SOL    HW214985   1.748   2.649   2.044 -0.4596  2.6487  0.9890
 1118SOL     OW14986   4.038   3.241   9.008  0.1052  0.1438 -0.1433
 1118SOL    HW114987   4.077   3.263   9.093 -0.4419 -1.4342  0.5044
 1118SOL    HW214988   3.950   3.278   9.012 -0.6077 -1.5922 -0.1105
 1119SOL     OW14989   1.025   3.151   2.338  0.8670 -0.4199  0.5802
 1119SOL    HW114990   1.002   3.129   2.248  1.6045  1.4275 -0.0694
 1119SOL    HW214991   1.108   3.105   2.352  1.3353  0.5877  1.1588
 1120SOL     OW14992   0.025   4.025   6.708 -0.1840  0.4529  0.1673
 1120SOL    HW114993   4.690   3.964   6.692 -0.5123  0.9496 -0.2464
 1120SOL    HW214994   4.724   4.108   6.735 -1.9355 -0.0048 -0.8940
 1121SOL     OW14995   0.465   3.862   3.013  0.0478  0.2043 -0.2055
 1121SOL    HW114996   0.478   3.780   2.965  1.1302  0.7181 -0.7914
 1121SOL    HW214997   0.432   3.914   2.940  1.5251  2.7264  0.9134
 1122SOL     OW14998   3.577   3.729   0.864 -0.1991 -0.1232  0.5876
 1122SOL    HW114999   3.544   3.647   0.829  0.7148  0.7785 -2.3339
 1122SOL    HW215000   3.503   3.762   0.916 -0.1332  2.1630 -0.7607
 1123SOL     OW15001   2.932   0.511  16.135  0.5203 -0.0266  0.9252
 1123SOL    HW115002   2.941   0.605  16.117 -0.2356 -0.2753 -0.7285
 1123SOL    HW215003   2.931   0.473  16.047  0.6495 -2.8584  2.1638
 1124SOL     OW15004   1.571   3.588   3.953 -0.0696  0.1782 -0.0898
 1124SOL    HW115005   1.564   3.513   4.012 -0.6544 -0.2247 -0.6779
 1124SOL    HW215006   1.649   3.567   3.901 -1.1330  1.8186 -2.3099
 1125SOL     OW15007   4.412   0.473   5.182 -0.0819 -0.5143  0.2620
 1125SOL    HW115008   4.353   0.519   5.124 -0.8509 -0.6217  0.9542
 1125SOL    HW215009   4.366   0.470   5.266  0.7952  1.8101  0.8101
 1126SOL     OW15010   1.327   0.179   7.909  0.0494  0.0439 -0.1088
 1126SOL    HW115011   1.297   0.140   7.991 -2.7164 -0.5150 -1.4086
 1126SOL    HW215012   1.282   0.126   7.843  0.4557 -0.8913  0.3663
 1127SOL     OW15013   4.609   0.191   5.981 -0.4343  0.1156  0.4936
 1127SOL    HW115014   4.589   0.182   5.888  1.5002  0.6649  0.0145
 1127SOL    HW215015   4.522   0.181   6.018 -0.9611  0.3231 -0.6845
 1128SOL     OW15016   0.298   0.513  11.304  0.2087 -0.2520 -0.3523
 1128SOL    HW115017   0.315   0.424  11.273 -0.6063 -0.1604 -1.0745
 1128SOL    HW215018   0.382   0.556  11.316  0.6781 -1.4239  0.5734
 1129SOL     OW15019   2.302   4.061  14.110 -0.0707 -0.3765  0.4470
 1129SOL    HW115020   2.382   4.107  14.133 -0.3526  1.1474 -1.5571
 1129SOL    HW215021   2.316   3.980  14.159  1.2508 -0.7937 -0.6134
 1130SOL     OW15022   3.557   1.851   6.771  0.3403  0.1958 -0.1757
 1130SOL    HW115023   3.560   1.947   6.780 -1.1319  0.1424  0.8458
 1130SOL    HW215024   3.650   1.828   6.771  0.4411  0.5779 -0.9190
 1131SOL     OW15025   0.930   1.906   1.508 -0.0213 -0.1243 -0.3395
 1131SOL    HW115026   0.913   1.990   1.465  0.4225 -1.7369 -3.6758
 1131SOL    HW215027   0.861   1.908   1.574  0.5368 -1.1784  0.2771
 1132SOL     OW15028   2.417   1.261   8.597 -0.0615  0.5426  0.0698
 1132SOL    HW115029   2.345   1.261   8.660  0.7021 -0.7987  0.9252
 1132SOL    HW215030   2.375   1.242   8.513 -1.4406  1.6305  0.5057
 1133SOL     OW15031   1.312   0.462  14.824 -0.2758  0.4889 -0.2636
 1133SOL    HW115032   1.277   0.551  14.815  1.4655  1.2337  0.1961
 1133SOL    HW215033   1.388   0.485  14.879  0.8122 -1.2358 -1.0435
 1134SOL     OW15034   4.478   4.388  15.659 -0.3408  0.0113 -0.4441
 1134SOL    HW115035   4.454   4.302  15.625  0.5716  0.2584 -1.7473
 1134SOL    HW215036   4.566   4.410  15.628 -0.2368  0.1214 -0.0678
 1135SOL     OW15037   2.034   3.276  10.166 -0.2163 -0.7149  0.4697
 1135SOL    HW115038   2.100   3.252  10.231 -2.0729 -0.9005  2.2722
 1135SOL    HW215039   2.045   3.198  10.111 -0.0828 -0.8886  0.7461
 1136SOL     OW15040   0.696   4.646   3.636 -0.2092 -0.2698 -0.2208
 1136SOL    HW115041   0.719   4.627   3.727 -0.6698  0.3696  0.0352
 1136SOL    HW215042   0.782   4.640   3.595 -0.6779 -1.3721 -1.0321
 1137SOL     OW15043   1.610   1.269   5.041  0.1673 -0.5328 -0.1114
 1137SOL    HW115044   1.684   1.247   5.096 -1.1565 -0.7691  1.5603
 1137SOL    HW215045   1.635   1.215   4.966  2.0665  0.4590 -0.1898
 1138SOL     OW15046   2.134   3.844  13.168  0.2174 -0.5530 -0.2789
 1138SOL    HW115047   2.214   3.885  13.202  0.4387 -1.7868  0.7226
 1138SOL    HW215048   2.089   3.927  13.155  0.6657 -0.1626  0.6588
 1139SOL     OW15049   3.753   2.087   8.066  0.3380 -0.2635 -0.0122
 1139SOL    HW115050   3.750   2.009   8.122  3.9282 -0.2562  0.1878
 1139SOL    HW215051   3.847   2.109   8.068  0.0325  1.2977 -3.4822
 1140SOL     OW15052   1.429   3.358   3.246 -0.8274  0.2258  0.3066
 1140SOL    HW115053   1.503   3.307   3.212 -1.7064  0.1374 -1.4511
 1140SOL    HW215054   1.358   3.317   3.196  1.3113 -0.1654 -2.4060
 1141SOL     OW15055   2.698   2.688   2.799  0.0697 -0.4641  0.0701
 1141SOL    HW115056   2.725   2.695   2.708  0.1566  0.5279  0.1720
 1141SOL    HW215057   2.649   2.769   2.810 -1.3528 -0.9351 -2.9741
 1142SOL     OW15058   3.140   2.728   5.713  0.1037 -0.1988  0.1661
 1142SOL    HW115059   3.102   2.792   5.653 -0.1604 -1.2256 -0.7614
 1142SOL    HW215060   3.079   2.737   5.786 -2.1755  1.2187 -1.9535
 1143SOL     OW15061   0.500   4.497   7.565  0.3680 -0.1443  0.3365
 1143SOL    HW115062   0.481   4.492   7.471 -0.8374  0.2239  0.5675
 1143SOL    HW215063   0.413   4.506   7.602 -0.4888 -1.7461 -1.2707
 1144SOL     OW15064   1.747   3.437  15.653  1.1024 -0.1436  0.0452
 1144SOL    HW115065   1.821   3.477  15.608 -0.6976  0.8972 -1.9538
 1144SOL    HW215066   1.694   3.413  15.578 -0.4011  2.3657  0.2954
 1145SOL     OW15067   2.927   1.123  10.631  0.0357  0.3517  0.3373
 1145SOL    HW115068   2.958   1.034  10.651 -0.5161  0.2439  0.6949
 1145SOL    HW215069   3.008   1.147  10.586  0.4369  1.7420  1.8101
 1146SOL     OW15070   3.239   0.945   4.087  0.0123  0.1139 -0.5435
 1146SOL    HW115071   3.259   1.034   4.115 -2.5412  0.2111  1.0186
 1146SOL    HW215072   3.308   0.904   4.139 -0.4658  1.1453  0.8848
 1147SOL     OW15073   0.293   4.608   5.958  0.6986 -0.4993  0.1566
 1147SOL    HW115074   0.262   4.633   5.871  0.7654 -2.9208 -0.5670
 1147SOL    HW215075   0.243   4.668   6.012 -1.2855 -1.5565 -0.5316
 1148SOL     OW15076   0.615   0.328  12.146  0.4583  0.2343 -0.0753
 1148SOL    HW115077   0.629   0.258  12.083 -0.9894  0.3029 -0.4719
 1148SOL    HW215078   0.534   0.291  12.181 -0.3268  1.0312 -1.0398
 1149SOL     OW15079   2.504   2.534   4.207  0.1319 -0.2424  0.0903
 1149SOL    HW115080   2.595   2.507   4.191  0.9487  0.0352  4.2933
 1149SOL    HW215081   2.471   2.447   4.224  1.3215 -0.5198  0.9802
 1150SOL     OW15082   2.384   1.761  10.844 -0.3375  0.5915 -0.0790
 1150SOL    HW115083   2.441   1.725  10.776  0.0933  1.6882 -0.3083
 1150SOL    HW215084   2.305   1.781  10.793 -0.9005 -3.4268 -0.7886
 1151SOL     OW15085   2.027   3.337   9.277 -0.1542 -0.4430  0.0038
 1151SOL    HW115086   1.938   3.362   9.252  0.6053  0.9834 -1.3452
 1151SOL    HW215087   2.062   3.412   9.325 -0.4697  1.0372 -2.0386
 1152SOL     OW15088   4.626   4.611   1.179  0.9284  0.2781  0.2275
 1152SOL    HW115089   4.715   4.576   1.175 -0.3070 -2.8637  0.3835
 1152SOL    HW215090   4.633   4.666   1.257 -0.6470  1.2183 -0.2737
 1153SOL     OW15091   3.489   0.162   4.324  0.0983  0.1490 -0.0468
 1153SOL    HW115092   3.484   0.074   4.287  0.7490 -0.1205  0.4815
 1153SOL    HW215093   3.565   0.153   4.383 -0.1723 -0.5763  0.2011
 1154SOL     OW15094   2.211   3.404   9.022  0.1546 -0.0343 -0.6927
 1154SOL    HW115095   2.263   3.385   9.101 -0.4222 -1.0998 -0.5649
 1154SOL    HW215096   2.221   3.499   9.025 -0.4548  0.0468 -1.4970
 1155SOL     OW15097   1.394   1.306   6.349 -0.1322 -0.4225 -0.0228
 1155SOL    HW115098   1.307   1.320   6.385 -0.9258  0.3909 -2.2733
 1155SOL    HW215099   1.377   1.246   6.276 -0.2883 -0.5549  0.1199
 1156SOL     OW15100   3.346   2.350  12.157  0.2116 -0.2563 -0.2700
 1156SOL    HW115101   3.294   2.338  12.237  1.1214 -0.1416  0.3447
 1156SOL    HW215102   3.420   2.291  12.171  1.2874  1.2228  0.4652
 1157SOL     OW15103   2.853   3.901   5.212 -0.5212  0.0328  0.1231
 1157SOL    HW115104   2.890   3.813   5.212 -2.8170 -0.9576 -3.3367
 1157SOL    HW215105   2.817   3.910   5.300 -0.7535  0.7522 -0.0442
 1158SOL     OW15106   4.418   3.188   6.698 -0.7320  0.1127 -0.3225
 1158SOL    HW115107   4.474   3.121   6.659 -0.1544  0.8874 -0.8035
 1158SOL    HW215108   4.468   3.221   6.773 -1.2184 -2.4163  1.1557
 1159SOL     OW15109   4.441   0.238   8.934 -0.2988  0.1012 -0.1189
 1159SOL    HW115110   4.408   0.228   9.024 -2.3833 -1.1957 -1.0361
 1159SOL    HW215111   4.473   0.149   8.923 -1.8848 -0.6209  1.1336
 1160SOL     OW15112   1.640   1.771  14.100 -0.0239  0.5160  0.1428
 1160SOL    HW115113   1.556   1.729  14.115  0.4643 -0.7572 -0.6476
 1160SOL    HW215114   1.672   1.737  14.016  1.6648 -1.5510  1.6539
 1161SOL     OW15115   0.430   2.067  15.829 -0.5590  0.1809 -0.4952
 1161SOL    HW115116   0.375   2.038  15.902  0.2532 -1.8806 -0.6900
 1161SOL    HW215117   0.477   2.135  15.877  0.1330  0.3594 -1.4179
 1162SOL     OW15118   2.574   0.674  15.060 -0.4981 -0.0117  0.2300
 1162SOL    HW115119   2.506   0.612  15.034 -0.1743 -0.4497  0.4357
 1162SOL    HW215120   2.627   0.652  14.984 -0.1568  1.1875  0.1210
 1163SOL     OW15121   1.570   4.550   1.024  0.6965 -0.2033 -0.0964
 1163SOL    HW115122   1.493   4.582   1.071  0.1670 -2.0282  0.2691
 1163SOL    HW215123   1.555   4.586   0.936 -0.1275  0.8713  0.4913
 1164SOL     OW15124   0.247   2.498   6.668  0.4327 -0.0762  0.1015
 1164SOL    HW115125   0.204   2.579   6.698  1.1290  0.0739  0.6903
 1164SOL    HW215126   0.296   2.535   6.595 -1.3134  1.1092 -0.4725
 1165SOL     OW15127   2.163   4.655   3.211  0.8372 -0.1299 -0.0838
 1165SOL    HW115128   2.180   4.577   3.264 -0.9832 -0.2285  0.3370
 1165SOL    HW215129   2.214   4.622   3.136  0.5311 -0.3864 -0.1814
 1166SOL     OW15130   2.627   0.444   2.607 -0.3827 -0.1570  0.3011
 1166SOL    HW115131   2.611   0.525   2.559  1.0377  0.3969  0.7500
 1166SOL    HW215132   2.697   0.478   2.664  0.1043  0.8536 -0.8951
 1167SOL     OW15133   0.723   4.654   6.970 -0.2500  0.0327 -0.3367
 1167SOL    HW115134   0.779   4.725   6.938  0.6178  0.0525  1.2463
 1167SOL    HW215135   0.725   4.588   6.901  0.1351  0.9791 -1.2291
 1168SOL     OW15136   1.644   0.718   5.058  0.3772  0.2419 -0.0142
 1168SOL    HW115137   1.693   0.648   5.102 -0.2708  0.3045  0.8170
 1168SOL    HW215138   1.723   0.760   5.026  0.0079  1.2053  0.3247
 1169SOL     OW15139   0.964   3.178   4.062  0.2627  0.7157 -0.2454
 1169SOL    HW115140   0.901   3.105   4.058  3.5490 -2.2132  1.2811
 1169SOL    HW215141   1.003   3.162   4.148 -0.1187 -3.4830 -0.8230
 1170SOL     OW15142   3.102   1.759   8.732  0.2702 -0.1317  0.3663
 1170SOL    HW115143   3.094   1.822   8.803  2.0547  1.4525 -0.8185
 1170SOL    HW215144   3.035   1.692   8.745  0.5258 -0.4631 -0.0173
 1171SOL     OW15145   2.614   4.315   2.942 -0.5588  0.4381  1.0881
 1171SOL    HW115146   2.592   4.407   2.955  1.0692  0.7576  1.4832
 1171SOL    HW215147   2.606   4.305   2.847  0.1875 -0.0652  1.0824
 1172SOL     OW15148   1.655   4.524   2.087  0.0131 -0.2721 -0.2908
 1172SOL    HW115149   1.680   4.471   2.011  3.0200  0.4934  0.1642
 1172SOL    HW215150   1.563   4.543   2.070 -0.4031  0.4512  2.8535
 1173SOL     OW15151   2.012   0.544  14.765 -0.0310 -0.5439  0.8383
 1173SOL    HW115152   2.027   0.525  14.673 -0.6808  0.8020  0.4492
 1173SOL    HW215153   1.942   0.484  14.791  0.9590 -1.5702  1.1483
 1174SOL     OW15154   3.089   4.324   7.905  0.4983 -0.3842  0.1745
 1174SOL    HW115155   3.034   4.262   7.857  2.1641 -1.6314 -0.1164
 1174SOL    HW215156   3.054   4.315   7.993  1.1095 -3.0562  0.1288
 1175SOL     OW15157   3.309   0.963   5.990 -0.1274  0.2654 -0.2591
 1175SOL    HW115158   3.365   0.969   6.066 -0.5082 -0.1777  0.0549
 1175SOL    HW215159   3.375   0.996   5.929 -0.3381  3.2953  1.1618
 1176SOL     OW15160   3.251   4.708   6.797  0.0794 -0.4355  0.1932
 1176SOL    HW115161   3.215   4.643   6.856 -1.1273 -0.1884 -0.2858
 1176SOL    HW215162   3.182   4.732   6.736 -0.9691  0.8381  1.8611
 1177SOL     OW15163   2.646   1.851  16.639  0.0607 -0.2555 -0.2513
 1177SOL    HW115164   2.610   1.822  16.555  1.3946  0.5272 -1.0822
 1177SOL    HW215165   2.691   1.930  16.610 -0.3674  0.6443  1.5757
 1178SOL     OW15166   0.849   2.485   2.733 -1.3299 -0.3294 -0.6604
 1178SOL    HW115167   0.829   2.475   2.826  0.3692  0.4441 -0.2117
 1178SOL    HW215168   0.784   2.425   2.698 -0.3063 -1.6956 -0.2043
 1179SOL     OW15169   0.184   2.817   4.071 -0.0543  0.2220 -0.4592
 1179SOL    HW115170   0.094   2.836   4.044  1.3822  2.5674 -3.5950
 1179SOL    HW215171   0.233   2.900   4.065  1.1368 -0.4878 -0.5730
 1180SOL     OW15172   3.300   0.855   5.248  0.8048  0.0635  0.5743
 1180SOL    HW115173   3.262   0.856   5.160 -1.2688 -2.6276  1.4535
 1180SOL    HW215174   3.349   0.936   5.231 -0.8794  0.9015 -0.3382
 1181SOL     OW15175   3.505   2.475  12.351 -0.0724  0.2269 -0.3642
 1181SOL    HW115176   3.454   2.454  12.273  1.4111 -0.0700 -1.2504
 1181SOL    HW215177   3.443   2.494  12.421  0.3355 -1.3830  0.4250
 1182SOL     OW15178   3.381   1.972   5.138  0.1465 -0.5003  0.3114
 1182SOL    HW115179   3.364   2.064   5.161  1.1100 -1.1789  3.8342
 1182SOL    HW215180   3.475   1.972   5.118 -0.2857 -0.8256 -1.6453
 1183SOL     OW15181   2.796   2.828   4.427  0.0281 -0.5151  0.3689
 1183SOL    HW115182   2.748   2.750   4.458 -1.3618 -0.9628 -2.8803
 1183SOL    HW215183   2.783   2.810   4.333  2.1162  0.8896 -0.1745
 1184SOL     OW15184   1.034   4.502   2.250  0.1138 -0.3855 -0.6706
 1184SOL    HW115185   1.030   4.464   2.162 -3.0439 -0.5516 -0.4752
 1184SOL    HW215186   1.117   4.548   2.252 -0.8678  1.3677 -0.5552
 1185SOL     OW15187   2.236   1.091   7.353  0.4817 -0.2508  0.3132
 1185SOL    HW115188   2.167   1.040   7.309 -1.5364 -0.5320  3.7950
 1185SOL    HW215189   2.177   1.159   7.384  0.1383 -0.2722 -0.2985
 1186SOL     OW15190   3.691   4.446  16.523 -0.2419 -0.3375  0.4166
 1186SOL    HW115191   3.731   4.423  16.607  2.6112  3.4329  0.1174
 1186SOL    HW215192   3.774   4.462  16.477 -0.7298 -0.8413 -0.6446
 1187SOL     OW15193   3.049   2.283   3.767 -0.8635 -0.1508  0.0784
 1187SOL    HW115194   3.007   2.357   3.724  2.5279  1.5808 -0.2945
 1187SOL    HW215195   3.123   2.334   3.800 -2.3288  1.4970  0.8145
 1188SOL     OW15196   1.205   0.339   0.531 -0.1405 -0.5856 -0.2866
 1188SOL    HW115197   1.171   0.263   0.579  0.3346 -1.9711 -2.1105
 1188SOL    HW215198   1.259   0.301   0.461  0.8193  2.1065 -0.9976
 1189SOL     OW15199   1.959   3.004   3.450 -0.3994  0.3615  0.1851
 1189SOL    HW115200   2.039   2.953   3.440 -1.0842 -0.4969 -0.9297
 1189SOL    HW215201   1.960   3.014   3.545 -1.5583 -1.6371  0.4011
 1190SOL     OW15202   1.926   3.121   6.405 -0.5327 -0.1379  0.1358
 1190SOL    HW115203   1.861   3.181   6.366  0.8108  3.5263  3.6086
 1190SOL    HW215204   1.983   3.125   6.328 -4.4980  1.7549 -2.7248
 1191SOL     OW15205   0.457   2.141   3.229 -0.3955 -0.1353  0.4810
 1191SOL    HW115206   0.544   2.101   3.236  0.3836  1.4330 -0.3460
 1191SOL    HW215207   0.402   2.065   3.213  1.6371 -1.2696 -1.1529
 1192SOL     OW15208   1.794   0.834   0.501  0.5761 -0.3091  0.0332
 1192SOL    HW115209   1.819   0.850   0.410  2.4611 -1.9191  0.2618
 1192SOL    HW215210   1.793   0.919   0.544  0.5730 -0.2172 -0.1477
 1193SOL     OW15211   4.635   3.844   2.218 -0.6815  0.0476 -0.3970
 1193SOL    HW115212   4.664   3.825   2.128  0.4211 -0.1914  0.0103
 1193SOL    HW215213   4.669   3.934   2.214 -2.0541  0.5978  0.4107
 1194SOL     OW15214   3.021   3.989   8.948 -0.1674  0.6886 -0.1841
 1194SOL    HW115215   3.061   4.069   8.982  0.4080  0.1725  0.3506
 1194SOL    HW215216   2.990   3.953   9.031 -0.9327  0.6103 -0.5042
 1195SOL     OW15217   4.200   2.724   8.770 -0.3295 -0.0786 -0.4955
 1195SOL    HW115218   4.271   2.775   8.809  0.1098 -2.1853  1.4415
 1195SOL    HW215219   4.173   2.674   8.847 -2.2696  0.6957 -0.6579
 1196SOL     OW15220   0.665   2.959  11.866 -0.2664 -0.1554 -0.2298
 1196SOL    HW115221   0.671   2.915  11.951  0.4828  0.6625  0.1364
 1196SOL    HW215222   0.593   3.019  11.885  1.0303  1.2218  0.2572
 1197SOL     OW15223   2.250   3.243   2.765  0.8676 -0.2816 -0.3950
 1197SOL    HW115224   2.343   3.264   2.761  0.8363  0.0061  0.3147
 1197SOL    HW215225   2.250   3.153   2.795  3.1608 -0.0915  0.1780
 1198SOL     OW15226   0.646   2.534   8.288 -0.2831 -0.8262 -0.3579
 1198SOL    HW115227   0.710   2.586   8.238 -0.4112  1.1162  1.4799
 1198SOL    HW215228   0.592   2.493   8.221  0.1608 -0.4418 -0.9603
 1199SOL     OW15229   4.583   2.614  16.657  0.1889  0.2419 -0.7812
 1199SOL    HW115230   4.620   2.528  16.680  1.9518  0.8232 -1.4573
 1199SOL    HW215231   4.567   2.653  16.743  0.6612 -1.1405 -0.0615
 1200SOL     OW15232   1.141   4.141   7.501 -0.1034  0.1240  0.1758
 1200SOL    HW115233   1.205   4.097   7.557 -0.7394 -1.5767 -0.4318
 1200SOL    HW215234   1.173   4.114   7.415 -0.0658  0.5851  0.0450
 1201SOL     OW15235   1.392   2.285   8.904  0.1331 -0.2276 -0.0736
 1201SOL    HW115236   1.464   2.276   8.966  1.2524 -0.7151 -1.4510
 1201SOL    HW215237   1.391   2.381   8.907 -0.5967 -0.1996 -1.3729
 1202SOL     OW15238   2.257   0.744   5.676 -0.7458  0.4277  0.3096
 1202SOL    HW115239   2.254   0.835   5.646 -0.8609  0.7530  1.3113
 1202SOL    HW215240   2.265   0.704   5.589 -0.4229  2.7133 -0.7009
 1203SOL     OW15241   2.271   2.957   6.859 -0.4997  0.7849  0.0939
 1203SOL    HW115242   2.314   3.025   6.808 -0.2261  0.3595 -0.2460
 1203SOL    HW215243   2.221   3.018   6.913 -2.5724 -1.2958  0.5261
 1204SOL     OW15244   3.185   0.904   9.123 -0.1446 -0.2157  0.2008
 1204SOL    HW115245   3.123   0.965   9.084 -0.5786 -0.8800 -0.1529
 1204SOL    HW215246   3.230   0.873   9.045 -0.4278 -1.0255  0.3580
 1205SOL     OW15247   4.667   3.679   5.672 -0.1695 -0.1646  0.3432
 1205SOL    HW115248   4.716   3.751   5.713 -0.4968  0.0643  0.3267
 1205SOL    HW215249   4.639   3.722   5.592  1.0397 -1.5112 -0.7907
 1206SOL     OW15250   3.582   1.503   5.311  0.3320 -1.0020 -0.2491
 1206SOL    HW115251   3.609   1.545   5.229  0.6827 -0.3320  0.2136
 1206SOL    HW215252   3.555   1.570   5.374  1.5038  0.5392 -1.3753
 1207SOL     OW15253   0.045   1.523   0.022 -0.1018 -0.3809 -0.5816
 1207SOL    HW115254   0.112   1.555  17.709  0.3404 -0.2156 -0.0007
 1207SOL    HW215255   0.085   1.526   0.109 -0.0548  0.2823 -0.6230
 1208SOL     OW15256   2.524   1.135   5.336  0.1029  0.5097  0.3551
 1208SOL    HW115257   2.493   1.160   5.423 -1.1286 -0.5426  0.2212
 1208SOL    HW215258   2.547   1.042   5.345  1.3220  0.7826  0.0615
 1209SOL     OW15259   3.065   0.110  16.575 -0.4281 -0.2435 -0.4585
 1209SOL    HW115260   3.064   0.190  16.628  2.6405 -0.5324  0.0311
 1209SOL    HW215261   3.061   0.047  16.647  1.7491  0.6256  0.4405
 1210SOL     OW15262   0.063   1.516   6.303  0.0990 -0.3414  0.0125
 1210SOL    HW115263   0.116   1.566   6.241 -1.2631 -1.4479 -2.0392
 1210SOL    HW215264   0.004   1.471   6.243 -1.6762 -0.0513  1.5337
 1211SOL     OW15265   2.464   0.170   8.163  0.2629  0.4732  0.1799
 1211SOL    HW115266   2.558   0.151   8.161  0.1510  0.0809 -1.2061
 1211SOL    HW215267   2.446   0.142   8.253  0.6857 -0.3462  0.0131
 1212SOL     OW15268   4.196   2.129   1.277  0.2883 -0.2601 -0.4691
 1212SOL    HW115269   4.230   2.079   1.203  2.0902 -0.4461  0.4803
 1212SOL    HW215270   4.153   2.062   1.330 -1.4048  0.3989 -0.9980
 1213SOL     OW15271   3.484   2.882  13.652 -0.0367 -0.1206  0.0739
 1213SOL    HW115272   3.570   2.840  13.652 -0.5260 -1.1267  0.4024
 1213SOL    HW215273   3.502   2.936  13.575  2.0184 -1.1966 -0.1882
 1214SOL     OW15274   1.573   4.164   7.596  0.2438 -0.0193  0.0787
 1214SOL    HW115275   1.630   4.188   7.669  0.9210  0.7887 -0.7188
 1214SOL    HW215276   1.594   4.239   7.541 -0.2907 -0.3793 -0.6196
 1215SOL     OW15277   3.241   1.892   6.919  0.0357 -0.1189 -0.1100
 1215SOL    HW115278   3.260   1.822   6.856 -0.1547  0.6198 -0.9862
 1215SOL    HW215279   3.314   1.887   6.981 -1.4942 -2.7479  1.4450
 1216SOL     OW15280   2.402   0.457   3.682 -0.2101 -0.4035  0.1106
 1216SOL    HW115281   2.350   0.531   3.714  0.2606 -0.6190  1.3543
 1216SOL    HW215282   2.428   0.428   3.769  0.8925 -0.6615 -0.3072
 1217SOL     OW15283   3.359   1.392   4.630 -0.1194 -0.4860  0.1925
 1217SOL    HW115284   3.288   1.456   4.638 -0.6684 -1.0504 -0.2145
 1217SOL    HW215285   3.341   1.341   4.709  2.1312 -2.3863 -0.5227
 1218SOL     OW15286   4.724   4.481   0.122 -0.3184 -0.5169 -0.0389
 1218SOL    HW115287   4.661   4.479   0.051  0.4640  2.2404 -0.8062
 1218SOL    HW215288   0.072   4.494   0.080 -0.0331 -4.1786 -0.5579
 1219SOL     OW15289   2.861   2.132   4.962  0.1999 -0.1217  0.1290
 1219SOL    HW115290   2.897   2.145   5.050  0.4153 -0.9414  0.1668
 1219SOL    HW215291   2.873   2.037   4.966 -0.1739 -0.1243  1.2130
 1220SOL     OW15292   3.973   1.603   5.962  0.4978  0.4604 -0.0253
 1220SOL    HW115293   3.964   1.689   6.003  0.0601  0.1254  0.5813
 1220SOL    HW215294   4.032   1.555   6.020  0.2382  0.0173 -0.1268
 1221SOL     OW15295   3.730   2.044   4.747  0.4955  0.4407 -0.4459
 1221SOL    HW115296   3.787   2.025   4.821  0.8775  0.6421 -0.6858
 1221SOL    HW215297   3.703   1.955   4.727  0.4144  0.5111 -0.6482
 1222SOL     OW15298   3.176   4.467  16.601  0.0080  0.4161  0.7795
 1222SOL    HW115299   3.238   4.441  16.533  0.6589  2.3570  0.6577
 1222SOL    HW215300   3.103   4.493  16.546 -0.0346 -1.0881  0.1099
 1223SOL     OW15301   2.245   4.006   5.084 -0.0452  0.5809 -0.1793
 1223SOL    HW115302   2.228   4.074   5.149  0.6270  0.3943  0.1838
 1223SOL    HW215303   2.168   4.021   5.028 -0.2304 -1.6522 -0.5149
 1224SOL     OW15304   4.311   1.007   7.352 -0.2197 -0.1250 -0.2082
 1224SOL    HW115305   4.375   1.057   7.403  0.4309 -0.2453 -0.9138
 1224SOL    HW215306   4.374   0.949   7.308  1.3788  0.2209  1.5973
 1225SOL     OW15307   0.471   4.070   8.596  0.2481  0.3053 -0.1288
 1225SOL    HW115308   0.514   4.121   8.527  3.2077 -2.8995 -0.6826
 1225SOL    HW215309   0.396   4.035   8.548 -0.7639  1.0764  0.8905
 1226SOL     OW15310   1.560   2.585   8.175  0.1058 -0.4026  0.3313
 1226SOL    HW115311   1.484   2.538   8.138  2.3651 -2.7543 -1.3339
 1226SOL    HW215312   1.510   2.664   8.194  1.6498  0.6079  0.1777
 1227SOL     OW15313   1.822   3.451   2.010  0.7339 -0.2440 -0.8522
 1227SOL    HW115314   1.791   3.478   1.923  2.5235  1.5043 -0.9255
 1227SOL    HW215315   1.741   3.438   2.058  0.5770  2.5932 -0.3798
 1228SOL     OW15316   3.783   3.908   8.590 -0.2649 -0.2684 -0.4047
 1228SOL    HW115317   3.818   3.826   8.556  1.0731 -0.5801  1.6875
 1228SOL    HW215318   3.703   3.873   8.632 -0.3686 -0.0435 -0.4173
 1229SOL     OW15319   0.700   2.509   3.788 -1.0040  0.4386 -0.0247
 1229SOL    HW115320   0.635   2.438   3.794  0.2694 -0.5695  1.8634
 1229SOL    HW215321   0.640   2.578   3.762 -1.9916  0.0205  1.1382
 1230SOL     OW15322   2.524   4.035   3.702 -0.1133 -0.1838  0.3516
 1230SOL    HW115323   2.501   3.943   3.686 -0.0234  0.2199 -2.0118
 1230SOL    HW215324   2.484   4.081   3.629 -0.4225  0.4818  0.9454
 1231SOL     OW15325   2.550   2.863   5.793 -0.4150 -0.4891  0.1594
 1231SOL    HW115326   2.477   2.818   5.751 -0.3005 -1.9117  1.4856
 1231SOL    HW215327   2.516   2.868   5.882  0.4434 -1.3239  0.5437
 1232SOL     OW15328   1.599   0.702   7.080  0.3464 -0.2247  0.6034
 1232SOL    HW115329   1.522   0.748   7.047 -0.6729 -1.6918  0.9025
 1232SOL    HW215330   1.565   0.615   7.058 -1.6098  0.7911 -0.3202
 1233SOL     OW15331   0.057   4.547   3.958 -0.3506 -0.0498  0.1119
 1233SOL    HW115332   0.097   4.529   3.873 -1.4599 -1.7922 -0.0500
 1233SOL    HW215333   0.120   4.604   4.002  0.8260 -1.3918  0.1840
 1234SOL     OW15334   1.690   0.369  14.599  0.4573 -0.7884 -0.3765
 1234SOL    HW115335   1.768   0.329  14.561 -0.4538 -0.7814 -2.2546
 1234SOL    HW215336   1.698   0.359  14.694  0.1775  0.3672 -0.2201
 1235SOL     OW15337   4.579   4.478  11.129 -0.3062  1.0061  0.2175
 1235SOL    HW115338   4.557   4.400  11.076  0.1570  0.9212  0.1528
 1235SOL    HW215339   4.498   4.529  11.130  0.4308  2.0761  2.6653
 1236SOL     OW15340   2.122   0.291   8.298 -0.2817  0.6046  0.3720
 1236SOL    HW115341   2.134   0.219   8.359 -1.6684  0.7057  0.7671
 1236SOL    HW215342   2.027   0.287   8.284 -0.3978  0.6916  1.1432
 1237SOL     OW15343   0.393   4.177   4.453 -0.5959 -0.1461  0.1590
 1237SOL    HW115344   0.433   4.260   4.480 -1.8901  1.3114 -2.3803
 1237SOL    HW215345   0.456   4.168   4.381 -0.2731 -0.2214  0.4559
 1238SOL     OW15346   2.304   3.773   9.934 -0.1282 -0.0848  1.1900
 1238SOL    HW115347   2.287   3.728  10.017  3.2376 -1.7951  0.9602
 1238SOL    HW215348   2.368   3.710   9.901  1.5749  1.7698  0.9376
 1239SOL     OW15349   2.211   2.344   6.776  0.1542  0.3182 -0.0273
 1239SOL    HW115350   2.300   2.371   6.797  0.2527  0.6055 -0.8068
 1239SOL    HW215351   2.200   2.292   6.855 -0.0794 -0.7874 -0.7820
 1240SOL     OW15352   4.424   1.536  13.366 -0.0354  0.5987  0.4179
 1240SOL    HW115353   4.453   1.485  13.442  0.1204  1.8420  1.1876
 1240SOL    HW215354   4.491   1.604  13.352  0.1557  0.3705  0.2247
 1241SOL     OW15355   1.562   2.078   6.243  0.2323  0.4547  0.5554
 1241SOL    HW115356   1.538   1.985   6.251 -1.2201  0.7146 -0.6180
 1241SOL    HW215357   1.485   2.113   6.198  0.2937  0.0693  0.1545
 1242SOL     OW15358   0.905   1.830   8.487 -0.0133  0.4234  0.3923
 1242SOL    HW115359   0.990   1.858   8.452 -0.0358  0.7625  0.6048
 1242SOL    HW215360   0.895   1.863   8.576 -1.1889 -0.3843  0.5432
 1243SOL     OW15361   4.680   4.647   0.334 -0.3037 -0.4595 -0.2427
 1243SOL    HW115362   4.685   4.566   0.282 -2.4674 -0.7718  0.0068
 1243SOL    HW215363   4.682   4.632   0.428 -2.0826 -0.3286 -0.1709
 1244SOL     OW15364   3.243   1.935  17.499 -0.2147 -0.1125  0.3155
 1244SOL    HW115365   3.337   1.928  17.479  0.4416  0.2415  3.1797
 1244SOL    HW215366   3.219   1.854  17.455 -0.4368  0.3744 -0.4649
 1245SOL     OW15367   2.069   4.699  11.827 -0.2654 -0.3568 -0.1457
 1245SOL    HW115368   2.013   0.035  11.854  1.6840  0.3112  2.0981
 1245SOL    HW215369   2.050   4.647  11.905 -0.0020 -0.1407  0.0628
 1246SOL     OW15370   1.786   2.220   5.600  0.0341 -0.0351 -0.6450
 1246SOL    HW115371   1.702   2.192   5.563 -0.8735  1.4634  0.2587
 1246SOL    HW215372   1.802   2.301   5.551 -0.3121  0.5588  0.2388
 1247SOL     OW15373   2.212   4.392  14.419 -0.0963 -0.6458  0.2721
 1247SOL    HW115374   2.259   4.309  14.419 -1.0866 -1.2063  1.4334
 1247SOL    HW215375   2.287   4.449  14.435 -1.8983  1.5278  1.1015
 1248SOL     OW15376   3.020   3.988   2.833 -0.1416 -0.2075 -0.3817
 1248SOL    HW115377   3.085   3.918   2.833 -0.2293 -0.2957 -2.0487
 1248SOL    HW215378   3.005   3.989   2.927 -0.0793  0.5566 -0.3789
 1249SOL     OW15379   1.390   4.264  16.188  0.0927 -0.1634  0.2162
 1249SOL    HW115380   1.411   4.336  16.246 -0.3589 -1.2538  1.7244
 1249SOL    HW215381   1.372   4.199  16.256 -1.0070 -0.9520 -0.8187
 1250SOL     OW15382   4.346   1.101   9.453 -0.1155 -0.4138 -1.1391
 1250SOL    HW115383   4.400   1.156   9.396  0.8937  1.4934  1.6685
 1250SOL    HW215384   4.407   1.057   9.513  0.7361  1.1490 -0.8553
 1251SOL     OW15385   2.850   2.180   7.238 -0.3679  0.2349  0.1264
 1251SOL    HW115386   2.934   2.179   7.284 -0.9798  1.0166  1.2744
 1251SOL    HW215387   2.784   2.132   7.289 -0.5495  1.0239  0.6359
 1252SOL     OW15388   3.872   3.856  13.803  0.2470 -0.5099 -0.6607
 1252SOL    HW115389   3.849   3.924  13.740  0.1052 -0.3107 -0.3961
 1252SOL    HW215390   3.963   3.879  13.823  0.0916 -0.8978  0.4705
 1253SOL     OW15391   0.217   4.159   4.070 -0.0471  0.4892 -0.4250
 1253SOL    HW115392   0.246   4.230   4.014  0.4776  1.7553  1.4454
 1253SOL    HW215393   0.131   4.194   4.093 -0.5038  1.2402 -3.2862
 1254SOL     OW15394   2.826   0.968   8.139  0.1933  0.2073 -0.5812
 1254SOL    HW115395   2.809   0.890   8.086  0.4561  0.0549 -0.4426
 1254SOL    HW215396   2.737   0.980   8.174  0.7903  0.8687  0.7147
 1255SOL     OW15397   3.049   2.038   1.575  0.0819  0.3735  0.0401
 1255SOL    HW115398   2.967   1.993   1.559  2.0864 -2.5790 -1.8492
 1255SOL    HW215399   3.035   2.059   1.668  0.7314  3.1301 -0.4760
 1256SOL     OW15400   3.981   3.606   2.070 -0.3083 -0.4072 -0.1985
 1256SOL    HW115401   3.971   3.522   2.114  1.4279 -0.1038  0.7577
 1256SOL    HW215402   3.897   3.629   2.028  0.3000  3.3919  0.6568
 1257SOL     OW15403   1.267   1.159   7.632 -0.2824  0.2762 -0.3949
 1257SOL    HW115404   1.215   1.098   7.579  1.1363 -1.6643  0.4340
 1257SOL    HW215405   1.347   1.112   7.657 -0.8498 -0.2487  0.4386
 1258SOL     OW15406   0.642   3.032   3.631 -0.1341  0.2939 -0.3641
 1258SOL    HW115407   0.642   3.120   3.593 -1.7510 -0.0872 -1.2389
 1258SOL    HW215408   0.595   3.051   3.712 -0.9608  1.1493 -1.0488
 1259SOL     OW15409   2.876   3.041  16.991 -0.2478 -0.6765 -0.3083
 1259SOL    HW115410   2.923   2.980  17.049 -1.2573  0.1553  1.3821
 1259SOL    HW215411   2.838   2.980  16.929 -0.3071 -1.1506  0.1906
 1260SOL     OW15412   2.799   1.491  16.472  0.0066  0.6046  0.2175
 1260SOL    HW115413   2.728   1.500  16.535  0.9250  0.0140  1.3355
 1260SOL    HW215414   2.867   1.524  16.531 -1.5617  2.7955  0.8077
 1261SOL     OW15415   3.419   0.160   6.238  0.5770 -0.4869  0.4492
 1261SOL    HW115416   3.354   0.222   6.271  0.8399  0.3081 -0.5533
 1261SOL    HW215417   3.485   0.220   6.206  2.5322 -2.9417 -0.1006
 1262SOL     OW15418   3.415   2.545   2.240  0.6605  0.0231 -0.3694
 1262SOL    HW115419   3.328   2.541   2.201  0.0150  0.1823  1.0568
 1262SOL    HW215420   3.473   2.480   2.199  1.6132  1.6315 -1.5755
 1263SOL     OW15421   2.362   2.712  13.617 -0.0311  0.2679 -0.0133
 1263SOL    HW115422   2.427   2.688  13.551  0.1773  1.5061 -0.2693
 1263SOL    HW215423   2.359   2.632  13.669  1.3449  0.2424  0.0137
 1264SOL     OW15424   3.175   4.215   7.050  0.4976 -0.9961 -0.1476
 1264SOL    HW115425   3.120   4.140   7.071  0.4523 -0.1962  2.4898
 1264SOL    HW215426   3.230   4.227   7.127 -0.4680 -2.4939  0.7710
 1265SOL     OW15427   4.174   3.414   0.935 -0.3042 -0.8640 -0.3154
 1265SOL    HW115428   4.183   3.404   1.029  0.9883 -0.2804 -0.3706
 1265SOL    HW215429   4.104   3.480   0.932 -0.3009 -0.9150 -1.5104
 1266SOL     OW15430   3.590   1.762   9.991  0.0744  0.5776 -0.3447
 1266SOL    HW115431   3.604   1.677  10.033  0.2323  0.6900 -0.1737
 1266SOL    HW215432   3.624   1.729   9.908  2.1759  1.9501 -0.0283
 1267SOL     OW15433   2.762   0.683   2.448  0.0478 -0.9476  0.4520
 1267SOL    HW115434   2.802   0.637   2.522 -0.1145 -0.3972  0.8883
 1267SOL    HW215435   2.729   0.763   2.490  0.2010 -0.5074 -0.2645
 1268SOL     OW15436   0.529   0.902   5.631 -0.1973 -0.1031 -0.3354
 1268SOL    HW115437   0.548   0.850   5.553 -0.6970 -0.8804  0.0585
 1268SOL    HW215438   0.601   0.965   5.635  0.9622 -1.6579  3.1163
 1269SOL     OW15439   3.822   0.811   3.586  0.0010  0.0496 -0.3423
 1269SOL    HW115440   3.755   0.827   3.653  0.0390  0.1700 -0.3331
 1269SOL    HW215441   3.781   0.859   3.514  1.8018  0.5938 -0.9926
 1270SOL     OW15442   2.004   0.267   0.222 -0.1452 -0.0154  0.2420
 1270SOL    HW115443   2.073   0.201   0.216  0.7032  0.7839  1.2528
 1270SOL    HW215444   1.931   0.208   0.203 -0.9340  1.3553 -1.0087
 1271SOL     OW15445   2.372   3.355   9.253  0.4333  0.7090 -0.3932
 1271SOL    HW115446   2.333   3.420   9.312 -0.0098 -0.5504  0.6968
 1271SOL    HW215447   2.400   3.279   9.302  0.1155  0.9060  0.1012
 1272SOL     OW15448   1.330   1.498   5.376  0.6053 -0.5262 -0.0772
 1272SOL    HW115449   1.413   1.544   5.371  0.4380 -0.1620  0.4922
 1272SOL    HW215450   1.367   1.413   5.351  1.2567 -0.4979  0.7819
 1273SOL     OW15451   2.404   2.095   1.740  0.1960  0.0561 -0.4458
 1273SOL    HW115452   2.366   2.099   1.652  1.1000  1.5565 -0.7774
 1273SOL    HW215453   2.340   2.159   1.771  0.0498 -1.5212  2.5433
 1274SOL     OW15454   4.496   1.797   3.830 -0.4455  0.3359  0.1378
 1274SOL    HW115455   4.430   1.759   3.889 -0.1142 -0.3975  0.0373
 1274SOL    HW215456   4.546   1.719   3.806 -1.2591  0.0987 -0.8176
 1275SOL     OW15457   2.558   0.299   3.986 -0.1870 -0.1461  0.0925
 1275SOL    HW115458   2.588   0.240   3.917 -0.1200  0.9410 -0.8204
 1275SOL    HW215459   2.467   0.307   3.958  0.0230 -0.9443 -0.8382
 1276SOL     OW15460   1.498   2.605  14.048  0.1255  0.2957  0.0005
 1276SOL    HW115461   1.419   2.653  14.021  0.8661  0.8450 -1.1816
 1276SOL    HW215462   1.533   2.598  13.959 -0.4029  1.9016 -0.3357
 1277SOL     OW15463   3.069   4.147   2.039 -0.1387 -0.2956  0.2798
 1277SOL    HW115464   3.142   4.085   2.035  1.8298  1.8851  2.0681
 1277SOL    HW215465   3.098   4.214   2.102  0.6174  1.0325 -1.4760
 1278SOL     OW15466   0.819   2.318  14.031  0.0426  0.1150  0.3963
 1278SOL    HW115467   0.739   2.322  14.083  0.3619  2.6488  0.6650
 1278SOL    HW215468   0.816   2.243  13.971 -0.6417 -0.0534  0.6392
 1279SOL     OW15469   0.587   2.504   2.624 -0.5712 -0.6655 -0.3509
 1279SOL    HW115470   0.650   2.525   2.556 -2.1513  1.1982 -1.2465
 1279SOL    HW215471   0.514   2.490   2.564  1.8140 -1.7532 -2.9895
 1280SOL     OW15472   3.833   4.468   9.973 -0.5875 -0.1944 -0.1166
 1280SOL    HW115473   3.790   4.540  10.020 -3.6074 -1.4095 -1.0134
 1280SOL    HW215474   3.800   4.476   9.883 -3.0010 -0.1264  0.7787
 1281SOL     OW15475   1.284   2.837   8.502  0.4533 -0.1056 -0.2916
 1281SOL    HW115476   1.360   2.887   8.533  0.7445  0.0566 -1.2775
 1281SOL    HW215477   1.218   2.838   8.572 -1.4552  1.8829 -2.1297
 1282SOL     OW15478   3.274   1.440   9.795  0.1566  0.2944 -0.0282
 1282SOL    HW115479   3.287   1.422   9.702 -2.4471 -1.0339 -0.1413
 1282SOL    HW215480   3.205   1.506   9.799 -0.2690 -0.1073 -0.5743
 1283SOL     OW15481   2.454   3.833   5.145 -0.7482 -0.0729 -0.1944
 1283SOL    HW115482   2.437   3.806   5.236 -1.5348  1.9911  0.2893
 1283SOL    HW215483   2.388   3.901   5.127 -2.1447 -1.6901 -1.1442
 1284SOL     OW15484   1.624   3.169   9.332 -0.0675 -0.0548  0.0428
 1284SOL    HW115485   1.586   3.139   9.414 -0.1688  0.8137  0.3114
 1284SOL    HW215486   1.602   3.262   9.338  2.5850  0.5577  0.2194
 1285SOL     OW15487   3.641   1.270   7.086 -0.3146 -0.1863 -0.0438
 1285SOL    HW115488   3.698   1.198   7.112 -0.5342 -0.1261  0.6072
 1285SOL    HW215489   3.651   1.261   6.992  2.0288 -0.2694  0.2181
 1286SOL     OW15490   4.728   3.866   8.367  0.0787  0.3399  0.3355
 1286SOL    HW115491   0.029   3.843   8.282  0.8469  2.0840  0.2156
 1286SOL    HW215492   4.702   3.779   8.398 -0.5263 -0.0186 -1.1684
 1287SOL     OW15493   1.388   2.145   7.499 -0.1331  0.0909 -0.1592
 1287SOL    HW115494   1.481   2.121   7.494 -0.0280  0.8239 -1.6258
 1287SOL    HW215495   1.371   2.109   7.412 -1.1257 -2.9575  1.2811
 1288SOL     OW15496   3.290   3.143   3.500  0.2792 -0.3146 -0.5266
 1288SOL    HW115497   3.382   3.117   3.497  0.4345 -0.0272  1.9062
 1288SOL    HW215498   3.267   3.103   3.584  0.0032  0.3250 -0.2936
 1289SOL     OW15499   3.778   3.387   7.328  0.3467 -0.7613  0.3230
 1289SOL    HW115500   3.780   3.479   7.303  0.4300 -1.5085 -2.4208
 1289SOL    HW215501   3.683   3.374   7.321  0.6593 -2.4152 -0.7889
 1290SOL     OW15502   2.255   3.652   9.121  0.4317  0.3537 -0.6371
 1290SOL    HW115503   2.275   3.686   9.208  1.1759  0.7522 -0.9626
 1290SOL    HW215504   2.276   3.721   9.059  0.5428 -0.6622 -1.7340
 1291SOL     OW15505   1.730   0.908   4.044 -0.1553 -0.5178 -0.3200
 1291SOL    HW115506   1.643   0.934   4.014 -0.0042 -1.7400 -1.8272
 1291SOL    HW215507   1.729   0.813   4.033 -0.7649 -0.5911  0.4458
 1292SOL     OW15508   3.807   4.181   5.510 -0.4860  0.1456  0.1802
 1292SOL    HW115509   3.832   4.097   5.548 -2.7766 -1.4277 -1.7950
 1292SOL    HW215510   3.722   4.150   5.478 -0.3607 -0.7657  0.7342
 1293SOL     OW15511   1.368   0.327  15.104 -0.6512  0.4966  0.2311
 1293SOL    HW115512   1.385   0.363  15.191 -1.6467 -1.6449  1.3217
 1293SOL    HW215513   1.441   0.357  15.049  0.5808 -1.6674  0.6659
 1294SOL     OW15514   4.304   3.669   3.219 -0.1771  0.9403  0.3860
 1294SOL    HW115515   4.387   3.706   3.248 -0.1880  0.7079  0.7100
 1294SOL    HW215516   4.246   3.710   3.284  1.0932  2.9364  0.2275
 1295SOL     OW15517   2.931   0.436  12.907 -0.1185  0.2144 -0.8309
 1295SOL    HW115518   2.905   0.517  12.951 -0.5880  0.3684 -1.3772
 1295SOL    HW215519   3.019   0.469  12.890 -1.3017  2.6295 -2.2392
 1296SOL     OW15520   1.056   2.953  16.246  0.1548  0.7700  0.1912
 1296SOL    HW115521   1.132   2.896  16.254 -0.0445  0.7965  2.2969
 1296SOL    HW215522   1.066   3.012  16.321 -0.4026  0.2840  0.6437
 1297SOL     OW15523   3.073   3.752   1.936  0.0677  0.3766 -0.6501
 1297SOL    HW115524   3.073   3.713   1.849  1.9481  0.6694 -0.7677
 1297SOL    HW215525   3.163   3.782   1.945 -0.0083  0.6129 -0.6746
 1298SOL     OW15526   0.589   1.053   0.710  0.0001 -0.0997 -0.1566
 1298SOL    HW115527   0.582   1.099   0.627  0.4259  0.2417 -0.0055
 1298SOL    HW215528   0.496   1.032   0.721 -0.4634  0.8357 -2.5147
 1299SOL     OW15529   1.134   0.608   3.300  0.3158 -0.0954  0.0779
 1299SOL    HW115530   1.146   0.513   3.303  1.4713  0.0949  1.1817
 1299SOL    HW215531   1.225   0.630   3.279  0.1321 -1.1790 -1.8593
 1300SOL     OW15532   0.934   4.017   2.714 -0.2944 -0.6614  0.2484
 1300SOL    HW115533   0.958   3.986   2.627 -0.6876  0.3121 -0.2075
 1300SOL    HW215534   1.004   4.077   2.740  0.4205 -2.7996  3.2571
 1301SOL     OW15535   4.354   1.868   5.842 -0.2927  0.1811  0.0625
 1301SOL    HW115536   4.405   1.851   5.763  1.0020  2.7212  0.3340
 1301SOL    HW215537   4.336   1.783   5.882  0.0319 -1.1371 -2.5903
 1302SOL     OW15538   1.910   4.456   2.995 -0.3017 -0.2313 -0.1565
 1302SOL    HW115539   1.968   4.474   2.920  2.8096 -1.7407  1.9066
 1302SOL    HW215540   1.950   4.389   3.050 -0.5645 -0.3562 -0.1160
 1303SOL     OW15541   0.686   1.179   1.497 -0.2290 -0.5484 -0.1593
 1303SOL    HW115542   0.778   1.170   1.470 -0.2195  3.2215 -1.4783
 1303SOL    HW215543   0.675   1.106   1.558  1.1868  0.6482  1.5433
 1304SOL     OW15544   2.885   3.533   7.069  0.1366  0.3518  0.4138
 1304SOL    HW115545   2.802   3.515   7.115  0.3262  1.8118  1.3179
 1304SOL    HW215546   2.856   3.518   6.979  0.4512 -0.3794  0.4287
 1305SOL     OW15547   3.621   2.572   6.347  0.2176  0.1582 -0.2078
 1305SOL    HW115548   3.544   2.569   6.404  0.7901  1.3256  0.6170
 1305SOL    HW215549   3.589   2.608   6.264 -0.1683 -1.0662 -0.5863
 1306SOL     OW15550   1.459   3.070   4.920  0.1494 -0.0865  0.0799
 1306SOL    HW115551   1.515   3.127   4.868 -0.2688  0.1125 -0.1457
 1306SOL    HW215552   1.517   3.041   4.991 -1.1967 -2.8833  0.0653
 1307SOL     OW15553   0.209   4.138   9.138  0.6035  0.0637 -0.6723
 1307SOL    HW115554   0.253   4.087   9.207  2.0347 -0.8137 -2.2310
 1307SOL    HW215555   0.123   4.160   9.172  0.8224  0.1261 -0.1602
 1308SOL     OW15556   2.171   1.555   5.547  0.1851  0.0312 -0.6091
 1308SOL    HW115557   2.123   1.473   5.557  1.1286 -0.7573 -2.5430
 1308SOL    HW215558   2.106   1.617   5.512  2.2110  0.5168 -3.4815
 1309SOL     OW15559   1.635   1.971  12.213 -0.1601  0.2622 -0.0466
 1309SOL    HW115560   1.726   1.996  12.195  0.0199 -0.0138  0.4815
 1309SOL    HW215561   1.599   2.059  12.215 -1.2266 -0.1534 -1.4360
 1310SOL     OW15562   3.478   2.575   5.611  0.6416  0.0340  0.4890
 1310SOL    HW115563   3.525   2.524   5.676  0.4078  0.2885  0.8617
 1310SOL    HW215564   3.534   2.571   5.534 -0.3459  0.0021 -0.2315
 1311SOL     OW15565   4.075   2.358  11.651  0.8116 -0.0004  0.5530
 1311SOL    HW115566   4.106   2.282  11.700  0.0232 -0.7702 -0.1546
 1311SOL    HW215567   3.983   2.361  11.676  0.5709  0.3622 -0.3888
 1312SOL     OW15568   3.193   1.638   9.183  0.3776  0.2109 -0.2830
 1312SOL    HW115569   3.264   1.583   9.215  0.9631  0.7452 -0.6594
 1312SOL    HW215570   3.179   1.595   9.098  0.3623 -0.8538  0.2589
 1313SOL     OW15571   2.361   4.666   6.109  0.1751  0.1706  0.1339
 1313SOL    HW115572   2.278   4.625   6.132 -0.8439  1.1115 -1.8657
 1313SOL    HW215573   2.416   4.588   6.109  1.0551  0.7954  1.3071
 1314SOL     OW15574   0.546   2.323   8.595  0.4632 -0.3424 -0.0965
 1314SOL    HW115575   0.478   2.385   8.570 -0.4988 -2.0831 -1.7887
 1314SOL    HW215576   0.572   2.348   8.684 -0.1886 -0.3009  0.0761
 1315SOL     OW15577   0.496   1.407   2.171 -0.1457  0.1492 -0.5616
 1315SOL    HW115578   0.539   1.484   2.208  1.0768 -0.4873 -0.6407
 1315SOL    HW215579   0.419   1.405   2.228 -0.4256  0.9126 -0.9151
 1316SOL     OW15580   4.450   3.351   4.146 -0.2217  0.0242  0.5060
 1316SOL    HW115581   4.485   3.413   4.081 -0.6529 -0.8842 -0.5950
 1316SOL    HW215582   4.399   3.293   4.090  2.4402 -1.3408 -0.5532
 1317SOL     OW15583   2.556   2.494   8.059  0.1942 -0.6944  0.3721
 1317SOL    HW115584   2.645   2.493   8.094 -0.1064 -3.0230  1.0317
 1317SOL    HW215585   2.562   2.587   8.037  0.2877 -0.4690  1.3709
 1318SOL     OW15586   3.620   1.551  10.166  0.4532 -0.2285 -0.0759
 1318SOL    HW115587   3.665   1.467  10.161  0.0245 -0.3722 -1.4074
 1318SOL    HW215588   3.546   1.522  10.219  3.0548 -0.9328  3.2164
 1319SOL     OW15589   0.801   3.370   1.399  0.5783 -0.7439  0.1855
 1319SOL    HW115590   0.862   3.371   1.473  0.8268  0.5867 -0.0201
 1319SOL    HW215591   0.714   3.384   1.436 -0.7146  0.3643 -3.2377
 1320SOL     OW15592   1.810   0.469   2.984  0.4742  0.0793 -0.4170
 1320SOL    HW115593   1.812   0.463   3.080 -1.9644 -0.1929 -0.3645
 1320SOL    HW215594   1.718   0.458   2.959  0.7193  0.5902 -1.5487
 1321SOL     OW15595   2.022   4.272   5.705 -0.6572  0.1582 -0.1116
 1321SOL    HW115596   1.937   4.243   5.739 -0.6379 -0.9819 -1.0380
 1321SOL    HW215597   2.066   4.299   5.785 -2.8937  0.4743  1.0298
 1322SOL     OW15598   2.719   2.482  13.114 -0.2359 -0.1016  0.3922
 1322SOL    HW115599   2.789   2.439  13.065 -0.9968  1.4729 -2.0326
 1322SOL    HW215600   2.723   2.466  13.209  0.1323  0.8665  0.5347
 1323SOL     OW15601   3.117   4.446   8.834  0.0978 -1.1450 -0.5340
 1323SOL    HW115602   3.088   4.456   8.743 -1.4423 -2.0309 -0.1390
 1323SOL    HW215603   3.141   4.536   8.857  1.9099 -1.4904 -1.0909
 1324SOL     OW15604   4.218   1.130  10.407 -0.3173  0.3313  0.3483
 1324SOL    HW115605   4.142   1.169  10.363  0.3312  0.0879 -0.9913
 1324SOL    HW215606   4.230   1.188  10.483  0.3807  2.6182 -1.4889
 1325SOL     OW15607   0.341   0.861   7.181 -0.3618  0.0517  0.1985
 1325SOL    HW115608   0.255   0.818   7.184 -0.5644  0.4484  0.0407
 1325SOL    HW215609   0.336   0.913   7.101 -0.2502  2.2351  1.6009
 1326SOL     OW15610   3.797   0.522   8.226 -0.1759  0.8037 -0.4412
 1326SOL    HW115611   3.732   0.452   8.222 -0.3816  1.1294 -3.1799
 1326SOL    HW215612   3.783   0.556   8.314 -1.3385 -0.1568 -0.2625
 1327SOL     OW15613   4.053   2.476   5.838 -0.3631  0.2618 -0.4797
 1327SOL    HW115614   3.972   2.446   5.879 -0.2398 -0.4371 -0.7480
 1327SOL    HW215615   4.021   2.554   5.793  1.5941  0.8584 -0.8427
 1328SOL     OW15616   1.960   0.157  14.823  0.2917  0.2853  0.1220
 1328SOL    HW115617   1.982   0.072  14.861 -0.3301  1.2243  2.5868
 1328SOL    HW215618   1.977   0.220  14.893  2.1252  1.7483 -1.6348
 1329SOL     OW15619   3.056   2.366   8.122 -0.2652  0.0191  0.4999
 1329SOL    HW115620   2.977   2.348   8.072 -0.5769 -2.6773  1.9394
 1329SOL    HW215621   3.068   2.456   8.092 -0.6857 -0.1713 -0.2352
 1330SOL     OW15622   3.876   3.157   3.893 -0.1328  0.1649 -0.1289
 1330SOL    HW115623   3.957   3.122   3.855 -0.0304 -0.0455  0.2914
 1330SOL    HW215624   3.909   3.174   3.981 -1.0935  2.1543 -0.1430
 1331SOL     OW15625   1.414   2.314   9.447  0.0333  0.3784  0.0547
 1331SOL    HW115626   1.479   2.264   9.397 -0.0535 -0.3857  0.7108
 1331SOL    HW215627   1.420   2.395   9.396  0.6424 -1.1798 -2.3957
 1332SOL     OW15628   4.468   4.087   5.798  0.3264  0.0652 -0.0805
 1332SOL    HW115629   4.492   4.094   5.706  0.7395  1.4320  0.1221
 1332SOL    HW215630   4.380   4.126   5.793 -0.0226 -0.7127  0.0354
 1333SOL     OW15631   0.860   3.410   3.476 -0.0244 -0.2441 -0.0315
 1333SOL    HW115632   0.912   3.359   3.414 -0.7093 -0.5930 -0.3184
 1333SOL    HW215633   0.890   3.378   3.562  1.1164  0.4800 -0.1675
 1334SOL     OW15634   0.551   3.966   1.036 -0.6309 -0.3918 -0.3487
 1334SOL    HW115635   0.476   3.933   0.986 -1.9518  0.4355  1.0609
 1334SOL    HW215636   0.549   4.061   1.021 -1.3929 -0.1722  1.0929
 1335SOL     OW15637   0.001   2.341  16.238 -0.7121  0.3426  0.1774
 1335SOL    HW115638   0.007   2.392  16.158 -2.7299  0.1448 -0.0964
 1335SOL    HW215639   0.005   2.408  16.306  1.9150 -1.2865  1.6570
 1336SOL     OW15640   1.432   4.560   1.928  0.3747  0.5679  0.2197
 1336SOL    HW115641   1.417   4.473   1.891 -1.3415  1.1416 -0.4544
 1336SOL    HW215642   1.367   4.616   1.884 -0.5195  0.0099  0.8265
 1337SOL     OW15643   4.265   0.045   7.759 -0.2634  0.0409  0.6930
 1337SOL    HW115644   4.290   4.715   7.695  1.3985  0.2812  1.0964
 1337SOL    HW215645   4.310   0.012   7.837 -1.5591  0.4612  1.6223
 1338SOL     OW15646   0.248   0.685   4.788 -0.0040  0.2424  0.0369
 1338SOL    HW115647   0.192   0.657   4.861 -1.3067  2.5218 -0.0857
 1338SOL    HW215648   0.251   0.604   4.737  0.5235 -0.2084  0.7923
 1339SOL     OW15649   0.870   2.865   8.927 -0.1771  0.7711  0.0875
 1339SOL    HW115650   0.954   2.898   8.960  0.2595 -0.7467  0.4901
 1339SOL    HW215651   0.903   2.781   8.895  0.3694 -0.1564  3.1324
 1340SOL     OW15652   2.374   3.882   2.611  0.5231  0.8178  0.1269
 1340SOL    HW115653   2.329   3.849   2.688  1.3239 -1.4030 -0.3590
 1340SOL    HW215654   2.306   3.896   2.545  0.3260 -1.9005 -0.2430
 1341SOL     OW15655   0.757   1.924   6.347 -0.0103  0.4566  0.8977
 1341SOL    HW115656   0.847   1.909   6.376 -0.5659 -2.2605  1.2299
 1341SOL    HW215657   0.758   1.977   6.268  3.2592 -0.9383  0.0093
 1342SOL     OW15658   4.584   4.573   5.637  0.0517 -0.6737  0.0027
 1342SOL    HW115659   4.650   4.576   5.707 -0.8248 -0.2314  0.8040
 1342SOL    HW215660   4.599   4.661   5.604 -2.1039 -0.5464 -0.5991
 1343SOL     OW15661   4.140   2.329   7.399 -0.1577  0.5309 -0.4233
 1343SOL    HW115662   4.150   2.419   7.367  0.8656 -0.1134 -1.9183
 1343SOL    HW215663   4.197   2.290   7.333 -0.6976  0.9777 -1.1529
 1344SOL     OW15664   0.075   1.301   5.130 -0.3308  0.4899 -0.0182
 1344SOL    HW115665   0.048   1.255   5.051 -1.6368 -0.2823  0.8661
 1344SOL    HW215666   0.052   1.381   5.082 -0.4459 -0.5274 -1.6615
 1345SOL     OW15667   2.517   3.543   5.574  0.1334 -0.5358  0.0234
 1345SOL    HW115668   2.449   3.582   5.628 -0.3244 -1.5707  0.1777
 1345SOL    HW215669   2.536   3.457   5.610  0.7387 -1.9436 -3.6921
 1346SOL     OW15670   3.727   3.405   9.978 -0.1493 -0.5693 -0.0707
 1346SOL    HW115671   3.782   3.333   9.949  1.7637  0.6641  0.5112
 1346SOL    HW215672   3.790   3.474   9.957 -1.6573  0.2999 -1.7152
 1347SOL     OW15673   2.291   0.327   9.064  0.1365 -0.6601 -0.0513
 1347SOL    HW115674   2.241   0.274   9.002  1.9560 -2.3352 -0.0655
 1347SOL    HW215675   2.379   0.295   9.047 -0.0299 -0.8192 -0.6175
 1348SOL     OW15676   1.951   4.577   4.154  0.2900 -0.1694 -0.0667
 1348SOL    HW115677   1.909   4.613   4.076 -1.8265 -0.1796  1.0489
 1348SOL    HW215678   1.954   4.651   4.214  0.6615  0.6601 -1.1242
 1349SOL     OW15679   3.556   4.166   4.473 -0.0737 -0.8442 -0.3135
 1349SOL    HW115680   3.480   4.201   4.520 -0.9956 -0.1724 -2.3008
 1349SOL    HW215681   3.527   4.186   4.384 -0.3588 -1.0812 -0.2740
 1350SOL     OW15682   1.867   1.459  16.063 -0.0723  0.0074  0.8093
 1350SOL    HW115683   1.927   1.396  16.103  0.5527  1.1420  1.6546
 1350SOL    HW215684   1.896   1.543  16.098  1.0843  0.4692 -1.2269
 1351SOL     OW15685   1.296   3.723  13.939 -0.4774 -0.3176 -0.3448
 1351SOL    HW115686   1.357   3.725  13.865 -1.1412  0.7179 -0.8532
 1351SOL    HW215687   1.221   3.702  13.883  0.6232 -1.4141 -1.4067
 1352SOL     OW15688   0.621   3.640   0.802  0.3953 -0.1675 -0.4262
 1352SOL    HW115689   0.555   3.708   0.818 -0.8113 -2.0130  2.4116
 1352SOL    HW215690   0.586   3.561   0.842 -2.3784  1.2194 -0.0778
 1353SOL     OW15691   3.326   2.555   6.769 -0.2249  0.5363 -0.2570
 1353SOL    HW115692   3.276   2.476   6.749  1.0156 -0.3687  0.2200
 1353SOL    HW215693   3.412   2.531   6.735 -0.7661  0.0440 -1.2912
 1354SOL     OW15694   0.240   3.375   6.894 -0.9117 -0.1315  0.3834
 1354SOL    HW115695   0.294   3.319   6.950 -0.3691  1.8202  1.7918
 1354SOL    HW215696   0.319   3.420   6.863 -0.6860 -1.4778 -0.9736
 1355SOL     OW15697   2.567   1.936   8.876 -0.3380 -0.3551 -0.4570
 1355SOL    HW115698   2.555   1.841   8.883  2.0046 -0.7224 -1.5718
 1355SOL    HW215699   2.627   1.935   8.802  1.6514 -1.9967  1.1442
 1356SOL     OW15700   1.483   2.989   8.005 -0.4386 -0.5028  0.3517
 1356SOL    HW115701   1.407   3.038   7.975  1.1666  2.5912  1.3788
 1356SOL    HW215702   1.526   3.060   8.053 -1.3427 -0.5966  1.3200
 1357SOL     OW15703   2.517   0.626  14.189 -0.2603 -0.0077  0.1874
 1357SOL    HW115704   2.499   0.701  14.246  0.3031  1.0808 -1.0814
 1357SOL    HW215705   2.468   0.554  14.229 -0.0743  0.0020  0.4319
 1358SOL     OW15706   3.179   0.637   8.443 -0.0107 -0.2850 -0.1510
 1358SOL    HW115707   3.200   0.719   8.400 -2.6230  0.3756 -0.1549
 1358SOL    HW215708   3.159   0.673   8.529 -1.5275 -1.5761  0.0504
 1359SOL     OW15709   1.812   0.690  12.402 -0.5289  0.4110  0.3315
 1359SOL    HW115710   1.734   0.737  12.431 -0.6828  0.9651 -0.9605
 1359SOL    HW215711   1.787   0.682  12.310  0.2025 -0.6006  0.2185
 1360SOL     OW15712   0.784   2.515  11.588  0.1385 -0.2936 -0.2849
 1360SOL    HW115713   0.866   2.539  11.545  1.0828 -0.3385  1.4872
 1360SOL    HW215714   0.737   2.595  11.613 -0.1732 -0.7685  0.6341
 1361SOL     OW15715   2.987   3.935   4.734 -0.1085 -0.1608 -0.2834
 1361SOL    HW115716   2.955   3.914   4.822  1.3987  0.8352  0.4892
 1361SOL    HW215717   3.046   3.860   4.719 -1.9053 -1.7201  0.3763
 1362SOL     OW15718   3.650   4.499   5.479  0.4867  0.1943 -0.2465
 1362SOL    HW115719   3.563   4.459   5.486 -0.1042  1.6045  0.3817
 1362SOL    HW215720   3.667   4.505   5.385  0.0687 -1.7742 -0.4607
 1363SOL     OW15721   4.682   0.538  11.981  0.1949 -0.0294  0.6564
 1363SOL    HW115722   4.588   0.526  11.964  0.1136  0.2040  0.9468
 1363SOL    HW215723   4.688   0.607  12.047  0.4810  0.8164 -0.2418
 1364SOL     OW15724   4.645   3.951   1.174 -0.1920  0.0227 -0.2389
 1364SOL    HW115725   4.638   4.024   1.235 -0.7993 -0.1455 -0.0988
 1364SOL    HW215726   4.553   3.927   1.156 -0.1032 -0.4987 -0.0176
 1365SOL     OW15727   0.704   3.347  14.468 -0.2073 -0.7530  0.0300
 1365SOL    HW115728   0.754   3.384  14.395  0.3608 -1.7859 -0.1042
 1365SOL    HW215729   0.755   3.387  14.538  0.5017 -1.9529  0.1944
 1366SOL     OW15730   1.959   1.146   1.742  0.0009  0.2758 -0.1585
 1366SOL    HW115731   2.007   1.064   1.742  1.5667  1.2103 -1.8321
 1366SOL    HW215732   2.015   1.196   1.801  1.6688 -2.7342  0.8068
 1367SOL     OW15733   0.520   1.017   7.628 -0.0054 -0.3748  0.3168
 1367SOL    HW115734   0.459   1.035   7.557 -1.3370 -1.1000  1.3025
 1367SOL    HW215735   0.545   0.929   7.602  0.2659  0.1192 -1.1365
 1368SOL     OW15736   2.244   4.349  11.287 -0.0221 -0.2433  0.0377
 1368SOL    HW115737   2.281   4.316  11.206  1.7868  0.4249  0.5796
 1368SOL    HW215738   2.151   4.332  11.273 -0.5551  3.0346 -0.4454
 1369SOL     OW15739   1.753   3.081   6.819 -0.4529  0.6021 -0.2564
 1369SOL    HW115740   1.840   3.073   6.779  0.5519  2.0037  1.6706
 1369SOL    HW215741   1.778   3.122   6.902 -1.3477  1.8199 -0.5883
 1370SOL     OW15742   0.065   3.568   4.258  0.4399  0.6419  0.2795
 1370SOL    HW115743   0.137   3.593   4.317  0.0544 -2.1100  1.9068
 1370SOL    HW215744   0.015   3.512   4.318 -0.0897 -0.7896 -1.5130
 1371SOL     OW15745   0.461   2.717   3.963 -0.2392  0.1574  0.5235
 1371SOL    HW115746   0.444   2.651   3.896 -1.1767  1.8145 -0.8948
 1371SOL    HW215747   0.370   2.742   3.978  0.4106  3.0373 -0.2784
 1372SOL     OW15748   1.279   1.554  11.144 -0.0741 -0.5727 -0.0476
 1372SOL    HW115749   1.263   1.540  11.051  0.3244  1.1058 -0.3624
 1372SOL    HW215750   1.269   1.468  11.185  0.9545  0.0915  1.6118
 1373SOL     OW15751   2.505   1.739   5.432 -0.5325 -0.4102 -0.7972
 1373SOL    HW115752   2.590   1.750   5.389 -1.1166 -2.6439 -2.5179
 1373SOL    HW215753   2.448   1.718   5.358  0.6509  0.3437 -1.9151
 1374SOL     OW15754   3.056   4.250   2.757 -0.1156 -0.7216 -0.4818
 1374SOL    HW115755   3.046   4.159   2.787 -0.6144 -0.6320 -0.3820
 1374SOL    HW215756   3.145   4.267   2.789 -0.9046  1.3557  0.5525
 1375SOL     OW15757   2.026   4.164  15.507 -0.4035 -0.2705  0.0697
 1375SOL    HW115758   1.960   4.131  15.568 -1.7494  0.4729 -0.9843
 1375SOL    HW215759   1.984   4.155  15.422 -1.2233  0.4655  0.4014
 1376SOL     OW15760   1.340   2.716   3.877 -0.2159 -0.0652  0.3822
 1376SOL    HW115761   1.388   2.718   3.795 -2.4253  0.7429 -0.8841
 1376SOL    HW215762   1.406   2.680   3.937  0.7684 -0.1838 -0.7789
 1377SOL     OW15763   1.643   3.136   1.829 -0.3568  1.0181 -0.0606
 1377SOL    HW115764   1.694   3.056   1.814  0.6169  2.1687 -2.8243
 1377SOL    HW215765   1.553   3.126   1.797 -0.1798 -2.9121  0.6198
 1378SOL     OW15766   2.566   1.163   7.613  0.5208  0.0229  0.2794
 1378SOL    HW115767   2.558   1.102   7.686  0.6838 -0.6039 -0.2235
 1378SOL    HW215768   2.477   1.199   7.613 -1.2666 -4.3979  1.0221
 1379SOL     OW15769   3.046   3.567  14.528  0.2167  0.0633  0.1026
 1379SOL    HW115770   3.049   3.473  14.550  0.0628 -0.2456 -1.1996
 1379SOL    HW215771   3.015   3.557  14.438 -0.5990 -0.8768  0.4818
 1380SOL     OW15772   0.346   3.590  12.560 -0.5377 -0.6961 -0.3865
 1380SOL    HW115773   0.251   3.592  12.571 -0.5071  0.8132 -0.3967
 1380SOL    HW215774   0.353   3.572  12.467 -0.8625  1.6375 -0.8532
 1381SOL     OW15775   2.151   1.856  11.023  0.4283 -0.4163  0.6911
 1381SOL    HW115776   2.215   1.918  10.989 -1.2336  1.0443  0.2303
 1381SOL    HW215777   2.090   1.921  11.059 -0.9465 -2.2547  1.6516
 1382SOL     OW15778   3.883   2.849   5.466 -0.0826  0.3328 -0.1373
 1382SOL    HW115779   3.801   2.815   5.503  0.8924  0.4714  2.1573
 1382SOL    HW215780   3.844   2.926   5.424 -0.2546  0.1907 -0.2349
 1383SOL     OW15781   1.255   0.297   3.791  0.0418 -0.0334 -0.4690
 1383SOL    HW115782   1.214   0.279   3.875  0.8435 -0.0498 -0.0757
 1383SOL    HW215783   1.329   0.237   3.797 -1.1250 -1.6413 -2.3636
 1384SOL     OW15784   0.041   2.170   6.046  0.0152  0.4335 -0.5096
 1384SOL    HW115785   0.086   2.089   6.070 -0.0620 -0.3479 -2.9033
 1384SOL    HW215786   4.690   2.134   6.052 -0.6189  2.0223 -0.2877
 1385SOL     OW15787   0.351   3.825   5.294  0.3314  0.0805 -0.3304
 1385SOL    HW115788   0.286   3.883   5.255  1.6348  0.6361 -1.6408
 1385SOL    HW215789   0.430   3.875   5.273  0.6435 -0.6879 -0.9981
 1386SOL     OW15790   2.543   0.754   4.998 -0.4627  0.1845  0.6376
 1386SOL    HW115791   2.453   0.773   4.974 -0.5250  0.1421  0.8390
 1386SOL    HW215792   2.593   0.788   4.923 -1.9640 -2.3653 -1.5383
 1387SOL     OW15793   0.086   1.820  15.894 -0.3919 -0.3239  0.4083
 1387SOL    HW115794   0.115   1.735  15.930  2.1041 -0.4663 -1.8585
 1387SOL    HW215795   0.151   1.877  15.935 -0.6685  1.1450 -1.2067
 1388SOL     OW15796   2.678   1.676   7.809  0.5441  0.3865 -0.1425
 1388SOL    HW115797   2.650   1.659   7.719  1.0072 -2.3346  0.2139
 1388SOL    HW215798   2.697   1.588   7.841  2.4240  1.3239  1.3096
 1389SOL     OW15799   1.005   2.675   8.462  0.2873  0.0811 -0.3557
 1389SOL    HW115800   1.064   2.716   8.399 -1.1386  2.2463 -0.2838
 1389SOL    HW215801   1.001   2.585   8.429  0.9366 -0.3703  0.7843
 1390SOL     OW15802   1.939   0.018   8.695 -0.8466 -0.0913 -0.2132
 1390SOL    HW115803   2.002   0.024   8.767 -1.3582  0.7286  0.1779
 1390SOL    HW215804   1.896   4.672   8.712  1.3093 -1.2392 -0.4661
 1391SOL     OW15805   1.089   1.853   7.461 -0.1589 -0.3297  0.4414
 1391SOL    HW115806   1.130   1.863   7.375 -1.5215  2.4371  0.1158
 1391SOL    HW215807   1.042   1.770   7.455  0.9085 -1.0066  1.5873
 1392SOL     OW15808   2.817   4.238   1.540  0.3822 -0.3659 -0.4252
 1392SOL    HW115809   2.722   4.232   1.530  0.4351 -1.1142 -0.4114
 1392SOL    HW215810   2.829   4.286   1.622 -2.0555 -1.3225  0.4723
 1393SOL     OW15811   2.832   2.841  12.033 -0.1778 -0.8296 -0.5173
 1393SOL    HW115812   2.823   2.867  11.941 -1.2739  0.6247  0.0125
 1393SOL    HW215813   2.832   2.745  12.033  1.0481 -0.8232  1.0001
 1394SOL     OW15814   0.909   0.008   5.513 -0.7075 -0.3803  0.0620
 1394SOL    HW115815   1.005   0.017   5.514 -0.6730 -0.4857 -1.3269
 1394SOL    HW215816   0.893   0.080   5.452  2.7381 -0.6557 -1.1949
 1395SOL     OW15817   2.207   3.110  17.148 -0.2414 -0.0949 -0.3043
 1395SOL    HW115818   2.300   3.108  17.122 -0.1801 -0.6010 -0.0330
 1395SOL    HW215819   2.160   3.127  17.066 -0.6800  0.4679  0.0681
 1396SOL     OW15820   3.377   4.282   5.146  0.5980 -0.9285 -0.0167
 1396SOL    HW115821   3.326   4.219   5.197 -1.7751  2.2038  1.4934
 1396SOL    HW215822   3.461   4.246   5.174  1.1854 -0.0576 -0.6912
 1397SOL     OW15823   4.217   0.588   5.056 -0.1893  0.4344 -0.3083
 1397SOL    HW115824   4.174   0.538   4.987  0.4135 -1.5109  0.7262
 1397SOL    HW215825   4.205   0.679   5.030 -1.5435  0.7570  1.4811
 1398SOL     OW15826   3.311   0.215   4.547  0.1831 -0.0421  0.2889
 1398SOL    HW115827   3.364   0.180   4.476 -1.6098  1.4783 -1.7950
 1398SOL    HW215828   3.288   0.299   4.507  1.3513 -0.6964 -1.7341
 1399SOL     OW15829   0.713   3.375   5.407 -1.2074  0.0489 -0.4148
 1399SOL    HW115830   0.796   3.356   5.451 -1.9574  1.0627  1.4525
 1399SOL    HW215831   0.710   3.471   5.399 -0.3378  0.1110  0.0237
 1400SOL     OW15832   1.494   1.562   8.352 -0.2743  0.1605  0.0459
 1400SOL    HW115833   1.473   1.489   8.294 -0.0014 -1.9304  2.5685
 1400SOL    HW215834   1.498   1.635   8.291  0.6434  0.3140  0.2792
 1401SOL     OW15835   2.407   1.279   7.897 -0.1821 -0.2854 -0.1373
 1401SOL    HW115836   2.335   1.246   7.844 -1.5845 -1.0222  2.2228
 1401SOL    HW215837   2.453   1.196   7.911  0.0028  0.1507  1.8803
 1402SOL     OW15838   0.795   0.768   7.543  0.2823  0.1601  0.3601
 1402SOL    HW115839   0.700   0.756   7.538  0.3435  0.0303 -0.6852
 1402SOL    HW215840   0.825   0.677   7.551  0.5002  0.3698  1.8252
 1403SOL     OW15841   3.357   2.988   5.305  0.8265  0.0032 -0.3419
 1403SOL    HW115842   3.375   2.929   5.379  0.1163 -0.5708 -0.6355
 1403SOL    HW215843   3.441   2.989   5.259  1.1058  0.9317  0.2004
 1404SOL     OW15844   2.312   0.728   2.693 -0.5357 -0.0769 -0.3877
 1404SOL    HW115845   2.382   0.689   2.743  0.8656  0.6367 -1.7825
 1404SOL    HW215846   2.231   0.699   2.734  0.2314 -0.4527  0.8453
 1405SOL     OW15847   3.599   3.683   2.280 -0.4445  0.3033 -0.0638
 1405SOL    HW115848   3.539   3.609   2.286  1.6611 -1.5296 -1.6373
 1405SOL    HW215849   3.651   3.656   2.356 -1.1297 -0.0135  0.2925
 1406SOL     OW15850   0.611   3.708   9.277 -0.2231 -0.3402  0.0575
 1406SOL    HW115851   0.669   3.677   9.207 -0.3623 -0.5164  0.0213
 1406SOL    HW215852   0.670   3.684   9.349  0.0019 -1.9317 -0.6477
 1407SOL     OW15853   2.706   4.221   9.324 -0.0842 -0.3869  1.3418
 1407SOL    HW115854   2.780   4.272   9.290 -1.5622  0.3364 -0.7896
 1407SOL    HW215855   2.634   4.264   9.278 -1.0345 -3.2931  0.0428
 1408SOL     OW15856   1.380   2.549   8.927  0.0851  0.0796 -0.3889
 1408SOL    HW115857   1.302   2.592   8.891 -0.8645 -0.7900  0.6323
 1408SOL    HW215858   1.441   2.623   8.926  0.5569 -0.3290 -1.2425
 1409SOL     OW15859   3.454   2.926   9.364 -0.4463 -0.2907  0.5484
 1409SOL    HW115860   3.370   2.882   9.373 -0.1769 -1.6105 -3.3496
 1409SOL    HW215861   3.490   2.895   9.447 -1.2699 -2.6351  0.0173
 1410SOL     OW15862   4.327   4.040   6.995 -0.0278  0.2982 -0.0745
 1410SOL    HW115863   4.393   3.970   6.998 -2.4290 -1.9713  0.0344
 1410SOL    HW215864   4.315   4.034   6.900  2.4086 -2.8123 -0.2043
 1411SOL     OW15865   4.234   2.062  17.586  0.5008 -0.5058  0.3164
 1411SOL    HW115866   4.295   2.098  17.649  0.8450  1.3659 -1.0857
 1411SOL    HW215867   4.203   1.988  17.639 -0.5789 -0.5739 -0.4034
 1412SOL     OW15868   2.219   3.592   7.726  0.0160 -0.0838  0.0877
 1412SOL    HW115869   2.124   3.596   7.710  0.1109 -2.7208 -1.0905
 1412SOL    HW215870   2.251   3.599   7.636  0.2097 -4.3939 -0.1537
 1413SOL     OW15871   2.688   0.410   0.983  0.2569 -0.1904 -0.3396
 1413SOL    HW115872   2.709   0.479   1.046 -1.0884  0.4858 -0.6217
 1413SOL    HW215873   2.595   0.398   1.002 -0.4800  1.6355 -2.8020
 1414SOL     OW15874   4.165   4.579   9.105  0.3245  0.1541  0.4333
 1414SOL    HW115875   4.105   4.645   9.137  0.0605  0.5400 -0.8394
 1414SOL    HW215876   4.143   4.503   9.159 -0.6585  0.4150  0.4034
 1415SOL     OW15877   1.955   4.471   1.435 -0.4531 -0.1148 -0.1506
 1415SOL    HW115878   2.020   4.463   1.365 -0.3898  0.4964 -0.1656
 1415SOL    HW215879   1.946   4.566   1.434 -0.9784 -0.1745 -0.7416
 1416SOL     OW15880   4.486   1.316   7.199 -0.0827  0.5393  0.5487
 1416SOL    HW115881   4.503   1.227   7.168  0.2865  0.5304  0.7777
 1416SOL    HW215882   4.554   1.361   7.147  2.2057 -0.7942  2.3897
 1417SOL     OW15883   0.813   2.017   7.413  0.8529 -0.6531 -0.3245
 1417SOL    HW115884   0.851   1.956   7.477  1.3582 -0.1346 -0.1271
 1417SOL    HW215885   0.850   2.098   7.447  0.4774 -0.1298 -1.1683
 1418SOL     OW15886   1.680   0.560  11.783 -0.2721 -0.0512 -0.6238
 1418SOL    HW115887   1.615   0.612  11.736 -1.7081 -1.1886  0.0959
 1418SOL    HW215888   1.607   0.502  11.804  0.6697 -0.8248  0.4976
 1419SOL     OW15889   2.501   4.625   2.701 -0.0981  0.3083 -0.1289
 1419SOL    HW115890   2.464   4.546   2.741 -0.4189  0.1811 -0.6787
 1419SOL    HW215891   2.435   4.664   2.644  0.5860  0.7987 -0.5870
 1420SOL     OW15892   4.392   1.355   8.149  0.4581 -0.4725  0.7422
 1420SOL    HW115893   4.402   1.276   8.202 -1.0057 -0.1009  1.5749
 1420SOL    HW215894   4.306   1.388   8.174 -0.8191 -1.7692 -2.0275
 1421SOL     OW15895   0.770   3.989   3.451  0.0804  0.3189  0.3124
 1421SOL    HW115896   0.789   3.948   3.367  1.7258  2.2964 -0.2893
 1421SOL    HW215897   0.783   3.913   3.507  2.2029 -0.0679 -0.7320
 1422SOL     OW15898   1.984   0.917   2.284  0.1916 -0.3224 -0.2542
 1422SOL    HW115899   2.022   0.952   2.365 -0.9678 -2.2511  1.1431
 1422SOL    HW215900   1.957   1.001   2.248  0.1297  0.3845  1.4326
 1423SOL     OW15901   3.886   0.536  13.850 -0.2821 -0.3905  0.2813
 1423SOL    HW115902   3.840   0.453  13.845 -0.7579 -0.1367  0.4093
 1423SOL    HW215903   3.896   0.559  13.757  1.2150 -0.7963  0.3381
 1424SOL     OW15904   1.410   3.346  12.638 -0.3738 -0.7796 -0.2225
 1424SOL    HW115905   1.379   3.353  12.728 -1.2610  3.9124 -0.9092
 1424SOL    HW215906   1.485   3.406  12.643 -1.8273  0.7497  3.0604
 1425SOL     OW15907   1.548   0.896   6.837 -0.6828 -0.3994 -0.5450
 1425SOL    HW115908   1.470   0.951   6.834  0.0952  0.6844 -0.8256
 1425SOL    HW215909   1.559   0.897   6.742  1.1197 -2.7935 -0.3447
 1426SOL     OW15910   1.284   1.310   0.964 -0.0638 -0.2158 -0.4751
 1426SOL    HW115911   1.323   1.364   0.895  1.3343  1.4042  1.5777
 1426SOL    HW215912   1.213   1.274   0.912 -1.7523 -0.3192  1.9145
 1427SOL     OW15913   1.975   4.156  10.506  0.2048  0.3289 -0.5642
 1427SOL    HW115914   1.893   4.194  10.476 -2.2947 -1.9148  3.4229
 1427SOL    HW215915   2.034   4.175  10.433 -1.1461  0.6974 -1.5539
 1428SOL     OW15916   1.838   3.217   5.720 -0.1952  0.5832  0.1090
 1428SOL    HW115917   1.906   3.181   5.777 -2.7510 -1.2156  2.0008
 1428SOL    HW215918   1.807   3.278   5.786  1.5012  0.8646  0.6347
 1429SOL     OW15919   1.179   4.687   4.054 -0.0752 -0.7189  0.1043
 1429SOL    HW115920   1.274   4.685   4.041 -0.4245 -1.8078 -2.2547
 1429SOL    HW215921   1.154   4.698   3.962  0.8363  2.4625  0.2443
 1430SOL     OW15922   1.316   1.786   5.259  0.3708 -0.3306 -0.6940
 1430SOL    HW115923   1.333   1.866   5.209 -1.1589  0.5491  0.1893
 1430SOL    HW215924   1.221   1.799   5.265  0.6465  1.0946  0.6164
 1431SOL     OW15925   4.013   0.559   1.336  0.1647 -0.0740  0.2319
 1431SOL    HW115926   4.026   0.546   1.243 -1.9507 -1.0728  0.0588
 1431SOL    HW215927   3.988   0.651   1.330 -0.1730 -0.1366  0.6245
 1432SOL     OW15928   1.073   0.207   4.839 -0.4168  0.0222 -0.5057
 1432SOL    HW115929   1.152   0.170   4.878 -1.5724  0.5498  2.3120
 1432SOL    HW215930   1.077   0.294   4.879 -3.0013  0.8240 -1.9757
 1433SOL     OW15931   3.674   0.466   4.848  0.3158 -0.6999  0.3603
 1433SOL    HW115932   3.626   0.478   4.930 -0.0710 -3.1840  0.4753
 1433SOL    HW215933   3.750   0.522   4.866  0.6660 -1.2232  0.5074
 1434SOL     OW15934   1.929   3.866   9.401 -0.2878  0.4243 -0.3671
 1434SOL    HW115935   1.910   3.797   9.465  0.3607 -2.1663 -2.9792
 1434SOL    HW215936   2.025   3.870   9.397 -0.3150 -0.3146 -1.5045
 1435SOL     OW15937   0.729   3.628   6.310 -0.1060 -0.2276  0.4361
 1435SOL    HW115938   0.639   3.652   6.334 -0.0619 -0.2438  0.6174
 1435SOL    HW215939   0.767   3.627   6.398  0.4714 -0.2574  0.1851
 1436SOL     OW15940   1.913   2.649   1.539 -0.3899 -0.3639 -0.3867
 1436SOL    HW115941   1.842   2.628   1.599 -0.2063 -3.3560 -1.2227
 1436SOL    HW215942   1.880   2.601   1.463  0.2360  1.4360 -1.7918
 1437SOL     OW15943   0.532   2.725  11.111  0.3032  0.4813 -0.0483
 1437SOL    HW115944   0.487   2.804  11.140 -0.6374  0.2062 -0.7627
 1437SOL    HW215945   0.610   2.736  11.165  1.4699 -0.0711 -1.6201
 1438SOL     OW15946   1.396   1.942   8.530  0.5806 -0.1847  0.5351
 1438SOL    HW115947   1.455   1.935   8.455  0.1143  1.8546 -0.0042
 1438SOL    HW215948   1.421   1.863   8.579  0.0944  0.4695  1.8359
 1439SOL     OW15949   4.353   0.667   8.411  0.5957 -0.1704  0.8590
 1439SOL    HW115950   4.265   0.629   8.419  0.4052 -0.0598 -0.7438
 1439SOL    HW215951   4.397   0.608   8.350  0.1748 -1.8353  2.1442
 1440SOL     OW15952   1.883   4.701   6.088 -0.4444 -0.0850  0.2193
 1440SOL    HW115953   1.805   4.679   6.140 -0.8785 -0.5140 -0.6246
 1440SOL    HW215954   1.853   4.667   6.004 -3.0133 -0.0859  1.1020
 1441SOL     OW15955   1.928   3.081   7.410 -0.2067  0.1189 -0.0206
 1441SOL    HW115956   2.001   3.040   7.458 -0.0646  0.3789 -0.0152
 1441SOL    HW215957   1.963   3.168   7.389 -0.9302 -0.2190 -2.6132
 1442SOL     OW15958   1.093   2.546   2.081 -0.1445  0.3225 -0.3463
 1442SOL    HW115959   1.004   2.568   2.051 -1.3430 -0.5419  2.6433
 1442SOL    HW215960   1.087   2.533   2.175  0.5344 -2.8689 -0.7561
 1443SOL     OW15961   4.173   1.816   3.953  0.1662  0.7424 -0.0753
 1443SOL    HW115962   4.247   1.806   4.013  0.4888 -1.2666 -0.8191
 1443SOL    HW215963   4.169   1.725   3.924  0.7758  1.1185 -1.3821
 1444SOL     OW15964   3.621   3.740   5.942 -0.2548 -0.5571  0.0781
 1444SOL    HW115965   3.604   3.818   5.995 -0.3019  0.1174 -0.9413
 1444SOL    HW215966   3.548   3.681   5.957  0.8687 -1.1024  3.6872
 1445SOL     OW15967   0.780   3.674   8.610  0.6770 -0.1340 -0.0694
 1445SOL    HW115968   0.844   3.629   8.666  1.5664  1.3656  0.1291
 1445SOL    HW215969   0.774   3.615   8.535 -1.1025 -0.2605  0.1928
 1446SOL     OW15970   2.754   0.925   2.676  0.1218  0.4411 -0.1436
 1446SOL    HW115971   2.679   0.985   2.682  0.3830  0.7884 -0.3695
 1446SOL    HW215972   2.736   0.859   2.742 -0.8850  2.3308  1.4841
 1447SOL     OW15973   4.364   0.416  16.143  0.7394 -0.1987  0.1128
 1447SOL    HW115974   4.443   0.426  16.089  0.1011 -0.5638 -0.8944
 1447SOL    HW215975   4.335   0.328  16.118  1.1397 -0.8824  2.0224
 1448SOL     OW15976   1.292   1.473   1.985  0.1400 -0.5446 -0.1627
 1448SOL    HW115977   1.352   1.546   1.968 -1.5270  0.8768  0.0352
 1448SOL    HW215978   1.269   1.441   1.898  1.4457 -0.1824 -0.6391
 1449SOL     OW15979   4.550   1.656   5.105  0.5868 -0.2247 -0.3941
 1449SOL    HW115980   4.498   1.687   5.031 -3.1637  1.3466  2.8897
 1449SOL    HW215981   4.511   1.706   5.177 -0.6243 -2.1755  0.2863
 1450SOL     OW15982   1.642   4.438  12.001 -0.3977 -0.3949 -0.1267
 1450SOL    HW115983   1.574   4.418  11.937 -0.8432  2.7534 -0.5968
 1450SOL    HW215984   1.708   4.495  11.963  0.3773 -2.0518 -1.2767
 1451SOL     OW15985   0.408   3.320   1.544 -0.2878  0.4331  0.1131
 1451SOL    HW115986   0.329   3.373   1.532 -0.4440  0.0607 -0.5497
 1451SOL    HW215987   0.478   3.384   1.533 -1.1227  1.1958 -0.7566
 1452SOL     OW15988   2.279   2.141  16.234 -0.4553 -0.3063 -0.2193
 1452SOL    HW115989   2.311   2.098  16.313 -0.5257 -0.8689 -0.4969
 1452SOL    HW215990   2.324   2.226  16.239  0.2065 -0.6862  0.2169
 1453SOL     OW15991   0.206   3.861  14.766  0.1139 -0.0502  0.0803
 1453SOL    HW115992   0.273   3.924  14.792 -1.4165  1.4561  0.4007
 1453SOL    HW215993   0.143   3.923  14.729  1.5794  1.9624  0.9233
 1454SOL     OW15994   4.626   4.585   9.107 -0.3311 -0.6204 -0.1425
 1454SOL    HW115995   4.671   4.648   9.051  2.3271 -1.5171  0.9891
 1454SOL    HW215996   4.697   4.550   9.162 -1.0720 -2.1525 -0.1746
 1455SOL     OW15997   1.344   0.895   3.063 -0.4509  0.3910 -0.9048
 1455SOL    HW115998   1.382   0.981   3.046  0.6196  0.5768  2.3942
 1455SOL    HW215999   1.272   0.915   3.123  1.1319  1.0102  0.7905
 1456SOL     OW16000   3.179   0.522   1.785 -0.2294  0.2832  0.1633
 1456SOL    HW116001   3.199   0.490   1.697  1.4561 -1.0254  1.0170
 1456SOL    HW216002   3.083   0.518   1.787 -0.2351  0.1942 -0.3599
 1457SOL     OW16003   4.466   1.269   9.765 -0.0480  0.6304  0.3863
 1457SOL    HW116004   4.399   1.260   9.833  0.8574  0.3904  1.2464
 1457SOL    HW216005   4.505   1.182   9.771  1.5517  1.2212 -1.1892
 1458SOL     OW16006   2.899   1.585   8.699 -1.2049  0.3590  0.8626
 1458SOL    HW116007   2.849   1.504   8.704 -2.4290  1.0543 -0.1990
 1458SOL    HW216008   2.898   1.603   8.605  0.0284 -1.8360  0.4301
 1459SOL     OW16009   3.277   1.230   6.858  0.2768  0.0279 -0.2985
 1459SOL    HW116010   3.284   1.318   6.897  2.3803 -0.5429  0.6405
 1459SOL    HW216011   3.197   1.242   6.807  0.8410 -2.3330 -1.7151
 1460SOL     OW16012   3.799   2.778   4.283  0.2067  0.1945 -0.9050
 1460SOL    HW116013   3.802   2.812   4.194  1.1902  1.8882 -0.2208
 1460SOL    HW216014   3.866   2.823   4.334  1.1416 -1.1734 -0.9389
 1461SOL     OW16015   0.092   1.411   3.482  0.5457  0.4293  0.1530
 1461SOL    HW116016   0.092   1.337   3.544  0.8760  0.8559  0.6694
 1461SOL    HW216017   4.737   1.433   3.488  0.1722 -1.4211  1.1755
 1462SOL     OW16018   3.550   0.745  16.776  0.1793 -0.0682  0.3639
 1462SOL    HW116019   3.563   0.749  16.681 -4.4864 -0.9452 -0.3424
 1462SOL    HW216020   3.514   0.657  16.784  2.6065 -0.8968  1.9896
 1463SOL     OW16021   0.231   3.786   7.596  0.0805  0.0839  0.1903
 1463SOL    HW116022   0.283   3.710   7.570  0.2664  0.6181 -0.9924
 1463SOL    HW216023   0.293   3.858   7.585 -1.4083  1.0225 -1.9556
 1464SOL     OW16024   3.032   0.106   4.528 -0.0694  0.9171  0.4796
 1464SOL    HW116025   3.122   0.139   4.537  0.4382 -0.2562 -0.3371
 1464SOL    HW216026   3.050   0.013   4.538  2.2431  1.4256  0.9731
 1465SOL     OW16027   0.606   0.256   5.187  0.6141 -0.1066  0.4594
 1465SOL    HW116028   0.608   0.352   5.186  1.4236 -0.1372 -1.0649
 1465SOL    HW216029   0.664   0.245   5.111  0.9280 -1.0511  0.8459
 1466SOL     OW16030   4.136   2.691   5.980  0.1577 -0.1665  0.7394
 1466SOL    HW116031   4.108   2.620   5.922  1.1261 -1.4006  1.7831
 1466SOL    HW216032   4.161   2.761   5.919  0.2901 -0.8995 -0.0421
 1467SOL     OW16033   0.613   3.852   7.212 -0.0295 -0.0899  0.3889
 1467SOL    HW116034   0.654   3.802   7.283  0.6960  0.1612  0.1476
 1467SOL    HW216035   0.562   3.924   7.249 -1.4556 -0.4305 -0.9516
 1468SOL     OW16036   2.613   0.806  15.741 -0.2226  0.0005 -0.2969
 1468SOL    HW116037   2.590   0.823  15.650  1.8764  0.6177 -0.7113
 1468SOL    HW216038   2.609   0.898  15.769 -0.9661  0.1429 -0.8748
 1469SOL     OW16039   3.132   0.741   4.321 -0.2476 -0.0923 -0.2881
 1469SOL    HW116040   3.146   0.809   4.387  1.1656  1.3938 -2.1287
 1469SOL    HW216041   3.037   0.739   4.310 -0.5180  1.4369  1.7399
 1470SOL     OW16042   3.227   4.515  11.872 -0.4919 -0.6508  0.3686
 1470SOL    HW116043   3.263   4.547  11.955  0.1366 -0.2009 -0.0790
 1470SOL    HW216044   3.279   4.572  11.816  1.5688 -2.2295  0.6539
 1471SOL     OW16045   0.411   0.395   7.397  0.1150 -0.1583 -0.4267
 1471SOL    HW116046   0.375   0.431   7.478 -0.7087 -1.7890 -0.0643
 1471SOL    HW216047   0.500   0.370   7.423  0.5208  2.1802  0.4887
 1472SOL     OW16048   3.791   2.411   3.373 -0.1577  0.4005  0.2096
 1472SOL    HW116049   3.841   2.341   3.416  1.3034  0.0401 -2.0626
 1472SOL    HW216050   3.863   2.455   3.327 -0.7435  1.0626 -0.0752
 1473SOL     OW16051   0.649   3.402   8.901  0.4791  0.4798 -0.1963
 1473SOL    HW116052   0.710   3.328   8.904 -0.5906 -0.4973 -2.5358
 1473SOL    HW216053   0.622   3.418   8.992  0.0616 -3.1045  0.3202
 1474SOL     OW16054   1.092   2.042   6.466  0.2867 -0.0161 -0.5488
 1474SOL    HW116055   1.085   2.121   6.413 -0.2044 -0.5211 -1.2233
 1474SOL    HW216056   1.034   2.071   6.536  0.7719  0.3185 -0.2799
 1475SOL     OW16057   3.263   3.302   4.646  0.3745  0.4418  0.1669
 1475SOL    HW116058   3.206   3.286   4.721  0.0662 -1.6071 -0.5004
 1475SOL    HW216059   3.257   3.397   4.641 -2.4576  0.3543  2.2701
 1476SOL     OW16060   3.173   1.440   8.882 -0.1778  0.2354  0.5305
 1476SOL    HW116061   3.095   1.493   8.869 -0.5344 -0.8726 -1.9509
 1476SOL    HW216062   3.233   1.473   8.815 -1.8228 -0.4635 -1.2777
 1477SOL     OW16063   4.610   2.877   6.045 -0.1753 -0.6118 -0.1563
 1477SOL    HW116064   4.546   2.942   6.073 -2.0192 -2.1075 -0.9320
 1477SOL    HW216065   4.661   2.925   5.979 -1.1071 -1.6270 -1.6105
 1478SOL     OW16066   0.196   2.526  17.242  0.5124  0.2820  0.1301
 1478SOL    HW116067   0.193   2.602  17.183  0.6483 -0.1419 -0.4238
 1478SOL    HW216068   0.152   2.552  17.323 -1.6362 -1.9563 -0.3149
 1479SOL     OW16069   4.675   1.042   2.041  0.3192  0.3020 -0.1280
 1479SOL    HW116070   4.642   1.000   2.121 -0.7366 -1.0496 -1.2950
 1479SOL    HW216071   0.003   1.104   2.073  2.0184 -0.4208 -2.2058
 1480SOL     OW16072   1.117   3.283   5.279  0.2761  0.7572 -0.1605
 1480SOL    HW116073   1.047   3.218   5.275  2.0257 -1.1461  0.1618
 1480SOL    HW216074   1.132   3.274   5.373  2.3383  1.9790 -0.3766
 1481SOL     OW16075   3.288   0.979   1.156 -0.1308  0.0314 -0.2607
 1481SOL    HW116076   3.240   1.014   1.081  1.1313  0.5076 -0.8466
 1481SOL    HW216077   3.233   0.903   1.176  1.1331 -1.4173 -2.2373
 1482SOL     OW16078   0.731   2.791  11.356 -0.2703  0.2042 -0.7837
 1482SOL    HW116079   0.773   2.875  11.371  1.2254 -1.3104  3.3817
 1482SOL    HW216080   0.698   2.769  11.443  0.7548  0.9748 -0.2043
 1483SOL     OW16081   1.080   1.856   3.118  0.1398  0.4078 -0.0925
 1483SOL    HW116082   1.176   1.858   3.112  0.0770 -0.5653 -1.5798
 1483SOL    HW216083   1.076   1.835   3.211  1.7056 -0.0672 -0.1308
 1484SOL     OW16084   3.547   3.273   7.040  0.1309  0.5446 -0.4020
 1484SOL    HW116085   3.496   3.293   7.119 -0.1220 -1.1047 -0.1569
 1484SOL    HW216086   3.601   3.200   7.069 -0.4312  0.0085 -0.7072
 1485SOL     OW16087   1.511   3.553  12.777 -0.5467 -0.5356  0.1241
 1485SOL    HW116088   1.561   3.628  12.744  0.5123 -0.1771  2.6020
 1485SOL    HW216089   1.421   3.585  12.765 -1.0161 -1.6008  0.8373
 1486SOL     OW16090   0.614   4.655  12.185 -0.3058  0.6605  0.4425
 1486SOL    HW116091   0.631   4.711  12.109 -1.0194  0.2070 -0.0527
 1486SOL    HW216092   0.695   4.660  12.236  0.7164  1.1078 -1.2017
 1487SOL     OW16093   0.742   0.793   7.857  0.1175 -0.0731 -0.0523
 1487SOL    HW116094   0.815   0.825   7.805 -0.7819  0.1434 -1.1688
 1487SOL    HW216095   0.767   0.843   7.934  2.0623 -0.5469 -0.3668
 1488SOL     OW16096   0.068   3.030   3.705 -0.2756 -0.0549 -0.0500
 1488SOL    HW116097   0.000   3.061   3.644 -0.5603  0.6293  0.6109
 1488SOL    HW216098   0.132   2.988   3.648  1.1102  1.5661  0.3096
 1489SOL     OW16099   2.022   4.210   6.890 -0.1324  0.0215  0.0509
 1489SOL    HW116100   1.970   4.169   6.821 -1.1625 -0.0447  0.8580
 1489SOL    HW216101   1.959   4.260   6.943 -1.4156  0.3155 -1.7782
 1490SOL     OW16102   2.313   1.037  15.565 -0.2536 -0.2588 -0.3095
 1490SOL    HW116103   2.403   1.028  15.595 -0.7039 -1.1897  0.7696
 1490SOL    HW216104   2.263   1.028  15.646  0.6041  2.0200  0.4630
 1491SOL     OW16105   0.224   3.666   6.835 -0.3505 -0.2720  0.2722
 1491SOL    HW116106   0.291   3.712   6.886 -0.2720 -1.4208  1.2109
 1491SOL    HW216107   0.181   3.623   6.909  1.0292 -0.8159  0.7791
 1492SOL     OW16108   1.514   1.748  11.809 -0.4724 -0.2890  0.6804
 1492SOL    HW116109   1.495   1.840  11.828  1.3302 -0.3097  2.5309
 1492SOL    HW216110   1.433   1.721  11.853 -1.5949  1.6770 -0.1742
 1493SOL     OW16111   1.063   0.145  15.084 -1.0690  0.1852 -0.4767
 1493SOL    HW116112   1.090   0.054  15.072  1.5041  1.0223 -0.8898
 1493SOL    HW216113   1.101   0.189  15.008  0.2995  2.0151  1.2552
 1494SOL     OW16114   3.084   2.836   5.105  0.7351 -0.6901 -0.5365
 1494SOL    HW116115   3.157   2.878   5.150  0.6780 -0.7748 -0.3674
 1494SOL    HW216116   3.009   2.893   5.122  0.8168 -0.0959 -2.0708
 1495SOL     OW16117   2.886   2.275   1.137 -0.5778  0.0786  0.1724
 1495SOL    HW116118   2.804   2.274   1.185 -0.9731 -0.7918 -0.5268
 1495SOL    HW216119   2.918   2.185   1.142 -0.9459 -0.0513  0.1270
 1496SOL     OW16120   1.702   1.679  16.243  0.0796 -0.3852  0.7122
 1496SOL    HW116121   1.734   1.697  16.331 -2.6204  1.9547  1.2287
 1496SOL    HW216122   1.783   1.682  16.193 -1.0951 -0.0905 -1.1871
 1497SOL     OW16123   0.545   3.467   4.857 -0.4777  0.1373 -0.0243
 1497SOL    HW116124   0.538   3.554   4.896 -0.9964  0.1316 -0.1011
 1497SOL    HW216125   0.500   3.412   4.921  1.2263 -1.2604 -0.0274
 1498SOL     OW16126   2.010   3.797   0.144 -0.3950  0.2120  0.4471
 1498SOL    HW116127   1.933   3.809   0.089 -0.7830 -2.2661  0.4489
 1498SOL    HW216128   2.032   3.707   0.120 -0.8339  0.3898 -0.5875
 1499SOL     OW16129   3.666   2.088   2.049  0.3052  0.0358 -0.0472
 1499SOL    HW116130   3.648   2.084   2.143  1.3524  0.4900  0.1725
 1499SOL    HW216131   3.758   2.061   2.045  0.2254 -0.2729  0.1506
 1500SOL     OW16132   3.925   4.579   4.973 -0.4343 -0.4309 -0.6060
 1500SOL    HW116133   3.951   4.538   4.890  1.1155  1.3867 -1.0200
 1500SOL    HW216134   4.012   4.602   5.003 -0.5113 -1.0067  0.0558
 1501SOL     OW16135   0.686   2.645   4.481 -0.2893  0.3222  0.1880
 1501SOL    HW116136   0.698   2.553   4.460 -0.0363  0.0071  1.6633
 1501SOL    HW216137   0.594   2.645   4.508 -0.3802  2.8258 -0.1084
 1502SOL     OW16138   3.912   3.453   8.201 -0.2435 -0.9299  0.3068
 1502SOL    HW116139   4.001   3.457   8.236 -0.9258  0.3855  1.8720
 1502SOL    HW216140   3.921   3.405   8.119  0.1501 -2.7681  1.4424
 1503SOL     OW16141   0.288   0.260   9.889 -0.0576  0.9876  0.1119
 1503SOL    HW116142   0.247   0.226   9.968 -2.0479  1.9223 -0.5071
 1503SOL    HW216143   0.372   0.291   9.921 -0.6559  1.0304  1.6718
 1504SOL     OW16144   0.010   0.476   6.807 -0.0477 -0.4913  0.6705
 1504SOL    HW116145   4.684   0.431   6.750 -0.8761  1.8119 -0.2613
 1504SOL    HW216146   0.084   0.480   6.747 -2.6262  1.0783 -2.4883
 1505SOL     OW16147   3.019   0.995   2.716  0.0485 -0.3777 -0.0630
 1505SOL    HW116148   3.079   0.945   2.660 -0.1637  0.4582 -1.0382
 1505SOL    HW216149   2.932   0.974   2.683  0.1183 -0.5289 -0.1519
 1506SOL     OW16150   1.035   0.554   8.492  0.3515 -0.2286  0.0213
 1506SOL    HW116151   1.123   0.519   8.508 -0.7175 -2.1699  1.6954
 1506SOL    HW216152   1.022   0.614   8.565  0.3873 -0.6401  0.3689
 1507SOL     OW16153   3.649   0.339   2.727 -0.5651  0.2582 -0.0091
 1507SOL    HW116154   3.613   0.412   2.677  0.0613  0.3760 -0.2891
 1507SOL    HW216155   3.661   0.388   2.808 -1.6396 -0.0733  0.3521
 1508SOL     OW16156   0.757   2.525   7.719 -0.5550 -0.1116 -0.0471
 1508SOL    HW116157   0.844   2.512   7.755 -0.2763  1.5733 -0.0833
 1508SOL    HW216158   0.723   2.592   7.779  0.2883 -1.6487  2.1200
 1509SOL     OW16159   0.401   4.386   6.789 -0.7549 -0.2951  0.7276
 1509SOL    HW116160   0.485   4.387   6.834 -0.0090  0.8310 -0.6864
 1509SOL    HW216161   0.371   4.476   6.801 -0.2752  0.3052 -2.3944
 1510SOL     OW16162   3.561   4.588  16.337 -0.2376 -0.2333  0.3747
 1510SOL    HW116163   3.601   4.574  16.423  1.8980  1.6001 -0.3210
 1510SOL    HW216164   3.476   4.545  16.339 -0.6051  0.5348  1.4732
 1511SOL     OW16165   4.393   4.677   8.965  0.2809 -0.6299  0.0829
 1511SOL    HW116166   4.308   4.643   8.993 -0.4955  0.0194 -1.4564
 1511SOL    HW216167   4.441   4.642   9.040  0.2580  2.1412  1.4266
 1512SOL     OW16168   3.767   1.183   5.997  0.5820  0.0989  0.0281
 1512SOL    HW116169   3.706   1.256   6.000  0.2140 -0.2607  1.4332
 1512SOL    HW216170   3.721   1.110   6.038  1.7779 -1.3431 -1.1840
 1513SOL     OW16171   1.067   4.645  17.068  0.2812 -0.2707  0.6837
 1513SOL    HW116172   1.130   4.709  17.102  1.2814 -1.2553  0.6707
 1513SOL    HW216173   1.008   4.703  17.020 -0.7857 -0.7307  1.4501
 1514SOL     OW16174   2.535   0.197   6.301  0.2980 -0.0024 -0.0704
 1514SOL    HW116175   2.551   0.145   6.222 -0.7293 -1.8768  0.9466
 1514SOL    HW216176   2.576   0.143   6.369 -1.2847 -0.1334  0.7922
 1515SOL     OW16177   1.919   2.318   7.879  0.1627  0.0557 -0.7288
 1515SOL    HW116178   1.954   2.341   7.965  1.0287 -2.1498 -0.4900
 1515SOL    HW216179   1.973   2.240   7.874 -0.0465  0.0143 -2.2924
 1516SOL     OW16180   1.805   0.321  16.876  0.1616 -0.4148  0.0414
 1516SOL    HW116181   1.862   0.362  16.941 -1.2028 -0.7580  1.4365
 1516SOL    HW216182   1.859   0.281  16.808 -0.4433 -0.4614 -0.4189
 1517SOL     OW16183   4.047   1.263   5.547  0.1275 -0.1452 -0.2636
 1517SOL    HW116184   4.063   1.321   5.472 -0.1931 -0.3862 -0.5182
 1517SOL    HW216185   4.106   1.299   5.614  0.3679 -0.1208 -0.4877
 1518SOL     OW16186   0.295   4.470  15.665 -0.1181  0.2810  0.0325
 1518SOL    HW116187   0.352   4.423  15.726 -1.1114 -0.0667  0.6998
 1518SOL    HW216188   0.367   4.524  15.631  0.6139 -0.4873  0.3609
 1519SOL     OW16189   3.936   4.684   2.446 -0.0175  0.1644  0.1936
 1519SOL    HW116190   4.011   4.640   2.487 -0.9866 -0.7079  1.0432
 1519SOL    HW216191   3.959   4.693   2.354 -1.7682 -0.5738 -0.3303
 1520SOL     OW16192   1.821   2.334   5.982 -0.2451 -0.1552  0.2407
 1520SOL    HW116193   1.864   2.377   5.908 -1.8155 -1.2719 -1.3146
 1520SOL    HW216194   1.815   2.243   5.951 -3.2708  0.5220 -1.1774
 1521SOL     OW16195   0.717   2.871   9.257  0.0445 -0.3481  0.0596
 1521SOL    HW116196   0.680   2.841   9.174 -2.1363  2.1744  0.1374
 1521SOL    HW216197   0.664   2.822   9.320  0.2672 -1.0082 -0.2695
 1522SOL     OW16198   2.080   1.207   2.236  0.7710 -0.3697 -0.2427
 1522SOL    HW116199   1.993   1.188   2.201 -1.1310  3.3786  2.4285
 1522SOL    HW216200   2.051   1.273   2.300 -1.9070 -1.1540 -0.6291
 1523SOL     OW16201   4.025   3.034   7.068 -0.1996 -0.1325 -0.2764
 1523SOL    HW116202   4.021   2.972   7.142 -1.7793 -0.0784 -0.3246
 1523SOL    HW216203   4.010   3.121   7.105  1.7109  0.2671 -0.4424
 1524SOL     OW16204   4.401   1.933   2.271 -0.1677  0.4447 -0.8825
 1524SOL    HW116205   4.435   1.963   2.355 -0.5856 -1.2381 -0.0966
 1524SOL    HW216206   4.482   1.911   2.226  0.2298  1.6031 -0.7288
 1525SOL     OW16207   1.338   1.949  17.192  0.6199 -0.3851  0.5544
 1525SOL    HW116208   1.343   2.018  17.125 -2.0397  0.4498  1.2156
 1525SOL    HW216209   1.408   1.975  17.251  1.4880  0.7643 -0.9644
 1526SOL     OW16210   3.487   1.378   5.057  0.7062  0.0035 -0.2049
 1526SOL    HW116211   3.457   1.378   5.147 -0.2049 -0.4312 -0.5047
 1526SOL    HW216212   3.505   1.471   5.042  2.1514 -0.3326 -0.5914
 1527SOL     OW16213   1.770   2.526   1.745 -0.2672  0.7249 -0.2002
 1527SOL    HW116214   1.708   2.453   1.752 -2.0231  2.3480  1.0194
 1527SOL    HW216215   1.748   2.564   1.830 -1.0946 -0.6573  0.2114
 1528SOL     OW16216   0.408   1.503   4.592 -0.0356  0.1525 -0.6230
 1528SOL    HW116217   0.498   1.515   4.562 -0.1318  0.6744 -0.7054
 1528SOL    HW216218   0.423   1.420   4.638  0.3325  1.7890  2.2248
 1529SOL     OW16219   3.941   4.104   8.715 -0.0575  0.2216 -0.0570
 1529SOL    HW116220   3.883   4.031   8.690 -0.7845  0.3800  1.1866
 1529SOL    HW216221   3.876   4.172   8.727  0.6644  0.7586  0.7457
 1530SOL     OW16222   1.065   3.935   5.062 -0.8535 -0.0886  0.6109
 1530SOL    HW116223   1.046   3.862   5.003  1.1835  0.5028 -0.7806
 1530SOL    HW216224   1.153   3.967   5.044 -1.3019  1.9144  1.9098
 1531SOL     OW16225   3.033   0.427   5.074  0.1047  0.2722  0.2539
 1531SOL    HW116226   3.120   0.389   5.075 -0.3936 -0.8439  1.8257
 1531SOL    HW216227   3.054   0.504   5.127 -1.4575  0.0986  1.1435
 1532SOL     OW16228   2.120   0.679   8.035 -0.0705 -0.6348 -0.2507
 1532SOL    HW116229   2.146   0.754   7.982 -3.6081  1.5182  1.0604
 1532SOL    HW216230   2.033   0.712   8.058  0.2745 -1.5981  2.4877
 1533SOL     OW16231   0.585   0.752   7.115 -0.5436  0.2570  0.5176
 1533SOL    HW116232   0.607   0.827   7.059  0.2473  0.6815  1.4046
 1533SOL    HW216233   0.497   0.780   7.141 -1.3024 -0.6607 -1.0535
 1534SOL     OW16234   0.172   1.265   0.079 -0.5062  0.2052  0.2135
 1534SOL    HW116235   0.121   1.335   0.037  1.1593  0.0807 -2.0231
 1534SOL    HW216236   0.113   1.219   0.138  0.2816 -0.4135  0.5236
 1535SOL     OW16237   3.329   0.694   6.035 -0.0548 -0.7731  0.1087
 1535SOL    HW116238   3.325   0.790   6.029 -3.1572 -0.8623  0.6514
 1535SOL    HW216239   3.399   0.680   5.971 -1.0231 -0.0881 -1.0995
 1536SOL     OW16240   3.166   2.573   2.059 -0.4898 -0.6005 -0.2412
 1536SOL    HW116241   3.194   2.487   2.028 -0.9043 -0.5015 -0.9082
 1536SOL    HW216242   3.125   2.618   1.984  1.5611 -0.7022 -1.4063
 1537SOL     OW16243   2.254   1.982   3.082  0.5955 -0.1722 -0.2679
 1537SOL    HW116244   2.189   2.053   3.082  0.1529 -0.5780 -2.6479
 1537SOL    HW216245   2.322   2.024   3.133  0.6252 -1.0530  0.4184
 1538SOL     OW16246   3.591   4.104  12.638 -0.2813 -0.2661  0.4381
 1538SOL    HW116247   3.606   4.170  12.705 -3.4610 -0.5580  1.4037
 1538SOL    HW216248   3.514   4.128  12.587 -0.2248 -0.7316  0.1325
 1539SOL     OW16249   3.479   1.724   5.442  0.1788  0.0561 -0.3642
 1539SOL    HW116250   3.499   1.804   5.393  0.6788  0.9448  1.2602
 1539SOL    HW216251   3.400   1.744   5.492  0.4475 -0.5615  0.3056
 1540SOL     OW16252   2.866   2.760   7.028  0.2324  0.7666 -0.5533
 1540SOL    HW116253   2.858   2.799   6.941 -0.9277  0.8936 -0.3815
 1540SOL    HW216254   2.780   2.773   7.066 -0.2462  0.3077 -1.4923
 1541SOL     OW16255   2.366   3.675   4.694  0.0742 -0.4623  0.0288
 1541SOL    HW116256   2.433   3.624   4.739 -0.0623 -2.6700 -2.2842
 1541SOL    HW216257   2.419   3.729   4.635  0.2897  0.3389  0.9461
 1542SOL     OW16258   2.927   2.490   0.940 -0.1651  0.2865  0.1303
 1542SOL    HW116259   3.002   2.546   0.961  0.1564  0.6262 -1.8719
 1542SOL    HW216260   2.920   2.441   1.021  0.5567 -0.3543 -0.1894
 1543SOL     OW16261   2.098   3.849  14.332  0.5346 -0.3112 -0.0147
 1543SOL    HW116262   2.084   3.824  14.423 -1.3566 -2.1490 -0.7966
 1543SOL    HW216263   2.184   3.809  14.319 -0.3211 -2.0339 -0.4510
 1544SOL     OW16264   2.698   2.041   8.592  0.0003 -0.4529  0.3140
 1544SOL    HW116265   2.777   2.090   8.569 -0.7906  1.4663  1.6858
 1544SOL    HW216266   2.735   1.962   8.631  0.0002 -0.9244 -0.6584
 1545SOL     OW16267   3.213   2.957   3.314  0.4148  0.0158 -0.8178
 1545SOL    HW116268   3.303   2.928   3.325  0.4900  1.2659  1.7338
 1545SOL    HW216269   3.204   3.001   3.399 -0.9612 -0.3360 -0.7818
 1546SOL     OW16270   2.057   2.684  14.147 -0.4805  0.3557  0.4434
 1546SOL    HW116271   2.115   2.653  14.077 -3.8156 -0.9017 -1.7681
 1546SOL    HW216272   2.011   2.742  14.086  0.4059  0.6523  0.0513
 1547SOL     OW16273   3.387   1.052   3.628  0.2410  0.7636 -0.0988
 1547SOL    HW116274   3.355   1.131   3.583  2.9675  1.6471 -0.5280
 1547SOL    HW216275   3.406   1.088   3.714 -0.9703  1.2037 -0.0180
 1548SOL     OW16276   3.428   4.515  14.422  0.1858  0.5789  0.4889
 1548SOL    HW116277   3.447   4.590  14.478  0.3208  0.4225  0.6484
 1548SOL    HW216278   3.415   4.438  14.476  3.3102 -0.4200 -0.1896
 1549SOL     OW16279   0.788   3.775   5.065  0.0492 -0.3444  0.2650
 1549SOL    HW116280   0.709   3.733   5.032  0.0586  0.7669 -1.1849
 1549SOL    HW216281   0.851   3.740   5.002  0.3637  0.6944 -0.0025
 1550SOL     OW16282   1.825   3.783   5.797  0.5997  0.2425  0.5232
 1550SOL    HW116283   1.775   3.722   5.743  1.6619  0.5210 -0.7660
 1550SOL    HW216284   1.869   3.718   5.852 -0.2129 -0.4044  0.4047
 1551SOL     OW16285   3.108   3.872   8.732 -0.1897 -0.6801  0.4329
 1551SOL    HW116286   3.105   3.956   8.687  2.1717 -0.2823  0.9869
 1551SOL    HW216287   3.067   3.895   8.815 -1.2718  0.1670 -0.3517
 1552SOL     OW16288   2.898   4.343   2.562  0.1267  0.1557 -0.2017
 1552SOL    HW116289   2.835   4.397   2.608 -1.5149 -0.2825 -1.8959
 1552SOL    HW216290   2.943   4.310   2.640  1.7063  0.4435 -0.9875
 1553SOL     OW16291   3.518   0.352   6.086  0.1310 -0.0220 -0.5282
 1553SOL    HW116292   3.510   0.264   6.048 -0.0702 -0.0109 -0.5119
 1553SOL    HW216293   3.443   0.397   6.047 -0.1735 -0.2769 -0.2428
 1554SOL     OW16294   3.253   4.371   9.276  0.6288  0.3045  0.1097
 1554SOL    HW116295   3.217   4.455   9.248 -0.8293 -0.2115  0.4246
 1554SOL    HW216296   3.339   4.368   9.235 -0.0389 -1.0904 -1.2251
 1555SOL     OW16297   3.020   0.630  11.900  0.0602  0.0844 -1.1555
 1555SOL    HW116298   3.080   0.693  11.940 -0.7521 -1.0829  1.9033
 1555SOL    HW216299   2.941   0.683  11.886 -0.5514 -1.4977 -3.6644
 1556SOL     OW16300   2.296   4.010   0.455  0.3870 -0.1319  0.2895
 1556SOL    HW116301   2.349   4.082   0.422 -0.9439  1.0907  0.8362
 1556SOL    HW216302   2.367   3.947   0.467  2.4419  1.7403 -2.1634
 1557SOL     OW16303   1.631   0.938  13.756  0.3116  0.0001  0.4470
 1557SOL    HW116304   1.727   0.945  13.760  0.4065 -2.9777  3.0254
 1557SOL    HW216305   1.607   0.969  13.844  2.9209  3.1979  0.0590
 1558SOL     OW16306   1.418   3.338  10.403 -0.0516 -0.3123 -0.3052
 1558SOL    HW116307   1.508   3.330  10.370  0.4336 -0.3696  0.9979
 1558SOL    HW216308   1.389   3.252  10.433  2.0675 -1.3213 -1.1095
 1559SOL     OW16309   2.606   2.470   3.099 -0.2723 -0.9504  0.2307
 1559SOL    HW116310   2.528   2.524   3.100  0.2271 -0.1489 -3.4563
 1559SOL    HW216311   2.647   2.520   3.029 -2.2808 -0.0061 -0.2496
 1560SOL     OW16312   1.746   3.949   4.254  0.4169  0.1535  0.0205
 1560SOL    HW116313   1.804   3.873   4.264  1.2277  0.4261 -2.5144
 1560SOL    HW216314   1.673   3.898   4.221  1.4208 -0.3885 -1.3608
 1561SOL     OW16315   3.412   4.087   9.250  0.1408 -0.4875 -0.6525
 1561SOL    HW116316   3.436   4.150   9.318  0.4822  1.0164 -2.1719
 1561SOL    HW216317   3.426   4.147   9.177  1.8625 -0.0879  0.0081
 1562SOL     OW16318   3.891   1.410   8.515 -0.3394 -0.5750 -0.6091
 1562SOL    HW116319   3.951   1.338   8.535 -0.8245 -1.1536 -1.2125
 1562SOL    HW216320   3.917   1.442   8.429  0.9842 -0.1549 -0.0425
 1563SOL     OW16321   1.280   4.401   6.728  0.4612 -0.3299 -0.0504
 1563SOL    HW116322   1.297   4.317   6.684 -3.2428 -0.6182 -0.9907
 1563SOL    HW216323   1.198   4.386   6.776  1.8771 -2.2812  1.7046
 1564SOL     OW16324   4.563   2.251   2.118 -0.5770 -0.0994  0.0776
 1564SOL    HW116325   4.586   2.342   2.099 -0.5108 -0.3440 -1.0146
 1564SOL    HW216326   4.560   2.207   2.034  2.3416 -2.9764  1.5062
 1565SOL     OW16327   2.186   1.083  14.250  0.4521  0.2627 -0.0810
 1565SOL    HW116328   2.193   1.007  14.308  1.1163 -1.2731 -2.1825
 1565SOL    HW216329   2.268   1.122  14.279 -0.5911  2.2478  0.1788
 1566SOL     OW16330   4.099   2.319   5.425  0.2975  0.0855 -0.1717
 1566SOL    HW116331   4.188   2.353   5.427  0.1657  0.4274  0.1491
 1566SOL    HW216332   4.073   2.299   5.335 -2.8384  1.2834  0.4464
 1567SOL     OW16333   1.784   1.817   6.070 -0.4767 -0.4122 -0.2429
 1567SOL    HW116334   1.811   1.757   6.140 -0.7694  1.8540  1.8048
 1567SOL    HW216335   1.690   1.820   6.090 -1.0180  0.4369 -2.9907
 1568SOL     OW16336   1.579   0.756  17.513 -0.1013  0.3692 -0.8184
 1568SOL    HW116337   1.600   0.846  17.487 -3.7911  0.9954 -1.5268
 1568SOL    HW216338   1.503   0.730  17.461 -1.3034  1.1770  0.5471
 1569SOL     OW16339   2.015   3.094   9.791 -0.2108 -0.0109  0.0556
 1569SOL    HW116340   2.034   3.094   9.697 -0.1864 -0.6394  0.0590
 1569SOL    HW216341   1.935   3.147   9.788  0.9122  1.8398  2.8128
 1570SOL     OW16342   0.422   2.217   4.947  0.6450  0.5074 -0.3548
 1570SOL    HW116343   0.459   2.190   5.031  0.4105 -0.8976 -0.7118
 1570SOL    HW216344   0.500   2.253   4.904  1.4251 -0.1963  0.4768
 1571SOL     OW16345   4.505   0.986   4.405  0.5394 -0.5043 -0.3620
 1571SOL    HW116346   4.419   0.945   4.392  1.0188 -1.8758  0.8693
 1571SOL    HW216347   4.539   0.977   4.316 -1.7612 -0.8990 -1.2016
 1572SOL     OW16348   3.725   2.557   8.793  0.0554  0.4189  0.3685
 1572SOL    HW116349   3.795   2.607   8.836 -0.6404 -0.6258  2.7317
 1572SOL    HW216350   3.700   2.612   8.719 -0.9942 -0.0053  0.4153
 1573SOL     OW16351   0.520   1.035  14.842 -0.0485 -0.1521 -0.2515
 1573SOL    HW116352   0.456   1.106  14.849 -0.7242 -0.9484  1.6890
 1573SOL    HW216353   0.477   0.959  14.881 -0.5195  0.1644 -0.1501
 1574SOL     OW16354   0.002   0.907  10.345  0.1061 -0.6372  1.1228
 1574SOL    HW116355   4.660   0.957  10.364  0.7818  1.5564 -1.6603
 1574SOL    HW216356   4.716   0.815  10.334  0.5577 -0.7558  1.1579
 1575SOL     OW16357   3.778   1.645   8.729 -0.0895 -0.0263 -0.0316
 1575SOL    HW116358   3.734   1.573   8.683 -1.1451 -0.7440  2.0986
 1575SOL    HW216359   3.707   1.709   8.733  0.6526  0.6376  2.7858
 1576SOL     OW16360   0.709   3.158   6.112  0.1887  0.0833  0.1070
 1576SOL    HW116361   0.750   3.206   6.184 -0.1352 -0.2506  0.5146
 1576SOL    HW216362   0.689   3.228   6.050 -1.0540  0.3116  0.7573
 1577SOL     OW16363   2.882   2.416  11.023  0.4439  0.1500 -0.1882
 1577SOL    HW116364   2.955   2.379  10.973  0.0322  0.4508 -1.0271
 1577SOL    HW216365   2.808   2.414  10.961  1.0645 -0.5105 -0.9017
 1578SOL     OW16366   3.490   3.987   2.356 -0.2456  1.0063 -0.0536
 1578SOL    HW116367   3.420   3.939   2.312  1.5420 -1.9698  0.3258
 1578SOL    HW216368   3.465   3.987   2.448  3.2693 -2.2819  0.8765
 1579SOL     OW16369   2.710   2.163  17.585  0.3228 -0.2991  0.7731
 1579SOL    HW116370   2.634   2.200  17.541  0.0155 -0.0137  1.5487
 1579SOL    HW216371   2.759   2.240  17.612  0.1332  0.2136 -0.3695
 1580SOL     OW16372   0.643   0.927   6.211 -0.0806  0.2186  0.4170
 1580SOL    HW116373   0.666   0.950   6.301  0.9731  2.2337 -0.3714
 1580SOL    HW216374   0.616   1.012   6.176 -0.1576  0.1963  0.4238
 1581SOL     OW16375   0.055   1.040   6.969  0.4686  0.5119  0.3621
 1581SOL    HW116376   0.111   1.118   6.969 -0.4772  1.1951  3.2599
 1581SOL    HW216377   0.118   0.975   6.938  0.0671  0.2912  0.0045
 1582SOL     OW16378   1.552   3.257   5.370  0.2032 -0.2997 -0.2593
 1582SOL    HW116379   1.529   3.172   5.335 -2.3720 -0.5618  2.0125
 1582SOL    HW216380   1.607   3.292   5.301  2.6437 -3.0512  0.3133
 1583SOL     OW16381   0.504   2.433  17.254 -0.1043 -0.0996  0.1806
 1583SOL    HW116382   0.435   2.378  17.290  0.2148  0.6543  1.9272
 1583SOL    HW216383   0.493   2.523  17.284  2.3541  0.7079 -1.3035
 1584SOL     OW16384   1.887   1.913   2.550  0.1508  0.0946 -0.1288
 1584SOL    HW116385   1.825   1.852   2.589  0.8513 -0.7559 -0.3423
 1584SOL    HW216386   1.918   1.869   2.470 -2.5249  0.2238 -1.2416
 1585SOL     OW16387   2.358   1.235   3.159 -0.1489 -0.6936 -0.8973
 1585SOL    HW116388   2.313   1.319   3.166  2.3059  0.7285 -2.2701
 1585SOL    HW216389   2.451   1.254   3.146  0.2483 -0.5373  2.1312
 1586SOL     OW16390   4.079   1.350  17.332  0.0575 -0.1537  0.1015
 1586SOL    HW116391   4.174   1.359  17.332  0.1263 -0.9869  1.2276
 1586SOL    HW216392   4.059   1.315  17.245 -1.1002 -0.6305  0.5584
 1587SOL     OW16393   2.174   2.810   4.793  0.8770 -0.4702 -0.2337
 1587SOL    HW116394   2.267   2.816   4.770  0.8283  0.5021 -0.1794
 1587SOL    HW216395   2.147   2.735   4.740  0.1733 -1.0362  0.9210
 1588SOL     OW16396   4.325   3.502   1.657  0.6744 -0.4172  0.3010
 1588SOL    HW116397   4.248   3.454   1.688 -1.5020  1.8796 -1.5998
 1588SOL    HW216398   4.305   3.594   1.672 -0.5975 -0.4138 -1.4247
 1589SOL     OW16399   3.972   4.386   9.687  0.4396 -0.6087  0.3803
 1589SOL    HW116400   3.923   4.312   9.723 -1.6535  0.5383 -0.0517
 1589SOL    HW216401   4.059   4.348   9.683 -0.7955 -3.3566 -0.7861
 1590SOL     OW16402   1.082   3.607   3.755 -0.3316 -0.3995  0.2445
 1590SOL    HW116403   1.177   3.610   3.757 -0.3539 -0.5125  1.7633
 1590SOL    HW216404   1.064   3.513   3.744 -0.6741 -0.4610  1.3509
 1591SOL     OW16405   1.756   0.911  14.038 -0.1294  0.4901  0.0140
 1591SOL    HW116406   1.715   0.984  14.084  1.3030  3.3356 -3.1628
 1591SOL    HW216407   1.844   0.948  14.030  0.4499 -1.1176 -1.0440
 1592SOL     OW16408   2.906   2.031  13.903  0.4581  0.1028  0.1414
 1592SOL    HW116409   2.897   2.106  13.845  0.7827 -0.3248 -0.4651
 1592SOL    HW216410   2.979   1.985  13.861  1.9892  2.5365  0.1342
 1593SOL     OW16411   3.724   0.511   6.839 -0.1638  0.1774  0.2762
 1593SOL    HW116412   3.719   0.502   6.934  2.0460  0.0976  0.4014
 1593SOL    HW216413   3.659   0.579   6.822 -0.2520 -0.5270 -2.2307
 1594SOL     OW16414   4.071   0.554   7.645  0.1332 -0.1922 -0.6462
 1594SOL    HW116415   4.130   0.521   7.713  0.3635  0.0458 -0.7273
 1594SOL    HW216416   4.137   0.602   7.594 -0.1301 -1.1781 -1.8899
 1595SOL     OW16417   3.453   0.718  17.600  0.3421 -0.6895 -0.0105
 1595SOL    HW116418   3.455   0.743  17.508  0.5279 -0.7510 -0.0235
 1595SOL    HW216419   3.360   0.726  17.621  0.8713 -1.0862  2.4751
 1596SOL     OW16420   4.496   1.406   2.082  0.1195 -0.1549 -0.1762
 1596SOL    HW116421   4.547   1.417   2.002  0.9596  0.3330  0.4138
 1596SOL    HW216422   4.449   1.486   2.102 -1.0235 -1.1956  1.3081
 1597SOL     OW16423   1.110   3.203  17.275 -0.6375  0.0464 -0.5076
 1597SOL    HW116424   1.117   3.108  17.272 -4.5503 -0.2759  0.9799
 1597SOL    HW216425   1.105   3.219  17.370  0.0500 -0.3093 -0.4135
 1598SOL     OW16426   1.336   2.321   3.243 -0.5097 -0.2977  0.1976
 1598SOL    HW116427   1.293   2.252   3.194  0.3130 -1.1701  0.7001
 1598SOL    HW216428   1.402   2.264   3.284  2.0663  0.6713 -2.5858
 1599SOL     OW16429   1.132   2.114   2.737  0.1098  0.2872 -0.6543
 1599SOL    HW116430   1.148   2.020   2.737  0.5790  0.3774  0.1439
 1599SOL    HW216431   1.124   2.136   2.829  3.9617  1.8855 -0.6964
 1600SOL     OW16432   4.297   3.884   4.904 -0.2861  0.3344 -0.2485
 1600SOL    HW116433   4.277   3.801   4.947  1.1903  0.5616  0.8921
 1600SOL    HW216434   4.213   3.890   4.859 -1.2265 -1.0094  1.3085
 1601SOL     OW16435   4.401   3.374   0.464 -0.1605  0.2957 -0.1935
 1601SOL    HW116436   4.385   3.379   0.559 -0.4024  1.2475 -0.2887
 1601SOL    HW216437   4.321   3.413   0.432 -0.1352 -1.0090 -1.8636
 1602SOL     OW16438   2.809   1.727   2.785  0.3726  0.6457  0.1969
 1602SOL    HW116439   2.821   1.821   2.785 -0.6253  0.7768 -0.2371
 1602SOL    HW216440   2.801   1.707   2.879  1.4003 -0.8493 -0.0337
 1603SOL     OW16441   3.684   4.176   8.555 -0.2744  0.7155  0.0626
 1603SOL    HW116442   3.632   4.213   8.484 -1.3907 -0.1019  0.4440
 1603SOL    HW216443   3.728   4.101   8.514  0.9879  0.9019  1.0715
 1604SOL     OW16444   0.490   0.669   2.585  0.4240  0.1695  0.5136
 1604SOL    HW116445   0.405   0.704   2.560 -0.4294 -2.4157 -0.1359
 1604SOL    HW216446   0.524   0.746   2.631 -0.0332 -0.1492  1.3750
 1605SOL     OW16447   3.837   0.123   6.579 -0.3232  0.1938  0.1171
 1605SOL    HW116448   3.775   0.186   6.614  0.8552  1.6660 -0.4354
 1605SOL    HW216449   3.842   0.047   6.637  1.0492  0.7009  0.6725
 1606SOL     OW16450   4.431   4.240  11.005  0.0562 -0.0797 -0.2522
 1606SOL    HW116451   4.518   4.200  11.002  0.5197  1.0937 -2.2290
 1606SOL    HW216452   4.376   4.170  11.040  0.3227  0.0401  0.4111
 1607SOL     OW16453   0.201   1.275   6.968 -0.0740  0.3999  0.4669
 1607SOL    HW116454   0.278   1.243   6.921  0.9056  2.2840  0.7816
 1607SOL    HW216455   0.247   1.322   7.038 -0.1170  0.4746  0.4454
 1608SOL     OW16456   3.100   2.602   7.026  0.2442 -0.5518  0.0001
 1608SOL    HW116457   3.068   2.519   7.062  2.6215 -1.7371 -0.6622
 1608SOL    HW216458   3.018   2.650   7.015  0.0585 -0.7202  0.6156
 1609SOL     OW16459   1.326   1.662   1.433  0.8139 -0.3124 -0.3571
 1609SOL    HW116460   1.272   1.666   1.512  2.5725  0.2729  0.8367
 1609SOL    HW216461   1.411   1.638   1.471  0.6326  0.9530  0.8257
 1610SOL     OW16462   1.738   1.919   8.896  0.2824  0.3421  0.2138
 1610SOL    HW116463   1.761   1.982   8.965  0.1826 -0.0921  0.6449
 1610SOL    HW216464   1.753   1.837   8.943 -2.4120  0.4620  1.2309
 1611SOL     OW16465   1.949   3.374   3.822  0.3536  0.3710 -0.1826
 1611SOL    HW116466   1.903   3.298   3.858 -0.9039  2.1567  1.9697
 1611SOL    HW216467   1.960   3.349   3.730  2.4385  0.0180  0.1734
 1612SOL     OW16468   3.348   4.719   5.880 -0.5344 -0.5214 -0.5589
 1612SOL    HW116469   3.383   0.031   5.955  2.2815  1.5644 -3.2486
 1612SOL    HW216470   3.419   4.655   5.878 -0.6077 -0.6885  1.5037
 1613SOL     OW16471   3.619   1.178   9.599  0.1757  0.4501  0.8010
 1613SOL    HW116472   3.711   1.191   9.622  0.3192  0.2294  0.3467
 1613SOL    HW216473   3.598   1.098   9.647 -0.3230  0.3987  0.5001
 1614SOL     OW16474   4.400   2.795   3.276 -0.2552 -0.0419 -0.1114
 1614SOL    HW116475   4.484   2.753   3.254 -0.9863 -0.8850 -1.3195
 1614SOL    HW216476   4.430   2.875   3.319 -4.3133  1.5854 -0.2997
 1615SOL     OW16477   0.291   1.420   7.804  0.1749 -0.3760  0.2345
 1615SOL    HW116478   0.206   1.463   7.798  0.7087  0.2508 -2.5783
 1615SOL    HW216479   0.338   1.460   7.731 -0.5243 -1.0998 -0.6121
 1616SOL     OW16480   2.688   1.543   6.756 -0.3984  0.5083  0.3829
 1616SOL    HW116481   2.717   1.501   6.675  0.5296  0.3482  0.7881
 1616SOL    HW216482   2.633   1.473   6.791 -2.2231  2.3298  1.1317
 1617SOL     OW16483   3.986   4.303  11.814  0.3253  0.4483 -0.3102
 1617SOL    HW116484   3.932   4.226  11.829 -0.6886  0.9747 -1.2556
 1617SOL    HW216485   4.069   4.272  11.851 -0.3861  0.1141  0.9953
 1618SOL     OW16486   4.054   4.098  14.598 -0.1789 -0.2507  0.5330
 1618SOL    HW116487   4.106   4.144  14.532  0.0828 -0.5370  0.5382
 1618SOL    HW216488   4.038   4.174  14.655 -1.4056  1.0650 -1.5775
 1619SOL     OW16489   4.475   0.079  15.029  0.6566 -0.0213 -0.1641
 1619SOL    HW116490   4.556   0.030  15.020  1.9172  1.8606  0.9487
 1619SOL    HW216491   4.499   0.168  15.056  0.1068  0.5022 -1.4221
 1620SOL     OW16492   1.505   4.666  16.451  0.1025  0.2486  0.1238
 1620SOL    HW116493   1.434   4.728  16.464  0.1124  0.4294 -0.6683
 1620SOL    HW216494   1.576   4.721  16.482 -0.2399  1.4315 -1.1768
 1621SOL     OW16495   3.967   0.935  11.076 -0.1236 -0.4606 -0.2810
 1621SOL    HW116496   4.021   0.871  11.123 -2.2327 -1.2177  1.1558
 1621SOL    HW216497   3.894   0.954  11.136  0.5268  1.3180 -0.0815
 1622SOL     OW16498   1.556   0.606   8.122 -0.3425  0.5601 -0.7487
 1622SOL    HW116499   1.613   0.676   8.091 -0.0233  0.9392  0.7415
 1622SOL    HW216500   1.501   0.587   8.045 -1.7668  0.5381  0.2832
 1623SOL     OW16501   1.200   2.663   6.184 -0.5276 -0.1737  0.0993
 1623SOL    HW116502   1.256   2.718   6.239  0.4244 -0.4515 -0.5908
 1623SOL    HW216503   1.205   2.708   6.100  0.4114 -1.2235 -0.4151
 1624SOL     OW16504   3.031   0.743  16.003  0.3217  0.2734 -0.2092
 1624SOL    HW116505   3.111   0.794  16.016 -0.6693  1.6958  0.3671
 1624SOL    HW216506   2.966   0.800  16.045 -0.5444 -0.9575  0.1378
 1625SOL     OW16507   3.976   3.551   9.874  0.3282 -0.0706  0.6025
 1625SOL    HW116508   4.070   3.572   9.870 -0.0392  1.0784 -1.8140
 1625SOL    HW216509   3.978   3.462   9.839  0.6556  0.1863 -0.0295
 1626SOL     OW16510   0.579   3.131   6.414 -0.4035 -0.0825 -0.3193
 1626SOL    HW116511   0.502   3.186   6.403  0.0254  0.5928  0.0408
 1626SOL    HW216512   0.650   3.194   6.406 -0.8067  0.2952 -0.9190
 1627SOL     OW16513   1.592   2.574   7.083 -0.0157 -0.2326  0.4549
 1627SOL    HW116514   1.526   2.557   7.015 -1.4781  1.1734  1.5005
 1627SOL    HW216515   1.669   2.590   7.029  2.2552 -1.0904  3.4074
 1628SOL     OW16516   4.528   2.372   9.317 -0.7993 -0.0352 -0.6663
 1628SOL    HW116517   4.487   2.404   9.237 -2.2238 -1.0002 -0.3489
 1628SOL    HW216518   4.557   2.453   9.358 -0.1273 -0.1156 -0.9915
 1629SOL     OW16519   3.503   1.868   8.265  0.0587  0.1043 -0.9701
 1629SOL    HW116520   3.515   1.937   8.331 -0.9072 -1.4613  0.8215
 1629SOL    HW216521   3.531   1.790   8.313 -0.4005 -0.5442 -1.7663
 1630SOL     OW16522   1.659   3.481  11.116 -0.3186 -0.2593  0.2327
 1630SOL    HW116523   1.604   3.440  11.049 -0.3024 -0.9623  0.6482
 1630SOL    HW216524   1.604   3.550  11.152 -0.8488  1.0546 -3.0860
 1631SOL     OW16525   3.934   0.947   2.008 -0.0234 -0.4721 -0.1139
 1631SOL    HW116526   4.027   0.968   1.999 -0.6157  2.0051 -0.5172
 1631SOL    HW216527   3.895   1.030   1.981  0.9584  0.1521  0.3819
 1632SOL     OW16528   2.416   3.582   1.835  0.3580 -0.2026  0.7208
 1632SOL    HW116529   2.473   3.539   1.899 -0.8830 -2.8002  0.0774
 1632SOL    HW216530   2.469   3.595   1.757  2.0501 -1.3825  1.6831
 1633SOL     OW16531   4.514   0.936   2.245  0.2265 -0.1122 -0.0571
 1633SOL    HW116532   4.529   0.884   2.325  2.8541 -1.6387 -1.5503
 1633SOL    HW216533   4.470   0.864   2.200 -1.4684 -0.4111  2.0617
 1634SOL     OW16534   1.143   2.853   5.918  0.5781 -0.2019 -0.3821
 1634SOL    HW116535   1.068   2.876   5.863 -0.8707 -3.7900  0.0891
 1634SOL    HW216536   1.163   2.763   5.890 -0.3177 -0.1809 -1.0620
 1635SOL     OW16537   1.063   0.384   5.626  0.4296 -0.0677 -0.0813
 1635SOL    HW116538   0.999   0.439   5.672 -0.8496 -0.7219 -1.0654
 1635SOL    HW216539   1.111   0.453   5.580 -0.7316  1.7748  1.4812
 1636SOL     OW16540   4.439   4.729   4.787  0.4413 -0.3917  0.5947
 1636SOL    HW116541   4.396   4.658   4.835 -0.5728 -0.4029 -0.3266
 1636SOL    HW216542   4.404   0.068   4.835  0.8335  0.9850 -1.3163
 1637SOL     OW16543   1.198   1.142  16.694  0.6321  0.8983 -0.9522
 1637SOL    HW116544   1.257   1.186  16.755  1.7366 -0.1599 -1.2682
 1637SOL    HW216545   1.132   1.100  16.749 -0.9402 -0.3012 -3.6968
 1638SOL     OW16546   3.919   0.423   2.286 -0.8389 -0.1632 -0.3643
 1638SOL    HW116547   3.979   0.441   2.358  0.7561 -0.3322 -1.6645
 1638SOL    HW216548   3.878   0.340   2.311  0.4109 -0.5512  0.3633
 1639SOL     OW16549   3.650   4.427   9.587 -0.3171 -0.0911  0.0431
 1639SOL    HW116550   3.714   4.496   9.605 -1.5891  0.5782  1.9546
 1639SOL    HW216551   3.650   4.390   9.675 -0.0659  1.3624  0.6526
 1640SOL     OW16552   2.378   0.366  16.154 -0.2374 -0.0902  0.4162
 1640SOL    HW116553   2.408   0.340  16.241 -0.6564 -2.0986 -0.0463
 1640SOL    HW216554   2.460   0.400  16.119 -2.1332  1.8943 -2.0955
 1641SOL     OW16555   0.480   0.866   2.778 -0.1703  0.8476 -0.1318
 1641SOL    HW116556   0.390   0.872   2.745 -0.1281  2.7731  0.1134
 1641SOL    HW216557   0.475   0.884   2.872 -0.9681  2.4131 -0.4838
 1642SOL     OW16558   1.054   2.343   8.385  0.5887  0.2116  0.3491
 1642SOL    HW116559   0.969   2.362   8.426 -1.1205  1.3260 -3.6509
 1642SOL    HW216560   1.040   2.341   8.290  0.9928  0.8785  0.2774
 1643SOL     OW16561   0.146   2.523   9.380 -0.0056 -0.5890  0.1263
 1643SOL    HW116562   0.198   2.443   9.379  1.3379  0.2897 -0.4227
 1643SOL    HW216563   0.217   2.587   9.388  0.2893 -0.6003 -2.1932
 1644SOL     OW16564   2.890   4.257   3.582 -0.0248  0.7831 -0.1856
 1644SOL    HW116565   2.799   4.278   3.563 -1.0102 -2.4860  0.8994
 1644SOL    HW216566   2.919   4.233   3.494  0.7375  0.1317  0.2457
 1645SOL     OW16567   0.804   3.545  11.191 -0.0370  0.2409 -0.0819
 1645SOL    HW116568   0.769   3.460  11.165 -0.0886  0.5608 -1.0611
 1645SOL    HW216569   0.729   3.589  11.231 -1.4571 -2.1881 -0.0588
 1646SOL     OW16570   2.070   2.574   7.196 -0.0117 -0.1552 -0.8802
 1646SOL    HW116571   2.067   2.564   7.291  2.7708 -3.1359 -1.1286
 1646SOL    HW216572   2.042   2.665   7.191 -0.8374 -0.4051 -0.7304
 1647SOL     OW16573   2.914   4.689   7.048  0.2608 -0.0087 -0.4396
 1647SOL    HW116574   2.988   4.629   7.053 -0.2238 -0.6287 -0.8255
 1647SOL    HW216575   2.958   0.035   7.068 -1.4256  0.3289  1.8746
 1648SOL     OW16576   2.897   0.772   8.830  0.5416 -0.0248  0.1831
 1648SOL    HW116577   2.942   0.719   8.764 -2.8867  0.0444 -2.2146
 1648SOL    HW216578   2.929   0.734   8.912  0.5968 -0.3688  0.0011
 1649SOL     OW16579   4.507   3.915   4.641  0.3969  0.5793  0.3422
 1649SOL    HW116580   4.466   4.002   4.635  1.7678  1.2452  0.5281
 1649SOL    HW216581   4.516   3.901   4.735  1.6764  0.6017  0.2295
 1650SOL     OW16582   3.868   0.646   4.924  0.3765  0.3667  0.4487
 1650SOL    HW116583   3.834   0.718   4.870  2.6585  0.3742 -0.9578
 1650SOL    HW216584   3.838   0.683   5.007  1.2267 -0.2569  1.0247
 1651SOL     OW16585   3.722   1.545   7.810  0.0684  0.4023 -0.2600
 1651SOL    HW116586   3.793   1.503   7.859 -2.1690 -1.9783  0.9612
 1651SOL    HW216587   3.741   1.517   7.721  0.1976  2.6676 -0.9531
 1652SOL     OW16588   0.132   1.326   9.207 -0.5976  0.4108  0.0136
 1652SOL    HW116589   0.209   1.275   9.184 -0.7147  0.3890 -0.3235
 1652SOL    HW216590   0.063   1.260   9.211  1.0164 -1.3610 -1.4655
 1653SOL     OW16591   2.953   2.591   5.035  0.1916 -0.0793 -0.3056
 1653SOL    HW116592   3.021   2.534   5.001  0.1126 -0.8923  0.8886
 1653SOL    HW216593   3.000   2.668   5.066  1.9799 -2.2307  2.2763
 1654SOL     OW16594   2.358   2.268  15.086 -0.4525  1.0273 -0.1406
 1654SOL    HW116595   2.429   2.279  15.023  0.7908 -1.5395  0.7832
 1654SOL    HW216596   2.294   2.330  15.052 -1.7116 -0.2958 -0.2359
 1655SOL     OW16597   4.060   3.549   8.617  0.1597  0.2969  0.6676
 1655SOL    HW116598   4.072   3.605   8.694 -2.1516 -0.3642  1.4929
 1655SOL    HW216599   3.975   3.582   8.588 -0.5420 -1.3965  0.8174
 1656SOL     OW16600   3.589   1.228   1.102  0.3438  0.0229 -0.0400
 1656SOL    HW116601   3.583   1.133   1.101  1.5611 -0.0351 -0.8563
 1656SOL    HW216602   3.672   1.243   1.058  0.1718 -0.7795 -0.6231
 1657SOL     OW16603   2.617   1.122   3.918 -0.4139  0.0923  0.0798
 1657SOL    HW116604   2.568   1.067   3.857  0.9618  0.6142 -1.5145
 1657SOL    HW216605   2.559   1.130   3.993 -1.3180  0.0818 -0.6258
 1658SOL     OW16606   4.695   3.553   1.719 -0.3600 -0.1881 -0.3006
 1658SOL    HW116607   4.630   3.589   1.658  0.4291  4.6335  1.7404
 1658SOL    HW216608   4.659   3.466   1.738  0.0372 -0.4804 -0.9023
 1659SOL     OW16609   4.241   1.093   8.126 -0.4623 -0.0438  0.2036
 1659SOL    HW116610   4.266   1.032   8.195  2.9353  1.5744  0.4194
 1659SOL    HW216611   4.202   1.021   8.076  0.3095 -0.1313 -0.2847
 1660SOL     OW16612   4.117   1.355   9.015 -0.1203 -0.1230 -0.2727
 1660SOL    HW116613   4.187   1.412   9.048 -0.4828 -0.1165  0.4814
 1660SOL    HW216614   4.098   1.392   8.929 -0.5801 -0.9837 -0.5348
 1661SOL     OW16615   4.169   1.533  12.335 -0.1230 -0.0012 -0.2944
 1661SOL    HW116616   4.078   1.534  12.306  0.7342  0.4194 -2.9440
 1661SOL    HW216617   4.205   1.622  12.332  0.4662 -0.2184  0.3970
 1662SOL     OW16618   0.539   4.386   4.558  0.4749  0.1127 -0.3526
 1662SOL    HW116619   0.609   4.365   4.496  0.8633 -2.2484  0.9027
 1662SOL    HW216620   0.534   4.479   4.537  2.7494  0.1164 -0.8840
 1663SOL     OW16621   0.439   2.920   8.885 -0.0520 -0.5037 -0.7578
 1663SOL    HW116622   0.393   2.932   8.968  0.9790  1.2024 -0.4341
 1663SOL    HW216623   0.522   2.884   8.916  0.2686  1.2729  0.4023
 1664SOL     OW16624   3.221   1.023   8.858 -0.3257  0.1088  0.7496
 1664SOL    HW116625   3.276   1.101   8.847 -2.9925  1.7342 -0.8460
 1664SOL    HW216626   3.140   1.058   8.821 -0.5773 -1.7363 -0.4207
 1665SOL     OW16627   4.484   1.328   8.827  0.4393  0.6327  0.3466
 1665SOL    HW116628   4.406   1.277   8.851  0.5379 -0.4076 -1.5687
 1665SOL    HW216629   4.450   1.395   8.769  1.1941  0.7899  0.0798
 1666SOL     OW16630   2.811   2.398   3.978  0.2869  0.2628 -0.2255
 1666SOL    HW116631   2.752   2.340   4.025  1.5811  0.6737  1.8923
 1666SOL    HW216632   2.875   2.338   3.939 -0.7488 -0.1416 -1.3116
 1667SOL     OW16633   4.078   2.819   6.230 -0.2743  0.1757 -0.3095
 1667SOL    HW116634   4.173   2.808   6.238 -0.5133 -0.4172  1.5064
 1667SOL    HW216635   4.062   2.771   6.148 -1.7311 -0.1539  0.1734
 1668SOL     OW16636   3.055   2.914   1.550  0.1001  0.6962 -0.0590
 1668SOL    HW116637   3.026   2.835   1.504  1.4414 -0.2123  0.6495
 1668SOL    HW216638   3.150   2.907   1.543  0.1984  2.1553 -0.0945
 1669SOL     OW16639   3.473   4.101   3.274 -0.1844  0.5106 -0.3746
 1669SOL    HW116640   3.406   4.074   3.212  0.7041 -2.3137 -0.0832
 1669SOL    HW216641   3.442   4.071   3.360 -0.4243  1.8512  0.0131
 1670SOL     OW16642   1.556   3.138  17.080  0.2919 -0.3582  0.5559
 1670SOL    HW116643   1.524   3.228  17.087  2.5252  0.4819 -0.1584
 1670SOL    HW216644   1.602   3.133  16.997 -1.5808  1.6632 -0.5827
 1671SOL     OW16645   1.989   0.413   8.775  0.2223  0.0185  0.0445
 1671SOL    HW116646   1.923   0.448   8.835  0.8807  0.1342  0.6990
 1671SOL    HW216647   1.930   0.355   8.727 -0.6814 -0.1672  1.3659
 1672SOL     OW16648   3.964   2.213   2.455  0.0283 -0.0278  0.1630
 1672SOL    HW116649   3.902   2.261   2.510  0.2395 -0.6469  0.9495
 1672SOL    HW216650   3.912   2.235   2.378 -0.6025 -1.7154  0.1134
 1673SOL     OW16651   3.024   4.706   3.906 -0.0186 -0.1450  0.2843
 1673SOL    HW116652   3.059   0.043   3.956  0.7532 -0.7274  0.5862
 1673SOL    HW216653   2.938   4.693   3.945 -0.9565  0.4301 -1.5802
 1674SOL     OW16654   4.619   4.198   5.137 -0.4134 -0.0519 -0.3362
 1674SOL    HW116655   4.601   4.271   5.197  2.8282  1.1561 -0.8553
 1674SOL    HW216656   4.526   4.179   5.129 -0.4118 -0.3866  0.4235
 1675SOL     OW16657   3.972   3.580   5.544  0.2769 -0.0336 -0.0354
 1675SOL    HW116658   3.879   3.594   5.525  0.3977  0.2537 -0.4154
 1675SOL    HW216659   3.975   3.611   5.634  4.2753  0.2723 -0.2779
 1676SOL     OW16660   4.675   0.743  12.798 -0.4854 -0.8832  0.0088
 1676SOL    HW116661   4.700   0.716  12.709 -1.8581 -0.6814 -0.4451
 1676SOL    HW216662   4.697   0.665  12.849  0.5733 -0.6289 -0.0526
 1677SOL     OW16663   0.893   2.657   8.719  0.4932  0.0357 -0.2728
 1677SOL    HW116664   0.913   2.685   8.630 -0.5424 -0.8545 -0.7895
 1677SOL    HW216665   0.973   2.616   8.754  1.3665  2.6955  0.8580
 1678SOL     OW16666   0.206   0.742  12.643  0.5961 -0.7562  0.0181
 1678SOL    HW116667   0.274   0.708  12.585  2.0089  2.9182 -0.4452
 1678SOL    HW216668   0.133   0.711  12.588  0.0617 -3.4690  2.2494
 1679SOL     OW16669   2.257   2.833   3.795  0.5665  0.3378 -0.6742
 1679SOL    HW116670   2.314   2.898   3.836 -0.2956  0.5912  0.1197
 1679SOL    HW216671   2.276   2.761   3.855 -1.5382 -0.1727 -0.6256
 1680SOL     OW16672   4.196   4.139   2.000 -0.3353  0.0558 -0.3175
 1680SOL    HW116673   4.224   4.138   2.092  0.6102 -0.8376 -0.6187
 1680SOL    HW216674   4.154   4.224   1.996 -1.2845 -0.3816  0.3843
 1681SOL     OW16675   3.139   0.986  17.449  0.0254  0.8366  0.4112
 1681SOL    HW116676   3.071   0.934  17.491 -0.1901  0.1382 -0.8111
 1681SOL    HW216677   3.078   1.001  17.376 -2.2925  0.0271  2.1839
 1682SOL     OW16678   1.824   3.942  17.555  0.3350 -0.0055  0.3425
 1682SOL    HW116679   1.820   3.963  17.461  1.6274 -0.0801  0.2681
 1682SOL    HW216680   1.918   3.947  17.573  0.2821  2.5387 -0.0236
 1683SOL     OW16681   0.669   1.967   6.827 -0.1640  0.3408  0.3769
 1683SOL    HW116682   0.754   1.979   6.785 -0.7822 -0.3172 -1.0609
 1683SOL    HW216683   0.647   2.052   6.866  0.1682  0.0891  1.1095
 1684SOL     OW16684   2.657   1.530  12.463 -0.8408 -0.8688 -0.0594
 1684SOL    HW116685   2.591   1.598  12.452  2.3756  2.0776 -1.3368
 1684SOL    HW216686   2.603   1.462  12.422 -2.4919  0.7991 -0.6565
 1685SOL     OW16687   3.446   3.307   7.296 -0.5607 -0.4058  0.5802
 1685SOL    HW116688   3.374   3.368   7.280  0.3097  1.0418  2.1425
 1685SOL    HW216689   3.412   3.265   7.375 -2.1543  0.4360  0.3560
 1686SOL     OW16690   1.394   4.369   8.949  0.5641  0.0946 -0.1777
 1686SOL    HW116691   1.391   4.315   8.869  0.7046  0.4063 -0.3909
 1686SOL    HW216692   1.417   4.312   9.022  1.2016 -1.8202 -1.8533
 1687SOL     OW16693   4.370   1.643  12.736  0.5929 -0.1342  0.5491
 1687SOL    HW116694   4.336   1.554  12.737  0.3973 -0.0682  0.1112
 1687SOL    HW216695   4.464   1.624  12.740  0.0165 -2.9159  0.8265
 1688SOL     OW16696   3.667   1.705   6.507  0.5048 -0.0000 -0.5080
 1688SOL    HW116697   3.740   1.701   6.568  0.8696 -0.6500 -0.9883
 1688SOL    HW216698   3.604   1.674   6.572 -1.0314 -1.9595 -2.9078
 1689SOL     OW16699   2.322   2.280   7.482 -0.5918  0.3456 -0.0139
 1689SOL    HW116700   2.357   2.215   7.543 -1.8750 -1.0197 -0.7341
 1689SOL    HW216701   2.234   2.285   7.518 -0.4664 -0.3771  0.3830
 1690SOL     OW16702   1.549   0.727  13.990 -0.3558 -0.7448  0.2567
 1690SOL    HW116703   1.571   0.684  14.073 -0.9203  3.2378  2.4813
 1690SOL    HW216704   1.628   0.782  13.986 -1.5686  0.9108 -0.6098
 1691SOL     OW16705   3.047   1.124   6.452  0.2599 -0.6014  0.6360
 1691SOL    HW116706   3.019   1.036   6.480 -0.8794 -0.3035  0.4306
 1691SOL    HW216707   2.987   1.139   6.379  2.4134  0.6463 -0.8492
 1692SOL     OW16708   4.694   1.133   7.723 -0.4147 -0.0779 -0.0084
 1692SOL    HW116709   0.036   1.172   7.685  0.4067 -1.2015  0.5492
 1692SOL    HW216710   4.730   1.100   7.805  0.7427  0.2411 -0.3853
 1693SOL     OW16711   1.297   2.053   5.106 -0.4277 -0.2673 -0.3734
 1693SOL    HW116712   1.352   2.082   5.033 -1.8844 -0.2748 -1.4609
 1693SOL    HW216713   1.251   1.980   5.065 -1.7962  0.9869 -1.0760
 1694SOL     OW16714   2.598   0.025   7.464  0.0758 -0.0674  0.3343
 1694SOL    HW116715   2.624   0.117   7.468  1.0628 -0.2784 -1.1766
 1694SOL    HW216716   2.683   4.721   7.446 -0.1346  0.1899 -1.2285
 1695SOL     OW16717   1.718   4.031   9.455  0.0207 -0.0082 -0.2236
 1695SOL    HW116718   1.787   3.966   9.470 -0.5650 -0.3240  1.1113
 1695SOL    HW216719   1.717   4.033   9.359  0.3575  1.5761 -0.1897
 1696SOL     OW16720   1.294   2.970  17.319  0.3229 -0.2876  0.0921
 1696SOL    HW116721   1.275   2.960  17.412 -1.0010 -1.4184 -0.3066
 1696SOL    HW216722   1.380   3.010  17.330  0.0639  0.7878 -1.7321
 1697SOL     OW16723   1.286   1.485   3.176  0.0051 -0.5846 -0.6405
 1697SOL    HW116724   1.210   1.438   3.209  0.2439  0.5330  1.5244
 1697SOL    HW216725   1.339   1.489   3.256  0.0986 -1.3171 -0.6617
 1698SOL     OW16726   2.505   2.807   3.694 -0.1171  0.8624  0.6725
 1698SOL    HW116727   2.410   2.812   3.685  0.0335  0.0661 -1.5723
 1698SOL    HW216728   2.517   2.713   3.679  2.6633  1.3684 -0.1827
 1699SOL     OW16729   2.834   3.874   8.495  0.7169  0.0062 -0.0692
 1699SOL    HW116730   2.890   3.930   8.549  0.2678 -0.6931  1.1414
 1699SOL    HW216731   2.804   3.812   8.562 -1.8154  0.2356 -1.0290
 1700SOL     OW16732   3.286   4.263   7.307  0.2045  0.1380  0.4178
 1700SOL    HW116733   3.333   4.314   7.372  0.1622 -0.0144  0.5680
 1700SOL    HW216734   3.203   4.260   7.355 -0.3855 -0.5814 -0.6336
 1701SOL     OW16735   2.807   2.291   2.739  0.1597  0.4272 -0.0868
 1701SOL    HW116736   2.817   2.299   2.644  0.7823 -0.2835 -0.0831
 1701SOL    HW216737   2.742   2.356   2.764 -0.3561 -0.6051  1.2599
 1702SOL     OW16738   1.043   4.527   5.917 -0.0769  0.1254  0.1140
 1702SOL    HW116739   1.040   4.622   5.924 -0.9504  0.0804  0.3343
 1702SOL    HW216740   0.952   4.511   5.893 -0.2966  1.3541  0.1448
 1703SOL     OW16741   0.121   1.495   1.596 -0.3746 -0.0488  0.3452
 1703SOL    HW116742   0.155   1.536   1.516 -0.0678 -2.2091 -0.6420
 1703SOL    HW216743   0.036   1.531   1.624 -1.8862 -1.6927 -2.0866
 1704SOL     OW16744   0.078   0.243   8.942 -0.5245  0.1099 -0.2193
 1704SOL    HW116745   0.165   0.276   8.923 -0.8465 -0.3667 -2.5116
 1704SOL    HW216746   0.066   0.258   9.036  0.1996 -2.2189  0.2511
 1705SOL     OW16747   4.112   3.791  11.921 -0.4977  0.3102 -0.0334
 1705SOL    HW116748   4.177   3.743  11.973  0.2661  2.4461  0.9758
 1705SOL    HW216749   4.045   3.807  11.988 -0.5187 -2.4759  0.6007
 1706SOL     OW16750   0.892   0.855  16.714  0.4401 -0.2576  0.3801
 1706SOL    HW116751   0.859   0.931  16.667  0.1193 -1.2155 -0.9374
 1706SOL    HW216752   0.968   0.894  16.757 -0.8068  0.7580  1.6708
 1707SOL     OW16753   2.158   4.312   5.927  0.3071 -0.3133  0.9104
 1707SOL    HW116754   2.254   4.307   5.930  0.4330  0.3407 -1.8733
 1707SOL    HW216755   2.143   4.360   6.008  0.6948 -0.0423  0.8287
 1708SOL     OW16756   1.714   4.341   6.381 -0.2959  0.2647  0.0754
 1708SOL    HW116757   1.625   4.361   6.351 -0.0766  2.1634  0.7390
 1708SOL    HW216758   1.754   4.318   6.297  1.0182 -1.3500  1.1568
 1709SOL     OW16759   1.877   4.667   5.405  0.3366  0.1539  0.2294
 1709SOL    HW116760   1.936   4.596   5.429  1.9048  1.6163  0.7588
 1709SOL    HW216761   1.901   4.686   5.314  0.5832  3.0861  0.9142
 1710SOL     OW16762   2.025   2.512  17.739 -0.1086 -0.0056 -0.2153
 1710SOL    HW116763   2.106   2.519  17.690  0.1242  0.7858  0.2809
 1710SOL    HW216764   1.989   2.440  17.688  0.7731 -0.0323 -0.7931
 1711SOL     OW16765   2.671   1.951  17.742  0.3106  0.1735  0.7053
 1711SOL    HW116766   2.704   2.029  17.698 -1.1488  0.4395  0.0662
 1711SOL    HW216767   2.733   1.884  17.714  0.7117  0.7126  0.3152
 1712SOL     OW16768   1.927   0.652   4.534  0.6763  0.4590 -0.4519
 1712SOL    HW116769   1.891   0.658   4.445 -0.5819  1.2178  0.1114
 1712SOL    HW216770   1.963   0.564   4.546 -0.3893  0.1854  0.7079
 1713SOL     OW16771   3.188   4.558  13.302 -0.6517 -0.2265  0.1295
 1713SOL    HW116772   3.154   4.621  13.238 -1.3462 -0.5152  0.2072
 1713SOL    HW216773   3.155   4.476  13.265  0.0960  0.6159 -2.3736
 1714SOL     OW16774   2.088   0.395  17.703 -0.3470 -0.1238 -0.5317
 1714SOL    HW116775   2.124   0.333   0.019  2.0438  0.1192 -1.6532
 1714SOL    HW216776   2.051   0.338  17.636 -0.4261 -1.6624  0.8151
 1715SOL     OW16777   0.481   3.550  11.061  0.2996  0.3731  0.1085
 1715SOL    HW116778   0.395   3.566  11.021  0.3839  2.2856  0.6928
 1715SOL    HW216779   0.545   3.578  10.995  0.0805 -0.3481 -0.4074
 1716SOL     OW16780   0.157   1.861   1.513 -0.0698  0.0078  0.0732
 1716SOL    HW116781   0.229   1.799   1.513  0.1552  0.2728 -0.5977
 1716SOL    HW216782   0.202   1.945   1.500 -1.1866  0.2630 -2.0928
 1717SOL     OW16783   2.434   4.425   4.109 -0.2994  0.0027  0.3479
 1717SOL    HW116784   2.477   4.476   4.042  2.4331 -1.0436  1.3139
 1717SOL    HW216785   2.512   4.397   4.157  0.6409  2.7554  0.3836
 1718SOL     OW16786   0.624   2.742   6.234  0.7598  0.3952 -0.2992
 1718SOL    HW116787   0.590   2.652   6.238 -0.5041  0.8743 -0.3326
 1718SOL    HW216788   0.608   2.783   6.319  2.7253 -1.6161  1.0516
 1719SOL     OW16789   3.668   1.786   2.358 -0.1077  0.8713  0.7855
 1719SOL    HW116790   3.618   1.706   2.375 -0.2270  0.7198 -0.2945
 1719SOL    HW216791   3.708   1.789   2.445 -1.0257  0.3327  1.2277
 1720SOL     OW16792   2.230   2.645   8.112  0.0837  0.5934 -0.1590
 1720SOL    HW116793   2.246   2.694   8.192 -1.6510  0.5200  0.2365
 1720SOL    HW216794   2.296   2.576   8.113  0.1952  0.7521  2.1931
 1721SOL     OW16795   1.262   1.787  12.220 -0.6950  0.3885 -0.1792
 1721SOL    HW116796   1.324   1.718  12.241 -0.6759  0.6625  0.6752
 1721SOL    HW216797   1.276   1.842  12.297  1.1522 -0.9719  0.4471
 1722SOL     OW16798   2.561   2.003   6.754  0.3920 -0.3284  0.7176
 1722SOL    HW116799   2.572   2.063   6.679 -1.0842 -1.5565 -0.4757
 1722SOL    HW216800   2.607   1.927   6.718  0.8620  1.0119 -1.5776
 1723SOL     OW16801   3.070   0.652   9.013  0.1040 -0.0053 -0.5012
 1723SOL    HW116802   3.130   0.596   9.062  0.2145  3.0819  2.8988
 1723SOL    HW216803   3.071   0.733   9.064 -1.2421 -1.5812  2.0097
 1724SOL     OW16804   2.070   4.135   5.490  0.1602 -0.4287 -0.2623
 1724SOL    HW116805   2.057   4.191   5.567  0.0665 -2.0285  0.8961
 1724SOL    HW216806   1.998   4.072   5.500  0.3074 -0.4215  0.9111
 1725SOL     OW16807   1.841   3.436  17.201 -0.1129 -0.3875 -0.5319
 1725SOL    HW116808   1.916   3.449  17.143 -1.3353 -0.5496 -2.1501
 1725SOL    HW216809   1.777   3.470  17.139  1.2018 -0.0480 -1.6938
 1726SOL     OW16810   1.969   1.909   5.870  0.0398 -0.2137  0.1861
 1726SOL    HW116811   2.014   1.918   5.953  1.7379  0.1229 -0.7767
 1726SOL    HW216812   1.883   1.946   5.891  0.2372 -0.4167  1.3168
 1727SOL     OW16813   4.517   3.208   6.010  0.2555  0.3747 -0.4858
 1727SOL    HW116814   4.494   3.169   6.094  0.0048  0.6510 -0.4301
 1727SOL    HW216815   4.600   3.166   5.987 -0.3675 -2.0409  1.5989
 1728SOL     OW16816   3.415   0.782   3.391 -0.3687 -0.3534 -0.5576
 1728SOL    HW116817   3.501   0.791   3.349 -0.0599  1.3873  0.4090
 1728SOL    HW216818   3.354   0.847   3.355 -0.3494  1.3441  2.4061
 1729SOL     OW16819   1.243   0.041   8.120 -0.3876 -0.4021  0.5158
 1729SOL    HW116820   1.160   0.079   8.090  0.5280  0.7730 -0.5728
 1729SOL    HW216821   1.224   0.045   8.213 -0.8121 -1.1085  0.4541
 1730SOL     OW16822   3.412   0.730  14.690 -0.3709 -0.4225 -0.6891
 1730SOL    HW116823   3.465   0.776  14.625 -1.0306  1.4424  0.0755
 1730SOL    HW216824   3.445   0.644  14.666 -2.3058 -1.1284 -0.8354
 1731SOL     OW16825   1.944   4.422   4.673 -0.2765  0.2793 -0.1856
 1731SOL    HW116826   1.881   4.465   4.615  1.0214  4.3512  1.4257
 1731SOL    HW216827   1.949   4.331   4.644 -0.6138  1.2523 -3.2690
 1732SOL     OW16828   3.963   4.576  17.179  0.3386  0.1660 -0.1901
 1732SOL    HW116829   3.880   4.615  17.152  0.6339  0.7759 -0.2190
 1732SOL    HW216830   3.951   4.494  17.132  1.2305  0.7411 -1.4327
 1733SOL     OW16831   4.135   2.545   1.528  0.2124 -0.4372 -0.1696
 1733SOL    HW116832   4.065   2.511   1.583  0.2525 -0.4547 -0.1289
 1733SOL    HW216833   4.199   2.474   1.524 -0.0550 -0.7808  1.7025
 1734SOL     OW16834   3.702   3.624   1.796 -0.0217  0.0713 -0.0406
 1734SOL    HW116835   3.658   3.633   1.711  0.4932  1.6879 -0.1421
 1734SOL    HW216836   3.631   3.653   1.853 -0.2177  1.3062 -0.9064
 1735SOL     OW16837   2.482   1.698   8.771 -0.1446 -0.0792  0.2788
 1735SOL    HW116838   2.513   1.625   8.718  0.1088  0.7952 -0.7800
 1735SOL    HW216839   2.417   1.653   8.825 -1.1250 -0.0570 -0.8742
 1736SOL     OW16840   0.342   0.549  14.995  0.1158  0.5571  0.3595
 1736SOL    HW116841   0.372   0.466  14.957 -3.1641 -1.2103  1.7186
 1736SOL    HW216842   0.250   0.559  14.971  0.1700 -2.1422 -0.9853
 1737SOL     OW16843   0.765   1.426   1.603  0.0565  0.7121 -0.3932
 1737SOL    HW116844   0.849   1.441   1.560  0.4112 -1.1511 -0.3181
 1737SOL    HW216845   0.707   1.407   1.530 -0.6738 -0.9148  0.6173
 1738SOL     OW16846   3.918   2.962   8.183 -0.0847 -0.0100  0.4380
 1738SOL    HW116847   3.968   3.043   8.183 -1.3214  0.7533 -0.3209
 1738SOL    HW216848   3.977   2.891   8.158  0.0738  0.2411  0.0899
 1739SOL     OW16849   1.690   4.393  14.130  0.0169  0.0011 -0.2803
 1739SOL    HW116850   1.717   4.399  14.222  3.0353  0.4479 -1.2137
 1739SOL    HW216851   1.667   4.301  14.124 -0.1426  0.0261 -0.0545
 1740SOL     OW16852   3.837   3.422   6.508 -0.4507 -0.8370 -0.0374
 1740SOL    HW116853   3.878   3.397   6.425  0.9494  1.5479 -0.0786
 1740SOL    HW216854   3.849   3.342   6.559  0.2888  0.0880  1.2864
 1741SOL     OW16855   1.366   4.377   7.069  0.8955 -0.1089  0.2402
 1741SOL    HW116856   1.322   4.294   7.050  2.0094 -0.4876 -0.6859
 1741SOL    HW216857   1.289   4.432   7.057  1.1291  0.0578 -0.5059
 1742SOL     OW16858   1.613   0.344   7.271 -0.4239 -0.4715  0.0934
 1742SOL    HW116859   1.624   0.437   7.293  1.7426 -0.2016 -1.9963
 1742SOL    HW216860   1.623   0.311   7.360 -1.6222  0.4867  0.5795
 1743SOL     OW16861   0.325   3.252  14.865 -0.4915  0.5487  0.1157
 1743SOL    HW116862   0.245   3.221  14.908  0.9122 -3.6998 -0.3565
 1743SOL    HW216863   0.354   3.316  14.930  3.4338  0.6463 -1.7313
 1744SOL     OW16864   1.121   0.465   6.415 -0.0807 -0.0123 -0.0905
 1744SOL    HW116865   1.148   0.435   6.328  1.5036 -1.2839  0.8442
 1744SOL    HW216866   1.149   0.556   6.422 -0.7299  0.4123 -2.8586
 1745SOL     OW16867   4.130   4.703   0.665  1.2649  0.0822  0.3027
 1745SOL    HW116868   4.170   4.648   0.598 -0.9407 -0.9431 -0.1578
 1745SOL    HW216869   4.150   4.655   0.745 -1.1782  1.6206  1.8545
 1746SOL     OW16870   2.595   3.410  14.982  0.2141 -0.4876  0.4473
 1746SOL    HW116871   2.590   3.315  14.975 -2.0446 -0.3188 -0.1265
 1746SOL    HW216872   2.684   3.425  14.951  0.2017 -2.8304 -0.6581
 1747SOL     OW16873   2.360   1.329  17.512  0.6691  0.0046  0.1503
 1747SOL    HW116874   2.384   1.421  17.522 -0.3012  0.0819  1.9021
 1747SOL    HW216875   2.264   1.327  17.506  0.7080 -0.9405 -0.0973
 1748SOL     OW16876   0.968   3.746   7.945  0.1511  0.4791  0.4178
 1748SOL    HW116877   1.023   3.677   7.907 -0.4760 -0.3031  0.9188
 1748SOL    HW216878   1.012   3.827   7.918  0.7695  0.8718  2.6075
 1749SOL     OW16879   0.981   3.676   4.326 -0.4196 -0.1367  0.8434
 1749SOL    HW116880   1.010   3.616   4.258 -2.3717 -0.3069  0.1413
 1749SOL    HW216881   0.920   3.619   4.372 -0.1261 -2.4589 -1.6379
 1750SOL     OW16882   2.408   3.515   8.566  0.4339 -0.5663  0.0299
 1750SOL    HW116883   2.501   3.492   8.570  0.4785 -0.5515 -0.7883
 1750SOL    HW216884   2.353   3.438   8.580  1.5663 -1.1489  1.2182
 1751SOL     OW16885   4.460   4.430  16.695 -0.0869 -0.1878 -0.1773
 1751SOL    HW116886   4.533   4.489  16.714 -1.3200  1.0212  0.7799
 1751SOL    HW216887   4.461   4.422  16.599 -2.8182 -0.9225 -0.1352
 1752SOL     OW16888   4.470   1.042  13.653  0.3910 -0.4281 -0.1798
 1752SOL    HW116889   4.531   1.040  13.727 -1.8919  0.2437  1.7228
 1752SOL    HW216890   4.432   0.955  13.664 -0.8678  0.3421  1.6409
 1753SOL     OW16891   0.571   3.651  11.290 -0.3041 -0.0493 -0.2363
 1753SOL    HW116892   0.533   3.630  11.204 -0.4152  1.4446 -0.5642
 1753SOL    HW216893   0.489   3.684  11.327 -0.5623  0.0825 -0.9068
 1754SOL     OW16894   2.329   0.819   6.667 -0.1174 -0.2107 -0.3616
 1754SOL    HW116895   2.259   0.885   6.663 -0.6166 -0.6773  0.7216
 1754SOL    HW216896   2.354   0.817   6.575 -2.7275 -0.3053 -1.0496
 1755SOL     OW16897   0.933   0.099   7.485  0.1593  0.2937 -0.5380
 1755SOL    HW116898   1.022   0.062   7.480 -0.5676 -1.6325  0.4906
 1755SOL    HW216899   0.887   0.032   7.435  0.0903  0.1809 -0.3260
 1756SOL     OW16900   3.047   0.190   2.182 -0.7247  0.2531 -0.7386
 1756SOL    HW116901   3.001   0.107   2.170 -0.7146  0.2976 -1.0896
 1756SOL    HW216902   3.094   0.191   2.098  1.8077  1.2484  0.6950
 1757SOL     OW16903   0.010   4.728   8.927 -0.2606 -0.1779 -0.0229
 1757SOL    HW116904   0.027   0.085   8.923 -0.9720 -0.0454  0.1451
 1757SOL    HW216905   0.084   4.697   8.874 -0.4021  0.1363 -0.4031
 1758SOL     OW16906   0.328   2.309   6.228  0.3286  0.4988 -0.1984
 1758SOL    HW116907   0.235   2.320   6.247  0.5766  0.8409  0.8602
 1758SOL    HW216908   0.361   2.272   6.310  1.1648  0.4567 -0.5553
 1759SOL     OW16909   3.812   1.897   3.701  0.6938 -0.2732 -0.1739
 1759SOL    HW116910   3.867   1.932   3.771 -2.5634 -0.7540  2.6490
 1759SOL    HW216911   3.792   1.813   3.744 -1.2543 -0.2337 -1.0216
 1760SOL     OW16912   1.687   0.078  16.580  0.0764  0.8111  0.6039
 1760SOL    HW116913   1.759   0.082  16.644  1.4312  1.4033 -0.9553
 1760SOL    HW216914   1.742   0.087  16.502 -0.9737  0.3814 -0.1739
 1761SOL     OW16915   4.639   3.555   5.944  0.4629  0.3459  0.5295
 1761SOL    HW116916   4.568   3.585   5.887 -0.1177 -0.2827  0.9147
 1761SOL    HW216917   4.692   3.504   5.883  1.4187  0.5906  1.1450
 1762SOL     OW16918   1.437   2.460   4.422 -0.1521 -0.2865  0.7120
 1762SOL    HW116919   1.434   2.368   4.448 -0.9236 -1.1436 -2.4918
 1762SOL    HW216920   1.447   2.512   4.502 -0.2605 -0.2187  0.6810
 1763SOL     OW16921   1.451   1.875   6.754 -0.4110 -0.7790 -0.1921
 1763SOL    HW116922   1.395   1.921   6.817  0.4244  1.0602 -0.8029
 1763SOL    HW216923   1.428   1.919   6.672  1.1277 -0.1596 -0.2823
 1764SOL     OW16924   4.424   1.679   3.489  0.3985  0.1173  0.4480
 1764SOL    HW116925   4.351   1.645   3.541 -1.4340  1.0298 -1.5684
 1764SOL    HW216926   4.490   1.615   3.518  1.3155  1.3183  1.0196
 1765SOL     OW16927   2.985   0.465   4.329  0.1061 -0.5477 -0.4212
 1765SOL    HW116928   2.966   0.391   4.271 -1.3468 -0.3815 -0.1682
 1765SOL    HW216929   2.997   0.536   4.267  2.3382 -0.8793 -0.3581
 1766SOL     OW16930   3.566   3.756   4.030  0.2923  0.2579  0.0207
 1766SOL    HW116931   3.535   3.845   4.044 -0.9364 -0.2276  0.4017
 1766SOL    HW216932   3.494   3.714   4.078  3.0236 -1.5350  2.5857
 1767SOL     OW16933   0.825   3.173   8.890 -0.0668  0.1180 -0.1091
 1767SOL    HW116934   0.827   3.121   8.809  0.1660 -0.6950  0.4154
 1767SOL    HW216935   0.920   3.177   8.900 -0.2188  0.5271  1.1715
 1768SOL     OW16936   2.680   4.211   4.983 -0.5765  0.5367  0.0348
 1768SOL    HW116937   2.731   4.204   4.902 -1.2299  0.7455 -0.3984
 1768SOL    HW216938   2.677   4.119   5.009 -0.5714  0.6628  0.4819
 1769SOL     OW16939   0.352   4.266   8.922  0.3770 -0.5415  0.2139
 1769SOL    HW116940   0.296   4.229   8.991  0.7297  0.7007  1.1792
 1769SOL    HW216941   0.388   4.347   8.958  1.8185 -0.0638 -2.2885
 1770SOL     OW16942   3.940   2.063  12.097  0.2458  0.3857 -0.1499
 1770SOL    HW116943   3.974   2.074  12.186  1.1158  0.4873 -0.5001
 1770SOL    HW216944   3.913   1.971  12.107  0.2996  0.3480 -0.3633
 1771SOL     OW16945   1.850   2.617   6.447 -0.7380  0.3934 -0.4254
 1771SOL    HW116946   1.800   2.542   6.413 -2.8157  1.7629 -0.3706
 1771SOL    HW216947   1.935   2.574   6.460 -0.0744  1.8010 -0.0722
 1772SOL     OW16948   3.714   1.778   2.614  0.4163 -0.6197  0.6168
 1772SOL    HW116949   3.647   1.746   2.674  1.1677 -1.5316  0.9733
 1772SOL    HW216950   3.724   1.863   2.657 -1.5195 -0.3667  0.5520
 1773SOL     OW16951   1.418   1.018  14.273 -1.0816  0.6743  0.3198
 1773SOL    HW116952   1.393   0.991  14.185  1.3481  2.8504 -1.0555
 1773SOL    HW216953   1.499   1.063  14.248 -0.1049 -2.3385 -1.8650
 1774SOL     OW16954   0.993   4.424   4.438  0.0362 -1.0410  0.3215
 1774SOL    HW116955   0.922   4.414   4.374  1.1827  0.5039 -1.1820
 1774SOL    HW216956   1.023   4.334   4.451 -1.1470 -1.5299 -0.2912
 1775SOL     OW16957   4.712   1.100   6.164 -0.3488  0.3455 -0.2759
 1775SOL    HW116958   4.700   1.111   6.258  1.4299  1.4036 -0.1861
 1775SOL    HW216959   0.067   1.118   6.145  0.2567 -1.5554  0.8563
 1776SOL     OW16960   4.665   4.282   6.735 -0.0773  0.3370  0.1273
 1776SOL    HW116961   4.734   4.346   6.717 -0.9486  0.6658 -2.0048
 1776SOL    HW216962   4.613   4.316   6.808 -1.2397 -1.8390  0.2952
 1777SOL     OW16963   4.559   2.036   8.206 -0.7040  0.3240  0.5242
 1777SOL    HW116964   4.609   2.096   8.263  0.4839 -0.7528  0.6126
 1777SOL    HW216965   4.482   2.024   8.261  0.4469  0.5650  2.2011
 1778SOL     OW16966   2.831   0.008   2.560  0.1091 -0.3866 -0.4079
 1778SOL    HW116967   2.910   0.040   2.516 -1.5661  0.5309 -2.7742
 1778SOL    HW216968   2.771   0.080   2.541  0.2097  0.1766  1.4792
 1779SOL     OW16969   0.673   3.141   7.380 -0.3396  0.4185  0.0235
 1779SOL    HW116970   0.665   3.152   7.475 -2.7799  2.0729 -0.3584
 1779SOL    HW216971   0.634   3.054   7.371  0.3677  0.1481 -0.4019
 1780SOL     OW16972   0.022   3.572   3.121  0.2643 -0.5830 -0.2418
 1780SOL    HW116973   4.687   3.583   3.060  0.3374 -2.2029 -0.6095
 1780SOL    HW216974   0.054   3.662   3.130  1.3372 -0.9435 -0.3808
 1781SOL     OW16975   0.451   0.854   3.444 -0.2064  0.1413 -0.0390
 1781SOL    HW116976   0.531   0.829   3.396  0.1685  0.8928  0.1989
 1781SOL    HW216977   0.487   0.917   3.506 -0.4354 -0.3074  0.5466
 1782SOL     OW16978   1.754   2.114   5.013 -0.0689 -0.3349 -0.0932
 1782SOL    HW116979   1.822   2.142   4.952 -0.4193  0.9269  0.0927
 1782SOL    HW216980   1.781   2.025   5.035 -1.1053 -0.6789 -0.2118
 1783SOL     OW16981   2.837   0.123   6.163 -0.6416 -0.0209 -0.1458
 1783SOL    HW116982   2.922   0.163   6.147 -1.2676  0.7966 -1.3936
 1783SOL    HW216983   2.865   0.059   6.230  1.3268  0.2122 -0.7476
 1784SOL     OW16984   2.486   3.354   2.065  0.7632 -0.4661  0.0043
 1784SOL    HW116985   2.401   3.329   2.102  0.0895  0.9745 -0.5891
 1784SOL    HW216986   2.536   3.378   2.143 -0.2941  1.8851 -0.0548
 1785SOL     OW16987   0.406   4.418   6.406 -0.1381  0.2441 -0.6875
 1785SOL    HW116988   0.321   4.440   6.444 -1.5358 -2.1587 -2.3995
 1785SOL    HW216989   0.441   4.505   6.387 -0.2224  0.3172 -0.5097
 1786SOL     OW16990   2.331   3.028  14.776 -0.0873 -0.1691 -0.0902
 1786SOL    HW116991   2.371   2.948  14.742 -0.5353 -0.5104  0.1896
 1786SOL    HW216992   2.294   3.068  14.698  1.2846  1.9769  0.3366
 1787SOL     OW16993   0.312   0.079   7.932 -0.3358  0.6287  0.4002
 1787SOL    HW116994   0.295   0.022   8.007 -1.6742  1.3970  0.6671
 1787SOL    HW216995   0.265   0.036   7.861  1.5663 -1.6875  0.5213
 1788SOL     OW16996   4.063   3.698   4.475 -0.4934  0.4711 -0.2831
 1788SOL    HW116997   4.083   3.788   4.449 -1.3631  0.7743  0.1114
 1788SOL    HW216998   4.147   3.653   4.469 -0.0424  1.4544 -1.3173
 1789SOL     OW16999   1.649   0.217  12.927  0.3545  0.0114  0.1908
 1789SOL    HW117000   1.598   0.227  12.846  2.2482  0.5522 -0.9252
 1789SOL    HW217001   1.576   0.244  12.984 -3.4209 -2.4925 -3.4392
 1790SOL     OW17002   1.741   0.441   4.427  0.6657 -0.1438  0.1116
 1790SOL    HW117003   1.773   0.513   4.372  1.2383 -0.8735 -0.5087
 1790SOL    HW217004   1.664   0.481   4.467 -0.0317 -0.6500 -0.7118
 1791SOL     OW17005   3.243   0.536   9.203  0.0300  0.1985 -0.6685
 1791SOL    HW117006   3.182   0.531   9.277  0.7970  0.7189 -0.0031
 1791SOL    HW217007   3.314   0.587   9.242 -0.8666 -0.0654  1.3333
 1792SOL     OW17008   4.276   2.370   6.090  0.4081  0.1047  0.2851
 1792SOL    HW117009   4.190   2.329   6.080 -0.1553  1.0594  1.2162
 1792SOL    HW217010   4.260   2.464   6.102 -0.2008  0.2108 -1.3841
 1793SOL     OW17011   3.060   3.278   7.934 -0.8749  0.1582  0.1665
 1793SOL    HW117012   3.010   3.279   7.852 -1.3086  1.0549  0.4400
 1793SOL    HW217013   2.996   3.260   8.003  0.9521 -0.1160  1.7809
 1794SOL     OW17014   3.100   4.352   6.700 -0.4541  0.1930  0.7492
 1794SOL    HW117015   3.028   4.292   6.724 -0.0786 -0.6744 -0.3006
 1794SOL    HW217016   3.099   4.341   6.605  1.6924  2.0720  0.5271
 1795SOL     OW17017   1.674   2.676   1.183 -0.5803 -0.5494 -0.1342
 1795SOL    HW117018   1.616   2.663   1.258 -0.1096  0.9590  0.5037
 1795SOL    HW217019   1.708   2.587   1.172  1.4933 -0.0094  1.7363
 1796SOL     OW17020   3.035   3.765   6.991  0.1918 -0.1457  0.1109
 1796SOL    HW117021   2.989   3.694   7.036  0.8943 -1.0558 -0.6080
 1796SOL    HW217022   3.124   3.731   6.982  0.1993 -0.1878  0.3482
 1797SOL     OW17023   0.597   4.154  15.131 -0.0602  0.2356  0.0343
 1797SOL    HW117024   0.599   4.215  15.058 -1.3560  1.3149  0.9097
 1797SOL    HW217025   0.507   4.167  15.160 -0.1125 -1.0105  0.4453
 1798SOL     OW17026   4.163   0.698   4.162 -0.1775  0.4504  0.2020
 1798SOL    HW117027   4.252   0.668   4.177 -0.4031 -0.3158  0.0141
 1798SOL    HW217028   4.146   0.652   4.080 -0.9337 -0.2858  0.7802
 1799SOL     OW17029   3.109   3.527   0.693 -0.1537  0.2436  0.0045
 1799SOL    HW117030   3.197   3.501   0.664 -0.1226  1.0449 -0.6196
 1799SOL    HW217031   3.054   3.491   0.623  1.1912  0.6133 -1.2388
 1800SOL     OW17032   3.905   4.565  16.430 -0.0927  0.1060 -0.1179
 1800SOL    HW117033   3.918   4.659  16.419  1.1548  0.3756  3.5646
 1800SOL    HW217034   3.976   4.513  16.393  0.0334 -0.6796  1.2296
 1801SOL     OW17035   4.316   2.717   1.409  1.0011  0.2204 -0.2569
 1801SOL    HW117036   4.387   2.748   1.465 -0.4199  0.7230  1.2482
 1801SOL    HW217037   4.251   2.688   1.473 -0.0948  0.1850 -1.3845
 1802SOL     OW17038   1.750   0.093   8.078 -0.3261  0.5003  0.1552
 1802SOL    HW117039   1.777   0.103   8.170 -2.0018 -0.5506  0.7709
 1802SOL    HW217040   1.827   0.128   8.034  1.0884  0.9446  2.9994
 1803SOL     OW17041   4.648   4.050   7.682 -0.1101  0.2759 -0.2333
 1803SOL    HW117042   4.645   4.024   7.774 -0.2780  1.0777 -0.0060
 1803SOL    HW217043   4.675   3.963   7.654  0.2925  0.5717 -0.7552
 1804SOL     OW17044   1.200   4.141   5.347  0.0308  0.0257  0.1912
 1804SOL    HW117045   1.292   4.144   5.373  0.1353 -1.4425 -0.0170
 1804SOL    HW217046   1.207   4.163   5.254 -4.3637  0.2109 -0.1258
 1805SOL     OW17047   0.531   2.260   7.389  0.8168  0.1948 -0.4059
 1805SOL    HW117048   0.488   2.187   7.434  0.8746  0.0497 -0.5902
 1805SOL    HW217049   0.510   2.332   7.449 -1.3483 -1.2782  0.6153
 1806SOL     OW17050   3.484   1.605   6.164 -0.4594 -0.3916 -0.5476
 1806SOL    HW117051   3.476   1.553   6.244 -0.5956 -0.3479 -0.5323
 1806SOL    HW217052   3.440   1.689   6.178  1.5036  0.7311 -1.0659
 1807SOL     OW17053   3.820   4.662   6.757  0.8210  0.0914 -0.4555
 1807SOL    HW117054   3.755   4.644   6.826  1.4937  1.2973  0.5110
 1807SOL    HW217055   3.843   4.575   6.724 -1.3301 -0.4099 -0.6140
 1808SOL     OW17056   3.661   4.059   4.874 -0.4390 -0.0604 -0.0531
 1808SOL    HW117057   3.703   3.986   4.829 -0.7053 -0.4282  0.3029
 1808SOL    HW217058   3.692   4.125   4.812 -0.9363 -1.6019 -1.9560
 1809SOL     OW17059   2.416   0.636  11.112 -0.3974 -0.9917 -0.1650
 1809SOL    HW117060   2.353   0.566  11.132 -0.0817 -0.8379  1.3440
 1809SOL    HW217061   2.473   0.596  11.047 -0.7178 -1.3267 -0.2447
 1810SOL     OW17062   1.663   1.838  11.141 -0.7255 -0.2019 -0.3152
 1810SOL    HW117063   1.593   1.896  11.111 -1.6581 -0.8861  0.5155
 1810SOL    HW217064   1.733   1.890  11.102 -0.3307  0.0497  0.7365
 1811SOL     OW17065   0.140   3.150   6.793  0.2276 -0.4374  0.1300
 1811SOL    HW117066   0.101   3.180   6.711  0.7195  2.5502  0.9687
 1811SOL    HW217067   0.171   3.233   6.831  0.9960 -0.5008 -0.3490
 1812SOL     OW17068   4.649   2.204   1.399 -0.3065 -0.3465 -0.6862
 1812SOL    HW117069   4.650   2.175   1.308  2.9541 -1.0671 -0.4308
 1812SOL    HW217070   4.568   2.165   1.433  0.6123 -0.5651  1.2921
 1813SOL     OW17071   1.338   0.072  15.110 -0.5194 -0.0570 -0.0125
 1813SOL    HW117072   1.355   0.027  15.192  0.6192 -0.3560 -0.4114
 1813SOL    HW217073   1.353   0.165  15.128  0.9035 -0.2906  0.0128
 1814SOL     OW17074   3.853   1.421   3.303 -0.2332  0.5416 -0.3393
 1814SOL    HW117075   3.761   1.411   3.280 -0.5167  1.1194  0.5334
 1814SOL    HW217076   3.889   1.343   3.260 -0.0847  1.6782 -2.2897
 1815SOL     OW17077   0.280   1.848   9.393  0.2068 -0.1972  0.2686
 1815SOL    HW117078   0.260   1.759   9.422  1.1085 -0.5069 -0.0430
 1815SOL    HW217079   0.195   1.878   9.364 -0.2248  0.6653  2.4205
 1816SOL     OW17080   1.636   0.296   7.911 -0.3907 -0.0521  0.5748
 1816SOL    HW117081   1.715   0.245   7.931  1.2867  1.7687 -1.3660
 1816SOL    HW217082   1.567   0.230   7.907  0.1500 -0.5458 -0.4796
 1817SOL     OW17083   3.849   3.593   7.896 -0.8480  0.5501  0.8534
 1817SOL    HW117084   3.830   3.665   7.836 -1.0356  1.1729  1.6587
 1817SOL    HW217085   3.762   3.573   7.931 -1.1150 -1.7584 -1.1791
 1818SOL     OW17086   3.641   3.451   4.603 -0.6904  0.2855 -0.1386
 1818SOL    HW117087   3.612   3.420   4.518 -2.4579  2.7882 -0.4557
 1818SOL    HW217088   3.703   3.513   4.565 -0.0096  0.6372  1.5314
 1819SOL     OW17089   4.552   1.711   7.159  0.1045  0.1719  0.4438
 1819SOL    HW117090   4.529   1.687   7.249 -2.2242 -0.8007 -0.4061
 1819SOL    HW217091   4.639   1.747   7.178  0.7529 -1.1262 -0.0956
 1820SOL     OW17092   4.121   3.427   5.136  0.5630 -0.4326 -0.1705
 1820SOL    HW117093   4.131   3.431   5.231 -1.7957 -0.7338  0.0873
 1820SOL    HW217094   4.026   3.440   5.127  0.9196  0.6515 -2.5739
 1821SOL     OW17095   2.905   1.734  17.404  0.6173 -0.1043  0.2072
 1821SOL    HW117096   2.883   1.693  17.320  0.2557 -0.6153  0.5485
 1821SOL    HW217097   3.001   1.733  17.400  0.5918 -1.4814 -0.0831
 1822SOL     OW17098   0.824   4.029   8.805 -0.3486 -0.6997  0.4422
 1822SOL    HW117099   0.807   3.979   8.725  0.6271 -0.2765 -0.0299
 1822SOL    HW217100   0.743   4.028   8.856 -0.6172 -1.2191  0.0142
 1823SOL     OW17101   4.631   2.595   9.444 -0.2088 -0.8112 -0.4086
 1823SOL    HW117102   4.725   2.580   9.454 -0.5964 -2.8078  0.4046
 1823SOL    HW217103   4.623   2.690   9.439  0.3828 -0.6817  1.2121
 1824SOL     OW17104   2.810   3.881  16.283 -0.7858  0.2377  0.3269
 1824SOL    HW117105   2.839   3.796  16.250  0.4385 -0.5257  3.3973
 1824SOL    HW217106   2.720   3.863  16.312 -1.4042 -1.7913 -2.8865
 1825SOL     OW17107   1.919   2.281   2.827 -0.0715 -0.2877  0.6177
 1825SOL    HW117108   1.871   2.240   2.756  0.8971 -0.0758 -0.1522
 1825SOL    HW217109   1.987   2.322   2.774  0.2604  1.5515  2.4149
 1826SOL     OW17110   1.096   2.234   8.831 -0.0749  0.3614 -0.6092
 1826SOL    HW117111   1.179   2.244   8.877 -1.2890  0.1240  1.6153
 1826SOL    HW217112   1.121   2.184   8.753  0.0925  1.7095 -1.4090
 1827SOL     OW17113   3.998   0.026   3.213  0.0608  0.3263  0.6551
 1827SOL    HW117114   3.961   0.111   3.238  0.5926  0.4497  1.0253
 1827SOL    HW217115   3.964   0.011   3.125  1.3381  0.0989  0.2085
 1828SOL     OW17116   2.106   3.126  16.888 -0.1023 -0.1384 -0.6176
 1828SOL    HW117117   2.127   3.033  16.883  0.5674  0.0065 -0.4584
 1828SOL    HW217118   2.027   3.125  16.834  0.5105  0.6783 -1.5525
 1829SOL     OW17119   1.303   3.334   3.700 -0.4308  0.0601  0.0844
 1829SOL    HW117120   1.228   3.325   3.759 -1.3570 -0.9822 -1.2347
 1829SOL    HW217121   1.326   3.426   3.702 -2.5310  0.5994 -0.9798
 1830SOL     OW17122   4.354   3.128   2.758 -0.3693 -0.5168  0.4797
 1830SOL    HW117123   4.433   3.160   2.802 -0.2568 -1.5105  0.9952
 1830SOL    HW217124   4.362   3.179   2.677 -1.4959 -0.6568  0.2868
 1831SOL     OW17125   4.053   0.499   3.966 -0.0873 -0.2583 -0.2317
 1831SOL    HW117126   4.129   0.502   3.908 -0.9271 -0.5870 -1.3512
 1831SOL    HW217127   4.093   0.433   4.022  3.2594  0.9149 -1.1908
 1832SOL     OW17128   4.004   1.893  11.691  0.3561  0.1528  0.6725
 1832SOL    HW117129   4.044   1.861  11.772 -0.2729 -1.1204  0.4879
 1832SOL    HW217130   3.979   1.983  11.710  0.8629  0.2874  0.7063
 1833SOL     OW17131   0.078   2.285   0.576 -0.2294 -0.0694  0.1007
 1833SOL    HW117132   0.044   2.346   0.511 -0.2970  0.4496  0.6244
 1833SOL    HW217133   0.173   2.290   0.562 -0.8110  1.6514 -3.2845
 1834SOL     OW17134   3.225   1.129   1.716  0.4096  0.4647 -0.1360
 1834SOL    HW117135   3.271   1.209   1.690  3.2682 -1.1086  0.0462
 1834SOL    HW217136   3.208   1.096   1.628 -0.7831 -1.4539  0.8117
 1835SOL     OW17137   1.308   3.563   3.397 -0.0902  0.1188 -0.1942
 1835SOL    HW117138   1.351   3.486   3.360 -1.4566  0.3741 -2.3064
 1835SOL    HW217139   1.228   3.557   3.346 -0.0979 -0.0593 -0.1596
 1836SOL     OW17140   3.084   3.090   6.730 -0.0136  0.4065  0.7153
 1836SOL    HW117141   3.169   3.069   6.691  1.2673 -0.4375  3.9908
 1836SOL    HW217142   3.105   3.098   6.823  0.6538  1.7075  0.4610
 1837SOL     OW17143   1.263   2.435  11.944 -0.1358 -0.0740  0.1066
 1837SOL    HW117144   1.350   2.428  11.904  0.1891 -2.9960  1.3917
 1837SOL    HW217145   1.281   2.370  12.011  1.4354 -0.1503 -0.3985
 1838SOL     OW17146   3.547   0.798   7.144 -0.0196 -0.2108 -0.4891
 1838SOL    HW117147   3.498   0.772   7.222  1.3634  0.0250  0.4555
 1838SOL    HW217148   3.631   0.753   7.159  0.9355  1.6552 -0.3190
 1839SOL     OW17149   3.864   4.403  12.124 -0.1307 -0.1149 -0.6256
 1839SOL    HW117150   3.779   4.381  12.085  0.3528 -2.0559 -0.5775
 1839SOL    HW217151   3.898   4.318  12.150  0.2301  0.7646  1.7630
 1840SOL     OW17152   3.558   0.594   8.693  0.1835  0.0540 -0.0603
 1840SOL    HW117153   3.528   0.676   8.733  1.7241 -0.8802  3.0644
 1840SOL    HW217154   3.475   0.547   8.693 -0.7173  1.6039  0.8080
 1841SOL     OW17155   1.029   0.342   2.072 -0.0382 -0.3146  0.7129
 1841SOL    HW117156   1.023   0.374   1.982  1.1811  0.3129  0.8542
 1841SOL    HW217157   0.935   0.346   2.089 -0.0394  0.5779  0.4667
 1842SOL     OW17158   2.566   4.005   4.286  0.2939 -0.0089  0.3550
 1842SOL    HW117159   2.505   4.040   4.220  1.9109  1.7353 -0.2416
 1842SOL    HW217160   2.508   4.004   4.361  1.6058  0.2866  1.3837
 1843SOL     OW17161   4.107   4.408   6.676  0.2048  0.3036 -0.1574
 1843SOL    HW117162   4.145   4.331   6.633  1.9250  0.8177  0.4674
 1843SOL    HW217163   4.024   4.365   6.698 -0.3405  1.1138 -0.6417
 1844SOL     OW17164   0.649   1.811   8.195 -0.0141  0.0978  0.4588
 1844SOL    HW117165   0.727   1.756   8.204  0.4484  0.7351  0.3840
 1844SOL    HW217166   0.676   1.886   8.249 -1.7228  1.1476 -0.1660
 1845SOL     OW17167   3.423   1.831   1.322  0.4801 -0.2578  0.1231
 1845SOL    HW117168   3.383   1.826   1.409  0.3365  2.3483  0.1922
 1845SOL    HW217169   3.354   1.841   1.256 -2.0152 -2.4717  2.3609
 1846SOL     OW17170   3.339   2.809   5.520  0.1206  0.4234 -0.5135
 1846SOL    HW117171   3.262   2.824   5.575 -1.2776 -1.0552 -2.0876
 1846SOL    HW217172   3.386   2.743   5.571  0.6477  0.6054 -0.7596
 1847SOL     OW17173   1.857   3.983   5.504 -0.4292 -0.1797 -0.5016
 1847SOL    HW117174   1.779   3.978   5.558 -0.2843  0.3314 -0.2457
 1847SOL    HW217175   1.810   3.968   5.422 -0.2933  1.6594 -0.9326
 1848SOL     OW17176   1.089   3.238   8.992  0.1340  0.1954 -0.5346
 1848SOL    HW117177   1.170   3.287   8.978  0.7081  0.0022  2.0252
 1848SOL    HW217178   1.034   3.290   9.051 -2.6195 -0.5009 -2.4912
 1849SOL     OW17179   4.000   2.317   8.823 -0.4585 -0.1247  0.2647
 1849SOL    HW117180   4.066   2.256   8.789  1.5388  1.2658  1.6015
 1849SOL    HW217181   4.057   2.375   8.873 -0.4712  1.6678 -1.7506
 1850SOL     OW17182   0.018   3.256   6.559  0.3070  0.4008  0.7613
 1850SOL    HW117183   4.724   3.222   6.475  0.6154 -1.9073  1.5813
 1850SOL    HW217184   4.678   3.302   6.592  0.4855 -1.6131  3.9479
 1851SOL     OW17185   2.802   4.197   9.622 -0.1134 -0.0480  0.0211
 1851SOL    HW117186   2.825   4.256   9.550  0.4107  1.2123  1.1998
 1851SOL    HW217187   2.773   4.266   9.683 -0.8775 -0.2185 -0.1494
 1852SOL     OW17188   2.151   4.581   2.733  0.4073 -0.3626 -0.5516
 1852SOL    HW117189   2.224   4.521   2.750 -0.9736 -2.8453 -3.3742
 1852SOL    HW217190   2.189   4.666   2.710 -0.7895  0.0798 -0.9068
 1853SOL     OW17191   2.233   4.320   9.270 -0.1081  0.2011 -0.4886
 1853SOL    HW117192   2.209   4.233   9.303 -0.7139  0.6533  0.2480
 1853SOL    HW217193   2.154   4.344   9.220  0.2239  0.5940 -0.8274
 1854SOL     OW17194   2.860   1.208   2.885  0.0726 -0.3682  0.2009
 1854SOL    HW117195   2.902   1.146   2.824 -2.6703 -1.0621 -0.9909
 1854SOL    HW217196   2.835   1.276   2.822  0.7465 -2.5872 -2.4576
 1855SOL     OW17197   4.580   0.298   6.356 -0.1306  0.4250  0.3128
 1855SOL    HW117198   4.650   0.280   6.293 -0.0203 -1.0192  0.8486
 1855SOL    HW217199   4.504   0.252   6.321 -0.5597  0.8238  0.7194
 1856SOL     OW17200   0.523   4.070   8.859  0.3790  0.4312 -0.4866
 1856SOL    HW117201   0.516   4.074   8.763 -1.0777  0.8028 -0.3658
 1856SOL    HW217202   0.482   4.154   8.877  1.4694  0.5410  1.4316
 1857SOL     OW17203   0.389   2.355   9.364  0.8545  0.7919 -0.6940
 1857SOL    HW117204   0.446   2.317   9.430  1.9428  2.1484 -0.8571
 1857SOL    HW217205   0.391   2.279   9.307  2.9105 -0.0182  0.4743
 1858SOL     OW17206   4.465   2.169   9.035  0.1174 -0.2076  0.0413
 1858SOL    HW117207   4.382   2.194   9.075 -0.9801 -2.1261 -1.0511
 1858SOL    HW217208   4.466   2.220   8.954  1.6971 -1.5685 -0.8118
 1859SOL     OW17209   2.642   2.136   0.865  0.0060  0.3473  0.4818
 1859SOL    HW117210   2.670   2.084   0.940  1.3948 -1.5581 -1.3665
 1859SOL    HW217211   2.573   2.079   0.832  2.2533 -1.9786 -0.1963
 1860SOL     OW17212   1.224   2.925   3.030  0.4168  0.2443  0.2214
 1860SOL    HW117213   1.254   2.841   2.993  0.3494  0.3626 -0.1048
 1860SOL    HW217214   1.144   2.895   3.072  1.2023  0.1514  1.6294
 1861SOL     OW17215   2.125   2.215   8.068 -0.2932 -0.0418  0.3433
 1861SOL    HW117216   2.205   2.257   8.037 -0.8209 -1.2388 -2.5762
 1861SOL    HW217217   2.120   2.150   7.998  0.1860  0.1636  0.1246
 1862SOL     OW17218   0.588   4.496   5.399 -0.0200 -0.2814  0.3177
 1862SOL    HW117219   0.621   4.483   5.310  0.6479  0.2992  0.4837
 1862SOL    HW217220   0.557   4.586   5.395  0.9175  0.0163 -0.2743
 1863SOL     OW17221   1.727   0.041  10.715  0.1531 -0.7424 -0.7829
 1863SOL    HW117222   1.813   0.056  10.754 -0.4715  2.8623 -0.8425
 1863SOL    HW217223   1.692   0.130  10.712 -0.8750 -1.1188 -0.1147
 1864SOL     OW17224   1.173   0.928   3.455 -0.2497 -0.0079 -0.3955
 1864SOL    HW117225   1.227   0.860   3.413 -2.5058 -2.1266  0.1360
 1864SOL    HW217226   1.112   0.867   3.497  1.3424  0.2492  2.3019
 1865SOL     OW17227   3.626   3.854   8.240 -0.6049  0.0083  0.0507
 1865SOL    HW117228   3.696   3.810   8.288  0.8311  2.8929  0.6176
 1865SOL    HW217229   3.556   3.854   8.305  0.4082  0.0744  1.1465
 1866SOL     OW17230   3.956   0.845   1.287 -0.3735  0.1492 -0.1558
 1866SOL    HW117231   4.016   0.876   1.220  0.2661 -0.1672  0.2684
 1866SOL    HW217232   3.944   0.930   1.329  0.3782  1.2792 -2.2355
 1867SOL     OW17233   4.293   0.026   8.411 -0.3083  0.5359  0.2533
 1867SOL    HW117234   4.309   0.019   8.505 -0.5284  0.7341  0.3055
 1867SOL    HW217235   4.385   0.037   8.387 -0.4924  0.1648 -0.6129
 1868SOL     OW17236   2.236   0.014   6.338 -0.3428 -0.1747  0.0174
 1868SOL    HW117237   2.231   4.675   6.395  1.6101  0.6668  1.2867
 1868SOL    HW217238   2.313   4.733   6.284 -0.7968  1.1290 -1.1011
 1869SOL     OW17239   3.692   4.509  14.707 -0.4103 -0.2425 -0.0772
 1869SOL    HW117240   3.637   4.587  14.709 -0.5335 -0.3719  1.8803
 1869SOL    HW217241   3.732   4.505  14.794  0.0832 -0.5036 -0.3159
 1870SOL     OW17242   1.461   2.687   5.376  0.4619 -0.6133  0.0595
 1870SOL    HW117243   1.378   2.661   5.337  0.0770 -1.1748  1.2646
 1870SOL    HW217244   1.495   2.600   5.399 -1.8418 -1.4583  0.2070
 1871SOL     OW17245   4.141   1.336  13.021 -0.2227  0.2329  0.0548
 1871SOL    HW117246   4.097   1.354  13.104  0.5096  0.8578  0.3116
 1871SOL    HW217247   4.226   1.319  13.062 -0.3169  0.1290  0.2070
 1872SOL     OW17248   0.636   1.242   9.119 -0.2928  0.1843 -0.2622
 1872SOL    HW117249   0.551   1.236   9.163  1.5557 -1.8818  3.0770
 1872SOL    HW217250   0.679   1.307   9.175  1.9949 -1.1180 -0.4930
 1873SOL     OW17251   1.081   2.550  11.593  0.1482  0.1205 -0.0456
 1873SOL    HW117252   1.085   2.600  11.674  2.8452 -0.1639  0.0176
 1873SOL    HW217253   1.097   2.462  11.628  2.2115  0.3843 -0.2874
 1874SOL     OW17254   3.091   1.525  15.562  0.4272  0.2194 -0.5591
 1874SOL    HW117255   3.031   1.567  15.500 -1.6784 -1.8597  0.0804
 1874SOL    HW217256   3.144   1.469  15.506 -1.2630 -3.0725  1.0885
 1875SOL     OW17257   4.552   3.287   3.557  0.9412 -0.1014 -0.3230
 1875SOL    HW117258   4.534   3.365   3.504 -0.2504 -0.3294 -0.2591
 1875SOL    HW217259   4.630   3.247   3.518 -0.2191  0.0597 -2.7901
 1876SOL     OW17260   0.128   1.259   5.395 -0.1054  0.1289  0.2593
 1876SOL    HW117261   0.095   1.257   5.305 -0.4669 -0.2107  0.4027
 1876SOL    HW217262   0.070   1.199   5.442  1.3608 -2.2169 -0.9544
 1877SOL     OW17263   1.797   2.944   6.049  0.4331  0.1292 -0.3283
 1877SOL    HW117264   1.768   2.905   5.967 -0.8885  1.2512 -0.3880
 1877SOL    HW217265   1.744   2.889   6.107  0.8233  1.3130  1.1770
 1878SOL     OW17266   1.371   0.308   2.749 -0.1323  0.3589  0.6112
 1878SOL    HW117267   1.276   0.312   2.758 -0.3056  2.1139 -2.0035
 1878SOL    HW217268   1.381   0.328   2.656  2.6143 -1.3133  0.5535
 1879SOL     OW17269   4.627   0.876   8.236  0.3317 -0.1189 -0.3376
 1879SOL    HW117270   4.710   0.923   8.225  0.4114  0.3387  2.2806
 1879SOL    HW217271   4.573   0.948   8.266 -1.0666 -1.1223 -0.4582
 1880SOL     OW17272   1.767   1.377  16.790 -0.2026  0.4482 -0.1114
 1880SOL    HW117273   1.803   1.390  16.702 -2.0601  0.5084 -0.8658
 1880SOL    HW217274   1.744   1.465  16.820 -1.1752  0.1598 -0.0343
 1881SOL     OW17275   0.737   3.854   6.149  0.1798 -0.5818  0.2939
 1881SOL    HW117276   0.717   3.770   6.190 -0.8049 -0.3183  0.3697
 1881SOL    HW217277   0.668   3.905   6.191 -0.2646 -2.5938  1.9868
 1882SOL     OW17278   1.214   4.622   0.190  0.2687  0.0704  0.5731
 1882SOL    HW117279   1.256   4.639   0.106 -1.2091  0.2997 -0.1234
 1882SOL    HW217280   1.125   4.599   0.164  1.1729 -1.7166 -0.9144
 1883SOL     OW17281   0.534   0.488   4.008  0.2143 -0.6772 -0.0285
 1883SOL    HW117282   0.550   0.549   3.936  0.0180 -1.9756 -1.1717
 1883SOL    HW217283   0.457   0.540   4.031 -1.6307 -1.9599 -3.3596
 1884SOL     OW17284   1.717   4.490   8.374  0.0499 -0.1999 -0.2966
 1884SOL    HW117285   1.673   4.407   8.392  1.4683 -0.6601  1.0295
 1884SOL    HW217286   1.657   4.537   8.316 -1.3087 -2.2168 -0.5099
 1885SOL     OW17287   4.572   0.587   9.875 -0.9687  0.1595 -0.2075
 1885SOL    HW117288   4.589   0.663   9.818 -0.1201 -1.9132 -2.7370
 1885SOL    HW217289   4.629   0.518   9.840 -0.6743  0.7133 -0.8334
 1886SOL     OW17290   4.238   3.374   7.840  0.5348 -0.2976 -0.9827
 1886SOL    HW117291   4.231   3.440   7.909  0.5804 -1.4654  0.1266
 1886SOL    HW217292   4.245   3.430   7.762  3.2314  1.0598  0.2539
 1887SOL     OW17293   0.237   4.288  11.947 -0.0718  0.4860  0.1667
 1887SOL    HW117294   0.189   4.206  11.949 -0.6589  0.8802  1.9683
 1887SOL    HW217295   0.325   4.257  11.928  0.2143  1.2082  0.2836
 1888SOL     OW17296   1.026   0.757   3.604 -0.6430 -0.1857 -0.1614
 1888SOL    HW117297   0.965   0.773   3.676  0.1440  2.0033  0.0439
 1888SOL    HW217298   1.065   0.671   3.617  2.2002  1.1977  0.4220
 1889SOL     OW17299   3.918   4.129  15.888  0.9291  0.2465  0.4353
 1889SOL    HW117300   3.891   4.043  15.919  1.3862  0.6012  1.8449
 1889SOL    HW217301   3.896   4.173  15.970 -1.8955 -0.3807  0.0091
 1890SOL     OW17302   4.628   3.786   3.796 -0.0236 -0.3765 -0.6947
 1890SOL    HW117303   4.625   3.725   3.722 -1.0277 -0.1094 -0.8774
 1890SOL    HW217304   4.720   3.809   3.811 -0.3077 -0.3891  1.0901
 1891SOL     OW17305   3.641   3.618   8.058 -0.1598 -0.3074  0.7667
 1891SOL    HW117306   3.637   3.712   8.079 -2.6511 -0.9350  3.0457
 1891SOL    HW217307   3.706   3.589   8.121  0.3152 -0.3391  0.2663
 1892SOL     OW17308   3.212   1.648   4.725  0.1949  0.5318  0.8900
 1892SOL    HW117309   3.283   1.659   4.789  0.3951  2.7467  0.2736
 1892SOL    HW217310   3.172   1.734   4.714 -1.6965 -0.6228 -1.1842
 1893SOL     OW17311   2.623   4.265  16.034 -0.1481  0.6543  0.3829
 1893SOL    HW117312   2.620   4.170  16.033 -0.7215  0.6929 -2.0487
 1893SOL    HW217313   2.528   4.283  16.035 -0.5609 -1.3948 -2.2937
 1894SOL     OW17314   0.952   2.208   5.748 -0.2621  0.0174  0.1234
 1894SOL    HW117315   0.912   2.293   5.763 -2.4642 -0.4439 -3.2723
 1894SOL    HW217316   0.937   2.162   5.831  0.2552 -4.2764 -2.1615
 1895SOL     OW17317   0.153   3.473   4.758 -0.1827 -0.5744 -0.0455
 1895SOL    HW117318   0.165   3.382   4.732  0.3173  0.0509 -2.0103
 1895SOL    HW217319   0.060   3.480   4.781 -0.2948  0.9112 -0.9519
 1896SOL     OW17320   2.960   2.449   9.239  0.8501 -0.1006 -1.0018
 1896SOL    HW117321   2.945   2.492   9.323  1.4865  0.4162 -1.1480
 1896SOL    HW217322   2.877   2.404   9.223 -0.2519  1.3146  0.7839
 1897SOL     OW17323   4.049   3.568   7.185 -0.2308  0.0118 -0.2048
 1897SOL    HW117324   3.969   3.599   7.227 -1.6078 -1.3979 -1.7793
 1897SOL    HW217325   4.081   3.653   7.156  1.7353 -0.4898  0.4588
 1898SOL     OW17326   4.662   1.826   4.400  0.3463  0.4400  0.1909
 1898SOL    HW117327   4.646   1.858   4.311 -0.4251 -2.2596 -0.6455
 1898SOL    HW217328   4.692   1.740   4.370 -0.8849  0.7686 -2.0104
 1899SOL     OW17329   0.003   2.558   4.314 -0.7047  0.6186 -0.0784
 1899SOL    HW117330   0.088   2.599   4.301 -0.3277  0.3619  1.5782
 1899SOL    HW217331   0.001   2.554   4.410  1.1901  1.2094 -0.0138
 1900SOL     OW17332   2.752   0.507   4.067 -0.0123  0.1218  0.5211
 1900SOL    HW117333   2.725   0.554   4.145 -2.1426  1.0276 -0.7742
 1900SOL    HW217334   2.675   0.456   4.042 -0.7332  1.0776  0.8237
 1901SOL     OW17335   3.152   3.580   3.054 -0.9105  0.0406  0.0873
 1901SOL    HW117336   3.209   3.642   3.009  0.3988 -0.1754  1.4966
 1901SOL    HW217337   3.158   3.619   3.140 -0.3584  1.3949 -0.5691
 1902SOL     OW17338   3.742   2.481   3.904 -0.3955 -0.2641 -0.2251
 1902SOL    HW117339   3.797   2.435   3.841  0.9028  1.6469 -0.4559
 1902SOL    HW217340   3.781   2.453   3.987 -0.2621 -0.2904 -0.2972
 1903SOL     OW17341   4.514   0.440   5.771 -0.1491  0.3583  0.1178
 1903SOL    HW117342   4.494   0.353   5.806  2.1748  0.6901  2.2875
 1903SOL    HW217343   4.468   0.490   5.839  1.5244  1.5404  0.3928
 1904SOL     OW17344   2.593   0.945  12.542  0.3991 -0.5415  0.5735
 1904SOL    HW117345   2.623   0.875  12.600  0.5248  0.8130  2.1688
 1904SOL    HW217346   2.537   0.899  12.480 -0.2593 -0.0681  0.8254
 1905SOL     OW17347   1.467   2.989   8.621 -0.4075 -0.1986 -0.0010
 1905SOL    HW117348   1.551   2.990   8.667  0.9674 -0.4829 -2.4772
 1905SOL    HW217349   1.413   3.042   8.680  0.6716 -1.1550  1.8398
 1906SOL     OW17350   2.469   2.152   4.520 -0.3253 -0.0883 -0.0945
 1906SOL    HW117351   2.527   2.127   4.592  0.6792 -1.5623 -1.4057
 1906SOL    HW217352   2.528   2.225   4.499  0.9398 -0.9856  0.3246
 1907SOL     OW17353   1.451   1.896   2.887  0.6795  0.1204 -0.0651
 1907SOL    HW117354   1.502   1.956   2.941  1.9104 -0.9403 -0.0514
 1907SOL    HW217355   1.447   1.822   2.948  0.7336  1.0496  1.0606
 1908SOL     OW17356   1.129   2.844  11.946 -0.3688 -0.8319 -0.1301
 1908SOL    HW117357   1.070   2.859  11.872  0.8921  1.1851 -0.7165
 1908SOL    HW217358   1.100   2.762  11.987  0.4812 -1.6072 -1.0611
 1909SOL     OW17359   4.426   0.114   6.246 -0.3265  0.3080  0.5034
 1909SOL    HW117360   4.459   0.026   6.258 -2.7950 -0.6768  0.0585
 1909SOL    HW217361   4.333   0.090   6.239  0.5576 -2.4565 -1.3534
 1910SOL     OW17362   1.606   1.365  17.604  0.5528 -0.3008 -0.8598
 1910SOL    HW117363   1.539   1.389  17.668 -0.7462 -3.4116 -1.0635
 1910SOL    HW217364   1.639   1.454  17.595  0.9140 -0.3437  0.1338
 1911SOL     OW17365   4.388   4.355   2.854  0.8573  1.1868  0.2840
 1911SOL    HW117366   4.377   4.425   2.790 -1.2089  1.8495  1.3704
 1911SOL    HW217367   4.466   4.384   2.901  0.5763  0.1045  1.4204
 1912SOL     OW17368   0.393   4.151   6.650  0.0953 -0.3832 -0.1350
 1912SOL    HW117369   0.393   4.091   6.725 -2.6259  0.6117  0.6413
 1912SOL    HW217370   0.398   4.237   6.691 -0.6316  0.8888 -2.7053
 1913SOL     OW17371   4.293   0.686   7.557  0.1609  0.0397  0.1579
 1913SOL    HW117372   4.306   0.779   7.575  1.1040  0.0006 -0.2855
 1913SOL    HW217373   4.343   0.639   7.624  0.1585 -0.0384  0.1055
 1914SOL     OW17374   0.580   0.024  12.829  0.4904 -0.6716  0.4398
 1914SOL    HW117375   0.534   0.102  12.860 -2.8873 -1.9565 -1.2650
 1914SOL    HW217376   0.593   0.061  12.742 -1.5944 -1.5587 -0.2599
 1915SOL     OW17377   2.229   4.506   1.588  0.4623 -0.0937 -0.3693
 1915SOL    HW117378   2.187   4.421   1.601  3.5425 -1.4613  0.3950
 1915SOL    HW217379   2.157   4.566   1.609  0.0950  0.8688 -4.2741
 1916SOL     OW17380   3.709   4.352   1.739  0.4161 -0.1671 -0.5138
 1916SOL    HW117381   3.723   4.440   1.702 -1.0417  0.4476  0.4118
 1916SOL    HW217382   3.764   4.353   1.817 -0.3066  0.3524 -0.0038
 1917SOL     OW17383   4.236   2.119   5.802  0.0932 -0.5282  0.1318
 1917SOL    HW117384   4.210   2.110   5.710 -1.4772  1.1602  0.3998
 1917SOL    HW217385   4.318   2.072   5.793 -0.5023 -1.2480 -1.5315
 1918SOL     OW17386   0.770   3.852   4.239 -0.3504  0.0151 -0.3647
 1918SOL    HW117387   0.706   3.785   4.263  0.5247 -0.2397  1.2468
 1918SOL    HW217388   0.842   3.795   4.211 -0.3510  1.0780 -2.4950
 1919SOL     OW17389   1.494   0.471   3.311  0.1509 -0.0579 -0.5438
 1919SOL    HW117390   1.575   0.469   3.361  1.6691  0.6990 -2.9913
 1919SOL    HW217391   1.476   0.384   3.274  0.6851 -0.6921  0.6894
 1920SOL     OW17392   1.867   4.023   6.469  0.4230 -0.9314 -0.0850
 1920SOL    HW117393   1.841   4.081   6.398  2.7094 -0.3636 -0.4573
 1920SOL    HW217394   1.823   3.939   6.454  0.9532 -1.2926  0.3720
 1921SOL     OW17395   2.836   2.336   6.724 -0.6696 -0.1828 -0.2911
 1921SOL    HW117396   2.775   2.362   6.655 -0.5298 -1.8998 -1.0797
 1921SOL    HW217397   2.798   2.372   6.805  0.5079 -0.4227  0.3621
 1922SOL     OW17398   0.500   2.271  16.670 -0.2951 -0.2538 -0.0247
 1922SOL    HW117399   0.487   2.359  16.634  2.2224 -0.2836 -0.9923
 1922SOL    HW217400   0.502   2.297  16.762  0.6067 -1.0081  0.1630
 1923SOL     OW17401   0.083   2.820   5.361 -0.6796 -0.1873  0.1627
 1923SOL    HW117402   0.101   2.905   5.399 -0.9833 -1.1985  2.5620
 1923SOL    HW217403   0.123   2.832   5.274 -1.0411  0.1900  0.0510
 1924SOL     OW17404   0.689   2.480  13.219 -0.8056 -0.0533  0.1397
 1924SOL    HW117405   0.735   2.397  13.232 -0.4829  0.1930  0.5503
 1924SOL    HW217406   0.750   2.535  13.170 -0.1972  0.6632  1.7102
 1925SOL     OW17407   0.134   2.462   3.143 -0.6997 -0.2244 -0.2164
 1925SOL    HW117408   0.159   2.409   3.218 -0.2918 -2.3302 -1.8311
 1925SOL    HW217409   0.189   2.539   3.158  0.0400 -0.6233 -0.8419
 1926SOL     OW17410   0.571   3.085   8.707 -0.1617  0.1896  0.6359
 1926SOL    HW117411   0.531   3.171   8.723  1.2134  0.8457  0.5645
 1926SOL    HW217412   0.524   3.024   8.764 -1.9764 -0.0584 -1.1577
 1927SOL     OW17413   2.674   2.423   0.849 -0.0428  0.0999 -0.4815
 1927SOL    HW117414   2.684   2.329   0.862  4.5557  0.5419 -0.8770
 1927SOL    HW217415   2.756   2.462   0.880 -0.6246  1.2370 -0.3794
 1928SOL     OW17416   1.445   2.412   2.856 -0.3128  0.6892  0.0808
 1928SOL    HW117417   1.352   2.397   2.877 -0.7018  0.3955 -1.9070
 1928SOL    HW217418   1.445   2.346   2.787 -2.2298  0.2541  0.4830
 1929SOL     OW17419   4.635   4.297   1.862 -0.2604 -0.3315 -0.1596
 1929SOL    HW117420   4.597   4.210   1.849  0.3966 -1.0702  2.8622
 1929SOL    HW217421   4.701   4.282   1.929  0.1438 -2.9293 -1.1576
 1930SOL     OW17422   1.914   2.604  11.320  0.3118  0.1134  0.7378
 1930SOL    HW117423   1.830   2.644  11.343 -0.8131 -1.2655 -0.9806
 1930SOL    HW217424   1.941   2.652  11.241 -2.4330 -0.1533 -0.3717
 1931SOL     OW17425   0.091   2.779   4.803 -0.1251 -0.0314 -0.4424
 1931SOL    HW117426   0.138   2.767   4.886 -1.9395  0.4022  0.6546
 1931SOL    HW217427   0.000   2.783   4.834  0.0192  3.4407 -0.4101
 1932SOL     OW17428   4.024   2.879   8.544 -0.0459  0.0751 -0.0882
 1932SOL    HW117429   4.119   2.869   8.553  0.4456  2.2704 -2.7321
 1932SOL    HW217430   4.021   2.975   8.538 -1.9034  0.1986  2.9503
 1933SOL     OW17431   3.503   2.340   9.817  0.0153 -0.4773 -0.0846
 1933SOL    HW117432   3.459   2.424   9.832 -0.1518 -0.6061  0.1415
 1933SOL    HW217433   3.432   2.287   9.783 -0.7767  0.5422 -0.0092
 1934SOL     OW17434   1.501   3.802  10.857 -0.6797 -0.0077  0.4472
 1934SOL    HW117435   1.469   3.744  10.926  0.4860 -3.3048 -1.8420
 1934SOL    HW217436   1.596   3.788  10.856 -1.1801 -2.9892 -2.0823
 1935SOL     OW17437   4.357   1.286   3.346 -0.4330  0.5205 -0.1286
 1935SOL    HW117438   4.297   1.244   3.407 -0.1716  1.0155  0.4689
 1935SOL    HW217439   4.416   1.217   3.317 -0.9426 -0.1780  0.5026
 1936SOL     OW17440   0.907   0.399  12.971 -0.0065  0.1283  0.1998
 1936SOL    HW117441   0.824   0.351  12.964  0.8744 -1.2896 -0.5339
 1936SOL    HW217442   0.968   0.358  12.909  1.2044 -2.2701  2.9810
 1937SOL     OW17443   3.335   0.529   3.005  0.6624 -0.2269  0.5266
 1937SOL    HW117444   3.377   0.591   3.064 -1.5418  1.3684  0.4534
 1937SOL    HW217445   3.411   0.512   2.950  1.6598 -2.1329  2.5247
 1938SOL     OW17446   3.166   0.672   7.213  0.3505  0.1977 -0.1010
 1938SOL    HW117447   3.158   0.618   7.135 -0.2023  0.4197 -0.1981
 1938SOL    HW217448   3.244   0.629   7.248  0.6056  1.0169  0.3511
 1939SOL     OW17449   3.101   0.241   6.062 -0.0596  0.2533  0.1706
 1939SOL    HW117450   3.060   0.220   5.978 -1.6017  1.4690  0.6085
 1939SOL    HW217451   3.155   0.313   6.028 -1.1730  0.5546 -0.9831
 1940SOL     OW17452   3.735   3.183   5.263 -0.3296  0.3499  0.8078
 1940SOL    HW117453   3.696   3.193   5.350 -0.5646  0.0312  0.7428
 1940SOL    HW217454   3.768   3.269   5.240  0.9860 -0.1851  0.6943
 1941SOL     OW17455   3.131   0.139   1.922 -0.3757  0.3431  0.3271
 1941SOL    HW117456   3.170   0.078   1.860  1.6925  1.3949  0.6155
 1941SOL    HW217457   3.041   0.113   1.901  0.5403 -1.1816 -1.7015
 1942SOL     OW17458   1.565   3.312   2.012  0.1553  0.3673  0.8866
 1942SOL    HW117459   1.598   3.238   1.963 -1.4962 -0.2474  0.7017
 1942SOL    HW217460   1.568   3.278   2.101 -1.0582 -0.6202  0.5420
 1943SOL     OW17461   0.401   1.008   4.528 -0.3971  0.4873 -0.1171
 1943SOL    HW117462   0.433   0.966   4.608 -0.2169 -0.5549 -0.7360
 1943SOL    HW217463   0.468   0.994   4.461 -1.3372 -1.1519 -0.7196
 1944SOL     OW17464   0.261   2.155  16.610 -0.0527  0.2006  0.1515
 1944SOL    HW117465   0.346   2.197  16.625  0.2541 -0.2783 -0.2100
 1944SOL    HW217466   0.226   2.219  16.548 -0.1266  0.0898  0.0773
 1945SOL     OW17467   3.538   0.637   1.108 -0.1016 -0.0196 -0.3268
 1945SOL    HW117468   3.518   0.731   1.116  1.3076  0.3369 -0.9595
 1945SOL    HW217469   3.607   0.620   1.172 -0.2008 -0.3819 -0.3185
 1946SOL     OW17470   0.504   1.123   8.345  0.3330 -0.2428 -0.8911
 1946SOL    HW117471   0.466   1.186   8.283 -0.0323  0.2760 -0.1326
 1946SOL    HW217472   0.500   1.047   8.287  1.3328 -2.0246  1.4154
 1947SOL     OW17473   0.836   1.475   2.562  0.3219  0.4198  0.8559
 1947SOL    HW117474   0.883   1.469   2.645  0.9303  0.2260  0.4967
 1947SOL    HW217475   0.798   1.560   2.586  0.2764  0.6546 -0.0440
 1948SOL     OW17476   3.430   3.925   7.361 -0.1023  0.2202 -0.6431
 1948SOL    HW117477   3.473   3.989   7.417 -0.5805  1.8999 -2.2067
 1948SOL    HW217478   3.342   3.948   7.392  1.1642  0.1631  2.9264
 1949SOL     OW17479   1.188   1.071   5.992 -0.1742  0.0969  0.2020
 1949SOL    HW117480   1.272   1.061   6.037  0.3853 -2.7340 -1.4588
 1949SOL    HW217481   1.223   1.072   5.903  2.1829  0.1427  1.1354
 1950SOL     OW17482   4.338   1.538   8.686 -0.3518 -0.2258 -0.3862
 1950SOL    HW117483   4.374   1.585   8.761 -0.4095 -1.3304  0.3175
 1950SOL    HW217484   4.262   1.594   8.668 -0.8221 -0.3564  1.2152
 1951SOL     OW17485   4.458   2.509   1.707 -0.2525 -0.5838  0.2950
 1951SOL    HW117486   4.536   2.485   1.759  0.2132 -0.2320 -0.2462
 1951SOL    HW217487   4.478   2.585   1.653 -2.9165 -1.7624 -2.2801
 1952SOL     OW17488   2.576   2.683   7.636 -0.0351 -0.0351  0.5353
 1952SOL    HW117489   2.521   2.620   7.683 -1.8060  0.5073 -0.7863
 1952SOL    HW217490   2.563   2.760   7.690  0.4541  0.8906 -0.6660
 1953SOL     OW17491   2.986   0.460   2.257  0.0589  0.0203 -0.7799
 1953SOL    HW117492   2.906   0.450   2.206 -0.2801 -0.1020 -0.2179
 1953SOL    HW217493   3.031   0.378   2.238  0.2932 -0.0386  0.0374
 1954SOL     OW17494   0.188   2.518   4.642 -0.2679 -0.2538  0.0214
 1954SOL    HW117495   0.100   2.556   4.651 -0.9237 -1.4310 -1.3606
 1954SOL    HW217496   0.208   2.492   4.732  1.5478  1.7182  0.1763
 1955SOL     OW17497   1.470   3.892   4.733  0.7077 -0.3779  0.5404
 1955SOL    HW117498   1.425   3.871   4.815 -0.2473  1.0879  0.3785
 1955SOL    HW217499   1.462   3.987   4.728  0.0331 -0.5156 -0.9451
 1956SOL     OW17500   4.672   2.079  16.333  0.1742 -0.1186 -0.2564
 1956SOL    HW117501   4.723   2.013  16.286  0.7189 -0.7377  1.2083
 1956SOL    HW217502   4.686   2.147  16.266  0.0802 -1.0991 -1.2706
 1957SOL     OW17503   1.210   1.369   7.267  0.5635 -0.2301 -0.1322
 1957SOL    HW117504   1.170   1.287   7.294  0.0643  0.0101 -0.1348
 1957SOL    HW217505   1.214   1.423   7.346  0.3708 -0.7159  0.2077
 1958SOL     OW17506   1.148   1.420  17.161 -0.5501 -0.1462  0.0314
 1958SOL    HW117507   1.191   1.506  17.160  0.9460 -0.8870  0.5848
 1958SOL    HW217508   1.225   1.364  17.168 -0.4902  0.2923  2.7101
 1959SOL     OW17509   2.627   0.835   8.344  0.0029 -0.0896  0.1151
 1959SOL    HW117510   2.589   0.810   8.429  0.5772 -1.1803  0.0522
 1959SOL    HW217511   2.691   0.766   8.329 -1.7827 -2.0604  1.4383
 1960SOL     OW17512   1.300   4.578   5.857 -0.5370  0.0162 -0.0598
 1960SOL    HW117513   1.331   4.526   5.783 -0.3765 -1.4747  1.0508
 1960SOL    HW217514   1.214   4.541   5.879 -0.5671 -0.9002 -1.7599
 1961SOL     OW17515   3.107   3.213   8.820 -0.7132 -0.4392 -0.5322
 1961SOL    HW117516   3.087   3.223   8.727  1.1122  0.7065 -0.7957
 1961SOL    HW217517   3.092   3.303   8.847  0.9408 -0.3114 -0.0514
 1962SOL     OW17518   4.585   2.487   8.613 -0.0522  0.6480  0.3196
 1962SOL    HW117519   4.624   2.568   8.646  1.6606 -0.0897  0.0874
 1962SOL    HW217520   4.493   2.512   8.620  0.3005  1.4725  2.1503
 1963SOL     OW17521   1.110   0.447   4.337 -0.2799  1.0102  0.3772
 1963SOL    HW117522   1.161   0.459   4.257 -0.2762 -0.9784  0.0810
 1963SOL    HW217523   1.181   0.413   4.390  0.1023  1.0982 -0.0791
 1964SOL     OW17524   0.504   1.941   2.465 -0.4072 -0.1070  0.3999
 1964SOL    HW117525   0.450   2.003   2.512 -2.1380 -2.3655  1.4060
 1964SOL    HW217526   0.561   2.000   2.417  0.4437 -1.0761  0.2059
 1965SOL     OW17527   4.454   0.235   3.406  0.1357  0.0774 -0.1322
 1965SOL    HW117528   4.381   0.177   3.386  0.1923  0.0934 -0.3856
 1965SOL    HW217529   4.506   0.225   3.326  2.5286  1.7037  1.2363
 1966SOL     OW17530   2.825   1.851   9.145  0.7604  0.0791 -0.3879
 1966SOL    HW117531   2.734   1.839   9.173  1.0862 -2.2325 -0.2747
 1966SOL    HW217532   2.876   1.814   9.217 -0.4697 -3.3066 -1.2727
 1967SOL     OW17533   0.158   2.582  14.788 -0.1142 -0.1644 -0.3656
 1967SOL    HW117534   0.208   2.506  14.760 -0.9079 -0.4625 -0.9589
 1967SOL    HW217535   0.220   2.655  14.779  0.9328 -1.2924 -2.2591
 1968SOL     OW17536   0.997   1.865   1.101  0.2265 -0.1526  0.4513
 1968SOL    HW117537   1.080   1.875   1.147  0.0594  2.2750  0.2009
 1968SOL    HW217538   0.980   1.951   1.061  2.0660  0.5506  1.2028
 1969SOL     OW17539   4.017   1.269   9.522 -0.1934 -0.0995 -0.9365
 1969SOL    HW117540   4.100   1.306   9.553 -1.6342  1.4576  1.1390
 1969SOL    HW217541   3.997   1.315   9.441 -1.4640  0.0494 -0.5473
 1970SOL     OW17542   2.351   0.508  16.960  0.2597  0.5764 -0.0194
 1970SOL    HW117543   2.412   0.470  17.023 -1.9477 -1.3983  0.9220
 1970SOL    HW217544   2.381   0.475  16.875  1.3786  2.7557 -0.4564
 1971SOL     OW17545   4.277   2.226   0.919 -0.2379  0.3986 -0.7595
 1971SOL    HW117546   4.224   2.282   0.974 -1.0051  1.3062 -2.4252
 1971SOL    HW217547   4.339   2.294   0.894  1.0038  0.6195  2.9842
 1972SOL     OW17548   3.475   0.100   1.675 -0.5546  0.0883 -0.3763
 1972SOL    HW117549   3.509   0.062   1.756  1.3934  1.1867 -0.6731
 1972SOL    HW217550   3.459   0.191   1.701 -0.8806  0.1957 -0.9741
 1973SOL     OW17551   1.543   1.628  15.785  0.0128 -1.0859  0.3929
 1973SOL    HW117552   1.501   1.714  15.792 -1.1181 -1.4525 -2.2849
 1973SOL    HW217553   1.632   1.647  15.817 -0.1773  1.2385 -0.4521
 1974SOL     OW17554   3.170   3.537   7.691 -0.3087  0.3455  0.5086
 1974SOL    HW117555   3.177   3.574   7.603 -0.6690  0.2619  0.4438
 1974SOL    HW217556   3.225   3.592   7.748  0.9736 -0.9642  0.5306
 1975SOL     OW17557   2.331   4.169   7.877  0.3838  0.1130  0.1961
 1975SOL    HW117558   2.426   4.176   7.882  0.4451  0.4655 -1.6550
 1975SOL    HW217559   2.302   4.245   7.826  0.0854 -1.1140 -1.4707
 1976SOL     OW17560   4.372   1.746   4.118 -0.0043  0.3024  0.0027
 1976SOL    HW117561   4.393   1.665   4.166 -0.1352 -0.1377 -0.6800
 1976SOL    HW217562   4.441   1.802   4.154 -1.3936  0.2784  2.6758
 1977SOL     OW17563   1.993   3.386   4.672 -0.1820  0.0909 -0.2746
 1977SOL    HW117564   2.050   3.455   4.637  0.5079 -0.8054 -0.8884
 1977SOL    HW217565   1.989   3.320   4.603  0.6835 -1.8385  1.5313
 1978SOL     OW17566   0.167   0.678   8.284  0.0001 -0.3309 -0.1304
 1978SOL    HW117567   0.105   0.713   8.348  2.6312  1.7710  1.2503
 1978SOL    HW217568   0.117   0.614   8.232  0.6884  0.4788 -1.7989
 1979SOL     OW17569   3.337   4.563   2.976  1.0138 -0.6232 -0.0041
 1979SOL    HW117570   3.414   4.506   2.980  1.6167  0.1231 -0.8236
 1979SOL    HW217571   3.354   4.619   2.900  0.6199 -1.9820 -1.0725
 1980SOL     OW17572   3.371   0.459  17.219  0.2055  0.0123 -0.0448
 1980SOL    HW117573   3.386   0.440  17.127  1.9140 -0.9903  0.4350
 1980SOL    HW217574   3.426   0.397  17.267  0.1320 -0.4891 -0.6146
 1981SOL     OW17575   0.649   4.318  11.375 -0.0038 -0.4307  0.2700
 1981SOL    HW117576   0.706   4.366  11.436  2.0845 -1.9522 -0.5230
 1981SOL    HW217577   0.715   4.266  11.330  1.0439 -0.8375  2.2419
 1982SOL     OW17578   0.713   4.351   4.336 -0.4266 -0.1672  0.1879
 1982SOL    HW117579   0.715   4.362   4.241  2.1313 -2.6439 -0.0768
 1982SOL    HW217580   0.758   4.266   4.341 -0.3479 -0.0458  1.4628
 1983SOL     OW17581   0.996   4.143   9.359  0.0350  0.2477  0.4005
 1983SOL    HW117582   0.920   4.187   9.396 -0.4864 -0.5584  0.2691
 1983SOL    HW217583   0.981   4.153   9.265 -0.9400  1.2755  0.6707
 1984SOL     OW17584   4.202   4.106  11.515  0.6743 -0.7157 -0.1515
 1984SOL    HW117585   4.136   4.074  11.576 -0.9490  2.1686 -0.3861
 1984SOL    HW217586   4.228   4.186  11.560 -1.9230 -0.3260  0.6440
 1985SOL     OW17587   0.519   1.528   9.327  0.0909 -0.1233  0.7896
 1985SOL    HW117588   0.442   1.536   9.384 -1.6590  1.0071 -1.7418
 1985SOL    HW217589   0.476   1.565   9.250  2.7820 -0.6373 -0.9525
 1986SOL     OW17590   2.918   3.080   4.394 -0.1775 -0.0563 -0.3321
 1986SOL    HW117591   2.912   2.988   4.422 -1.3639 -0.2253 -1.1287
 1986SOL    HW217592   2.983   3.086   4.325  0.4822  0.6406  0.3538
 1987SOL     OW17593   1.897   0.617   8.188  0.4551  0.6487  0.3496
 1987SOL    HW117594   1.920   0.543   8.244 -1.0037 -0.5155 -0.5884
 1987SOL    HW217595   1.895   0.576   8.101  0.9658  0.0630  0.6113
 1988SOL     OW17596   0.717   3.920   8.569 -0.0920  0.2866 -0.2699
 1988SOL    HW117597   0.719   3.825   8.579 -0.3707  0.2486 -0.5796
 1988SOL    HW217598   0.637   3.948   8.614 -0.5700  0.4096 -1.1871
 1989SOL     OW17599   2.385   3.927   9.335 -0.0945  0.8323 -0.0451
 1989SOL    HW117600   2.449   3.937   9.405  0.0382 -0.4740  0.0080
 1989SOL    HW217601   2.434   3.942   9.254  0.7673 -1.8688  0.0019
 1990SOL     OW17602   4.721   1.307  12.608  0.0485  0.1219 -0.0799
 1990SOL    HW117603   0.051   1.323  12.542 -1.6149  0.8049 -1.6241
 1990SOL    HW217604   4.680   1.224  12.584  1.8944 -0.9736  0.5939
 1991SOL     OW17605   3.218   0.212  17.420 -0.2640 -0.3938  0.5345
 1991SOL    HW117606   3.159   0.230  17.493  0.1544  1.1030  0.4909
 1991SOL    HW217607   3.301   0.244  17.457 -1.1844  0.4001  1.8925
 1992SOL     OW17608   3.396   4.304  14.656 -0.1963 -0.1053  0.0660
 1992SOL    HW117609   3.317   4.253  14.642 -0.8570  1.8401 -3.2630
 1992SOL    HW217610   3.383   4.329  14.748 -0.7136 -0.0377 -0.0252
 1993SOL     OW17611   3.163   3.195   5.950 -0.0796  0.1540 -0.4094
 1993SOL    HW117612   3.187   3.166   6.038  0.9938  0.3079 -0.6467
 1993SOL    HW217613   3.124   3.276   5.983  0.4381 -0.6173  2.1674
 1994SOL     OW17614   3.286   3.256   6.886  0.0764  0.1687  0.2911
 1994SOL    HW117615   3.221   3.289   6.948 -0.4791 -0.4812  0.0587
 1994SOL    HW217616   3.365   3.259   6.940 -0.6319  1.4532  1.2674
 1995SOL     OW17617   2.196   3.671   5.335 -0.4587  0.0496  0.1459
 1995SOL    HW117618   2.103   3.672   5.357 -0.3471  3.2763  0.4804
 1995SOL    HW217619   2.214   3.700   5.424 -1.9957  0.5486  0.3027
 1996SOL     OW17620   2.344   4.638   2.992 -0.2804 -0.5363 -0.1520
 1996SOL    HW117621   2.438   4.646   3.007 -0.8739  2.7530  1.7759
 1996SOL    HW217622   2.332   4.709   2.929  2.1780 -0.0123 -0.0164
 1997SOL     OW17623   4.195   1.113   7.725  0.0410 -0.7354  0.1083
 1997SOL    HW117624   4.196   1.183   7.660  0.0902 -0.8356  0.0016
 1997SOL    HW217625   4.149   1.044   7.678 -0.3102 -0.7285  0.4359
 1998SOL     OW17626   3.979   1.864   6.552 -0.8101  0.2109 -0.0707
 1998SOL    HW117627   4.035   1.937   6.526  0.1531 -0.9141 -1.1233
 1998SOL    HW217628   3.970   1.830   6.463 -0.2815 -0.0777 -0.0095
 1999SOL     OW17629   1.440   1.238   5.400 -0.6244  0.2424  0.2064
 1999SOL    HW117630   1.404   1.172   5.340  2.1646  0.2763 -1.4890
 1999SOL    HW217631   1.427   1.201   5.487 -1.8869  0.6727  0.1984
 2000SOL     OW17632   2.445   4.710   1.792  0.0174 -0.1569 -0.4663
 2000SOL    HW117633   2.365   0.026   1.788  0.2265  0.1955 -0.0230
 2000SOL    HW217634   2.511   0.041   1.779  1.1373 -1.1734 -0.0394
 2001SOL     OW17635   0.702   3.681   7.425  0.0678  0.2026  0.4087
 2001SOL    HW117636   0.797   3.677   7.414  0.1945  0.7612  1.2686
 2001SOL    HW217637   0.685   3.590   7.449 -0.7340  0.8817  2.4862
 2002SOL     OW17638   2.338   0.731   3.038  0.5106 -0.0264 -0.5055
 2002SOL    HW117639   2.386   0.699   3.114 -0.8113 -0.6476  0.0775
 2002SOL    HW217640   2.353   0.669   2.967  0.5508  0.4698 -0.9328
 2003SOL     OW17641   4.356   1.534   3.823 -0.5361 -0.4074  0.3555
 2003SOL    HW117642   4.315   1.569   3.744  0.8689  0.9855  0.2660
 2003SOL    HW217643   4.305   1.457   3.851  0.0386 -0.9630 -0.1258
 2004SOL     OW17644   4.555   1.727   9.168 -0.3642 -0.3826 -0.5028
 2004SOL    HW117645   4.489   1.678   9.218 -0.9085  1.5514  0.6667
 2004SOL    HW217646   4.504   1.799   9.130  0.7985  0.3744 -0.6244
 2005SOL     OW17647   1.810   4.306  13.466 -0.0651  0.3738 -0.0333
 2005SOL    HW117648   1.811   4.340  13.555 -0.6395  0.0891  0.0798
 2005SOL    HW217649   1.903   4.305  13.441 -0.4180 -0.9429 -1.3163
 2006SOL     OW17650   1.931   1.735   7.341 -0.0528 -0.4425 -0.0227
 2006SOL    HW117651   1.940   1.677   7.265 -0.3978  0.4375 -0.7405
 2006SOL    HW217652   2.017   1.773   7.357 -0.9334  1.1745  0.8071
 2007SOL     OW17653   0.422   2.957  16.673  0.0340 -0.2621 -0.4799
 2007SOL    HW117654   0.335   2.993  16.688  0.5876  0.1812  1.6910
 2007SOL    HW217655   0.453   3.027  16.616  1.5431 -3.4605 -3.5805
 2008SOL     OW17656   4.116   3.405   5.400 -0.0351 -0.6411 -0.5956
 2008SOL    HW117657   4.050   3.470   5.421  0.6785 -0.5942  1.5117
 2008SOL    HW217658   4.085   3.334   5.457 -0.3512 -0.1792 -0.1994
 2009SOL     OW17659   1.668   2.966   4.440  0.0497 -0.3792  0.6095
 2009SOL    HW117660   1.687   2.898   4.376  2.2975 -0.2320  1.1318
 2009SOL    HW217661   1.645   3.040   4.384 -0.5971 -1.3097 -0.3602
 2010SOL     OW17662   4.015   2.412   4.265 -0.3469  0.4199 -0.2520
 2010SOL    HW117663   4.041   2.484   4.323 -0.1714 -0.0760  0.2868
 2010SOL    HW217664   3.978   2.352   4.330 -0.5012  1.8002  0.9326
 2011SOL     OW17665   3.948   4.050  15.609  0.0179  0.1859  0.0395
 2011SOL    HW117666   3.900   3.970  15.587  0.5522 -0.7998  2.4324
 2011SOL    HW217667   3.910   4.084  15.691  1.2530  0.0283  0.6730
 2012SOL     OW17668   1.878   0.085  14.175 -0.4769 -0.6158 -0.0960
 2012SOL    HW117669   1.957   0.044  14.210  1.0687 -0.0315 -2.8942
 2012SOL    HW217670   1.848   0.013  14.121 -2.8728 -0.0155  0.4556
 2013SOL     OW17671   2.138   3.514   3.298  0.1431 -0.0994 -0.0907
 2013SOL    HW117672   2.161   3.524   3.206  0.0138  1.9955  0.1077
 2013SOL    HW217673   2.202   3.450   3.328 -0.6819 -1.6778 -1.7430
 2014SOL     OW17674   3.496   4.124  12.001 -0.7089 -0.2104  0.1466
 2014SOL    HW117675   3.456   4.051  11.952  0.5594 -0.5085 -0.4554
 2014SOL    HW217676   3.502   4.094  12.092 -3.0118 -0.6410  0.1776
 2015SOL     OW17677   0.919   4.642   8.326  0.3138  0.5001  0.5584
 2015SOL    HW117678   0.928   4.734   8.305  1.1463  0.1202 -0.7544
 2015SOL    HW217679   0.939   4.654   8.419  0.8293 -1.1984  0.6762
 2016SOL     OW17680   3.636   4.586   4.228  0.4574 -0.1398  0.0138
 2016SOL    HW117681   3.691   4.636   4.288  0.0947 -1.6626  1.6230
 2016SOL    HW217682   3.649   4.637   4.148  2.2548  0.7778  0.9011
 2017SOL     OW17683   2.661   0.691  13.947 -0.2456  0.4852  0.1023
 2017SOL    HW117684   2.608   0.755  13.899 -1.3793 -2.2452 -2.2925
 2017SOL    HW217685   2.610   0.688  14.028 -0.9045  0.5856 -0.2993
 2018SOL     OW17686   0.237   4.631   3.576  0.6041 -0.0564  0.0612
 2018SOL    HW117687   0.205   4.712   3.615  0.6396 -0.5145  1.0296
 2018SOL    HW217688   0.184   4.561   3.615  2.0753 -1.5206 -0.5894
 2019SOL     OW17689   2.563   4.185   2.682 -0.3806 -0.2118  0.7152
 2019SOL    HW117690   2.604   4.190   2.595 -0.7800 -2.1781  0.4093
 2019SOL    HW217691   2.574   4.091   2.699  1.2627 -0.0659  0.5149
 2020SOL     OW17692   0.515   3.630   8.517  0.2615  0.1799 -0.5218
 2020SOL    HW117693   0.424   3.635   8.546  1.3193  1.2858  2.6195
 2020SOL    HW217694   0.506   3.686   8.439  0.1576 -0.2982 -0.8524
 2021SOL     OW17695   3.529   3.188   3.140 -0.1995  0.2482 -0.5569
 2021SOL    HW117696   3.561   3.223   3.223 -1.5888  2.0233 -0.7671
 2021SOL    HW217697   3.463   3.257   3.133  0.7422  1.5226  2.9526
 2022SOL     OW17698   1.535   2.621  12.513  0.4113 -0.2681  0.1518
 2022SOL    HW117699   1.564   2.574  12.591 -3.4369  0.8432  2.2628
 2022SOL    HW217700   1.541   2.708  12.552 -1.7010 -0.8654  1.7844
 2023SOL     OW17701   1.620   4.128   4.453 -0.2612 -0.7806  0.1103
 2023SOL    HW117702   1.646   4.089   4.370  0.9092  0.1565  0.0395
 2023SOL    HW217703   1.610   4.217   4.419  0.5031  0.1182  2.2149
 2024SOL     OW17704   4.736   1.879   5.547 -0.2361  0.3717 -0.5348
 2024SOL    HW117705   4.643   1.867   5.526 -0.1306  0.1564 -0.8789
 2024SOL    HW217706   4.725   1.953   5.607 -1.6959 -0.5459  0.3413
 2025SOL     OW17707   1.755   2.088  13.821  0.2600 -0.0657  0.3812
 2025SOL    HW117708   1.791   2.044  13.898 -0.7562 -0.0679  0.8503
 2025SOL    HW217709   1.693   2.021  13.792 -1.0652  2.1519 -1.8702
 2026SOL     OW17710   2.035   3.211  11.830 -0.1646 -0.0449 -0.1939
 2026SOL    HW117711   2.021   3.119  11.806 -1.7806  0.4862 -1.3367
 2026SOL    HW217712   1.980   3.213  11.909  0.1848 -1.7304  0.0984
 2027SOL     OW17713   0.818   3.399  17.427  0.5805 -0.2582  0.0399
 2027SOL    HW117714   0.847   3.346  17.501 -0.2518  0.6968  1.0597
 2027SOL    HW217715   0.738   3.442  17.459  0.0975 -1.9913  1.1338
 2028SOL     OW17716   1.717   1.592  17.154  0.2276  0.1362 -0.0543
 2028SOL    HW117717   1.639   1.603  17.209 -0.2881  1.4501 -1.0369
 2028SOL    HW217718   1.709   1.674  17.105 -2.5057  1.4395  2.5599
 2029SOL     OW17719   1.731   4.058  17.241 -0.0794  0.0351 -0.3473
 2029SOL    HW117720   1.736   4.151  17.216 -1.7572  0.1442 -0.3148
 2029SOL    HW217721   1.816   4.044  17.281 -1.4229 -3.2061  1.3427
 2030SOL     OW17722   3.444   1.650   9.000 -0.2157  0.2295  0.2392
 2030SOL    HW117723   3.500   1.716   9.041  0.1544  0.0739 -0.0170
 2030SOL    HW217724   3.470   1.569   9.043  1.2734 -0.4975 -2.0347
 2031SOL     OW17725   2.113   1.709  13.123  0.0746  0.7664 -0.8787
 2031SOL    HW117726   2.034   1.667  13.090 -0.4340  0.5286  0.6656
 2031SOL    HW217727   2.078   1.793  13.152  2.3679  1.4042  0.0328
 2032SOL     OW17728   0.421   1.953   8.547 -0.0538 -0.3004 -0.0898
 2032SOL    HW117729   0.495   1.894   8.560  1.0683  1.1967  0.3356
 2032SOL    HW217730   0.454   2.008   8.476  1.9246 -1.6220 -0.1705
 2033SOL     OW17731   4.427   4.380   1.528  0.3702 -0.1830  0.1567
 2033SOL    HW117732   4.501   4.405   1.583  0.1923 -1.0313  0.7790
 2033SOL    HW217733   4.385   4.465   1.517  0.1550 -0.1030  1.6957
 2034SOL     OW17734   1.718   0.777  14.884 -0.5125 -0.1636 -0.3203
 2034SOL    HW117735   1.699   0.748  14.795  1.7742 -0.5837 -0.6812
 2034SOL    HW217736   1.810   0.768  14.908 -0.3141  1.5560 -0.3701
 2035SOL     OW17737   3.045   4.019   3.617  0.0538  0.3100 -0.0744
 2035SOL    HW117738   2.980   4.088   3.629 -1.2840 -0.6824 -1.6250
 2035SOL    HW217739   3.002   3.942   3.654 -2.5845  1.9883  0.3458
 2036SOL     OW17740   2.066   1.463  10.466  0.2002  0.6928 -0.2919
 2036SOL    HW117741   2.152   1.460  10.425  1.1597  1.0316  1.7154
 2036SOL    HW217742   2.017   1.427  10.392  0.6261 -1.4174  0.4681
 2037SOL     OW17743   0.173   1.801   4.034 -0.2450  0.3308  0.1797
 2037SOL    HW117744   0.190   1.780   4.125  1.1859  0.3139 -0.0937
 2037SOL    HW217745   0.154   1.894   4.045 -0.1193  0.1977  1.5253
 2038SOL     OW17746   1.406   3.560   9.631 -0.2446 -0.1584 -0.1148
 2038SOL    HW117747   1.347   3.496   9.671 -0.2240 -0.3901 -0.4527
 2038SOL    HW217748   1.338   3.624   9.610 -1.0490 -1.4535 -1.5414
 2039SOL     OW17749   4.250   1.956   0.426 -0.1945  0.7192 -0.5630
 2039SOL    HW117750   4.337   1.986   0.402  0.1963  0.3577  0.4193
 2039SOL    HW217751   4.230   1.999   0.509 -0.1018 -0.6272  0.1680
 2040SOL     OW17752   1.328   2.610  12.817 -0.1242 -0.4922  0.1709
 2040SOL    HW117753   1.281   2.536  12.853 -1.1692 -0.7208 -1.6511
 2040SOL    HW217754   1.287   2.687  12.856  1.3357  0.2838  0.2078
 2041SOL     OW17755   4.639   3.526   6.565 -0.5081  0.8069 -0.0007
 2041SOL    HW117756   4.629   3.503   6.657 -1.4395  0.9085 -0.0766
 2041SOL    HW217757   4.732   3.549   6.577 -0.4275 -1.4374  3.5358
 2042SOL     OW17758   2.680   3.937   2.355 -0.0394 -0.1915 -0.1384
 2042SOL    HW117759   2.631   3.871   2.403  0.4146  0.0446  0.6610
 2042SOL    HW217760   2.759   3.891   2.325 -0.0407 -0.2695 -0.0208
 2043SOL     OW17761   2.657   3.215   6.210  0.0094 -0.4025  0.0168
 2043SOL    HW117762   2.706   3.280   6.259  2.9733 -2.5834 -0.0890
 2043SOL    HW217763   2.721   3.178   6.150  0.2247  1.1663 -0.7224
 2044SOL     OW17764   4.038   2.583   4.485  0.0468  0.0743 -0.4539
 2044SOL    HW117765   4.109   2.536   4.528  0.6594  1.1140 -0.3274
 2044SOL    HW217766   4.025   2.657   4.544 -1.9579 -0.3429 -0.3937
 2045SOL     OW17767   4.566   4.348   3.264 -0.1684  0.0807 -0.3909
 2045SOL    HW117768   4.576   4.433   3.220 -0.0549  1.8173  2.9561
 2045SOL    HW217769   4.604   4.293   3.196 -0.9521 -2.2469  1.0706
 2046SOL     OW17770   1.618   2.381  15.851  0.0500  0.1857  0.0940
 2046SOL    HW117771   1.695   2.437  15.837  1.0566 -1.1194  0.4298
 2046SOL    HW217772   1.571   2.426  15.922  0.3491 -0.9514  1.0195
 2047SOL     OW17773   4.565   0.864   5.330  0.1832 -0.1633 -0.2917
 2047SOL    HW117774   4.594   0.774   5.321 -0.8148 -0.7742  2.3714
 2047SOL    HW217775   4.552   0.860   5.425  1.4038  1.4514 -0.0608
 2048SOL     OW17776   2.330   1.352   6.055 -0.0899 -0.7709 -0.2948
 2048SOL    HW117777   2.322   1.420   6.121  2.6541 -0.1017 -0.6532
 2048SOL    HW217778   2.367   1.276   6.100  0.9393 -0.1957 -0.1694
 2049SOL     OW17779   1.898   0.986   0.323  0.0393  0.0298 -0.1654
 2049SOL    HW117780   1.889   1.069   0.370 -2.1918 -0.6281  0.5965
 2049SOL    HW217781   1.920   1.025   0.238  2.4495 -0.9661 -0.0062
 2050SOL     OW17782   0.161   1.202   7.929 -0.2351  0.3358  0.1591
 2050SOL    HW117783   0.222   1.276   7.924 -2.7107  2.2874 -1.0392
 2050SOL    HW217784   0.077   1.243   7.947 -1.8031 -1.1718 -3.5906
 2051SOL     OW17785   1.235   4.112   7.234  0.0831 -0.6556 -0.5162
 2051SOL    HW117786   1.315   4.156   7.262 -1.0444  1.8161 -1.2083
 2051SOL    HW217787   1.261   4.097   7.143 -0.5677  0.0862 -0.8229
 2052SOL     OW17788   4.533   1.959   6.295 -0.0116 -0.5389 -0.0710
 2052SOL    HW117789   4.494   2.046   6.303  1.1606  0.0103 -0.3485
 2052SOL    HW217790   4.509   1.912   6.375 -1.0814  1.3057  0.6821
 2053SOL     OW17791   3.459   0.523   1.391 -0.1621  0.4361  0.3726
 2053SOL    HW117792   3.526   0.592   1.387  0.4164 -0.1247  0.4070
 2053SOL    HW217793   3.498   0.462   1.454 -0.7789 -0.1526  0.1845
 2054SOL     OW17794   2.022   0.660   5.730  0.1804  0.5349  0.1610
 2054SOL    HW117795   2.022   0.589   5.794 -0.5208  0.9776  0.6547
 2054SOL    HW217796   2.117   0.666   5.721  0.4589 -1.5683  1.9598
 2055SOL     OW17797   0.258   2.912   3.253  0.2921  0.5804  0.1853
 2055SOL    HW117798   0.352   2.907   3.266  0.1590 -3.1863 -0.2338
 2055SOL    HW217799   0.255   2.853   3.177 -0.3359  0.6229  0.1743
 2056SOL     OW17800   2.346   1.986   2.673  0.2017  0.1071  0.1320
 2056SOL    HW117801   2.333   2.080   2.665  1.7869  0.2436 -0.8599
 2056SOL    HW217802   2.258   1.969   2.705  0.7479 -2.5313  0.3080
 2057SOL     OW17803   1.091   1.855   5.056 -0.0551  0.1089 -0.0466
 2057SOL    HW117804   1.026   1.924   5.062 -0.3953 -0.1102 -1.2578
 2057SOL    HW217805   1.060   1.801   4.983 -1.9730  1.4501 -0.1916
 2058SOL     OW17806   4.127   3.348   1.774  1.0822  0.6210  0.0121
 2058SOL    HW117807   4.137   3.263   1.815 -0.2674  0.9698  1.0792
 2058SOL    HW217808   4.039   3.374   1.803 -0.0008  0.0527 -2.6757
 2059SOL     OW17809   0.208   0.178   0.380  0.2363 -0.3601  0.3354
 2059SOL    HW117810   0.169   0.160   0.466 -3.7961 -0.3478 -1.4625
 2059SOL    HW217811   0.144   0.155   0.312 -1.2855  1.8956  1.0014
 2060SOL     OW17812   3.208   0.293  12.448 -0.4961  0.0119 -0.0994
 2060SOL    HW117813   3.208   0.364  12.512 -1.1627 -2.4123  2.5605
 2060SOL    HW217814   3.113   0.279  12.443 -0.3742 -0.4838 -0.9956
 2061SOL     OW17815   3.687   1.984   5.434 -0.1136 -0.1430  0.4484
 2061SOL    HW117816   3.610   1.972   5.491  0.5767 -1.3485  1.1182
 2061SOL    HW217817   3.717   2.063   5.480  0.5549  0.8202 -1.6684
 2062SOL     OW17818   0.463   0.399   3.389  0.0951 -0.0082  0.5353
 2062SOL    HW117819   0.404   0.386   3.315  1.0809  0.3292 -0.3081
 2062SOL    HW217820   0.422   0.348   3.458  0.4975 -1.5601 -0.3824
 2063SOL     OW17821   1.553   4.154  11.673  0.6007 -0.0234 -0.2043
 2063SOL    HW117822   1.482   4.094  11.650 -0.2555  0.0226  2.3470
 2063SOL    HW217823   1.545   4.157  11.768 -0.3747  1.6255 -0.3418
 2064SOL     OW17824   3.470   3.485  10.591 -0.3414 -0.3052 -0.0827
 2064SOL    HW117825   3.441   3.406  10.546 -0.2714 -0.2113 -0.2911
 2064SOL    HW217826   3.554   3.448  10.620 -1.7791 -2.4179  1.3886
 2065SOL     OW17827   4.588   4.224   1.346  0.1834  0.3358 -0.1730
 2065SOL    HW117828   4.512   4.168   1.329 -1.3063  2.0345  0.8730
 2065SOL    HW217829   4.556   4.276   1.420 -0.5493 -0.5568  0.1366
 2066SOL     OW17830   2.517   4.405   7.594 -0.6319 -0.0270  0.3908
 2066SOL    HW117831   2.564   4.459   7.658 -1.3497  0.5954  0.3920
 2066SOL    HW217832   2.442   4.374   7.644 -0.2558 -2.0640 -0.2969
 2067SOL     OW17833   0.224   1.823   7.901  0.0367  0.4098  0.2396
 2067SOL    HW117834   0.249   1.896   7.957 -1.3634  1.0594  0.0219
 2067SOL    HW217835   0.172   1.774   7.964 -0.3141  3.1745  2.0701
 2068SOL     OW17836   1.953   0.325  12.596  0.2357 -0.0242 -0.3162
 2068SOL    HW117837   1.975   0.416  12.576  1.3865 -0.1720  0.2689
 2068SOL    HW217838   2.044   0.297  12.586  0.1286 -0.3586 -0.3769
 2069SOL     OW17839   1.249   3.365   8.584 -0.3657  1.1240  0.0665
 2069SOL    HW117840   1.154   3.378   8.587 -0.3300  1.2542  0.6797
 2069SOL    HW217841   1.259   3.277   8.619  0.8456  1.4038  0.4185
 2070SOL     OW17842   0.040   4.603   2.566  0.5633 -0.1771 -0.1142
 2070SOL    HW117843   0.026   4.513   2.594  0.8035 -0.0681  0.3634
 2070SOL    HW217844   0.103   4.586   2.497  0.0388 -1.4233 -0.2770
 2071SOL     OW17845   1.923   1.179  17.280  0.3416  0.1318  0.5275
 2071SOL    HW117846   1.855   1.161  17.345  0.9432 -0.7980  0.8976
 2071SOL    HW217847   1.871   1.173  17.200  1.4458  0.1871 -0.2044
 2072SOL     OW17848   0.832   0.253   2.825 -0.2182  0.3863  0.0727
 2072SOL    HW117849   0.790   0.171   2.800 -0.5854  0.6162 -0.0768
 2072SOL    HW217850   0.860   0.226   2.912 -0.3465 -1.2577 -0.4101
 2073SOL     OW17851   1.474   1.062   2.115  0.0867  0.0546 -0.0554
 2073SOL    HW117852   1.488   1.099   2.028 -1.1545  2.7564  0.8727
 2073SOL    HW217853   1.426   1.139   2.147  2.8703  2.1130 -0.8372
 2074SOL     OW17854   3.857   0.824  17.140 -0.5979  0.6071  0.2748
 2074SOL    HW117855   3.809   0.749  17.176  1.4467 -0.4935  0.6673
 2074SOL    HW217856   3.796   0.864  17.078 -0.4710  1.1690  0.5143
 2075SOL     OW17857   0.400   4.329   1.418  0.2327 -0.0922 -0.6266
 2075SOL    HW117858   0.336   4.308   1.486 -0.4112  2.7059 -0.3462
 2075SOL    HW217859   0.477   4.276   1.436  1.1134  1.4310  0.0696
 2076SOL     OW17860   2.707   0.442   7.851  0.2292  0.1195 -0.5916
 2076SOL    HW117861   2.677   0.508   7.788  0.7090  0.0935 -0.8437
 2076SOL    HW217862   2.625   0.425   7.898 -0.8768  1.0772 -2.1842
 2077SOL     OW17863   0.246   4.039   9.423 -0.7742 -0.0697  0.3307
 2077SOL    HW117864   0.163   4.080   9.446  0.5543  1.0571  3.0625
 2077SOL    HW217865   0.216   3.950   9.403 -0.4981  0.4135 -2.2114
 2078SOL     OW17866   2.519   2.939  15.618  0.0286 -0.3624  0.5067
 2078SOL    HW117867   2.507   2.896  15.702 -0.7431  0.2538  0.7137
 2078SOL    HW217868   2.436   2.985  15.605  1.4204  2.6481  2.1817
 2079SOL     OW17869   4.474   4.208   4.388  0.1658  0.1847 -0.2708
 2079SOL    HW117870   4.388   4.216   4.430 -0.5646  0.8114 -1.8626
 2079SOL    HW217871   4.511   4.296   4.377  1.0517 -0.0480  0.8566
 2080SOL     OW17872   3.164   0.416  10.822 -0.0506  0.3387 -0.5537
 2080SOL    HW117873   3.087   0.378  10.779 -0.3710  1.1042 -0.6511
 2080SOL    HW217874   3.194   0.341  10.873  0.1693  0.8011 -0.0031
 2081SOL     OW17875   2.006   1.792   3.364 -0.5759  0.1120 -0.6724
 2081SOL    HW117876   2.096   1.774   3.392 -0.8213  1.8611  1.2691
 2081SOL    HW217877   2.019   1.788   3.270 -0.8386 -0.2702 -0.6948
 2082SOL     OW17878   4.669   0.656   6.990 -0.1682 -0.6406 -0.3429
 2082SOL    HW117879   4.597   0.703   6.948 -0.7301  0.3253  1.6937
 2082SOL    HW217880   4.703   0.603   6.918 -0.6326 -0.4355 -0.7126
 2083SOL     OW17881   1.566   1.795   6.373  0.0284  1.1745  0.2811
 2083SOL    HW117882   1.501   1.725   6.379  0.4855  0.5565 -1.9575
 2083SOL    HW217883   1.626   1.744   6.319 -0.6163  0.9142 -0.1885
 2084SOL     OW17884   4.360   0.697   2.632 -0.0924 -0.0627  0.0019
 2084SOL    HW117885   4.299   0.767   2.609 -2.1599 -1.7603  0.3614
 2084SOL    HW217886   4.300   0.644   2.684  0.5498 -0.5487  0.2507
 2085SOL     OW17887   1.743   0.831   3.657 -0.1447 -0.2850 -0.1238
 2085SOL    HW117888   1.696   0.886   3.719  0.3701 -1.3905  1.2423
 2085SOL    HW217889   1.752   0.886   3.579  0.6204 -1.4834 -0.8668
 2086SOL     OW17890   4.520   1.640   8.151  0.3762 -0.4601  0.4781
 2086SOL    HW117891   4.518   1.674   8.061 -0.6855  2.4382  1.6218
 2086SOL    HW217892   4.615   1.631   8.157  0.5215  0.5955 -0.2525
 2087SOL     OW17893   2.208   1.200   6.497 -0.0196  0.2805 -0.4690
 2087SOL    HW117894   2.176   1.283   6.531 -1.4723  0.3602 -1.9760
 2087SOL    HW217895   2.297   1.222   6.470 -0.1540  0.1558 -1.0166
 2088SOL     OW17896   0.176   1.546   8.648 -0.1374 -0.2404 -0.2468
 2088SOL    HW117897   0.242   1.507   8.590 -0.4478  1.4137 -1.6951
 2088SOL    HW217898   0.189   1.503   8.733  1.0363 -1.1868 -0.8853
 2089SOL     OW17899   2.720   3.449   4.672 -0.2846 -0.7231 -0.2413
 2089SOL    HW117900   2.734   3.446   4.767  0.5433 -2.3647 -0.4105
 2089SOL    HW217901   2.770   3.372   4.645 -1.2510 -2.1678  2.0055
 2090SOL     OW17902   2.955   4.514   1.779  0.3051  0.3570  1.2112
 2090SOL    HW117903   3.011   4.438   1.766  0.0266  0.7202 -2.0736
 2090SOL    HW217904   2.876   4.462   1.766  1.6346 -1.1904 -0.7416
 2091SOL     OW17905   1.575   1.779   9.089  0.0473 -0.1675  0.1181
 2091SOL    HW117906   1.549   1.788   8.997  0.6781  1.5047  0.0894
 2091SOL    HW217907   1.639   1.708   9.088  2.2615  1.8035 -0.0034
 2092SOL     OW17908   1.213   3.231   3.976 -0.0817  0.3821  0.4576
 2092SOL    HW117909   1.118   3.243   3.982 -0.4047 -2.3663  0.7962
 2092SOL    HW217910   1.227   3.152   4.028 -1.4790 -0.8248 -1.0093
 2093SOL     OW17911   2.893   3.864   3.049  0.0804  0.1889  0.2854
 2093SOL    HW117912   2.950   3.852   3.125  0.0685 -0.3078  0.2109
 2093SOL    HW217913   2.888   3.771   3.028 -0.2478 -0.2154  2.1853
 2094SOL     OW17914   2.520   1.094   8.817  0.5060  0.3088 -0.4771
 2094SOL    HW117915   2.517   1.146   8.737  0.6299  1.9561  0.5988
 2094SOL    HW217916   2.433   1.055   8.811  0.4651  0.5480 -1.3123
 2095SOL     OW17917   3.301   3.514   7.172 -0.1407 -0.0744 -0.7459
 2095SOL    HW117918   3.212   3.479   7.161 -0.2840 -0.1883  0.7758
 2095SOL    HW217919   3.307   3.572   7.096 -0.8059 -0.5713 -1.1793
 2096SOL     OW17920   2.829   1.001   5.512  0.3449 -0.7562 -0.6840
 2096SOL    HW117921   2.754   0.982   5.568  1.1107 -1.0281  0.2606
 2096SOL    HW217922   2.792   1.066   5.452 -0.1375 -1.1362 -0.7994
 2097SOL     OW17923   3.384   0.776  11.818  0.6230 -0.3805 -0.1347
 2097SOL    HW117924   3.335   0.843  11.865  0.6020  0.0578 -0.7821
 2097SOL    HW217925   3.388   0.712  11.890 -2.3104 -0.4420 -0.0272
 2098SOL     OW17926   0.166   3.526  16.119 -0.7744 -0.0480  0.2142
 2098SOL    HW117927   0.100   3.525  16.049 -0.0875  1.5714 -0.4621
 2098SOL    HW217928   0.250   3.532  16.073 -0.7807 -0.9337  0.0985
 2099SOL     OW17929   2.651   2.235   2.188 -0.0842 -0.1492 -0.0255
 2099SOL    HW117930   2.683   2.322   2.164  0.5138 -0.2499  0.4281
 2099SOL    HW217931   2.614   2.212   2.103  1.6626 -1.2554 -0.4903
 2100SOL     OW17932   0.959   1.794   4.156 -0.1557  0.1952 -0.2756
 2100SOL    HW117933   0.908   1.872   4.132 -2.2461 -1.3175 -0.7694
 2100SOL    HW217934   1.028   1.826   4.214 -0.1005 -1.2486  0.4528
 2101SOL     OW17935   1.877   1.335   0.894 -0.3952  0.2174 -0.2582
 2101SOL    HW117936   1.926   1.295   0.823  0.6477  0.0774  0.5360
 2101SOL    HW217937   1.948   1.330   0.958 -1.2256  2.1250  0.8269
 2102SOL     OW17938   1.714   3.925   6.706 -0.3975  0.5212 -0.3227
 2102SOL    HW117939   1.655   3.919   6.631 -1.2493 -0.8761  0.4629
 2102SOL    HW217940   1.765   3.845   6.695 -1.5924 -0.3545  0.4652
 2103SOL     OW17941   2.719   4.314   7.107 -0.2079  0.0952 -0.1324
 2103SOL    HW117942   2.795   4.344   7.157 -0.9196  0.0805  0.9598
 2103SOL    HW217943   2.658   4.380   7.141  1.6893  1.2360  1.0449
 2104SOL     OW17944   2.351   0.461   5.649 -0.2365 -0.0888  0.0879
 2104SOL    HW117945   2.322   0.370   5.662  0.2795 -0.0324  1.6722
 2104SOL    HW217946   2.355   0.492   5.740 -3.5284  0.9492 -0.1378
 2105SOL     OW17947   0.198   2.942   5.758  0.1878  0.5203 -0.0239
 2105SOL    HW117948   0.182   2.870   5.697  1.6490  0.5419 -0.4337
 2105SOL    HW217949   0.287   2.937   5.791  0.8776  1.2053 -1.7719
 2106SOL     OW17950   1.453   4.686   4.026 -0.2372 -0.0591 -0.2757
 2106SOL    HW117951   1.457   4.687   4.121  1.2575  0.8604 -0.3411
 2106SOL    HW217952   1.481   0.031   3.984 -0.1966  0.2891  0.4371
 2107SOL     OW17953   2.342   1.817   9.555 -0.2029  0.9143 -0.0447
 2107SOL    HW117954   2.359   1.767   9.475  2.2773  0.0342  1.0405
 2107SOL    HW217955   2.330   1.910   9.538  1.1992  1.1361  0.1573
 2108SOL     OW17956   1.966   2.471   5.750  0.3431  0.2064 -0.7314
 2108SOL    HW117957   1.989   2.462   5.657 -0.9167 -1.8318 -0.8432
 2108SOL    HW217958   2.045   2.433   5.788 -1.8349 -1.3199  2.2925
 2109SOL     OW17959   3.820   2.905   5.021 -0.4887 -0.0075 -0.5690
 2109SOL    HW117960   3.795   2.931   4.933  0.5269 -0.2220 -0.9188
 2109SOL    HW217961   3.913   2.896   5.002 -0.4193 -0.9750  0.2394
 2110SOL     OW17962   1.334   3.960  11.751  0.3890 -0.2115 -0.2366
 2110SOL    HW117963   1.305   4.010  11.674  0.6639  0.1174 -0.1301
 2110SOL    HW217964   1.271   3.888  11.758 -2.4089  2.0574 -1.8289
 2111SOL     OW17965   3.238   2.424   3.837  0.2340 -0.1148 -0.3415
 2111SOL    HW117966   3.331   2.403   3.829 -0.3457 -2.5139 -1.0892
 2111SOL    HW217967   3.239   2.505   3.886 -0.7509  0.9872 -2.1326
 2112SOL     OW17968   1.663   0.063   6.641  0.0624 -0.4775 -0.2575
 2112SOL    HW117969   1.679   0.075   6.735 -3.4435 -2.5310  0.5920
 2112SOL    HW217970   1.615   4.718   6.642  1.1033 -1.0955 -1.4594
 2113SOL     OW17971   1.268   4.668   3.478  0.0603  0.2616 -0.0375
 2113SOL    HW117972   1.202   4.627   3.534  1.0342 -0.8726  0.2594
 2113SOL    HW217973   1.340   4.693   3.535  1.7189 -1.7335 -1.2748
 2114SOL     OW17974   3.832   3.287   3.329 -0.2093 -0.3801 -0.2552
 2114SOL    HW117975   3.923   3.313   3.316 -0.6964  0.4071 -2.1014
 2114SOL    HW217976   3.840   3.192   3.335 -3.3024 -0.7803 -2.7560
 2115SOL     OW17977   2.052   3.753   5.525 -0.3677 -0.2181  0.0756
 2115SOL    HW117978   2.079   3.768   5.616  0.9813 -1.5292 -0.0857
 2115SOL    HW217979   1.978   3.811   5.514  0.1060  0.4773  0.5939
 2116SOL     OW17980   2.873   3.387  16.069  0.0177 -0.4109 -0.2047
 2116SOL    HW117981   2.911   3.467  16.033 -2.2304 -0.1245 -1.9103
 2116SOL    HW217982   2.831   3.421  16.148  0.1737  0.3520 -0.4475
 2117SOL     OW17983   4.712   3.105  16.512  0.0242 -0.2197 -0.5261
 2117SOL    HW117984   4.659   3.175  16.551 -0.3896 -0.5956 -0.4106
 2117SOL    HW217985   4.651   3.031  16.518  0.2516 -0.4144 -0.6256
 2118SOL     OW17986   0.419   3.480   7.211 -0.1770  0.2185 -0.1623
 2118SOL    HW117987   0.441   3.408   7.152 -0.2394  0.4215 -0.4343
 2118SOL    HW217988   0.345   3.439   7.256  0.0198  0.8165  0.7085
 2119SOL     OW17989   0.150   2.672   9.059  0.1470  0.2996  0.2242
 2119SOL    HW117990   0.196   2.591   9.081 -2.8660 -1.3237  0.5989
 2119SOL    HW217991   0.154   2.726   9.137  1.2882  0.7360 -0.1260
 2120SOL     OW17992   1.744   3.747   2.387 -0.4906  0.0270 -0.0626
 2120SOL    HW117993   1.731   3.655   2.408  1.7202 -0.6500 -1.7232
 2120SOL    HW217994   1.711   3.794   2.464 -1.7508  0.3452 -0.8004
 2121SOL     OW17995   2.481   3.092   7.997 -0.1860  0.3918 -0.0190
 2121SOL    HW117996   2.391   3.121   8.015 -0.4000  0.0351 -0.4960
 2121SOL    HW217997   2.501   3.045   8.078 -0.9285 -0.0076 -0.0593
 2122SOL     OW17998   3.068   2.836  14.706  0.3082 -0.6461  0.5392
 2122SOL    HW117999   2.984   2.795  14.729  0.2376 -0.1860  1.1315
 2122SOL    HW218000   3.089   2.885  14.786 -0.5171 -0.0733  0.4184
 2123SOL     OW18001   3.279   4.515   5.007  0.4960  0.1514  0.4106
 2123SOL    HW118002   3.205   4.538   4.952  1.1708  0.1833 -0.4823
 2123SOL    HW218003   3.278   4.421   5.024  0.3645  0.0776 -0.0229
 2124SOL     OW18004   1.746   2.330   2.207 -0.1405  0.1027  0.0667
 2124SOL    HW118005   1.684   2.325   2.135 -0.9062  0.6143  0.6944
 2124SOL    HW218006   1.711   2.370   2.286 -0.3292  1.1935 -0.5706
 2125SOL     OW18007   1.258   1.860   1.199 -0.0462 -0.1067 -0.1590
 2125SOL    HW118008   1.350   1.877   1.176 -0.3694  0.4036 -1.1088
 2125SOL    HW218009   1.269   1.786   1.258  2.4949  1.0801  0.8741
 2126SOL     OW18010   0.706   2.562   6.631 -0.3303  0.1421  0.3470
 2126SOL    HW118011   0.720   2.613   6.710 -1.1446 -0.1049  0.6527
 2126SOL    HW218012   0.731   2.474   6.655 -0.3468  0.8204  2.8109
 2127SOL     OW18013   1.728   2.824   4.690  0.4401 -0.5996 -0.6917
 2127SOL    HW118014   1.717   2.888   4.620 -3.7804 -1.0114 -0.4084
 2127SOL    HW218015   1.769   2.874   4.760 -0.8873 -1.0819  0.4238
 2128SOL     OW18016   4.536   2.107   0.917  0.3538 -0.2918 -0.5096
 2128SOL    HW118017   4.550   2.130   1.009  0.9250 -1.0539 -0.4090
 2128SOL    HW218018   4.446   2.138   0.911  0.5825  0.3241 -0.8207
 2129SOL     OW18019   0.426   1.654   7.674 -0.4019 -0.3508 -0.3886
 2129SOL    HW118020   0.506   1.703   7.658  0.2658 -0.9452  1.1256
 2129SOL    HW218021   0.428   1.666   7.769  2.9145  1.0113 -0.6620
 2130SOL     OW18022   2.947   1.758   3.150  0.2595 -0.0948  0.0996
 2130SOL    HW118023   2.866   1.773   3.102  0.7883  0.1357 -0.7142
 2130SOL    HW218024   2.933   1.768   3.244 -0.4280  3.5565 -0.3777
 2131SOL     OW18025   0.334   2.774   7.288  0.2751 -0.1826 -0.3970
 2131SOL    HW118026   0.326   2.709   7.218  3.3993 -1.9993  0.9551
 2131SOL    HW218027   0.277   2.839   7.245 -1.4308 -1.1708  0.3699
 2132SOL     OW18028   3.314   3.984   2.044 -0.1843 -0.3714  0.4606
 2132SOL    HW118029   3.384   4.041   2.011 -1.5151  0.1927 -1.3410
 2132SOL    HW218030   3.365   3.919   2.093  1.2838 -0.1949 -0.8454
 2133SOL     OW18031   4.465   0.804   7.218 -0.1168  0.3205  0.2948
 2133SOL    HW118032   4.508   0.748   7.283 -0.5263  0.8924  1.0574
 2133SOL    HW218033   4.421   0.735   7.170 -1.9406  2.4430 -1.0648
 2134SOL     OW18034   1.937   3.979   7.138  0.2968 -0.1451  0.6397
 2134SOL    HW118035   2.011   4.040   7.133  1.0567 -1.0481  0.8749
 2134SOL    HW218036   1.893   4.022   7.211 -0.8765 -0.9513  0.3957
 2135SOL     OW18037   0.653   0.730   8.890  0.0267 -0.0610  0.4939
 2135SOL    HW118038   0.642   0.785   8.967  1.6290  1.1070 -0.0926
 2135SOL    HW218039   0.564   0.709   8.863  0.3977  2.0002 -2.3746
 2136SOL     OW18040   0.973   2.046   4.805 -0.3376 -0.5772  0.3394
 2136SOL    HW118041   0.937   2.037   4.894 -1.4858  0.5053 -0.0213
 2136SOL    HW218042   0.957   2.139   4.789 -1.4365 -0.5352  1.6477
 2137SOL     OW18043   3.377   3.729   3.554 -0.5422  0.5505 -0.0399
 2137SOL    HW118044   3.410   3.819   3.550  1.0169 -0.0851 -1.3357
 2137SOL    HW218045   3.396   3.715   3.647 -0.4569  0.2670 -0.0991
 2138SOL     OW18046   2.555   2.976   8.232  0.0372 -0.0789  0.6207
 2138SOL    HW118047   2.522   2.890   8.257  2.2919 -1.5529 -1.5418
 2138SOL    HW218048   2.578   3.010   8.318 -0.0409 -1.1008  1.0398
 2139SOL     OW18049   3.668   2.455   0.389 -0.0729 -0.3475  0.1429
 2139SOL    HW118050   3.575   2.435   0.378 -0.3926  1.8156 -0.9915
 2139SOL    HW218051   3.667   2.547   0.361  1.6515 -0.2184  0.5265
 2140SOL     OW18052   1.174   1.629   1.663  0.3688  0.4073  0.0774
 2140SOL    HW118053   1.251   1.591   1.705 -0.4796 -2.1035 -0.6344
 2140SOL    HW218054   1.139   1.698   1.720  0.2616 -0.7450  1.4102
 2141SOL     OW18055   1.465   1.786  13.277 -0.0008 -0.0080  0.1852
 2141SOL    HW118056   1.544   1.736  13.256  0.3290  0.3904  0.4956
 2141SOL    HW218057   1.399   1.754  13.215  2.3862  0.1881 -2.4880
 2142SOL     OW18058   3.933   4.026   6.587 -0.5608  0.2542  0.3134
 2142SOL    HW118059   3.905   3.935   6.574 -1.3220  1.0809 -3.7510
 2142SOL    HW218060   3.952   4.023   6.681  1.6260 -1.5116 -0.1897
 2143SOL     OW18061   1.573   4.132  12.201 -0.5028 -0.6147  0.2453
 2143SOL    HW118062   1.575   4.162  12.292  1.1007  0.9397 -0.3097
 2143SOL    HW218063   1.503   4.066  12.203 -0.7713 -0.3219  0.5152
 2144SOL     OW18064   0.297   2.997   2.595 -0.0184 -0.6898 -0.0731
 2144SOL    HW118065   0.333   3.007   2.683  1.5076  1.6459 -0.9529
 2144SOL    HW218066   0.328   2.908   2.577  0.9347 -0.9208  2.7215
 2145SOL     OW18067   2.564   0.295   4.258  0.0571  0.0606 -0.3870
 2145SOL    HW118068   2.489   0.347   4.231 -1.4355 -0.8165  2.0738
 2145SOL    HW218069   2.572   0.256   4.171  0.8877 -1.2812  0.2892
 2146SOL     OW18070   2.681   2.164   6.960  0.1165 -0.0580  0.0564
 2146SOL    HW118071   2.653   2.105   6.890  1.3399 -0.4754 -0.0858
 2146SOL    HW218072   2.761   2.123   6.994  0.5048  1.1024  0.5315
 2147SOL     OW18073   4.528   3.513   7.244  0.1855 -0.3879 -0.4237
 2147SOL    HW118074   4.553   3.422   7.231 -0.5369 -0.9240  1.8015
 2147SOL    HW218075   4.600   3.548   7.297  0.5279 -1.3222 -0.2767
 2148SOL     OW18076   1.632   4.087   2.669 -0.1384 -0.7576 -0.2645
 2148SOL    HW118077   1.577   4.160   2.640  1.5314  1.0223  1.0055
 2148SOL    HW218078   1.716   4.100   2.624 -0.1007 -3.6670 -1.0009
 2149SOL     OW18079   1.366   0.968   7.337 -0.1270 -0.2167 -0.4702
 2149SOL    HW118080   1.343   1.039   7.276 -0.4712 -0.0854 -0.1832
 2149SOL    HW218081   1.454   1.000   7.356 -0.3171  0.4271 -0.6677
 2150SOL     OW18082   1.403   1.610   7.753  0.2520 -0.2620  0.1397
 2150SOL    HW118083   1.462   1.542   7.720 -0.9102 -0.3002 -1.9105
 2150SOL    HW218084   1.422   1.685   7.696  0.9270  1.3941  2.5743
 2151SOL     OW18085   1.667   2.326   5.179 -0.5605  0.1387 -0.2099
 2151SOL    HW118086   1.699   2.243   5.144  2.5388  1.3246 -0.1279
 2151SOL    HW218087   1.586   2.320   5.128 -0.1460 -0.8389 -0.7617
 2152SOL     OW18088   3.724   3.916   8.005 -0.1562 -0.1843  0.0864
 2152SOL    HW118089   3.717   4.012   8.006  0.0654 -0.1888  1.6389
 2152SOL    HW218090   3.692   3.896   8.093 -0.0442  2.8947  0.8417
 2153SOL     OW18091   2.664   3.688   4.546  0.2013  0.5049 -0.5633
 2153SOL    HW118092   2.644   3.650   4.461  0.7966  3.5851 -2.0747
 2153SOL    HW218093   2.683   3.608   4.596 -1.1291  0.4905 -0.0820
 2154SOL     OW18094   3.893   0.692   0.414 -0.0324 -0.2103 -0.2289
 2154SOL    HW118095   3.863   0.602   0.428  1.5229 -0.7786 -0.6111
 2154SOL    HW218096   3.816   0.749   0.421 -1.0741 -1.5997 -0.3174
 2155SOL     OW18097   2.753   3.527  12.924  0.2560 -0.0598  0.5545
 2155SOL    HW118098   2.779   3.526  12.832 -0.6078  1.5368  0.2924
 2155SOL    HW218099   2.802   3.447  12.944  0.1430  0.1733  1.7451
 2156SOL     OW18100   0.966   1.617   4.908 -0.1290 -0.0402  0.0719
 2156SOL    HW118101   0.927   1.530   4.902 -0.8096  0.3078 -0.6146
 2156SOL    HW218102   1.040   1.597   4.850  2.3965  3.1489  2.1771
 2157SOL     OW18103   1.330   2.108  12.920  0.3547 -0.3685  0.0833
 2157SOL    HW118104   1.269   2.045  12.959  0.0074 -0.7404 -1.0622
 2157SOL    HW218105   1.411   2.059  12.909  0.0152 -1.0341  0.5530
 2158SOL     OW18106   0.646   3.101  12.150  0.3062 -0.5900 -0.3071
 2158SOL    HW118107   0.702   3.024  12.161 -1.5810 -2.1205 -1.3896
 2158SOL    HW218108   0.576   3.065  12.206 -0.1059 -0.3127 -0.6443
 2159SOL     OW18109   4.088   0.932   7.514  0.7595 -0.2435  0.0251
 2159SOL    HW118110   4.162   0.954   7.459  0.8435 -0.6978 -0.0414
 2159SOL    HW218111   4.054   0.847   7.488  1.1666 -0.2920 -0.3452
 2160SOL     OW18112   1.458   0.452  14.450 -0.2133 -0.3612 -0.2958
 2160SOL    HW118113   1.479   0.392  14.378  0.4655 -1.1109  0.5369
 2160SOL    HW218114   1.538   0.454  14.501 -0.3513  0.1077 -0.0980
 2161SOL     OW18115   3.792   1.537  14.473 -0.1409  0.6602 -0.5334
 2161SOL    HW118116   3.749   1.621  14.491 -0.3911  0.8353 -1.9401
 2161SOL    HW218117   3.720   1.478  14.491  1.0985 -0.3301  1.1959
 2162SOL     OW18118   1.347   1.320   5.078 -0.0903 -0.5937  0.7853
 2162SOL    HW118119   1.438   1.304   5.051  0.2502  4.1174 -0.9046
 2162SOL    HW218120   1.355   1.415   5.067  1.2773 -0.6986  0.8275
 2163SOL     OW18121   4.430   1.680   4.517  0.3208  0.0276 -0.0576
 2163SOL    HW118122   4.438   1.631   4.435  0.0146 -0.0548 -0.0377
 2163SOL    HW218123   4.514   1.648   4.552 -0.0201 -1.5518 -0.6549
 2164SOL     OW18124   4.218   4.592   6.520 -0.0312 -0.6708 -0.3024
 2164SOL    HW118125   4.131   4.601   6.481  0.0993  1.2522 -0.1381
 2164SOL    HW218126   4.205   4.514   6.574  0.2630 -0.8996 -0.5662
 2165SOL     OW18127   2.967   2.563   4.132 -0.1716  0.2619 -0.2913
 2165SOL    HW118128   2.904   2.624   4.172 -0.8748 -1.0318  0.5701
 2165SOL    HW218129   2.920   2.524   4.059 -0.9849  2.2691 -0.8352
 2166SOL     OW18130   2.621   0.726   6.797  0.2151 -0.8022 -0.0004
 2166SOL    HW118131   2.640   0.806   6.747 -1.3514  0.8765  2.0848
 2166SOL    HW218132   2.682   0.671   6.749  2.6905 -0.4758  2.7555
 2167SOL     OW18133   3.441   0.111  10.210 -0.4933 -0.6351  0.1191
 2167SOL    HW118134   3.537   0.111  10.216 -0.6370 -0.2824  2.5466
 2167SOL    HW218135   3.419   0.041  10.271 -0.2308 -0.2507  0.6572
 2168SOL     OW18136   4.519   4.292   9.573 -0.2030 -0.2409  0.1771
 2168SOL    HW118137   4.540   4.213   9.622 -1.3368  0.7405  2.2716
 2168SOL    HW218138   4.541   4.358   9.639 -1.3314  0.9921 -0.6876
 2169SOL     OW18139   4.341   1.203  15.331 -0.4095  0.1655  0.4741
 2169SOL    HW118140   4.295   1.263  15.272 -0.7120  0.6750  1.2218
 2169SOL    HW218141   4.295   1.220  15.413 -0.0990 -0.7675  0.8490
 2170SOL     OW18142   3.550   2.309   8.192  1.1234 -0.0953 -0.4418
 2170SOL    HW118143   3.557   2.299   8.287  1.1374 -0.9153 -0.5352
 2170SOL    HW218144   3.613   2.241   8.168 -1.0592 -2.0870 -0.4626
 2171SOL     OW18145   1.986   2.041  11.464 -0.2891 -0.5148  0.2735
 2171SOL    HW118146   1.913   2.070  11.410  1.2444 -1.1550 -2.1569
 2171SOL    HW218147   2.032   2.122  11.487  0.3212 -0.0141 -2.6715
 2172SOL     OW18148   0.847   4.103   4.386 -0.2879  0.1063 -0.2388
 2172SOL    HW118149   0.843   4.008   4.382 -2.9662  0.2306 -0.5455
 2172SOL    HW218150   0.913   4.128   4.321 -0.0175 -0.0651 -0.0275
 2173SOL     OW18151   2.893   0.698   4.881  0.0125 -0.7736  0.4457
 2173SOL    HW118152   2.869   0.606   4.869 -0.8714 -0.9104  3.3199
 2173SOL    HW218153   2.826   0.738   4.825 -0.0518 -1.3365  0.1271
 2174SOL     OW18154   1.910   3.912   3.605 -0.0910 -0.1122 -0.2427
 2174SOL    HW118155   1.827   3.890   3.646  0.3221 -1.0766  0.0657
 2174SOL    HW218156   1.942   3.833   3.562 -1.2259  1.3347 -3.7479
 2175SOL     OW18157   2.517   3.199   2.759 -0.5730  0.8714 -0.2784
 2175SOL    HW118158   2.495   3.205   2.666 -2.9046 -0.1346  0.2073
 2175SOL    HW218159   2.593   3.255   2.777 -1.3112  2.7994 -3.1312
 2176SOL     OW18160   4.347   1.136   5.534 -0.2692  0.2120 -0.4557
 2176SOL    HW118161   4.419   1.074   5.534 -2.1808 -2.0055  0.8595
 2176SOL    HW218162   4.293   1.109   5.608 -1.2155  2.5597 -0.2582
 2177SOL     OW18163   2.615   2.161   3.815 -0.1905  0.4846 -0.5898
 2177SOL    HW118164   2.654   2.164   3.727  0.9940  1.0489 -0.0398
 2177SOL    HW218165   2.554   2.088   3.802 -0.8277  0.9039  0.0587
 2178SOL     OW18166   2.153   3.492  15.652  0.3197 -0.0449  0.2199
 2178SOL    HW118167   2.104   3.501  15.570 -0.3786  0.0793  0.6517
 2178SOL    HW218168   2.150   3.583  15.683 -1.9484 -1.4460  4.0634
 2179SOL     OW18169   1.341   3.944   4.975 -0.3684  0.4817  0.0056
 2179SOL    HW118170   1.274   3.931   4.908 -1.7411  2.2875  1.0341
 2179SOL    HW218171   1.344   4.039   4.980  1.2512  0.5635 -2.4322
 2180SOL     OW18172   4.134   4.064   2.684  0.3449 -0.0946 -0.3651
 2180SOL    HW118173   4.077   4.014   2.625  1.6519 -0.3872 -1.3897
 2180SOL    HW218174   4.150   3.999   2.753  1.3345  1.7906  1.1818
 2181SOL     OW18175   0.575   4.120  12.038  0.4964 -0.6473 -0.2428
 2181SOL    HW118176   0.586   4.211  12.069 -3.0642 -0.3170  0.0959
 2181SOL    HW218177   0.606   4.120  11.948 -0.1589 -1.7341 -0.4604
 2182SOL     OW18178   4.421   0.234   1.464 -0.0941 -0.4111  0.3499
 2182SOL    HW118179   4.409   0.234   1.559 -2.2579  1.1203  0.0746
 2182SOL    HW218180   4.329   0.211   1.451  0.2072 -1.2641 -0.1923
 2183SOL     OW18181   1.794   0.708   3.267 -0.1091  0.2703  0.3290
 2183SOL    HW118182   1.726   0.692   3.201 -0.2663  1.5276  0.1901
 2183SOL    HW218183   1.766   0.651   3.338 -0.9019  0.1659 -0.0719
 2184SOL     OW18184   0.762   1.297   4.024  0.3890  0.2253 -0.1000
 2184SOL    HW118185   0.847   1.316   4.064 -0.7445  3.4431  0.7908
 2184SOL    HW218186   0.736   1.388   4.010  0.0293  0.2725  0.8330
 2185SOL     OW18187   0.805   0.178  11.091  0.2275 -0.2037  0.3714
 2185SOL    HW118188   0.808   0.103  11.032 -0.4276 -1.1407  1.5111
 2185SOL    HW218189   0.757   0.137  11.163 -0.6144  2.0274  1.0696
 2186SOL     OW18190   1.169   1.783   8.726 -0.2841 -0.1221  0.3408
 2186SOL    HW118191   1.166   1.878   8.716 -3.2681 -0.1726  0.6797
 2186SOL    HW218192   1.152   1.766   8.818 -0.5170  1.8541  0.6649
 2187SOL     OW18193   4.630   1.393   6.138 -0.0823 -0.4194 -0.3980
 2187SOL    HW118194   4.542   1.357   6.142 -0.6877  1.0004 -1.0468
 2187SOL    HW218195   4.678   1.310   6.129  0.9339  0.1617 -0.3584
 2188SOL     OW18196   0.247   4.002   8.465  0.3722  0.1738 -0.0652
 2188SOL    HW118197   0.165   3.998   8.514 -0.5486 -1.0256 -1.7205
 2188SOL    HW218198   0.233   4.059   8.389  0.3917  0.7280  0.3411
 2189SOL     OW18199   1.337   1.974   1.476 -0.3849  0.2185  0.1612
 2189SOL    HW118200   1.413   1.924   1.445 -1.1402 -2.0446  1.9301
 2189SOL    HW218201   1.278   1.958   1.403  0.5963 -1.2121 -0.3135
 2190SOL     OW18202   4.461   1.200   3.737 -0.0458 -0.0578 -0.2349
 2190SOL    HW118203   4.385   1.203   3.679  0.4053 -0.4371 -0.8495
 2190SOL    HW218204   4.527   1.192   3.668  2.0444  0.1111  1.7642
 2191SOL     OW18205   1.550   4.021   3.890  0.3461  0.3251 -0.5466
 2191SOL    HW118206   1.459   4.048   3.899  0.1204 -1.2476  2.0018
 2191SOL    HW218207   1.602   4.099   3.905  0.2009  0.2935  0.1112
 2192SOL     OW18208   2.982   1.989   7.023 -0.5688 -0.0919 -0.6056
 2192SOL    HW118209   2.946   1.957   7.106 -0.5526 -0.3783 -0.7060
 2192SOL    HW218210   3.065   1.941   7.029 -0.6860 -0.2470 -0.2529
 2193SOL     OW18211   0.916   4.040  10.007 -0.2174 -0.3891 -0.2593
 2193SOL    HW118212   0.983   3.973  10.018  0.4443  0.3670  0.3234
 2193SOL    HW218213   0.851   4.016  10.073  0.6010 -0.1541  0.6219
 2194SOL     OW18214   0.706   1.524   1.324  0.8052 -0.4913 -0.0977
 2194SOL    HW118215   0.778   1.584   1.308  0.1840  0.0873 -0.7633
 2194SOL    HW218216   0.644   1.565   1.384  2.5657 -0.1640  1.4697
 2195SOL     OW18217   1.001   1.507   9.483 -0.2852  0.5650 -0.2051
 2195SOL    HW118218   1.006   1.486   9.576  0.5664  0.9268 -0.1676
 2195SOL    HW218219   0.913   1.543   9.468 -0.9105 -0.1066  1.9576
 2196SOL     OW18220   0.130   1.177   3.888 -1.1610  0.4365  0.2492
 2196SOL    HW118221   0.079   1.254   3.912  0.1171  1.5712 -0.7315
 2196SOL    HW218222   0.168   1.120   3.956 -0.3570 -0.8756 -1.3101
 2197SOL     OW18223   1.740   2.475   4.652  0.3199  0.2149 -0.0878
 2197SOL    HW118224   1.802   2.478   4.724  0.0976  1.2566  0.0692
 2197SOL    HW218225   1.655   2.477   4.696 -0.4073  0.0823 -1.4521
 2198SOL     OW18226   3.029   1.910   8.937 -0.4083 -0.2820 -0.3561
 2198SOL    HW118227   2.963   1.876   8.998 -1.2708  2.8612  0.4394
 2198SOL    HW218228   3.063   1.993   8.971 -0.4716 -0.2836 -0.2893
 2199SOL     OW18229   3.782   4.456   8.958  0.7215  0.7194  0.2545
 2199SOL    HW118230   3.734   4.448   8.876  2.0966 -0.4501 -0.4539
 2199SOL    HW218231   3.740   4.391   9.015 -0.0997 -0.7999 -2.0788
 2200SOL     OW18232   3.413   3.267   5.860  0.4998 -0.5870  0.8649
 2200SOL    HW118233   3.340   3.209   5.884  0.5494 -1.2596 -0.5882
 2200SOL    HW218234   3.488   3.208   5.866  0.4488 -0.7894 -0.3588
 2201SOL     OW18235   0.640   0.226   7.505  0.1575  0.2022 -0.2015
 2201SOL    HW118236   0.626   0.188   7.419  1.8387 -0.5459 -0.1337
 2201SOL    HW218237   0.734   0.216   7.499  0.1293 -0.9962  1.3318
 2202SOL     OW18238   2.314   3.944   5.607  0.2809 -0.2174  0.2097
 2202SOL    HW118239   2.245   3.997   5.569  0.3596 -1.1890 -1.3028
 2202SOL    HW218240   2.363   3.922   5.527 -2.7857  2.0321 -2.3001
 2203SOL     OW18241   1.907   1.133   4.681  0.2401  0.3672 -0.3010
 2203SOL    HW118242   1.921   1.153   4.588  2.3027  0.5974  0.0513
 2203SOL    HW218243   1.932   1.040   4.685 -0.4075  0.3550  2.7786
 2204SOL     OW18244   3.759   2.997  10.893 -0.0239 -0.1617  0.3401
 2204SOL    HW118245   3.721   3.053  10.961  0.1709 -0.4400  0.6766
 2204SOL    HW218246   3.808   2.931  10.942 -0.5996 -0.4749  0.4901
 2205SOL     OW18247   0.113   3.206   9.377  0.1249 -0.0495 -0.0128
 2205SOL    HW118248   0.080   3.238   9.461 -0.2049  0.5306 -0.3658
 2205SOL    HW218249   0.206   3.198   9.399  0.0955  3.0485  1.3174
 2206SOL     OW18250   2.456   4.422   5.730  0.0104 -0.1799 -0.1136
 2206SOL    HW118251   2.536   4.472   5.713 -0.5787  0.2951 -1.5369
 2206SOL    HW218252   2.417   4.437   5.643  0.9078  1.8928 -0.1796
 2207SOL     OW18253   1.695   3.322   5.127  0.1489  0.3328 -0.9479
 2207SOL    HW118254   1.768   3.361   5.176 -0.9090  0.9861  0.1259
 2207SOL    HW218255   1.687   3.380   5.052 -2.1795  0.7912 -0.3396
 2208SOL     OW18256   3.420   1.128   8.557 -0.2534 -0.1758 -0.3127
 2208SOL    HW118257   3.355   1.088   8.500 -2.1810  2.3198  0.1668
 2208SOL    HW218258   3.473   1.182   8.498  0.4965  1.6171  1.9887
 2209SOL     OW18259   3.576   0.785   2.073  0.3123 -0.3462 -0.1787
 2209SOL    HW118260   3.649   0.736   2.034 -1.1527 -1.2899 -1.7288
 2209SOL    HW218261   3.587   0.873   2.035  1.2913  0.8492  2.8545
 2210SOL     OW18262   2.813   1.220   7.923 -0.2424 -0.4903  0.2380
 2210SOL    HW118263   2.745   1.284   7.901  2.2586  1.7019 -1.1642
 2210SOL    HW218264   2.771   1.174   7.996 -1.4886  0.7420  0.2985
 2211SOL     OW18265   2.893   3.766   6.154 -0.1160 -0.3535  0.3138
 2211SOL    HW118266   2.852   3.728   6.232  0.5809 -0.1280  0.7941
 2211SOL    HW218267   2.883   3.860   6.171  4.5097  0.6625 -2.5861
 2212SOL     OW18268   0.548   4.266   9.317 -0.2659  0.3278 -0.2218
 2212SOL    HW118269   0.560   4.173   9.295  0.1816  0.5612 -0.9812
 2212SOL    HW218270   0.468   4.260   9.369 -0.0334  0.0778  0.1055
 2213SOL     OW18271   0.333   0.361   8.883  1.1167 -0.7206 -0.1100
 2213SOL    HW118272   0.363   0.347   8.793  1.8735  0.6540 -0.0759
 2213SOL    HW218273   0.386   0.300   8.935 -0.6051 -2.1432 -0.0545
 2214SOL     OW18274   3.238   2.165   6.089 -0.0727 -0.0427  0.2166
 2214SOL    HW118275   3.259   2.126   6.005  1.1438 -1.2149  1.0652
 2214SOL    HW218276   3.270   2.255   6.092 -1.0149  0.2942  0.2342
 2215SOL     OW18277   2.974   1.550   7.476  0.1941  0.2401 -0.1261
 2215SOL    HW118278   3.003   1.459   7.471  0.3398  0.3853 -1.8746
 2215SOL    HW218279   2.944   1.555   7.567 -0.2825 -1.0013 -0.2094
 2216SOL     OW18280   0.813   0.460   2.650 -0.0854 -0.3753  0.1387
 2216SOL    HW118281   0.814   0.387   2.712 -1.1407 -1.2119 -0.8327
 2216SOL    HW218282   0.861   0.526   2.700  0.0394  0.8257 -1.5873
 2217SOL     OW18283   3.768   2.548   4.410  0.4628  0.2522  0.1196
 2217SOL    HW118284   3.845   2.535   4.464  0.0874 -1.3847  0.2786
 2217SOL    HW218285   3.774   2.626   4.355  0.0425  0.5402  0.4801
 2218SOL     OW18286   3.864   1.235   2.281 -0.1673  0.0384 -0.2449
 2218SOL    HW118287   3.929   1.234   2.351 -1.0038  0.7840  0.5395
 2218SOL    HW218288   3.792   1.293   2.308  0.8925  1.0132  0.4587
 2219SOL     OW18289   1.495   4.616   3.729  0.0764 -0.3906 -0.6926
 2219SOL    HW118290   1.561   4.607   3.660  3.6859 -1.2607  2.8004
 2219SOL    HW218291   1.520   4.549   3.793 -0.3790  0.1846  0.0845
 2220SOL     OW18292   0.085   0.004   7.747 -0.0679 -0.2200 -0.4041
 2220SOL    HW118293   0.033   0.083   7.762 -0.2508 -0.5341  0.6308
 2220SOL    HW218294   0.053   4.721   7.659 -1.3397 -0.7425  0.1814
 2221SOL     OW18295   4.361   0.215  16.726  0.4127 -0.4721  0.1380
 2221SOL    HW118296   4.315   0.157  16.664 -0.0108  1.3018 -1.1922
 2221SOL    HW218297   4.404   0.154  16.785  0.1613  0.1935  1.0077
 2222SOL     OW18298   2.812   0.743   1.290 -0.6922 -0.1395 -0.1958
 2222SOL    HW118299   2.813   0.653   1.260  0.7654 -0.9706  2.3479
 2222SOL    HW218300   2.775   0.725   1.377 -0.8517 -4.4278 -1.1747
 2223SOL     OW18301   2.455   3.484   6.501  0.1857 -0.1774 -0.3453
 2223SOL    HW118302   2.367   3.446   6.506  1.1037 -2.1138  1.1875
 2223SOL    HW218303   2.517   3.437   6.556  1.8800  0.9500 -1.3031
 2224SOL     OW18304   2.134   4.224   2.093  0.0309 -0.3568  0.0818
 2224SOL    HW118305   2.215   4.174   2.105 -0.3973 -1.0893 -0.0869
 2224SOL    HW218306   2.079   4.152   2.062  0.0029 -0.3906  0.2109
 2225SOL     OW18307   0.827   2.857  13.784 -0.0897 -0.7931 -0.3126
 2225SOL    HW118308   0.824   2.818  13.696 -2.1734  1.5690 -1.2739
 2225SOL    HW218309   0.777   2.787  13.827 -1.5440 -1.0161 -2.3565
 2226SOL     OW18310   1.272   0.038   5.324 -0.3712 -0.4560 -0.3035
 2226SOL    HW118311   1.311   0.110   5.275 -0.7696 -1.3299 -1.8896
 2226SOL    HW218312   1.211   0.097   5.370  1.3317  0.7416  0.4113
 2227SOL     OW18313   3.439   0.164   3.389 -0.5404  0.2926 -0.1304
 2227SOL    HW118314   3.381   0.207   3.452 -1.0453 -0.0158 -0.3871
 2227SOL    HW218315   3.440   0.075   3.423  0.5438  0.3373 -0.0322
 2228SOL     OW18316   1.194   0.788   6.414  0.3084  0.7421  0.2630
 2228SOL    HW118317   1.283   0.763   6.389  0.6596  1.7828  0.4602
 2228SOL    HW218318   1.162   0.813   6.327  0.8434 -1.6626 -0.6155
 2229SOL     OW18319   0.729   3.927   7.607 -0.1795 -0.4530  1.2457
 2229SOL    HW118320   0.700   3.846   7.565  1.2795  0.2278 -1.0524
 2229SOL    HW218321   0.751   3.901   7.697 -0.0605 -4.9165 -0.1126
 2230SOL     OW18322   0.669   2.471   1.659 -0.0206  0.5754  0.1683
 2230SOL    HW118323   0.703   2.527   1.729 -0.2625  1.9509 -0.8208
 2230SOL    HW218324   0.598   2.423   1.701  0.4610 -1.6658 -1.5666
 2231SOL     OW18325   3.159   2.392   5.692  0.0747 -0.0451  0.1012
 2231SOL    HW118326   3.202   2.443   5.623  1.2596 -0.1516  0.7473
 2231SOL    HW218327   3.093   2.452   5.726 -0.8773  0.3568 -2.4650
 2232SOL     OW18328   1.407   1.108   6.110  0.3382  0.1436  0.3920
 2232SOL    HW118329   1.476   1.144   6.053  2.0581 -1.2771  1.5638
 2232SOL    HW218330   1.461   1.040   6.152 -0.6310 -0.9173 -0.0908
 2233SOL     OW18331   1.549   0.998   3.874 -0.2786 -0.3832 -0.0619
 2233SOL    HW118332   1.491   0.994   3.950 -0.0159  0.6093  0.1962
 2233SOL    HW218333   1.489   0.971   3.805 -1.8993  2.7671  0.1012
 2234SOL     OW18334   1.461   0.223  16.648 -0.0055 -0.3416 -0.2838
 2234SOL    HW118335   1.542   0.175  16.628  0.6231  0.9480 -0.8583
 2234SOL    HW218336   1.476   0.299  16.592  0.3595 -0.1490  0.0742
 2235SOL     OW18337   2.855   2.607  16.490  0.2429 -0.2719 -0.4616
 2235SOL    HW118338   2.875   2.601  16.397  0.8146  1.4485 -0.4384
 2235SOL    HW218339   2.821   2.696  16.498 -0.7461 -0.7129  0.2375
 2236SOL     OW18340   4.314   3.891  10.562  0.2851 -0.1078  1.0406
 2236SOL    HW118341   4.289   3.958  10.625 -1.2573  0.5273 -0.2613
 2236SOL    HW218342   4.329   3.942  10.482 -1.0903  1.5396  1.8348
 2237SOL     OW18343   2.686   0.510   1.232 -0.8131  0.2165 -0.1511
 2237SOL    HW118344   2.599   0.514   1.271 -0.8159 -2.1405  0.0881
 2237SOL    HW218345   2.726   0.441   1.285  0.4054  0.6938 -0.4492
 2238SOL     OW18346   1.674   1.647  16.722 -0.1354 -0.5730 -0.4838
 2238SOL    HW118347   1.683   1.701  16.801 -1.4540  0.6416 -1.1723
 2238SOL    HW218348   1.696   1.713  16.656  0.1871 -0.0174  0.1768
 2239SOL     OW18349   1.172   3.328   9.303 -0.1081 -0.1024 -0.0477
 2239SOL    HW118350   1.098   3.351   9.247  0.1207 -0.9256 -0.6847
 2239SOL    HW218351   1.168   3.390   9.376 -1.4415 -0.2218 -0.0232
 2240SOL     OW18352   1.916   0.601   3.701  0.1059  0.2394 -0.5121
 2240SOL    HW118353   1.844   0.646   3.657 -1.6361 -0.0457  2.0818
 2240SOL    HW218354   1.870   0.518   3.711 -0.4968  0.7165  0.6071
 2241SOL     OW18355   4.238   1.399   1.588 -0.3450  0.2693  0.1107
 2241SOL    HW118356   4.219   1.471   1.528 -0.3975 -1.2721 -1.7361
 2241SOL    HW218357   4.236   1.324   1.528 -2.3681  1.1520 -0.9201
 2242SOL     OW18358   1.290   1.031   0.215 -0.9700  0.3550  0.8144
 2242SOL    HW118359   1.320   0.942   0.196  0.3487  1.7145 -3.5252
 2242SOL    HW218360   1.370   1.069   0.252 -0.3777 -1.6903  1.6212
 2243SOL     OW18361   2.788   3.403  10.302 -0.3897 -0.3936  0.2839
 2243SOL    HW118362   2.761   3.330  10.246 -0.0152  0.1420 -0.5972
 2243SOL    HW218363   2.812   3.356  10.382 -1.2137 -1.0043  0.1754
 2244SOL     OW18364   0.268   3.744   8.619 -0.0258  0.4802  0.3557
 2244SOL    HW118365   0.289   3.767   8.710 -1.3972  1.3081  0.4684
 2244SOL    HW218366   0.273   3.832   8.582 -0.8853  1.3600  2.3041
 2245SOL     OW18367   1.787   3.916   4.604  0.0739  0.5039  0.1971
 2245SOL    HW118368   1.734   3.840   4.579 -1.6419  1.9332 -0.5563
 2245SOL    HW218369   1.742   3.986   4.556  1.4801  0.9311 -0.4841
 2246SOL     OW18370   2.451   3.975   4.575  0.4030  0.1764 -0.1229
 2246SOL    HW118371   2.542   3.969   4.603 -0.0551 -1.8825  0.9560
 2246SOL    HW218372   2.400   4.020   4.642  1.3984  0.1922  0.6109
 2247SOL     OW18373   3.729   3.641  13.823 -0.1144 -0.1464  0.0804
 2247SOL    HW118374   3.781   3.721  13.818 -2.9425  1.7368  0.8483
 2247SOL    HW218375   3.719   3.637  13.918  0.1177 -0.4737  0.0930
 2248SOL     OW18376   4.680   3.552   1.033 -0.1528 -0.2713  0.0380
 2248SOL    HW118377   4.727   3.596   1.103 -0.0395 -0.6435  0.1993
 2248SOL    HW218378   4.623   3.618   0.994 -0.3356 -0.8906 -0.7534
 2249SOL     OW18379   4.240   3.502   9.216  0.1348 -0.0113  0.6478
 2249SOL    HW118380   4.263   3.591   9.241  1.4047 -0.3089  0.5632
 2249SOL    HW218381   4.251   3.504   9.121 -0.2211  0.5253  0.6189
 2250SOL     OW18382   1.789   2.719   2.968  0.4086  0.2306 -0.5635
 2250SOL    HW118383   1.777   2.796   3.024 -1.4891 -3.1403  3.6694
 2250SOL    HW218384   1.716   2.665   2.998  0.7325  0.4558  0.6194
 2251SOL     OW18385   1.250   3.721   0.140 -0.4662 -0.6197  0.9110
 2251SOL    HW118386   1.232   3.799   0.087  2.5610  0.2945  1.2059
 2251SOL    HW218387   1.170   3.713   0.190 -0.7916  1.3703  0.7150
 2252SOL     OW18388   3.638   0.905   5.614  0.6483 -0.5343 -0.1757
 2252SOL    HW118389   3.561   0.862   5.576  1.0617 -1.4428  0.0160
 2252SOL    HW218390   3.587   0.950   5.681 -0.9485 -0.2295 -1.6105
 2253SOL     OW18391   3.637   2.044   7.827  0.3324  0.2502 -0.6715
 2253SOL    HW118392   3.617   1.954   7.853 -1.6757  1.4639  2.0577
 2253SOL    HW218393   3.661   2.077   7.914  2.2839 -1.8584 -0.4346
 2254SOL     OW18394   2.560   3.946   1.323 -0.2837 -0.0536 -0.0038
 2254SOL    HW118395   2.590   3.935   1.413  1.1490  0.9892 -0.3504
 2254SOL    HW218396   2.477   3.987   1.344  0.5535  0.6314  1.9585
 2255SOL     OW18397   1.350   2.236   2.654  0.6025 -0.0023 -0.2136
 2255SOL    HW118398   1.281   2.175   2.681  1.9535 -1.6821 -0.5508
 2255SOL    HW218399   1.348   2.222   2.560 -1.5277  2.5940 -0.5686
 2256SOL     OW18400   1.871   0.858   8.435 -0.0433  0.0745  0.0128
 2256SOL    HW118401   1.894   0.792   8.368 -0.9811  0.6996 -0.9281
 2256SOL    HW218402   1.828   0.794   8.491  0.3945  0.5801  0.9256
 2257SOL     OW18403   2.137   4.143   9.646 -0.1538  0.3315 -0.8603
 2257SOL    HW118404   2.042   4.133   9.637 -0.2220 -0.8559  1.0446
 2257SOL    HW218405   2.165   4.052   9.659 -1.8904 -0.0909 -0.0865
 2258SOL     OW18406   1.798   3.670   0.306  0.3889  0.2626  0.8802
 2258SOL    HW118407   1.730   3.677   0.239  0.9817 -1.2052  0.1300
 2258SOL    HW218408   1.863   3.732   0.272  0.0289  0.2191  0.1108
 2259SOL     OW18409   1.166   3.063   5.514  0.1464  0.1405 -0.0967
 2259SOL    HW118410   1.253   3.024   5.505 -0.0445 -0.7949  2.1309
 2259SOL    HW218411   1.134   3.015   5.438 -1.0034 -1.2533  1.2597
 2260SOL     OW18412   4.250   3.671   8.404  0.1238 -0.8748  0.3886
 2260SOL    HW118413   4.337   3.675   8.443  0.7275  2.1813 -1.2594
 2260SOL    HW218414   4.227   3.586   8.442  2.6231 -1.9036 -0.4019
 2261SOL     OW18415   1.602   4.117   6.128  0.1514 -0.1089  0.0627
 2261SOL    HW118416   1.573   4.070   6.050  0.5868 -2.0298  1.0478
 2261SOL    HW218417   1.539   4.083   6.193 -0.3708  0.1775 -0.2945
 2262SOL     OW18418   0.375   1.464   6.347 -0.2731  0.8851 -0.7472
 2262SOL    HW118419   0.343   1.521   6.417  0.0073  1.3887 -1.0255
 2262SOL    HW218420   0.385   1.538   6.286  1.9921  0.7833 -0.4973
 2263SOL     OW18421   2.428   1.945  11.251 -0.1407  0.0551 -0.5858
 2263SOL    HW118422   2.433   1.869  11.193 -1.8958 -1.1945  0.9091
 2263SOL    HW218423   2.454   2.013  11.188 -1.0964  1.9962  1.1271
 2264SOL     OW18424   4.628   3.763   4.183 -0.0350 -0.7107  0.7380
 2264SOL    HW118425   4.691   3.691   4.192 -0.8068 -1.3615  0.9419
 2264SOL    HW218426   4.694   3.829   4.164 -1.4945  0.1122 -1.5152
 2265SOL     OW18427   3.580   3.808   8.711 -0.3440  0.1769 -0.0793
 2265SOL    HW118428   3.501   3.804   8.764 -1.0728  5.5174 -0.8085
 2265SOL    HW218429   3.633   3.784   8.787 -1.4908 -1.0441  0.3460
 2266SOL     OW18430   2.614   0.253   5.609  0.0991 -0.0901  0.2151
 2266SOL    HW118431   2.594   0.160   5.622 -2.5723  0.7188  1.8099
 2266SOL    HW218432   2.573   0.304   5.679 -1.8287 -0.3123 -0.7636
 2267SOL     OW18433   1.667   1.798   2.695 -0.2727 -0.2386  0.1865
 2267SOL    HW118434   1.601   1.841   2.750  1.2454  0.1659  1.6889
 2267SOL    HW218435   1.613   1.748   2.634 -0.1511 -0.7221  0.4751
 2268SOL     OW18436   1.738   3.618  10.864  0.4736 -0.3426  0.3640
 2268SOL    HW118437   1.763   3.619  10.956  0.5812  0.1346  0.3287
 2268SOL    HW218438   1.667   3.554  10.866 -0.0344  0.2393  0.7357
 2269SOL     OW18439   2.396   2.345   4.764 -0.7690  0.0684  0.6671
 2269SOL    HW118440   2.381   2.434   4.730  2.1354  1.1652  2.2575
 2269SOL    HW218441   2.492   2.349   4.771 -0.7675  1.9835 -0.4130
 2270SOL     OW18442   1.307   0.618   7.429 -0.2420  0.0189 -0.5031
 2270SOL    HW118443   1.280   0.564   7.355 -0.6162 -0.1250 -0.2574
 2270SOL    HW218444   1.337   0.544   7.483  1.4329  1.5690  0.7003
 2271SOL     OW18445   3.689   3.472  15.475  0.2779  0.0742  0.7078
 2271SOL    HW118446   3.602   3.480  15.435  0.6142 -0.2151 -0.0794
 2271SOL    HW218447   3.702   3.378  15.457  1.1021  0.1755  0.7756
 2272SOL     OW18448   2.323   0.451   7.470  0.2730 -0.2681 -0.0377
 2272SOL    HW118449   2.326   0.428   7.377 -0.5361  1.7675 -0.5704
 2272SOL    HW218450   2.356   0.372   7.513 -0.5174  0.1546  1.3452
 2273SOL     OW18451   1.362   3.672   0.875  0.7036 -0.9192  0.0951
 2273SOL    HW118452   1.395   3.583   0.887  0.3438 -1.0128  0.3993
 2273SOL    HW218453   1.442   3.718   0.849  0.9389 -0.2284  2.0846
 2274SOL     OW18454   2.302   0.799   8.255  0.1363 -0.2387 -0.7351
 2274SOL    HW118455   2.285   0.732   8.188 -2.4197  1.3426 -1.6806
 2274SOL    HW218456   2.296   0.749   8.336 -1.5220 -0.7547 -1.1711
 2275SOL     OW18457   1.445   2.043   9.178 -0.0874 -0.0437 -0.5188
 2275SOL    HW118458   1.510   1.977   9.153 -0.7537 -0.6587 -0.6244
 2275SOL    HW218459   1.488   2.123   9.150 -1.1427  1.3994  2.0109
 2276SOL     OW18460   3.086   0.718   2.905 -0.1018 -0.1506  0.1284
 2276SOL    HW118461   3.081   0.632   2.948  2.8719  1.1293  2.9661
 2276SOL    HW218462   3.116   0.693   2.817  1.8365  1.8080  0.2575
 2277SOL     OW18463   1.969   1.333   5.636 -0.1990  0.4493  0.5150
 2277SOL    HW118464   1.889   1.350   5.587 -0.4540  1.6085  1.3008
 2277SOL    HW218465   1.997   1.248   5.603 -1.7288 -0.4657  1.5419
 2278SOL     OW18466   3.903   2.039  13.860 -0.1577  0.1078  0.1733
 2278SOL    HW118467   3.809   2.059  13.857  0.2012  2.2479  2.7275
 2278SOL    HW218468   3.935   2.031  13.950 -0.8367 -2.5735  0.1695
 2279SOL     OW18469   0.637   2.496   8.788 -0.1646  0.3288 -0.1558
 2279SOL    HW118470   0.706   2.441   8.824 -1.2074 -0.7081  0.2634
 2279SOL    HW218471   0.689   2.567   8.749  0.7524  0.4365  1.2463
 2280SOL     OW18472   0.643   2.307   4.800 -0.3937 -0.0803 -0.6169
 2280SOL    HW118473   0.615   2.331   4.712  0.0983  2.8893  0.0496
 2280SOL    HW218474   0.736   2.286   4.787 -0.9937 -2.4551 -1.1685
 2281SOL     OW18475   3.542   1.022   6.127  0.1280  0.4586 -0.1037
 2281SOL    HW118476   3.487   1.071   6.188  1.4663 -0.1936  1.6274
 2281SOL    HW218477   3.612   0.984   6.181 -0.7465  2.1994  2.2574
 2282SOL     OW18478   0.926   2.726   4.622 -0.1157  0.0517 -0.5563
 2282SOL    HW118479   0.849   2.768   4.661  0.8526 -2.5219  4.0259
 2282SOL    HW218480   0.879   2.678   4.553 -1.8359  0.6845  0.1591
 2283SOL     OW18481   0.782   3.343   6.357 -0.0353  0.2591 -0.1224
 2283SOL    HW118482   0.749   3.420   6.402  4.1343  0.9862  1.6723
 2283SOL    HW218483   0.809   3.383   6.274  3.6326 -0.6853  0.6219
 2284SOL     OW18484   1.895   4.204   3.666 -0.1026 -0.1738  0.3214
 2284SOL    HW118485   1.821   4.218   3.724  0.2602 -0.8029  0.9432
 2284SOL    HW218486   1.901   4.108   3.665  0.6703 -0.1153 -0.8659
 2285SOL     OW18487   0.481   2.455   1.992 -0.7233  0.1672  0.0603
 2285SOL    HW118488   0.462   2.479   1.902 -0.1395  0.1518 -0.0684
 2285SOL    HW218489   0.504   2.362   1.987  0.4005  0.3896  1.1325
 2286SOL     OW18490   4.702   1.784   0.231  0.6836  0.1804  0.0191
 2286SOL    HW118491   4.705   1.848   0.301 -1.5173  0.2676  0.0537
 2286SOL    HW218492   4.616   1.803   0.192 -0.7201 -2.1193  1.9967
 2287SOL     OW18493   2.734   4.387   5.260  0.0944 -0.3337 -0.8424
 2287SOL    HW118494   2.695   4.299   5.259 -0.3694 -0.1394  0.4045
 2287SOL    HW218495   2.674   4.440   5.313  0.9402  0.6642 -0.8949
 2288SOL     OW18496   2.009   3.175   7.698 -0.1587 -0.1411 -0.2617
 2288SOL    HW118497   1.991   3.203   7.788  2.2781  0.0303  0.1612
 2288SOL    HW218498   1.950   3.213   7.633  0.4979  1.1278 -0.1087
 2289SOL     OW18499   4.245   3.488   8.902  0.1476 -0.3018 -0.5406
 2289SOL    HW118500   4.205   3.444   8.828 -1.1761  0.4021 -0.2482
 2289SOL    HW218501   4.196   3.570   8.903  2.4669  1.0824  1.7433
 2290SOL     OW18502   2.828   1.492   4.144 -0.1277 -0.4643  0.2207
 2290SOL    HW118503   2.813   1.522   4.054  2.3091 -0.5174 -0.2176
 2290SOL    HW218504   2.825   1.398   4.123  1.3625  0.0811 -2.4495
 2291SOL     OW18505   1.252   3.131   8.709 -0.3902  0.3590 -0.2677
 2291SOL    HW118506   1.209   3.170   8.785 -0.9877 -0.9872  0.0712
 2291SOL    HW218507   1.192   3.061   8.685  0.9624 -1.7112  2.5169
 2292SOL     OW18508   3.183   3.181   0.797  0.1581  0.7309 -0.0556
 2292SOL    HW118509   3.267   3.186   0.751  0.7078  0.3464  0.9205
 2292SOL    HW218510   3.173   3.273   0.820  0.0617  0.0052  2.8390
 2293SOL     OW18511   2.116   4.350   6.246 -0.1432 -0.0053 -0.5360
 2293SOL    HW118512   2.172   4.303   6.309  1.0342  0.5190 -1.1843
 2293SOL    HW218513   2.044   4.288   6.236 -0.9244  0.8507 -0.1439
 2294SOL     OW18514   4.193   4.080   2.284  0.9647  0.4222 -0.0221
 2294SOL    HW118515   4.217   3.991   2.309 -0.2102  0.2647  0.5536
 2294SOL    HW218516   4.100   4.070   2.304  1.4496 -1.4810  1.2969
 2295SOL     OW18517   1.163   0.996   9.901  0.2350 -0.8144 -0.0243
 2295SOL    HW118518   1.098   1.060   9.873 -1.1506 -2.3092 -0.1832
 2295SOL    HW218519   1.110   0.925   9.937 -0.2215 -1.4624 -1.9876
 2296SOL     OW18520   0.408   1.375   4.248  0.3415  0.4696  0.6908
 2296SOL    HW118521   0.472   1.389   4.318  3.3402 -0.6989 -1.8418
 2296SOL    HW218522   0.455   1.401   4.169 -1.8165  0.3876 -0.6078
 2297SOL     OW18523   0.398   4.722   4.832 -0.2292  0.0775  0.0436
 2297SOL    HW118524   0.405   0.056   4.896 -2.3629  0.2213  0.1343
 2297SOL    HW218525   0.487   4.713   4.800 -0.9379 -0.1621 -1.8483
 2298SOL     OW18526   1.336   0.111   7.221 -0.4030  0.0346 -0.0669
 2298SOL    HW118527   1.418   0.101   7.270 -0.9793 -0.9006  0.7086
 2298SOL    HW218528   1.281   0.058   7.278 -0.4692  0.6645  0.4586
 2299SOL     OW18529   1.698   0.057  17.373 -0.8339 -0.7243 -0.1790
 2299SOL    HW118530   1.632   0.115  17.337  1.1237  0.7410 -1.3819
 2299SOL    HW218531   1.650   0.006  17.439  0.5941 -1.5706  0.2220
 2300SOL     OW18532   3.066   3.408   6.089  0.1719 -0.3616  0.5149
 2300SOL    HW118533   3.095   3.496   6.112 -1.3336  0.4423 -0.7061
 2300SOL    HW218534   3.111   3.358   6.157 -0.6304  0.0551  1.3417
 2301SOL     OW18535   2.650   1.732   0.345 -0.4978 -0.0734 -0.0207
 2301SOL    HW118536   2.728   1.770   0.384 -0.7307 -0.5237  0.8878
 2301SOL    HW218537   2.593   1.789   0.397  1.2190  0.5994  1.1252
 2302SOL     OW18538   2.925   0.718   5.496 -0.0425  0.3752 -0.1543
 2302SOL    HW118539   2.962   0.766   5.422 -0.6238 -0.5605 -1.0387
 2302SOL    HW218540   2.859   0.781   5.526  0.3153  0.2186  0.9744
 2303SOL     OW18541   1.483   3.932  16.025  0.0844  0.6894  0.1030
 2303SOL    HW118542   1.527   3.847  16.015  1.0751  1.0353  1.4780
 2303SOL    HW218543   1.414   3.886  16.073  0.5068 -0.7204 -0.6405
 2304SOL     OW18544   2.509   2.885   5.495  0.1676  0.2663 -0.0343
 2304SOL    HW118545   2.548   2.798   5.487 -1.9936 -0.5384 -1.8490
 2304SOL    HW218546   2.447   2.865   5.566  0.3814  1.0168  0.3575
 2305SOL     OW18547   2.079   4.291   4.423  0.3018 -0.1008  0.3720
 2305SOL    HW118548   2.065   4.199   4.445 -1.5206  0.0188 -0.3177
 2305SOL    HW218549   2.142   4.286   4.350 -0.1953  0.6055 -0.1024
 2306SOL     OW18550   1.393   3.184   5.944 -0.5013 -0.4391 -0.7236
 2306SOL    HW118551   1.446   3.121   5.895 -0.2373 -0.1262 -0.8449
 2306SOL    HW218552   1.314   3.184   5.891 -0.5659 -2.5069 -0.6079
 2307SOL     OW18553   1.559   3.510  13.726  0.4154 -0.2660  0.2037
 2307SOL    HW118554   1.549   3.598  13.764  1.5993  1.2138 -2.9078
 2307SOL    HW218555   1.471   3.503  13.690 -0.2951 -0.8828  2.0734
 2308SOL     OW18556   1.426   0.342   1.373  0.5546 -0.7524 -0.2697
 2308SOL    HW118557   1.498   0.401   1.398 -2.4085  2.1270  1.4322
 2308SOL    HW218558   1.362   0.403   1.336  1.1359  1.8243  2.9714
 2309SOL     OW18559   2.319   2.998   1.150  0.1238 -0.0269  0.2297
 2309SOL    HW118560   2.291   3.002   1.241 -0.4094  4.0390 -0.1506
 2309SOL    HW218561   2.408   3.030   1.161  0.2156 -0.9866  2.2791
 2310SOL     OW18562   0.652   3.265   8.248 -0.2082  0.2616 -0.0757
 2310SOL    HW118563   0.706   3.337   8.216  1.6347 -1.0329  0.1183
 2310SOL    HW218564   0.636   3.289   8.340  0.8174 -3.3691  1.0374
 2311SOL     OW18565   2.607   1.063   7.353 -0.3782  0.2937 -0.1051
 2311SOL    HW118566   2.523   1.024   7.326 -0.9994  0.7939  1.0730
 2311SOL    HW218567   2.604   1.054   7.448 -1.5776 -0.2331 -0.1889
 2312SOL     OW18568   0.845   0.008  16.629 -0.1386  0.1832 -0.1420
 2312SOL    HW118569   0.864   4.734  16.536  0.4610 -1.3658  0.1767
 2312SOL    HW218570   0.763   4.696  16.626  0.9233 -1.6221  0.6574
 2313SOL     OW18571   1.797   1.497  17.392  0.0341 -0.3178  0.2758
 2313SOL    HW118572   1.835   1.411  17.374  0.8683  0.2364 -0.5785
 2313SOL    HW218573   1.772   1.517  17.302  1.4645  0.5281  0.0685
 2314SOL     OW18574   3.715   0.745   0.007 -0.4894 -0.2113  0.3286
 2314SOL    HW118575   3.623   0.720   0.002 -0.4927 -0.8052  3.2798
 2314SOL    HW218576   3.714   0.812  17.686 -0.6054  1.7342  2.2278
 2315SOL     OW18577   0.298   0.546   2.041  0.0133  0.3753  0.1772
 2315SOL    HW118578   0.248   0.545   2.124  1.0880  3.4265  0.8564
 2315SOL    HW218579   0.231   0.577   1.980  0.7000 -0.4280 -0.9660
 2316SOL     OW18580   2.880   0.339  17.057 -0.4257 -0.5317  0.0652
 2316SOL    HW118581   2.912   0.250  17.073 -0.2698 -0.5446 -0.3192
 2316SOL    HW218582   2.946   0.383  17.111  1.5844 -0.9902 -1.9943
 2317SOL     OW18583   0.974   4.312  10.007  0.3101 -0.0637 -0.0795
 2317SOL    HW118584   0.913   4.241  10.024 -2.2605  1.7878 -1.5171
 2317SOL    HW218585   1.057   4.265   9.993 -0.6454 -1.5840 -0.5864
 2318SOL     OW18586   3.834   0.865   4.387  0.2072 -0.2902 -0.2023
 2318SOL    HW118587   3.819   0.846   4.480  0.0444 -3.6732 -0.9050
 2318SOL    HW218588   3.884   0.788   4.360  2.2694  0.3537  1.7241
 2319SOL     OW18589   0.224   1.579   1.354  0.1558  0.2971 -0.1121
 2319SOL    HW118590   0.225   1.637   1.278  1.7142  1.2346  0.6293
 2319SOL    HW218591   0.224   1.501   1.299 -1.1950 -0.4313  0.9164
 2320SOL     OW18592   0.818   3.202  16.568  0.1450 -0.2613 -0.2812
 2320SOL    HW118593   0.793   3.169  16.654  0.4077  1.0860  0.3164
 2320SOL    HW218594   0.734   3.193  16.524 -1.2539  2.2177  1.8786
 2321SOL     OW18595   3.973   1.167  13.726  0.2895  0.3103  0.1991
 2321SOL    HW118596   3.980   1.200  13.636  2.3716  0.1883  0.3131
 2321SOL    HW218597   4.065   1.147  13.746  0.3151  0.5022  0.2811
 2322SOL     OW18598   0.326   4.617   8.376  0.3377  0.0327 -0.5148
 2322SOL    HW118599   0.417   4.643   8.363  0.5130  0.4610  1.5308
 2322SOL    HW218600   0.346   4.539   8.427 -0.1799  1.1675  1.4500
 2323SOL     OW18601   3.543   3.546   4.321  0.6287  0.2464 -0.0629
 2323SOL    HW118602   3.628   3.582   4.294 -0.2759  2.3822 -0.0444
 2323SOL    HW218603   3.546   3.464   4.271  0.7948  0.8614 -1.0752
 2324SOL     OW18604   0.955   4.482   7.604 -0.3797 -0.3451 -0.3448
 2324SOL    HW118605   0.880   4.516   7.654 -0.4713  0.7373 -1.2297
 2324SOL    HW218606   0.914   4.444   7.526 -0.1246  2.0525 -1.6613
 2325SOL     OW18607   0.911   1.704  14.396  0.5174 -0.8743  0.1814
 2325SOL    HW118608   0.901   1.713  14.490 -0.0925 -1.9163  0.2197
 2325SOL    HW218609   0.861   1.781  14.371 -0.8887 -1.2691  1.8029
 2326SOL     OW18610   4.619   4.266   0.318 -0.5424  0.1262  0.1474
 2326SOL    HW118611   4.703   4.224   0.337 -0.4497 -1.4187 -3.6153
 2326SOL    HW218612   4.621   4.299   0.228  0.6610  1.2615  0.5774
 2327SOL     OW18613   1.799   3.434  16.812 -0.0607 -0.1820  0.3844
 2327SOL    HW118614   1.833   3.443  16.901 -0.8955 -0.6233  0.7424
 2327SOL    HW218615   1.815   3.341  16.795 -0.4519  0.0810 -1.4002
 2328SOL     OW18616   0.150   3.420  11.170  0.2517  0.7178  0.2034
 2328SOL    HW118617   0.174   3.456  11.084 -0.9689 -1.7802 -1.1920
 2328SOL    HW218618   0.093   3.491  11.198  2.1825  2.2564  0.2447
 2329SOL     OW18619   1.960   3.025   6.652 -0.0242  0.0056 -0.4341
 2329SOL    HW118620   2.023   3.091   6.679 -1.9055  2.1287 -1.2250
 2329SOL    HW218621   1.929   3.056   6.567 -2.3043  0.9607  0.7387
 2330SOL     OW18622   3.592   3.129   1.661  0.0658 -0.0656 -0.0873
 2330SOL    HW118623   3.650   3.105   1.733 -0.3000  1.3041  0.6659
 2330SOL    HW218624   3.635   3.207   1.624 -0.2704  0.2227  0.1246
 2331SOL     OW18625   3.332   4.558   0.485 -0.2120  0.1263 -0.0827
 2331SOL    HW118626   3.272   4.586   0.416 -2.0359  0.5081  1.6664
 2331SOL    HW218627   3.304   4.468   0.503 -0.3204 -0.0280 -1.0591
 2332SOL     OW18628   0.938   4.569  12.030 -0.1120 -0.5070 -0.1677
 2332SOL    HW118629   0.946   4.557  12.124  0.5066 -0.8306 -0.2613
 2332SOL    HW218630   0.963   4.661  12.020  0.7389 -0.7377 -0.1895
 2333SOL     OW18631   3.470   2.014   2.824  0.9157 -0.4859 -0.0023
 2333SOL    HW118632   3.395   1.959   2.845  0.0496  1.0117  0.8095
 2333SOL    HW218633   3.522   2.027   2.903  0.2742  1.4952  0.0886
 2334SOL     OW18634   4.425   1.896  15.374 -0.4409 -0.3166  0.0286
 2334SOL    HW118635   4.421   1.989  15.354 -0.9212 -0.6984 -1.5948
 2334SOL    HW218636   4.399   1.871  15.286 -2.0755 -1.2655  0.7678
 2335SOL     OW18637   4.090   3.353   1.217  0.6105  0.4704 -0.0484
 2335SOL    HW118638   4.021   3.293   1.246  0.7783 -0.1055 -0.8416
 2335SOL    HW218639   4.114   3.408   1.292  0.6919  0.1629  0.1522
 2336SOL     OW18640   3.599   0.517   3.236  0.4249 -0.0600  0.4221
 2336SOL    HW118641   3.512   0.530   3.274  1.2647  1.8526  1.6635
 2336SOL    HW218642   3.642   0.476   3.310  1.8002  2.7078  1.1387
 2337SOL     OW18643   3.708   4.020   9.052 -0.1144 -0.3643 -0.0807
 2337SOL    HW118644   3.696   3.956   8.982  0.3042  0.6363 -1.0847
 2337SOL    HW218645   3.680   4.093   8.996  3.5891  1.0348 -0.1221
 2338SOL     OW18646   0.199   0.895   7.635 -0.1009 -0.2350 -0.3973
 2338SOL    HW118647   0.194   0.990   7.622 -0.7656 -0.0016  1.5130
 2338SOL    HW218648   0.208   0.903   7.730 -0.5505  2.3678 -0.5561
 2339SOL     OW18649   3.833   2.577   9.896  0.7758 -0.4219 -0.0223
 2339SOL    HW118650   3.866   2.501   9.848  2.2512 -0.6967  1.4352
 2339SOL    HW218651   3.845   2.552   9.988 -0.5804 -3.8274 -0.7767
 2340SOL     OW18652   2.590   3.067   5.093  0.2280  0.5632 -0.1281
 2340SOL    HW118653   2.532   3.080   5.169  0.2279  0.3845 -0.0955
 2340SOL    HW218654   2.579   3.145   5.039 -0.5825  1.4580  1.3174
 2341SOL     OW18655   3.785   0.736  14.390 -0.2933 -0.3056  0.6555
 2341SOL    HW118656   3.775   0.831  14.401 -2.1400 -0.5723  1.1829
 2341SOL    HW218657   3.819   0.707  14.475 -3.8416 -1.9991  1.4781
 2342SOL     OW18658   3.747   4.479  15.865  0.1328  0.0354 -0.0621
 2342SOL    HW118659   3.768   4.528  15.944 -0.6982 -0.8129  0.6787
 2342SOL    HW218660   3.693   4.410  15.904  3.7243 -1.3095  2.4730
 2343SOL     OW18661   4.431   3.088   7.477  0.1967 -0.0759  0.7295
 2343SOL    HW118662   4.402   3.127   7.559 -0.9333  0.1492  0.2181
 2343SOL    HW218663   4.345   3.086   7.435  0.8787  1.8272 -0.7603
 2344SOL     OW18664   2.677   3.098  10.930  0.2700 -0.5206  0.2337
 2344SOL    HW118665   2.745   3.117  10.995  0.4531 -1.1911  0.2416
 2344SOL    HW218666   2.620   3.174  10.942  1.4149  0.1750  1.2768
 2345SOL     OW18667   0.970   2.739   4.978 -0.0719  0.2025 -0.0443
 2345SOL    HW118668   0.881   2.709   4.961  0.1657 -0.3367 -0.3107
 2345SOL    HW218669   0.982   2.700   5.065 -2.3572  0.3662  0.3506
 2346SOL     OW18670   3.750   1.648   2.961  0.3771  0.1755  0.1275
 2346SOL    HW118671   3.679   1.638   2.898 -1.6915  1.1131  2.3064
 2346SOL    HW218672   3.715   1.661   3.049 -0.3940  1.0293 -0.3094
 2347SOL     OW18673   2.991   3.997  17.133  0.0308 -0.1126  0.1473
 2347SOL    HW118674   3.058   4.065  17.139  1.4545 -1.4586 -0.2866
 2347SOL    HW218675   2.948   4.013  17.049  0.2002 -1.3335 -0.1833
 2348SOL     OW18676   2.028   4.051   7.387 -0.1867  0.5241  0.2126
 2348SOL    HW118677   1.987   4.018   7.467  0.0721 -0.7083 -0.1671
 2348SOL    HW218678   2.119   4.059   7.416 -0.2342  1.4512  0.0844
 2349SOL     OW18679   4.233   0.983  16.278 -0.2621  0.3952  0.1343
 2349SOL    HW118680   4.235   0.905  16.334  1.7233 -0.2468 -0.8590
 2349SOL    HW218681   4.152   1.027  16.305  0.1072  0.2431  1.5016
 2350SOL     OW18682   0.769   2.781   2.705 -0.0918 -0.2916  0.2672
 2350SOL    HW118683   0.792   2.688   2.705 -0.2016 -0.3342  4.1272
 2350SOL    HW218684   0.821   2.808   2.629  1.3700 -0.5555  1.1564
 2351SOL     OW18685   1.575   0.294   5.393 -0.4237 -0.4340  0.3156
 2351SOL    HW118686   1.604   0.363   5.453 -0.5986 -0.5685  0.5566
 2351SOL    HW218687   1.494   0.336   5.365 -0.6903 -1.9366 -1.1518
 2352SOL     OW18688   2.243   1.946   4.530 -0.3665 -0.0731  0.1636
 2352SOL    HW118689   2.294   1.865   4.538 -1.0214 -0.5400 -0.3722
 2352SOL    HW218690   2.318   2.005   4.519 -0.9712  0.8833  1.2195
 2353SOL     OW18691   0.057   3.219   3.439  0.1472 -0.1323  0.5162
 2353SOL    HW118692   0.074   3.230   3.345 -1.3843  0.9901  0.3854
 2353SOL    HW218693   0.141   3.180   3.466  0.5894  0.4969  0.0535
 2354SOL     OW18694   1.952   2.338  11.497  1.3717  0.1627 -0.0066
 2354SOL    HW118695   1.891   2.390  11.444 -0.3193 -1.0266  0.7925
 2354SOL    HW218696   2.039   2.370  11.472  1.6890 -0.5343  0.1924
 2355SOL     OW18697   3.797   3.600   2.503  0.2983 -0.1927 -0.1740
 2355SOL    HW118698   3.888   3.596   2.474  0.4490  1.3333  0.0747
 2355SOL    HW218699   3.816   3.606   2.597 -1.4173  1.7547  0.0193
 2356SOL     OW18700   3.057   1.356   9.293  0.0860 -0.1053 -0.0134
 2356SOL    HW118701   3.033   1.290   9.359  2.0567  1.6328  2.3958
 2356SOL    HW218702   2.981   1.362   9.234 -0.1617  1.6714  0.4926
 2357SOL     OW18703   4.292   3.786   5.660 -0.5726  0.6795 -0.3855
 2357SOL    HW118704   4.307   3.705   5.611 -0.3803  0.1712  0.5110
 2357SOL    HW218705   4.347   3.851   5.617  3.0875 -2.8095 -1.1014
 2358SOL     OW18706   1.063   2.225   5.048 -0.0311  0.4893 -0.1476
 2358SOL    HW118707   1.133   2.163   5.066  1.2389  1.9149 -0.1281
 2358SOL    HW218708   1.118   2.298   5.018  1.1574 -0.2070  0.3293
 2359SOL     OW18709   1.713   2.619   9.404  0.1440 -0.2978  0.0977
 2359SOL    HW118710   1.638   2.652   9.453  1.6529  2.4099  0.5971
 2359SOL    HW218711   1.751   2.697   9.363 -0.1245  0.7189  1.7894
 2360SOL     OW18712   2.714   1.662   7.067  0.1284 -0.2984  0.0433
 2360SOL    HW118713   2.712   1.578   7.021 -1.2069 -0.5532  0.5679
 2360SOL    HW218714   2.798   1.644   7.109 -1.3620 -0.0725  3.1073
 2361SOL     OW18715   3.432   2.379   7.352 -0.0086  0.2295  0.2307
 2361SOL    HW118716   3.397   2.327   7.280  1.6605  1.1507 -1.2430
 2361SOL    HW218717   3.366   2.375   7.421 -0.2798  1.3998  0.0427
 2362SOL     OW18718   3.572   1.746   3.432  0.3162  0.0639  1.1534
 2362SOL    HW118719   3.564   1.663   3.478  1.1510  0.1835  1.5128
 2362SOL    HW218720   3.578   1.809   3.504 -1.5930  1.2214  0.3232
 2363SOL     OW18721   1.645   4.000   6.962 -0.3918  0.2896 -0.4942
 2363SOL    HW118722   1.674   3.974   6.875 -1.0486  0.4732 -0.7653
 2363SOL    HW218723   1.727   4.024   7.005 -0.9183  1.8713 -0.3770
 2364SOL     OW18724   1.487   3.405   6.539  0.1208  0.6471 -0.1044
 2364SOL    HW118725   1.520   3.315   6.544 -0.6913  0.4109  1.0092
 2364SOL    HW218726   1.548   3.457   6.593  0.6781  0.5594 -0.6477
 2365SOL     OW18727   3.873   0.889   3.919 -0.4475  0.3147 -0.3755
 2365SOL    HW118728   3.796   0.862   3.869 -0.0107 -0.2430 -0.7384
 2365SOL    HW218729   3.835   0.869   4.005  1.9655 -0.1910  0.5898
 2366SOL     OW18730   0.691   3.629  16.443  0.3119 -0.1869 -0.3704
 2366SOL    HW118731   0.727   3.671  16.521 -0.0514  2.0450 -1.3982
 2366SOL    HW218732   0.606   3.611  16.484  0.7863 -0.8709  0.3103
 2367SOL     OW18733   3.691   3.044   9.827 -0.0150 -0.1438  0.4398
 2367SOL    HW118734   3.747   2.973   9.860  0.0716  0.5913  1.8719
 2367SOL    HW218735   3.613   3.021   9.877 -0.7890  1.4135 -0.0782
 2368SOL     OW18736   3.471   1.166  12.949 -0.2145 -0.0517  0.0025
 2368SOL    HW118737   3.410   1.113  13.000  0.8693  0.1616  1.5275
 2368SOL    HW218738   3.492   1.242  13.003  1.1136  0.2126 -0.8823
 2369SOL     OW18739   4.621   4.392   4.535 -0.1829  0.0917  0.3424
 2369SOL    HW118740   4.688   4.428   4.593  1.6651 -1.6920 -0.6837
 2369SOL    HW218741   4.619   4.308   4.581  0.4133  0.2793  0.7173
 2370SOL     OW18742   3.334   0.984   0.287  0.0392 -0.0725  0.5080
 2370SOL    HW118743   3.365   0.904   0.330  1.5342 -0.2215 -0.8428
 2370SOL    HW218744   3.266   0.943   0.234  1.1774 -1.3888  0.0677
 2371SOL     OW18745   2.886   2.720   0.313 -0.1362  0.2852 -0.0147
 2371SOL    HW118746   2.838   2.642   0.342  1.3934 -1.3301 -1.8813
 2371SOL    HW218747   2.973   2.682   0.305  0.7286  2.1511  0.5359
 2372SOL     OW18748   0.099   4.045   8.833 -0.4340 -0.4374 -0.3860
 2372SOL    HW118749   0.143   3.980   8.889  0.5424  3.3427  3.2482
 2372SOL    HW218750   0.079   4.114   8.897 -1.5788 -0.3771 -0.8103
 2373SOL     OW18751   2.395   1.974   0.795 -0.5431 -0.0527  0.1393
 2373SOL    HW118752   2.365   1.905   0.853 -0.9034  0.1903  0.2366
 2373SOL    HW218753   2.310   2.014   0.780 -1.0264 -0.9005  0.6331
 2374SOL     OW18754   0.224   4.436   2.732 -0.4270 -0.6570 -0.2312
 2374SOL    HW118755   0.284   4.416   2.804  0.7797 -1.8701 -1.5492
 2374SOL    HW218756   0.242   4.530   2.725 -0.3069 -0.5921  0.9644
 2375SOL     OW18757   0.139   0.990   2.434 -0.1096 -0.6941  0.2641
 2375SOL    HW118758   0.051   0.987   2.395  0.5775  0.1608 -1.3806
 2375SOL    HW218759   0.127   1.048   2.509  0.8180 -1.0128  0.6587
 2376SOL     OW18760   2.866   2.028   9.414  0.1268  0.2529  0.8566
 2376SOL    HW118761   2.799   1.965   9.387  0.3975  0.5230 -0.4149
 2376SOL    HW218762   2.908   1.973   9.480 -0.4078 -1.0668  0.0901
 2377SOL     OW18763   2.348   2.687   6.482  0.2799 -0.0502  0.0632
 2377SOL    HW118764   2.289   2.737   6.539  0.6837  0.3940  0.0918
 2377SOL    HW218765   2.290   2.631   6.429  0.3195  0.0130 -0.0479
 2378SOL     OW18766   0.943   1.387  14.212 -0.2231 -0.4022 -0.2616
 2378SOL    HW118767   0.954   1.439  14.132 -3.4137 -0.1507 -0.5208
 2378SOL    HW218768   0.891   1.315  14.177 -0.8373  0.1884 -0.5552
 2379SOL     OW18769   1.511   3.315   4.037 -0.4661  0.2967  0.1679
 2379SOL    HW118770   1.430   3.286   3.995 -0.9040 -0.4346  1.5178
 2379SOL    HW218771   1.491   3.303   4.129  0.6273  2.2748  0.6544
 2380SOL     OW18772   0.999   1.332  12.710 -0.3702 -0.4612 -0.4163
 2380SOL    HW118773   1.070   1.272  12.688  3.3865  2.7856  2.9628
 2380SOL    HW218774   0.946   1.344  12.631  0.7076  1.6191 -0.8102
 2381SOL     OW18775   4.053   4.702  10.502  0.2743  0.4798  0.0571
 2381SOL    HW118776   4.068   4.724  10.594  0.7451 -0.6559  0.2512
 2381SOL    HW218777   3.958   4.713  10.497  0.4166  1.8192  0.1825
 2382SOL     OW18778   4.631   3.171   9.608  0.5448 -0.1460 -0.3674
 2382SOL    HW118779   4.650   3.234   9.677  1.5424  1.7848 -2.4082
 2382SOL    HW218780   4.605   3.092   9.654 -1.1079  0.0163 -1.0173
 2383SOL     OW18781   4.331   0.103  12.343 -0.5512 -0.1195  0.4926
 2383SOL    HW118782   4.325   0.193  12.313 -0.1385 -0.1190  0.4176
 2383SOL    HW218783   4.360   0.056  12.265  0.6534  0.7317  0.4393
 2384SOL     OW18784   3.881   3.475  17.041 -0.0550  0.1807  0.1665
 2384SOL    HW118785   3.884   3.403  17.104  2.2185  0.1256  0.0006
 2384SOL    HW218786   3.809   3.525  17.080  0.2936  1.3634 -0.6957
 2385SOL     OW18787   2.617   3.737   2.113  0.1001 -0.1156 -0.1302
 2385SOL    HW118788   2.683   3.806   2.116  1.0993 -1.1151  0.6542
 2385SOL    HW218789   2.557   3.780   2.051 -1.7097 -0.5236  1.3477
 2386SOL     OW18790   2.162   3.776   8.500  0.0947 -0.1146 -0.2915
 2386SOL    HW118791   2.133   3.860   8.465  0.7774 -0.0430 -0.6886
 2386SOL    HW218792   2.105   3.712   8.458 -0.6713  0.5927 -0.3169
 2387SOL     OW18793   1.688   1.151   6.580 -1.1748  0.0961 -0.1685
 2387SOL    HW118794   1.673   1.184   6.669  0.5762  0.6687 -0.0893
 2387SOL    HW218795   1.749   1.085   6.611 -0.8041  1.6955  2.5003
 2388SOL     OW18796   0.949   3.575   7.662  0.0378 -0.2834  0.0641
 2388SOL    HW118797   0.941   3.562   7.567  0.9402 -4.2206  0.5047
 2388SOL    HW218798   1.002   3.654   7.676  1.7557 -1.2831 -0.6940
 2389SOL     OW18799   4.049   3.308  11.737  0.0774  0.1763  0.3990
 2389SOL    HW118800   4.134   3.352  11.738  0.8312 -1.2381 -1.1919
 2389SOL    HW218801   4.008   3.362  11.805  0.7710  0.3216  0.7100
 2390SOL     OW18802   1.803   3.607   3.672 -0.5981 -0.3538  0.0774
 2390SOL    HW118803   1.763   3.533   3.628  1.0127 -0.6248 -0.9188
 2390SOL    HW218804   1.733   3.672   3.681 -0.7141 -0.4246 -0.3253
 2391SOL     OW18805   0.203   3.618  14.891  0.0953 -0.0193 -0.1458
 2391SOL    HW118806   0.240   3.631  14.978  0.1759 -2.2336  0.1528
 2391SOL    HW218807   0.210   3.703  14.848  1.4029  0.1630  0.4305
 2392SOL     OW18808   4.702   4.302   7.367 -0.5232 -0.1326 -0.5213
 2392SOL    HW118809   4.724   4.296   7.274 -0.2911  2.5812 -0.6208
 2392SOL    HW218810   4.641   4.376   7.361  1.7813  1.7600 -0.3386
 2393SOL     OW18811   3.609   2.524   5.845  0.6191 -0.1242 -0.1919
 2393SOL    HW118812   3.657   2.605   5.829  0.1142  0.7766  2.9460
 2393SOL    HW218813   3.668   2.466   5.892 -0.1533 -1.5604 -0.9688
 2394SOL     OW18814   2.714   1.851   3.805 -0.4606  0.1521 -0.8828
 2394SOL    HW118815   2.624   1.820   3.805  0.1397 -1.6552  1.5068
 2394SOL    HW218816   2.759   1.767   3.820  0.4512  0.5148 -1.6154
 2395SOL     OW18817   3.020   0.685   3.584  0.7284 -0.0886 -0.1028
 2395SOL    HW118818   3.027   0.642   3.498  1.7732  4.2038 -2.1756
 2395SOL    HW218819   3.110   0.709   3.604 -0.2208  1.8866  1.7192
 2396SOL     OW18820   0.517   1.148   3.984 -0.2493 -0.0472  0.0711
 2396SOL    HW118821   0.600   1.190   4.006  0.3746 -0.4180 -1.5556
 2396SOL    HW218822   0.487   1.219   3.927 -0.3696  0.8040  1.1891
 2397SOL     OW18823   2.733   0.695   3.785 -0.7135  0.1185  0.4454
 2397SOL    HW118824   2.719   0.700   3.691  1.3754  0.2226  0.1331
 2397SOL    HW218825   2.673   0.630   3.821 -0.1695 -0.4582  0.3155
 2398SOL     OW18826   0.802   2.545   7.463  0.4811 -0.4729 -0.4240
 2398SOL    HW118827   0.786   2.585   7.548  0.1461 -2.0756  0.2589
 2398SOL    HW218828   0.825   2.457   7.492 -0.3837 -0.4985  0.1684
 2399SOL     OW18829   0.693   4.631   7.730 -0.1216 -0.0974  0.1194
 2399SOL    HW118830   0.632   4.598   7.663  0.6965 -4.0414  1.3939
 2399SOL    HW218831   0.650   4.709   7.765 -1.3739 -0.1928 -1.1857
 2400SOL     OW18832   4.032   0.201   5.297 -0.1703 -0.1292  0.3275
 2400SOL    HW118833   3.994   0.114   5.305 -1.1884  0.3719  1.0385
 2400SOL    HW218834   4.047   0.244   5.382  0.5922  0.4850 -0.1211
 2401SOL     OW18835   0.973   0.288   4.525 -0.1567 -0.4709 -0.2663
 2401SOL    HW118836   0.932   0.354   4.581  0.7819 -0.5785  0.5434
 2401SOL    HW218837   1.045   0.328   4.476 -0.7429 -0.7205 -1.3134
 2402SOL     OW18838   1.375   1.307   8.302  0.3236  0.2307  0.1635
 2402SOL    HW118839   1.327   1.359   8.367  2.6275 -1.5656  3.3223
 2402SOL    HW218840   1.408   1.233   8.353 -3.6365 -1.6314  0.0407
 2403SOL     OW18841   4.007   3.817   0.576  0.3597  0.3052  0.2922
 2403SOL    HW118842   4.038   3.868   0.650  1.1349  0.0432  0.1430
 2403SOL    HW218843   3.931   3.776   0.617  1.4202 -1.3281  0.6276
 2404SOL     OW18844   4.080   3.782   7.577  0.7597 -0.3224  0.4087
 2404SOL    HW118845   4.068   3.852   7.512 -0.7926  0.0302  1.0833
 2404SOL    HW218846   4.018   3.802   7.647  1.2207  2.1462  0.1140
 2405SOL     OW18847   1.570   0.676   3.090  0.0166  0.1340  0.1706
 2405SOL    HW118848   1.567   0.597   3.035  0.0531  0.8414 -0.8568
 2405SOL    HW218849   1.502   0.729   3.047  0.9739 -1.8006 -3.7976
 2406SOL     OW18850   1.745   1.436   5.527 -0.2563 -0.1112  0.3591
 2406SOL    HW118851   1.740   1.470   5.437  1.9387  4.0976  1.8326
 2406SOL    HW218852   1.726   1.508   5.587  2.5684 -0.4502  1.6511
 2407SOL     OW18853   2.339   2.072   4.154 -0.3749 -0.2109 -0.6094
 2407SOL    HW118854   2.283   1.996   4.167 -0.0939 -0.2913  0.1200
 2407SOL    HW218855   2.423   2.039   4.184  0.9132  1.1948 -2.6324
 2408SOL     OW18856   4.627   0.840   9.101  0.1733 -0.0365  0.1895
 2408SOL    HW118857   4.553   0.826   9.043 -1.4818  0.0551  2.2845
 2408SOL    HW218858   4.702   0.805   9.054  0.9703  1.2360  0.5052
 2409SOL     OW18859   4.619   0.595   5.300  0.0103  0.0138  0.1778
 2409SOL    HW118860   4.648   0.562   5.385  0.7015  0.5683  0.1542
 2409SOL    HW218861   4.539   0.546   5.282  0.9354 -1.1528 -0.7121
 2410SOL     OW18862   3.760   1.754  17.663 -0.4633 -0.0083  0.2382
 2410SOL    HW118863   3.845   1.770  17.702 -0.4085  0.0371  0.0965
 2410SOL    HW218864   3.784   1.767  17.572  1.5220 -0.0357  0.7753
 2411SOL     OW18865   2.864   1.469  16.037 -0.5952 -0.1895 -0.1644
 2411SOL    HW118866   2.866   1.499  15.946  1.1996  1.5436  0.4481
 2411SOL    HW218867   2.946   1.511  16.064 -0.2272  0.2530 -1.9308
 2412SOL     OW18868   4.383   0.245   4.392  0.2827 -0.4396  0.0010
 2412SOL    HW118869   4.327   0.289   4.456  0.7709 -0.8390  0.6965
 2412SOL    HW218870   4.328   0.168   4.382 -1.1400  0.5004  0.4771
 2413SOL     OW18871   0.264   1.512   2.521  0.6071 -0.2786  0.1469
 2413SOL    HW118872   0.315   1.447   2.569  0.9957  0.8105  1.1990
 2413SOL    HW218873   0.295   1.507   2.430 -0.1457 -0.2108 -0.1177
 2414SOL     OW18874   2.521   2.799  15.926 -0.1456  0.0676  0.0495
 2414SOL    HW118875   2.601   2.748  15.921 -0.5778 -0.4951 -1.1985
 2414SOL    HW218876   2.550   2.886  15.953  0.0512  0.2426 -0.7511
 2415SOL     OW18877   0.804   3.629   9.482 -0.7646  0.2020 -0.8144
 2415SOL    HW118878   0.893   3.594   9.478  0.1530  2.4004  0.8469
 2415SOL    HW218879   0.766   3.601   9.565 -0.8872  0.1874 -0.8756
 2416SOL     OW18880   2.863   0.545   6.983 -0.2166  0.0608 -0.5607
 2416SOL    HW118881   2.821   0.485   6.921 -0.2684  0.0211 -0.4883
 2416SOL    HW218882   2.876   0.621   6.926 -0.2316 -0.0376 -0.6954
 2417SOL     OW18883   4.349   1.171  16.491 -1.0427 -0.2090  0.2032
 2417SOL    HW118884   4.273   1.182  16.435 -0.9666  0.6947  0.2633
 2417SOL    HW218885   4.344   1.077  16.503 -1.8444 -0.2882 -0.7812
 2418SOL     OW18886   3.706   1.887  15.773 -0.5993  0.1808 -0.2972
 2418SOL    HW118887   3.767   1.921  15.708  1.8954  0.3371  2.1029
 2418SOL    HW218888   3.757   1.868  15.852  0.5258  2.2505 -0.5181
 2419SOL     OW18889   0.185   3.451  13.297 -0.3871 -0.0590  0.2233
 2419SOL    HW118890   0.275   3.436  13.267 -0.6406 -2.4284  0.6106
 2419SOL    HW218891   0.134   3.376  13.265 -0.4167 -1.1298  2.7915
 2420SOL     OW18892   2.089   2.958  10.355 -0.5534 -0.0088 -0.2372
 2420SOL    HW118893   2.117   3.049  10.351 -2.1049  0.4279 -1.2446
 2420SOL    HW218894   2.080   2.926  10.265 -4.9177  0.1040  0.1345
 2421SOL     OW18895   0.728   3.764  16.734  0.0140  0.1176  0.0777
 2421SOL    HW118896   0.640   3.737  16.760  1.0203 -2.0083  1.3717
 2421SOL    HW218897   0.790   3.714  16.787  1.0697 -1.4372 -2.6448
 2422SOL     OW18898   1.320   1.305   4.573  0.1082  0.0540  0.8112
 2422SOL    HW118899   1.278   1.262   4.647 -1.3529 -1.6388 -1.0075
 2422SOL    HW218900   1.247   1.352   4.531 -0.2378 -1.7765 -0.6189
 2423SOL     OW18901   1.176   4.070   3.087  0.2631 -0.2224  0.1745
 2423SOL    HW118902   1.087   4.081   3.054  0.2792  1.1929  0.6232
 2423SOL    HW218903   1.225   4.065   3.006  1.7329  0.1664  1.0347
 2424SOL     OW18904   1.591   1.272  15.925 -0.2512  0.1368 -0.1487
 2424SOL    HW118905   1.650   1.309  15.860  0.4103  0.1833  0.4821
 2424SOL    HW218906   1.573   1.345  15.985  0.0501  0.3704 -0.3468
 2425SOL     OW18907   3.370   2.144  14.722 -0.0138  0.1828  0.2935
 2425SOL    HW118908   3.449   2.184  14.684  0.5184 -0.8657  0.3052
 2425SOL    HW218909   3.304   2.134  14.654  0.7213  0.3634 -0.4409
 2426SOL     OW18910   0.496   4.025   0.316  0.3705  0.3072 -0.0554
 2426SOL    HW118911   0.488   4.117   0.343  0.9206 -0.0794  1.4503
 2426SOL    HW218912   0.505   3.973   0.396 -1.3114  0.1222  0.0155
 2427SOL     OW18913   2.081   4.012  17.616 -0.6359 -0.0210 -0.2714
 2427SOL    HW118914   2.126   3.980  17.695 -1.0871  2.8960  1.1647
 2427SOL    HW218915   2.132   4.090  17.593  1.6809 -1.5752 -0.4630
 2428SOL     OW18916   2.254   0.001   6.718 -0.1835  0.1176 -0.1844
 2428SOL    HW118917   2.226   4.713   6.806  2.3411 -2.6361 -0.1490
 2428SOL    HW218918   2.189   4.691   6.666 -1.6350  1.3914  0.4913
 2429SOL     OW18919   3.150   2.970   8.320 -0.0119 -1.1123  0.1412
 2429SOL    HW118920   3.147   2.978   8.225  0.5713 -1.2679  0.1127
 2429SOL    HW218921   3.239   2.948   8.347 -0.0094 -1.3369 -0.0527
 2430SOL     OW18922   1.126   4.541   7.002  0.3043 -0.0285 -0.1738
 2430SOL    HW118923   1.113   4.633   6.975 -0.9070  0.2614  1.3930
 2430SOL    HW218924   1.052   4.490   6.968  1.9661 -2.4949 -0.0231
 2431SOL     OW18925   1.944   1.466   8.763 -0.0863  0.6007 -0.3413
 2431SOL    HW118926   1.943   1.373   8.739 -1.5071  1.3828 -3.3046
 2431SOL    HW218927   1.947   1.511   8.679  2.0304 -1.5429 -1.4288
 2432SOL     OW18928   1.577   3.561   7.702  0.0033 -0.0816  0.7236
 2432SOL    HW118929   1.634   3.612   7.645 -0.5974 -0.5736 -0.3396
 2432SOL    HW218930   1.526   3.626   7.749 -2.1173  0.6741 -2.5624
 2433SOL     OW18931   2.725   3.097   5.677 -0.2474  0.0880 -0.8142
 2433SOL    HW118932   2.714   3.080   5.584 -0.0049 -0.2398 -0.7824
 2433SOL    HW218933   2.655   3.044   5.716 -0.5163  0.8086 -0.3092
 2434SOL     OW18934   2.659   1.972   4.268 -0.1030 -0.8649 -0.4670
 2434SOL    HW118935   2.704   1.890   4.247  0.1807 -0.2662 -2.1665
 2434SOL    HW218936   2.635   1.961   4.360 -1.4635  2.3639 -0.4391
 2435SOL     OW18937   2.768   0.139  14.402  0.0677 -0.5769 -0.0959
 2435SOL    HW118938   2.793   0.147  14.494 -1.6122  0.8145  0.2421
 2435SOL    HW218939   2.850   0.169  14.362  0.0707  3.4762  2.9202
 2436SOL     OW18940   2.961   3.237  11.543 -0.4769  0.3077  0.7807
 2436SOL    HW118941   2.947   3.331  11.557  0.2046  0.8190 -2.0804
 2436SOL    HW218942   2.868   3.215  11.548  0.1067 -2.1613  0.5496
 2437SOL     OW18943   0.040   2.213   2.868 -0.2444 -0.2169  0.4863
 2437SOL    HW118944   4.696   2.167   2.889 -1.0064  0.9304  0.0316
 2437SOL    HW218945   0.013   2.293   2.824  3.2477  0.5647 -0.2726
 2438SOL     OW18946   4.718   0.206   3.473  0.6251 -0.3814 -0.1694
 2438SOL    HW118947   4.733   0.231   3.382 -1.2315  0.3602 -0.2742
 2438SOL    HW218948   4.630   0.234   3.497 -0.2352 -0.8134 -2.8577
 2439SOL     OW18949   3.107   2.050   5.283  0.1005  0.2536  0.0651
 2439SOL    HW118950   3.033   2.086   5.333 -0.6117 -0.7638 -0.2727
 2439SOL    HW218951   3.176   2.083   5.341  1.8957  1.3881 -2.7081
 2440SOL     OW18952   4.272   2.260   2.979  0.4285 -0.3079  0.2852
 2440SOL    HW118953   4.196   2.204   2.967  0.2706 -0.1734  0.6569
 2440SOL    HW218954   4.234   2.336   3.023 -2.0112 -2.2218  1.4358
 2441SOL     OW18955   1.429   4.671  17.430  0.1127 -0.1717 -0.5042
 2441SOL    HW118956   1.432   4.611  17.355  2.3042  0.0759 -0.6131
 2441SOL    HW218957   1.354   4.724  17.403  0.1007  1.4559  2.7524
 2442SOL     OW18958   1.186   0.076   6.999 -0.4448 -0.7539 -0.1696
 2442SOL    HW118959   1.105   0.065   7.049 -0.1682  1.4834  0.7399
 2442SOL    HW218960   1.241   0.086   7.077 -0.1593 -1.2134 -0.3106
 2443SOL     OW18961   0.892   2.260   3.708  0.2559  0.4262 -0.0519
 2443SOL    HW118962   0.845   2.286   3.629  0.1379  0.4073  0.0100
 2443SOL    HW218963   0.888   2.346   3.750 -2.4629  0.9255 -1.2723
 2444SOL     OW18964   0.418   4.019   6.914 -0.0585 -0.1178 -0.2463
 2444SOL    HW118965   0.428   4.039   7.007  1.0552 -2.2675  0.0914
 2444SOL    HW218966   0.436   3.925   6.923 -0.5649  0.0052  1.9811
 2445SOL     OW18967   0.156   1.408   1.995 -0.0480 -0.0125 -0.3008
 2445SOL    HW118968   0.214   1.379   1.924  0.5116  1.5586 -0.4767
 2445SOL    HW218969   0.070   1.423   1.955  0.2357 -2.3204 -1.8003
 2446SOL     OW18970   4.362   3.058   1.612  0.3821 -0.3063  0.2239
 2446SOL    HW118971   4.433   3.079   1.551 -0.3177  0.6743 -0.2507
 2446SOL    HW218972   4.290   3.048   1.550 -0.2339 -0.0663  0.8979
 2447SOL     OW18973   0.551   2.343   7.769 -0.0184 -0.4467 -0.7486
 2447SOL    HW118974   0.492   2.367   7.697 -2.6739 -2.1594  0.8524
 2447SOL    HW218975   0.628   2.393   7.743 -1.0168  1.4823  0.0026
 2448SOL     OW18976   2.058   3.142   9.518 -0.0285 -0.0887 -0.0458
 2448SOL    HW118977   2.044   3.222   9.468 -0.6266  1.5848  2.7958
 2448SOL    HW218978   2.072   3.076   9.451 -0.3794  0.0701 -0.2732
 2449SOL     OW18979   0.928   1.156   6.015 -0.0855 -0.0801  0.4069
 2449SOL    HW118980   0.899   1.089   5.953  2.0616 -0.1820 -0.4919
 2449SOL    HW218981   1.023   1.145   6.023  0.3136  2.1301 -1.0967
 2450SOL     OW18982   2.790   3.949   9.339 -0.5150  0.3371 -0.3747
 2450SOL    HW118983   2.788   3.921   9.431 -1.7730 -0.6914 -0.7212
 2450SOL    HW218984   2.767   4.041   9.350  2.0311  0.9584 -0.0685
 2451SOL     OW18985   0.977   0.986   5.134 -0.3103 -0.0394  0.0112
 2451SOL    HW118986   1.072   0.982   5.125 -0.7608  0.8965 -5.2980
 2451SOL    HW218987   0.961   1.080   5.122 -1.3972 -0.5259 -2.3764
 2452SOL     OW18988   3.785   0.641   7.180  0.1927 -0.1875 -0.3154
 2452SOL    HW118989   3.879   0.636   7.162  0.0928 -0.4201 -0.7785
 2452SOL    HW218990   3.779   0.622   7.274 -3.2702  1.4947 -0.2193
 2453SOL     OW18991   4.094   3.175   5.790  0.3331  0.3759  0.0094
 2453SOL    HW118992   4.151   3.240   5.831  1.7787 -1.0987  0.2953
 2453SOL    HW218993   4.092   3.205   5.699 -1.6502 -0.2939 -0.1769
 2454SOL     OW18994   3.865   2.282  16.857 -0.2278 -0.3989  0.2125
 2454SOL    HW118995   3.824   2.288  16.944 -0.3251  1.1479  0.0625
 2454SOL    HW218996   3.953   2.292  16.892 -0.2986 -3.3414  1.1726
 2455SOL     OW18997   3.662   2.749   3.236  0.1873  0.1260  0.2908
 2455SOL    HW118998   3.645   2.655   3.231  2.4676 -0.3169  0.5315
 2455SOL    HW218999   3.703   2.766   3.151  0.0626 -1.0495 -0.0098
 2456SOL     OW19000   4.403   2.694   8.200  0.5271 -0.3329 -0.3304
 2456SOL    HW119001   4.471   2.636   8.234 -0.6325 -1.4738  0.0358
 2456SOL    HW219002   4.420   2.685   8.106 -1.1751 -1.0918 -0.5494
 2457SOL     OW19003   2.844   0.026  16.419  0.5900  0.2155  0.5029
 2457SOL    HW119004   2.789   0.104  16.434 -3.2164 -2.9131  2.7414
 2457SOL    HW219005   2.924   0.051  16.465  0.3453  1.5009  0.2527
 2458SOL     OW19006   3.498   0.340   5.710  0.3895  0.0403  0.2181
 2458SOL    HW119007   3.474   0.432   5.722  0.4770 -0.2778  2.7511
 2458SOL    HW219008   3.586   0.343   5.672  1.1480  0.4252  1.9947
 2459SOL     OW19009   0.236   4.499   7.696  0.0946  0.3985 -0.3003
 2459SOL    HW119010   0.175   4.426   7.685  1.6930 -1.1678  1.1978
 2459SOL    HW219011   0.178   4.575   7.701 -2.0149 -1.2021 -0.2091
 2460SOL     OW19012   3.481   3.512   6.831  0.2574  0.0295 -0.2852
 2460SOL    HW119013   3.504   3.423   6.858  1.1625  0.4599  0.3257
 2460SOL    HW219014   3.552   3.523   6.768 -1.5649  0.4348 -2.2539
 2461SOL     OW19015   4.183   4.126   9.914 -0.5591  0.6018  0.6111
 2461SOL    HW119016   4.205   4.212   9.950  1.1094  0.8600 -1.0249
 2461SOL    HW219017   4.105   4.108   9.966 -1.4856  0.0781 -0.9842
 2462SOL     OW19018   1.992   2.542   8.743 -0.1764  0.6780  0.0245
 2462SOL    HW119019   2.004   2.548   8.838 -2.3693 -0.7379  0.3902
 2462SOL    HW219020   2.054   2.469   8.732 -0.5205  0.1547  1.5254
 2463SOL     OW19021   2.859   4.339  16.160  0.6330 -0.3730  0.0762
 2463SOL    HW119022   2.907   4.358  16.079  0.7608 -2.3595 -0.3294
 2463SOL    HW219023   2.776   4.303  16.129  1.4548 -2.2877  0.0385
 2464SOL     OW19024   3.448   2.764   2.032 -0.2867  0.3842 -0.3761
 2464SOL    HW119025   3.406   2.767   2.118 -0.3164 -1.1235 -0.3375
 2464SOL    HW219026   3.537   2.736   2.052 -2.2113 -4.1092  1.9451
 2465SOL     OW19027   3.621   0.770  12.936  0.0917 -0.2538  0.0221
 2465SOL    HW119028   3.637   0.762  13.030  1.7701  2.1650 -0.0739
 2465SOL    HW219029   3.565   0.696  12.914  0.3848 -0.6442  0.5777
 2466SOL     OW19030   4.076   0.513   7.361 -0.4810  0.1296  0.0425
 2466SOL    HW119031   4.165   0.477   7.366 -0.7656 -0.3163  2.0250
 2466SOL    HW219032   4.092   0.576   7.290 -1.8383  0.4998  0.0578
 2467SOL     OW19033   4.214   0.856   6.449 -0.2068  0.6789 -0.0640
 2467SOL    HW119034   4.308   0.854   6.467 -0.6676  1.2893  2.4991
 2467SOL    HW219035   4.180   0.814   6.529 -2.1482  0.5336 -0.9671
 2468SOL     OW19036   0.012   3.149   1.173  0.6503 -0.4915  0.1282
 2468SOL    HW119037   0.051   3.226   1.213 -0.1557 -0.4304  0.7907
 2468SOL    HW219038   0.087   3.113   1.125  0.7360 -0.4427  0.2266
 2469SOL     OW19039   1.627   4.533   5.196 -0.3724 -0.1302 -0.3228
 2469SOL    HW119040   1.668   4.540   5.282  2.0098  1.2870 -1.5663
 2469SOL    HW219041   1.538   4.510   5.222 -0.3755  0.7094  0.4250
 2470SOL     OW19042   3.224   4.549  16.307  0.0831 -0.2536  0.0012
 2470SOL    HW119043   3.130   4.533  16.315  0.3755 -0.4374  2.9966
 2470SOL    HW219044   3.235   4.643  16.321 -1.3815 -0.4541  2.3748
 2471SOL     OW19045   2.312   4.482   5.517 -0.0401 -0.1477 -0.3305
 2471SOL    HW119046   2.333   4.430   5.439 -1.1169 -1.8748  0.5246
 2471SOL    HW219047   2.345   4.569   5.494  1.1825 -0.7923 -0.9843
 2472SOL     OW19048   2.086   2.998   1.921  0.4284  0.3402  0.0833
 2472SOL    HW119049   2.065   3.083   1.882  2.9045 -0.5754 -3.2387
 2472SOL    HW219050   2.171   2.986   1.880  0.6640  1.7646  0.1509
 2473SOL     OW19051   3.187   3.928   9.182  0.3396  0.2232 -0.5113
 2473SOL    HW119052   3.217   3.875   9.108 -2.0811  2.6931 -3.2653
 2473SOL    HW219053   3.268   3.972   9.209 -0.0379 -0.8145  2.3664
 2474SOL     OW19054   2.533   1.434   5.906 -0.5519 -0.1474 -0.1072
 2474SOL    HW119055   2.485   1.477   5.835  0.3695  0.3059 -0.4508
 2474SOL    HW219056   2.455   1.422   5.960  0.6815  0.0014  1.7050
 2475SOL     OW19057   2.530   3.107   3.850 -0.4663  0.3472  0.0051
 2475SOL    HW119058   2.536   3.148   3.764  0.4982 -1.7816 -0.9622
 2475SOL    HW219059   2.549   3.178   3.910  1.2778 -0.9772  1.0198
 2476SOL     OW19060   2.463   2.360  13.549 -0.2903 -0.0397  0.5895
 2476SOL    HW119061   2.493   2.450  13.538 -0.4473 -0.3801 -2.7543
 2476SOL    HW219062   2.388   2.355  13.490 -0.8653 -3.0556  1.6125
 2477SOL     OW19063   1.008   1.702   6.345 -0.2912 -0.6949 -0.2274
 2477SOL    HW119064   1.092   1.748   6.347 -0.6635  0.0562 -1.7929
 2477SOL    HW219065   0.995   1.708   6.250 -0.1383  0.6756 -0.1687
 2478SOL     OW19066   1.711   2.041   1.954 -0.4106 -0.0648 -0.1841
 2478SOL    HW119067   1.616   2.029   1.958 -0.5711  0.9448 -0.9326
 2478SOL    HW219068   1.733   2.049   2.046  1.1268 -1.4636 -0.4233
 2479SOL     OW19069   2.790   2.139   4.481  1.2251 -0.7117  0.0136
 2479SOL    HW119070   2.829   2.146   4.568 -1.6802  3.7819  0.9524
 2479SOL    HW219071   2.861   2.184   4.435  0.2659  1.0215  0.2284
 2480SOL     OW19072   4.435   2.362   0.450 -0.1779  0.0268  0.4191
 2480SOL    HW119073   4.365   2.426   0.465 -1.1215 -1.0661  0.7301
 2480SOL    HW219074   4.512   2.413   0.425  0.3245 -0.8573  0.1669
 2481SOL     OW19075   4.450   0.808   6.833  0.6086  0.4768  0.2901
 2481SOL    HW119076   4.394   0.768   6.900  1.2861 -1.0688 -0.0730
 2481SOL    HW219077   4.398   0.806   6.753  0.3608  1.0573  0.4329
 2482SOL     OW19078   3.657   1.258   5.415 -0.2419 -0.0886 -0.1214
 2482SOL    HW119079   3.616   1.337   5.381 -2.2932 -1.9919 -2.1189
 2482SOL    HW219080   3.639   1.256   5.509  2.2788 -0.8996  0.3434
 2483SOL     OW19081   0.072   2.197   9.478  0.2394 -0.6285  0.1264
 2483SOL    HW119082   0.011   2.229   9.412 -0.7912 -0.2532  1.2518
 2483SOL    HW219083   0.009   2.138   9.521 -0.2650  1.3592  2.1777
 2484SOL     OW19084   3.626   2.739  15.261  0.2650 -0.9166 -0.3973
 2484SOL    HW119085   3.715   2.729  15.226  0.3663 -0.7824 -0.1766
 2484SOL    HW219086   3.599   2.649  15.278  1.0062 -0.9115  0.7976
 2485SOL     OW19087   3.882   1.065   5.603 -0.6541  0.4486 -0.0839
 2485SOL    HW119088   3.936   1.133   5.561  0.9200 -1.6587 -1.4373
 2485SOL    HW219089   3.793   1.091   5.580 -0.9531  1.4523  2.1771
 2486SOL     OW19090   2.587   2.561   9.158 -0.1114  0.8076  0.5995
 2486SOL    HW119091   2.618   2.640   9.114  1.6373  0.9362  2.0421
 2486SOL    HW219092   2.643   2.489   9.127  0.5141  1.3588  0.4411
 2487SOL     OW19093   4.729   2.438  11.905 -0.7503  0.0797  0.1062
 2487SOL    HW119094   4.705   2.447  11.998 -0.8001 -0.5120  0.1475
 2487SOL    HW219095   4.679   2.515  11.876 -0.2703 -0.2333 -1.5357
 2488SOL     OW19096   4.061   0.355  14.807  0.5344  0.0442  0.2659
 2488SOL    HW119097   4.041   0.374  14.716  0.5193 -0.6317  0.1243
 2488SOL    HW219098   4.155   0.340  14.812  0.4657  0.6792  3.8331
 2489SOL     OW19099   2.963   0.795   6.934  0.4853  0.2874 -0.0326
 2489SOL    HW119100   2.970   0.841   7.018 -1.7272 -3.1198  2.0341
 2489SOL    HW219101   3.029   0.837   6.879 -1.1251  0.9603 -1.4795
 2490SOL     OW19102   0.894   0.548   0.752  0.6045  0.4854  0.1483
 2490SOL    HW119103   0.956   0.582   0.688  0.5513  0.5104  0.1104
 2490SOL    HW219104   0.922   0.457   0.746 -1.7330 -0.1661 -0.7167
 2491SOL     OW19105   2.085   1.527   9.105  0.2598 -0.2030 -0.5183
 2491SOL    HW119106   2.151   1.504   9.171 -0.0102  2.1771  0.5751
 2491SOL    HW219107   2.084   1.442   9.062 -1.0276 -0.5702  0.2298
 2492SOL     OW19108   1.698   0.559  15.674  0.0253  0.7680 -0.1275
 2492SOL    HW119109   1.711   0.485  15.734 -1.8157  0.9787  0.5381
 2492SOL    HW219110   1.757   0.630  15.698 -2.2221  2.6929 -0.2808
 2493SOL     OW19111   1.450   0.107   1.505  0.1358  0.0562  0.1323
 2493SOL    HW119112   1.478   0.150   1.586 -1.6778 -0.0800  0.8306
 2493SOL    HW219113   1.432   0.185   1.452 -0.9391  1.0600  1.9671
 2494SOL     OW19114   2.686   1.126   8.361 -0.3473  0.1668  0.0795
 2494SOL    HW119115   2.598   1.141   8.327 -1.8345 -0.6932  3.5780
 2494SOL    HW219116   2.680   1.031   8.368 -1.0180  0.2734  0.9022
 2495SOL     OW19117   2.227   3.255   2.257  0.2447  0.2506 -0.9023
 2495SOL    HW119118   2.184   3.318   2.315 -2.3683 -1.8280 -0.5804
 2495SOL    HW219119   2.171   3.264   2.180 -0.5891 -2.5503 -0.5894
 2496SOL     OW19120   4.280   3.528   2.340 -0.4623  0.0859  0.5103
 2496SOL    HW119121   4.338   3.579   2.284 -0.2314 -2.2874 -1.3901
 2496SOL    HW219122   4.347   3.520   2.407 -0.6250  0.9691  0.7740
 2497SOL     OW19123   1.226   2.768  14.005  0.0434 -0.1729 -0.3023
 2497SOL    HW119124   1.188   2.854  13.987 -0.3586 -0.2459  0.2264
 2497SOL    HW219125   1.154   2.705  14.003 -0.2253  0.2211 -3.8312
 2498SOL     OW19126   1.085   4.589   2.766 -0.0616  0.3004  0.1304
 2498SOL    HW119127   1.073   4.527   2.838 -0.2424  1.0992  0.7897
 2498SOL    HW219128   1.160   4.552   2.720 -1.4842 -0.8251 -1.3256
 2499SOL     OW19129   4.022   2.267   5.170 -0.0864 -0.1028  0.1317
 2499SOL    HW119130   3.929   2.287   5.162  0.2090 -0.3042 -3.6660
 2499SOL    HW219131   4.055   2.340   5.118 -2.1753 -0.3212 -1.4914
 2500SOL     OW19132   2.327   0.224   2.385  0.2159 -0.1758  0.7396
 2500SOL    HW119133   2.248   0.223   2.330 -0.2215 -0.5597  1.3833
 2500SOL    HW219134   2.390   0.244   2.316 -1.2958  1.1694 -0.2598
 2501SOL     OW19135   0.865   4.033   7.392  0.1820 -0.2188  0.5218
 2501SOL    HW119136   0.940   4.065   7.442  1.3963  0.4794 -1.7242
 2501SOL    HW219137   0.820   3.980   7.457  2.0657 -1.2846  0.9601
 2502SOL     OW19138   0.750   3.725   5.664 -0.1084  0.2349  0.4546
 2502SOL    HW119139   0.790   3.757   5.745  1.4291  1.7272 -0.8820
 2502SOL    HW219140   0.666   3.699   5.700  1.1702 -2.4679  1.5247
 2503SOL     OW19141   4.372   0.294  12.135 -0.5054  0.7784 -0.2153
 2503SOL    HW119142   4.393   0.387  12.141  1.7056  0.1496  1.5889
 2503SOL    HW219143   4.459   0.258  12.122 -0.7020 -0.1145  1.0139
 2504SOL     OW19144   1.178   2.994  10.419 -0.1943  0.3207  0.0729
 2504SOL    HW119145   1.117   3.059  10.384  2.5513  1.8705 -1.8727
 2504SOL    HW219146   1.118   2.920  10.408 -0.8004  0.6531  1.1620
 2505SOL     OW19147   4.216   2.915   5.161  0.6504  0.4211  0.3752
 2505SOL    HW119148   4.223   2.968   5.082 -0.0911  1.1492  0.8059
 2505SOL    HW219149   4.207   2.988   5.222  1.2547  0.9301 -0.1598
 2506SOL     OW19150   1.419   1.002   4.855  0.5948 -0.0873  0.0776
 2506SOL    HW119151   1.457   0.914   4.865  0.2839 -0.0639  1.5359
 2506SOL    HW219152   1.495   1.059   4.864 -0.7308  1.6931 -0.0142
 2507SOL     OW19153   2.240   4.287   8.362  0.1724 -0.4252  0.5614
 2507SOL    HW119154   2.256   4.196   8.389 -3.0214 -1.0737  0.2208
 2507SOL    HW219155   2.168   4.278   8.300  0.2233 -4.3941  1.1070
 2508SOL     OW19156   3.599   3.318  13.331 -0.2875 -0.3080  0.2969
 2508SOL    HW119157   3.537   3.357  13.393  0.0114  1.3182 -0.4397
 2508SOL    HW219158   3.638   3.249  13.385  1.5516 -0.8699 -1.7357
 2509SOL     OW19159   0.089   1.618   3.069 -0.4869 -1.1539  0.1712
 2509SOL    HW119160   4.733   1.614   3.047  0.1767 -3.7770 -2.1957
 2509SOL    HW219161   0.085   1.706   3.106 -0.5952 -0.9200 -0.3950
 2510SOL     OW19162   0.840   1.046   8.974 -0.1158 -0.0886 -0.0019
 2510SOL    HW119163   0.780   0.972   8.970  0.4370 -0.5365 -0.0390
 2510SOL    HW219164   0.876   1.031   8.886  0.4472 -1.4059  0.4471
 2511SOL     OW19165   1.615   1.449  14.212  0.6098 -0.6915 -0.3581
 2511SOL    HW119166   1.553   1.492  14.271 -0.0478 -0.4964 -1.1887
 2511SOL    HW219167   1.576   1.477  14.129  1.5194 -1.3078 -0.9996
 2512SOL     OW19168   0.105   3.922  11.122  0.0725  0.2634 -0.0969
 2512SOL    HW119169   0.123   3.860  11.193 -0.2548  1.9764  1.4883
 2512SOL    HW219170   0.143   3.886  11.043  0.6290 -1.5050  0.9821
 2513SOL     OW19171   2.687   3.155  11.321  0.6209 -0.4527  0.4695
 2513SOL    HW119172   2.608   3.175  11.270  0.0923 -0.0120  1.4709
 2513SOL    HW219173   2.743   3.163  11.244  1.0668 -0.1119  0.8334
 2514SOL     OW19174   4.163   3.697   4.194 -0.2748  0.3524  0.1800
 2514SOL    HW119175   4.105   3.747   4.136 -2.6202 -0.8662  1.4703
 2514SOL    HW219176   4.216   3.759   4.243  1.1466 -0.5078 -0.2371
 2515SOL     OW19177   2.612   0.510   6.304 -0.1260 -0.1918  0.2627
 2515SOL    HW119178   2.703   0.529   6.278  0.0627 -1.5137 -0.0444
 2515SOL    HW219179   2.600   0.420   6.273 -2.3869  1.2899 -3.1051
 2516SOL     OW19180   2.683   1.450   5.501  0.4036 -0.1465 -0.1014
 2516SOL    HW119181   2.608   1.422   5.553  0.5101 -0.7076 -0.2391
 2516SOL    HW219182   2.720   1.519   5.556  2.1588 -1.7578  0.7597
 2517SOL     OW19183   4.051   4.711  13.974  0.0004 -0.0385 -0.2332
 2517SOL    HW119184   4.026   0.060  14.005  2.5654  0.5354  0.1830
 2517SOL    HW219185   4.118   4.737  13.910 -1.2629  1.4008 -0.9667
 2518SOL     OW19186   3.720   4.683   5.710 -0.3711  0.1775 -0.2512
 2518SOL    HW119187   3.660   4.687   5.635 -0.2623  1.1406 -0.2905
 2518SOL    HW219188   3.668   4.617   5.756 -2.5460  0.5162 -2.2203
 2519SOL     OW19189   0.282   4.240   5.904 -0.0314 -0.2299  0.3870
 2519SOL    HW119190   0.291   4.309   5.971 -3.2751  1.2173 -0.7012
 2519SOL    HW219191   0.244   4.172   5.960  0.1685 -1.3890 -0.8967
 2520SOL     OW19192   2.123   4.650   3.780 -1.1644 -0.5589 -0.3220
 2520SOL    HW119193   2.040   4.697   3.780 -0.0007  1.4782 -0.3144
 2520SOL    HW219194   2.182   4.714   3.741  0.0257 -1.4573 -0.0002
 2521SOL     OW19195   4.483   1.688  15.595  0.0172  0.6316 -0.1208
 2521SOL    HW119196   4.489   1.774  15.635  1.3231 -0.5741  2.2943
 2521SOL    HW219197   4.470   1.712  15.503 -2.2392  1.1543  0.3362
 2522SOL     OW19198   1.376   0.703   3.316 -0.3153  0.0344 -0.2113
 2522SOL    HW119199   1.422   0.620   3.310  1.0123  0.9080 -2.1276
 2522SOL    HW219200   1.431   0.759   3.261  1.2819 -1.2552  0.0737
 2523SOL     OW19201   3.290   2.318   7.580 -0.1436 -0.6531 -0.2790
 2523SOL    HW119202   3.354   2.261   7.623  0.7045  0.3386 -0.2315
 2523SOL    HW219203   3.234   2.345   7.653  1.5507 -0.2377  0.8768
 2524SOL     OW19204   1.009   0.078   0.016 -0.8859 -0.6751  0.0301
 2524SOL    HW119205   0.992   0.172   0.004  1.3601 -0.3377 -0.5399
 2524SOL    HW219206   0.999   0.050  17.671  1.9578  0.4967 -0.6606
 2525SOL     OW19207   1.654   1.702  17.569  0.4286 -0.0525  0.3688
 2525SOL    HW119208   1.668   1.659  17.484 -0.6960  0.1872  0.0603
 2525SOL    HW219209   1.674   1.791  17.538 -0.4348 -0.1484 -0.4608
 2526SOL     OW19210   1.581   2.981   4.073  0.4907 -0.5452  0.0113
 2526SOL    HW119211   1.578   3.064   4.120 -1.0757 -1.6377  1.8586
 2526SOL    HW219212   1.487   2.961   4.073 -0.4616  4.0668 -2.1829
 2527SOL     OW19213   3.585   3.387   6.591  0.2361 -0.6735  0.6337
 2527SOL    HW119214   3.643   3.458   6.564 -1.0760 -0.6021 -2.0032
 2527SOL    HW219215   3.651   3.329   6.630  0.5370 -0.2619  0.7294
 2528SOL     OW19216   4.224   4.465  16.803  0.2891  0.0934  0.4902
 2528SOL    HW119217   4.316   4.460  16.775  0.1992 -0.9509  0.3838
 2528SOL    HW219218   4.203   4.550  16.766  5.2142  0.6753 -1.0225
 2529SOL     OW19219   4.370   0.688   4.768 -0.2342  0.8101  0.0296
 2529SOL    HW119220   4.426   0.753   4.811 -1.0047  1.0525  0.6724
 2529SOL    HW219221   4.282   0.724   4.779 -0.6555 -0.0408 -0.5528
 2530SOL     OW19222   1.540   3.525   1.550  0.1032  0.3050 -0.7293
 2530SOL    HW119223   1.559   3.446   1.501 -3.7007 -1.5835  0.7960
 2530SOL    HW219224   1.483   3.565   1.484 -2.5406  0.0566  1.4084
 2531SOL     OW19225   4.269   3.100   4.481 -0.3805 -0.1769  0.2696
 2531SOL    HW119226   4.275   3.194   4.463  3.2748 -0.6267 -0.8750
 2531SOL    HW219227   4.217   3.064   4.409 -0.4722 -1.3421  0.9157
 2532SOL     OW19228   3.614   2.833   5.503 -0.5441 -0.1596  0.4496
 2532SOL    HW119229   3.519   2.822   5.501 -0.2810 -2.1144 -1.7792
 2532SOL    HW219230   3.629   2.897   5.572 -0.8401 -1.4731  1.7332
 2533SOL     OW19231   2.833   2.674   7.936 -0.8432  0.0295  0.0193
 2533SOL    HW119232   2.891   2.748   7.954 -0.7067 -0.2138  0.5848
 2533SOL    HW219233   2.747   2.713   7.954 -1.8331 -2.3351  0.4672
 2534SOL     OW19234   1.974   2.239  17.035  0.6920 -0.0252 -0.0111
 2534SOL    HW119235   1.921   2.227  16.956  0.0943 -0.2465  0.4184
 2534SOL    HW219236   2.035   2.169  17.016 -0.0839 -1.1588  1.6835
 2535SOL     OW19237   3.644   2.480   1.853  0.4789 -0.3637 -0.0375
 2535SOL    HW119238   3.668   2.391   1.830  0.9243  0.1971 -1.6978
 2535SOL    HW219239   3.635   2.516   1.765 -1.5381  2.4578  1.2745
 2536SOL     OW19240   0.327   3.540  13.010 -0.4273 -0.1151  0.0723
 2536SOL    HW119241   0.353   3.521  13.100  0.6275  0.2524 -0.1509
 2536SOL    HW219242   0.361   3.465  12.960 -0.4848 -1.2356  1.7029
 2537SOL     OW19243   1.763   0.382   3.701  0.1107  0.7098 -0.1483
 2537SOL    HW119244   1.700   0.428   3.755 -0.2898 -0.9798  0.8360
 2537SOL    HW219245   1.737   0.294   3.729 -0.4551  1.0582  0.4014
 2538SOL     OW19246   2.602   4.460   4.638 -0.2541  0.2255 -0.3524
 2538SOL    HW119247   2.553   4.418   4.709  2.0350 -2.0877 -0.1559
 2538SOL    HW219248   2.635   4.386   4.586  1.6702  1.1879 -0.4725
 2539SOL     OW19249   1.360   0.481  12.192  0.1935 -0.4743  1.0938
 2539SOL    HW119250   1.443   0.465  12.146  1.0597  1.4405  1.9760
 2539SOL    HW219251   1.382   0.452  12.281 -0.4252  0.5063  1.5661
 2540SOL     OW19252   0.215   4.600   8.772 -0.0264  0.1896 -0.4233
 2540SOL    HW119253   0.305   4.633   8.771  0.9148 -2.3193  1.0991
 2540SOL    HW219254   0.216   4.513   8.731 -3.7975  1.3947 -3.0729
 2541SOL     OW19255   4.297   0.303  13.784  0.4100  0.6837 -0.1365
 2541SOL    HW119256   4.234   0.316  13.714 -1.0969 -0.1608  1.0520
 2541SOL    HW219257   4.363   0.262  13.728 -1.3851 -0.1709 -1.5896
 2542SOL     OW19258   4.437   3.661   4.335  0.4891  0.0474  0.3009
 2542SOL    HW119259   4.414   3.753   4.349 -2.7271 -0.7089  0.0102
 2542SOL    HW219260   4.515   3.673   4.280  0.4702 -0.5389  0.1362
 2543SOL     OW19261   4.099   0.461   4.837  0.0354  0.6926  0.1229
 2543SOL    HW119262   4.020   0.493   4.792 -0.9352  1.0995  2.1073
 2543SOL    HW219263   4.060   0.405   4.905 -1.0260 -0.1327 -1.1482
 2544SOL     OW19264   1.494   1.189   8.874 -0.0055  0.2795  0.7554
 2544SOL    HW119265   1.450   1.111   8.907  1.9160 -1.6355 -1.1424
 2544SOL    HW219266   1.467   1.250   8.942 -0.4345  1.3139 -0.3442
 2545SOL     OW19267   0.832   0.239   4.233 -0.5970 -0.0805 -0.5224
 2545SOL    HW119268   0.882   0.259   4.312  1.7839  1.0887 -2.3167
 2545SOL    HW219269   0.882   0.163   4.205 -0.2763 -0.8386  2.0737
 2546SOL     OW19270   3.156   0.506   5.723  0.2738  0.3665 -0.3884
 2546SOL    HW119271   3.065   0.525   5.744  0.1036  0.5852 -1.3591
 2546SOL    HW219272   3.153   0.497   5.628  0.1011  0.8544 -0.4292
 2547SOL     OW19273   0.391   2.138   9.200  0.5259  0.1482 -0.1143
 2547SOL    HW119274   0.408   2.082   9.124 -2.6142 -0.9884  0.0203
 2547SOL    HW219275   0.309   2.099   9.231  0.8927  0.6987  1.5335
 2548SOL     OW19276   3.313   3.903  16.586 -0.0776 -0.4440  0.4469
 2548SOL    HW119277   3.244   3.942  16.532  0.5163  0.1621  0.1340
 2548SOL    HW219278   3.300   3.811  16.564 -1.1269 -0.8237  2.6355
 2549SOL     OW19279   3.129   4.600   0.296 -0.1141 -0.2133 -0.1524
 2549SOL    HW119280   3.043   4.632   0.325 -0.4416  0.0691 -1.4390
 2549SOL    HW219281   3.092   4.570   0.212  0.0546  1.2331 -0.7376
 2550SOL     OW19282   3.300   1.852   1.555 -0.2056 -0.1888  0.1579
 2550SOL    HW119283   3.286   1.847   1.650 -2.0898  0.7726 -0.0782
 2550SOL    HW219284   3.270   1.943   1.544 -0.8002 -0.5820 -1.4752
 2551SOL     OW19285   3.529   1.032   1.973  0.0163 -0.5792  0.3534
 2551SOL    HW119286   3.603   1.093   1.971 -1.3657  1.1216  1.3458
 2551SOL    HW219287   3.445   1.078   1.971  0.7273  0.9004  3.1965
 2552SOL     OW19288   2.673   3.312   8.920 -0.0173 -0.6698  0.4028
 2552SOL    HW119289   2.758   3.352   8.902  0.4896 -1.6992  0.5503
 2552SOL    HW219290   2.637   3.371   8.987  2.1823 -0.8995  1.7888
 2553SOL     OW19291   3.940   2.656   0.825  0.1776 -0.3568  0.2224
 2553SOL    HW119292   3.902   2.580   0.780 -0.4137  0.4932 -0.6941
 2553SOL    HW219293   4.031   2.629   0.835  1.1195  1.9948 -2.0252
 2554SOL     OW19294   3.458   0.479   9.432  0.1281  0.0259  0.2202
 2554SOL    HW119295   3.443   0.573   9.438 -1.3783 -0.2701  1.1618
 2554SOL    HW219296   3.489   0.461   9.344 -0.9386 -0.3023 -0.0883
 2555SOL     OW19297   2.699   0.604   7.194  0.1878 -0.1119 -0.2262
 2555SOL    HW119298   2.715   0.685   7.243 -0.0184  0.9845 -1.9617
 2555SOL    HW219299   2.739   0.618   7.108  0.7785 -0.9707 -0.0813
 2556SOL     OW19300   3.029   1.268   7.494  0.1078  0.6653  0.4651
 2556SOL    HW119301   2.968   1.221   7.552 -0.5983  0.2049 -0.6493
 2556SOL    HW219302   3.113   1.233   7.522 -0.7011 -1.6423 -0.0556
 2557SOL     OW19303   2.805   4.206   2.105 -0.4335 -0.2817  0.2511
 2557SOL    HW119304   2.892   4.173   2.084  0.5872  1.7902  1.1246
 2557SOL    HW219305   2.804   4.161   2.190  1.7402 -1.0948 -0.1676
 2558SOL     OW19306   3.872   2.792  17.297 -0.0679  0.0400 -0.5098
 2558SOL    HW119307   3.828   2.870  17.265 -1.0789 -0.3991 -0.1855
 2558SOL    HW219308   3.930   2.832  17.361 -0.2789  0.0213 -0.3089
 2559SOL     OW19309   0.244   3.835   2.643 -0.7120 -0.0218 -0.6667
 2559SOL    HW119310   0.167   3.815   2.590 -0.0740 -0.6571 -1.3624
 2559SOL    HW219311   0.312   3.809   2.581  0.4778  2.1530 -0.2797
 2560SOL     OW19312   0.122   2.420   7.008  0.0766  0.3300  0.3310
 2560SOL    HW119313   0.157   2.509   7.008  0.9151 -0.0020 -0.4914
 2560SOL    HW219314   0.166   2.378   7.081  1.1601  1.1159  0.1364
 2561SOL     OW19315   1.206   2.130   8.610 -0.3271  0.0719 -0.0675
 2561SOL    HW119316   1.269   2.057   8.611  2.0499  2.1205  0.0900
 2561SOL    HW219317   1.256   2.198   8.566 -0.2680  0.4025  0.5170
 2562SOL     OW19318   0.514   2.015  12.427  0.2736  0.0002  0.1939
 2562SOL    HW119319   0.422   2.033  12.445  0.6087  0.4291  1.4779
 2562SOL    HW219320   0.560   1.996  12.510 -0.2358 -1.2134  0.2056
 2563SOL     OW19321   1.964   3.718   3.140  0.3693  0.4124 -0.2788
 2563SOL    HW119322   2.056   3.743   3.149  0.4531 -0.6171  1.7206
 2563SOL    HW219323   1.939   3.744   3.228  2.3438  3.4750 -0.6227
 2564SOL     OW19324   4.479   3.812   8.883 -0.5714 -0.4711 -0.0897
 2564SOL    HW119325   4.506   3.721   8.890 -1.4291 -0.7280 -0.1955
 2564SOL    HW219326   4.417   3.827   8.955 -2.2376 -1.9334 -1.2446
 2565SOL     OW19327   4.382   3.148   0.334 -0.3494 -0.2595  0.1280
 2565SOL    HW119328   4.354   3.091   0.406  0.0037 -0.8190 -0.1747
 2565SOL    HW219329   4.410   3.224   0.385 -0.1258  0.1828 -0.6614
 2566SOL     OW19330   1.186   3.984   1.847  0.1373  0.4289  0.0695
 2566SOL    HW119331   1.106   3.935   1.826  1.2074 -1.3535  0.1845
 2566SOL    HW219332   1.256   3.919   1.855  1.4405  1.8688  0.2115
 2567SOL     OW19333   1.161   3.319   4.609  0.3583 -0.0436  0.5011
 2567SOL    HW119334   1.118   3.394   4.649 -0.2006  0.4395 -1.0037
 2567SOL    HW219335   1.103   3.245   4.625 -1.6299  0.8981 -2.2389
 2568SOL     OW19336   0.544   3.181   5.773 -0.8493  0.1680 -0.3415
 2568SOL    HW119337   0.570   3.219   5.857 -2.0219 -0.2642  0.2095
 2568SOL    HW219338   0.483   3.247   5.741  0.7642  1.8050 -0.0723
 2569SOL     OW19339   2.554   1.521   8.579  0.9374 -0.1828  0.0907
 2569SOL    HW119340   2.637   1.481   8.605  0.6976 -1.0503 -0.4627
 2569SOL    HW219341   2.504   1.439   8.583 -1.0753  1.0031 -0.5273
 2570SOL     OW19342   4.594   2.549   5.077  0.1077 -0.2597  0.0634
 2570SOL    HW119343   4.580   2.609   5.004 -2.0067 -0.0429  0.6525
 2570SOL    HW219344   4.526   2.599   5.123  0.7882  0.2444  0.5166
 2571SOL     OW19345   0.353   3.460  17.349  0.0829  0.4336 -1.0953
 2571SOL    HW119346   0.400   3.463  17.432 -0.0009  0.5404 -1.0512
 2571SOL    HW219347   0.286   3.527  17.365  0.6688  1.1618 -1.7304
 2572SOL     OW19348   2.884   2.733  11.070 -0.5948  0.1693 -0.0857
 2572SOL    HW119349   2.938   2.730  10.992  0.4264 -0.3041  0.6447
 2572SOL    HW219350   2.897   2.644  11.102 -0.7753  1.0666  2.4919
 2573SOL     OW19351   2.866   3.706   5.898 -0.4292 -0.7050  0.0401
 2573SOL    HW119352   2.869   3.737   5.988 -0.6735 -1.3417  0.2694
 2573SOL    HW219353   2.893   3.615   5.906 -1.2329 -1.0081 -0.6751
 2574SOL     OW19354   0.455   3.913   4.683 -0.1788 -0.0675 -0.7528
 2574SOL    HW119355   0.386   3.944   4.625  0.4235  0.3506 -1.2412
 2574SOL    HW219356   0.510   3.989   4.700 -0.3077  0.3218 -2.0519
 2575SOL     OW19357   2.485   4.494   6.444 -0.2664 -0.6128  0.1927
 2575SOL    HW119358   2.466   4.535   6.528  0.0038  1.6380 -0.8308
 2575SOL    HW219359   2.571   4.455   6.455  0.3521  1.1270  1.3478
 2576SOL     OW19360   3.094   4.552   2.748 -0.0245 -0.1295 -0.5686
 2576SOL    HW119361   3.084   4.604   2.829  0.6797 -0.8101 -0.0456
 2576SOL    HW219362   3.051   4.472   2.778  1.4385 -0.5750  0.3400
 2577SOL     OW19363   1.636   2.445  11.585 -0.5545 -0.7868 -0.3501
 2577SOL    HW119364   1.615   2.352  11.587 -0.8267 -0.7298 -0.8080
 2577SOL    HW219365   1.684   2.451  11.668  1.2840 -1.0836 -1.3803
 2578SOL     OW19366   0.150   3.838   5.031  0.1738  0.1398 -0.1755
 2578SOL    HW119367   0.218   3.906   5.029 -0.9063  1.2488  1.6329
 2578SOL    HW219368   0.176   3.785   4.956 -1.4040 -1.3194  0.3276
 2579SOL     OW19369   0.103   2.360  12.797 -0.0056 -0.1519  0.4034
 2579SOL    HW119370   0.064   2.446  12.786 -2.3554 -1.2577  0.1867
 2579SOL    HW219371   0.125   2.359  12.890  0.6188 -0.6351  0.2545
 2580SOL     OW19372   4.713   0.245   7.836 -0.4088 -0.2293 -0.1104
 2580SOL    HW119373   0.022   0.319   7.797 -0.4344 -0.1826 -0.0530
 2580SOL    HW219374   0.027   0.238   7.917  0.0692  2.3233 -0.1883
 2581SOL     OW19375   2.864   1.560   4.915  0.3945 -0.4414 -0.0330
 2581SOL    HW119376   2.921   1.571   4.991  1.4822 -1.1630 -0.7389
 2581SOL    HW219377   2.847   1.650   4.888 -0.6192 -0.4595  0.5657
 2582SOL     OW19378   3.202   2.503   8.924 -0.1152 -0.3929  0.6984
 2582SOL    HW119379   3.169   2.426   8.878 -0.8822 -0.2164  0.9473
 2582SOL    HW219380   3.213   2.562   8.849  2.0316 -3.3339 -1.3058
 2583SOL     OW19381   3.980   1.766   2.880  0.0540 -0.2315 -0.4950
 2583SOL    HW119382   3.904   1.723   2.921  0.9331 -0.1079  1.2565
 2583SOL    HW219383   3.956   1.748   2.789  0.5227  2.4163 -1.1410
 2584SOL     OW19384   3.820   0.909   9.537 -0.6077 -0.7359 -0.0409
 2584SOL    HW119385   3.776   0.947   9.461 -0.2680 -0.7209 -0.2263
 2584SOL    HW219386   3.912   0.926   9.518 -1.2331 -0.2211 -2.5723
 2585SOL     OW19387   4.638   1.825   1.613 -0.2260 -0.0077 -0.3050
 2585SOL    HW119388   4.727   1.815   1.579 -0.7440 -0.2071 -1.5813
 2585SOL    HW219389   4.657   1.824   1.707  0.7720 -0.3243 -0.5108
 2586SOL     OW19390   4.665   2.496   3.915 -0.0558  0.2011 -0.0663
 2586SOL    HW119391   4.711   2.567   3.870  0.3355  0.3731  0.5948
 2586SOL    HW219392   4.623   2.443   3.847 -0.3618 -2.0499  1.8786
 2587SOL     OW19393   3.158   4.717   8.881 -0.1779  0.2693 -0.5561
 2587SOL    HW119394   3.238   0.021   8.850  0.6146 -2.0628 -1.6738
 2587SOL    HW219395   3.093   0.050   8.873  0.6677  1.0571 -0.3909
 2588SOL     OW19396   0.941   3.642  12.676 -0.0269 -0.1702  0.2104
 2588SOL    HW119397   0.884   3.605  12.743 -2.1509  0.3697 -1.3098
 2588SOL    HW219398   0.902   3.615  12.592  1.0973  1.3487 -0.8044
 2589SOL     OW19399   0.331   1.733   6.396  0.2775  0.1032  0.1744
 2589SOL    HW119400   0.307   1.823   6.417 -1.1005 -0.1843 -0.1345
 2589SOL    HW219401   0.420   1.743   6.428  0.4443  1.2911 -0.7008
 2590SOL     OW19402   0.963   1.203   1.492 -0.1951 -0.0483  0.3968
 2590SOL    HW119403   0.962   1.298   1.498  0.7190 -0.0335  0.2123
 2590SOL    HW219404   1.041   1.197   1.437 -1.5440 -2.4614 -1.2617
 2591SOL     OW19405   0.413   2.231   4.082 -0.1360  0.6572  0.1506
 2591SOL    HW119406   0.426   2.318   4.121  1.8561  1.6382 -2.7587
 2591SOL    HW219407   0.475   2.180   4.133 -0.1904  0.6338  0.1942
 2592SOL     OW19408   1.645   4.081  17.692 -0.6696 -0.0470  0.0233
 2592SOL    HW119409   1.718   4.027  17.661  0.7184  0.6615  2.0672
 2592SOL    HW219410   1.574   4.040  17.642 -1.7165  0.7422  0.8683
 2593SOL     OW19411   1.493   3.718  13.425  0.5049  0.7282 -0.3096
 2593SOL    HW119412   1.425   3.691  13.363 -0.4594  3.1269 -0.3182
 2593SOL    HW219413   1.539   3.636  13.444  1.7911  1.4489 -0.3200
 2594SOL     OW19414   2.921   3.869   6.755  0.3214  0.3472 -0.1203
 2594SOL    HW119415   2.981   3.821   6.813  0.6839  1.1526  0.1685
 2594SOL    HW219416   2.926   3.812   6.678 -1.0212  0.2474 -0.1319
 2595SOL     OW19417   3.986   3.048  10.047  0.4238 -0.0547 -0.4736
 2595SOL    HW119418   3.942   2.973  10.008 -2.5818  1.0707  0.7448
 2595SOL    HW219419   4.021   3.016  10.131 -1.5819  0.2938  0.4859
 2596SOL     OW19420   3.952   1.925   8.721  0.4946  0.4215 -0.0195
 2596SOL    HW119421   3.910   1.985   8.660  1.1131 -2.0498 -2.8427
 2596SOL    HW219422   3.875   1.894   8.771  0.8640  0.3742  0.5233
 2597SOL     OW19423   1.000   0.192  14.048  0.3033 -0.1732  0.1174
 2597SOL    HW119424   1.030   0.114  14.001 -0.1191 -0.3428  0.1261
 2597SOL    HW219425   1.082   0.239  14.035 -0.1497  0.9459  1.3608
 2598SOL     OW19426   2.529   2.490   2.542 -0.1900 -0.1516 -0.0713
 2598SOL    HW119427   2.484   2.544   2.607 -0.0001 -0.7575  0.5715
 2598SOL    HW219428   2.533   2.558   2.475  0.2163  0.6695  0.7946
 2599SOL     OW19429   1.272   4.302   3.718  1.2335  0.3500 -0.1309
 2599SOL    HW119430   1.346   4.306   3.657  1.2646  0.2030 -0.1035
 2599SOL    HW219431   1.290   4.366   3.786  1.8329  0.9810 -0.8944
 2600SOL     OW19432   0.837   1.267   4.491  0.5470  0.3941  0.1788
 2600SOL    HW119433   0.856   1.211   4.566 -1.9452  0.6451  1.0045
 2600SOL    HW219434   0.873   1.219   4.416  0.1502 -0.9904  0.8581
 2601SOL     OW19435   3.838   4.094   9.750  0.0202 -0.1594  0.6391
 2601SOL    HW119436   3.881   4.062   9.830 -0.5113 -1.9956  0.1927
 2601SOL    HW219437   3.867   4.030   9.685 -0.3539 -0.6197  0.9248
 2602SOL     OW19438   3.362   1.049   9.362 -0.3706 -0.5971  0.1629
 2602SOL    HW119439   3.441   1.069   9.313 -0.9537  1.4519  0.0623
 2602SOL    HW219440   3.296   1.018   9.300  2.4819 -2.3265 -2.0002
 2603SOL     OW19441   3.543   4.042   6.344 -0.1831  0.9020 -0.0834
 2603SOL    HW119442   3.535   4.051   6.439  0.4296 -1.3339  0.1780
 2603SOL    HW219443   3.472   4.102   6.321 -0.3944  0.6962  0.0317
 2604SOL     OW19444   2.512   0.079  16.734  0.2185  0.1607  0.2076
 2604SOL    HW119445   2.605   0.074  16.756  0.6411  0.1377 -1.5821
 2604SOL    HW219446   2.511   0.067  16.639  2.4194  2.9052 -0.1873
 2605SOL     OW19447   0.796   4.512   6.722  0.0549 -0.1676  0.2356
 2605SOL    HW119448   0.879   4.555   6.746 -0.1691  1.9806 -2.8483
 2605SOL    HW219449   0.753   4.580   6.670 -1.1879 -1.4201 -0.3650
 2606SOL     OW19450   3.356   2.980   3.050 -0.2850 -0.1298  0.4524
 2606SOL    HW119451   3.341   2.910   3.114 -1.4121 -0.7865 -0.5368
 2606SOL    HW219452   3.385   3.044   3.115  1.8701 -0.8022  0.1731
 2607SOL     OW19453   2.729   2.290  14.487 -0.0117 -0.2246  0.8499
 2607SOL    HW119454   2.821   2.300  14.512  0.3424 -0.0516 -0.5755
 2607SOL    HW219455   2.681   2.340  14.554  0.5596  0.2091  0.9319
 2608SOL     OW19456   0.240   1.340   2.283  0.0612 -0.4074 -0.3549
 2608SOL    HW119457   0.209   1.351   2.193 -1.5793  0.1993  0.2914
 2608SOL    HW219458   0.163   1.298   2.321  1.2528 -2.0240  0.2548
 2609SOL     OW19459   1.534   4.572   3.123 -0.7675  0.3787  0.5873
 2609SOL    HW119460   1.622   4.598   3.098 -0.1569 -1.3809  0.9385
 2609SOL    HW219461   1.482   4.645   3.088 -1.0441 -0.4412 -0.7174
 2610SOL     OW19462   3.093   1.037   8.164  0.4904 -0.2354 -0.5181
 2610SOL    HW119463   3.108   1.049   8.070  0.3252 -0.2496 -0.5466
 2610SOL    HW219464   2.998   1.028   8.161  0.0347  4.0439  1.5641
 2611SOL     OW19465   1.696   2.357   7.701  0.1869 -0.7165  0.2435
 2611SOL    HW119466   1.755   2.348   7.776  0.3466  2.2339  0.4717
 2611SOL    HW219467   1.694   2.267   7.671 -0.4197  0.2538 -2.6592
 2612SOL     OW19468   1.439   4.187  16.791 -0.1956 -0.3072  0.1567
 2612SOL    HW119469   1.530   4.209  16.770 -0.0965 -1.1381 -0.3021
 2612SOL    HW219470   1.409   4.191  16.701 -0.3927  0.8906  0.2850
 2613SOL     OW19471   3.559   4.365   3.280  0.1070 -0.1248 -0.3122
 2613SOL    HW119472   3.531   4.274   3.287  1.1904 -0.4437 -0.1559
 2613SOL    HW219473   3.576   4.366   3.186 -1.9615 -0.5450 -0.6934
 2614SOL     OW19474   0.556   1.931   1.534 -0.8147  0.1164 -0.2537
 2614SOL    HW119475   0.631   1.941   1.592  0.8419  0.2047 -2.3863
 2614SOL    HW219476   0.532   1.838   1.539  0.7125 -0.1695  1.4631
 2615SOL     OW19477   3.779   4.471   2.927 -0.0156 -0.3154  0.3990
 2615SOL    HW119478   3.829   4.499   2.851 -1.5081 -0.1181 -0.5115
 2615SOL    HW219479   3.836   4.404   2.965  1.5990 -0.6890 -2.7605
 2616SOL     OW19480   3.624   4.708  11.644  0.1002  0.9993  0.2382
 2616SOL    HW119481   3.686   4.640  11.671  0.3563  0.8298 -0.7927
 2616SOL    HW219482   3.650   4.733  11.555 -0.6129  1.2917  0.1135
 2617SOL     OW19483   4.559   1.048  13.918 -0.4471 -0.9691 -0.4123
 2617SOL    HW119484   4.554   1.007  14.004  0.0803  2.0772  1.0828
 2617SOL    HW219485   4.650   1.022  13.908  0.1693  1.3269 -0.9147
 2618SOL     OW19486   4.505   1.479   5.868 -0.1956  0.1729 -0.7885
 2618SOL    HW119487   4.532   1.407   5.811 -1.3612  0.3598 -1.5527
 2618SOL    HW219488   4.550   1.454   5.949  1.0530  1.8214 -0.9790
 2619SOL     OW19489   1.667   3.707  10.453 -0.2972  0.2411  0.3466
 2619SOL    HW119490   1.608   3.764  10.502  0.1690  1.2709 -0.2706
 2619SOL    HW219491   1.595   3.659  10.414  1.0873 -0.9756 -0.7198
 2620SOL     OW19492   1.385   1.598   6.402 -0.3907 -0.7329  0.7057
 2620SOL    HW119493   1.388   1.508   6.371  0.0868 -1.3999  2.7024
 2620SOL    HW219494   1.296   1.622   6.375 -0.3776 -0.8470  0.5590
 2621SOL     OW19495   1.160   1.441  16.673  0.8293 -0.1864 -0.0818
 2621SOL    HW119496   1.145   1.453  16.579  1.9905 -0.4800 -0.2973
 2621SOL    HW219497   1.179   1.348  16.681  2.2747  0.1112 -0.0367
 2622SOL     OW19498   3.628   0.748  13.221 -0.7612  0.1758 -0.2920
 2622SOL    HW119499   3.575   0.696  13.281  0.4048 -1.5461 -0.7306
 2622SOL    HW219500   3.609   0.835  13.255  0.2363  0.1546  0.3037
 2623SOL     OW19501   0.960   4.609  16.150 -0.2985  0.2615  0.3087
 2623SOL    HW119502   0.970   4.616  16.055 -0.1091 -0.8752  0.2442
 2623SOL    HW219503   0.966   4.514  16.157 -1.0189  0.1996  0.1366
 2624SOL     OW19504   4.654   1.358   3.873 -0.3431  0.2096  0.0183
 2624SOL    HW119505   4.623   1.348   3.963 -0.3276 -1.5456 -0.1800
 2624SOL    HW219506   4.571   1.349   3.826 -0.7490 -1.2698  1.0289
 2625SOL     OW19507   3.206   2.812  13.593 -0.4392 -0.8685  0.3483
 2625SOL    HW119508   3.199   2.806  13.688 -1.4392  2.0705  0.4762
 2625SOL    HW219509   3.301   2.816  13.587 -0.3670 -2.0070  0.8027
 2626SOL     OW19510   4.451   0.228   7.110  0.2977  0.2789  0.0810
 2626SOL    HW119511   4.509   0.304   7.098 -1.0934  1.0697 -1.5999
 2626SOL    HW219512   4.369   0.257   7.070  0.4242  1.0527  0.3774
 2627SOL     OW19513   0.362   0.359   8.016  0.1657  0.3776  0.1456
 2627SOL    HW119514   0.345   0.265   8.005 -0.8685  0.3773  1.7800
 2627SOL    HW219515   0.418   0.373   7.939 -2.0278 -1.7425 -1.8656
 2628SOL     OW19516   2.028   0.445   5.350 -0.9066 -0.3548  0.3478
 2628SOL    HW119517   2.067   0.359   5.365  1.6927  0.2922 -2.6952
 2628SOL    HW219518   1.953   0.432   5.408 -2.5356  0.6256 -1.5415
 2629SOL     OW19519   4.158   0.984   4.260 -0.7067 -0.2838 -1.0378
 2629SOL    HW119520   4.168   1.002   4.166  3.4944 -2.5227 -1.0214
 2629SOL    HW219521   4.149   0.889   4.250  3.0095 -0.8127  0.8199
 2630SOL     OW19522   0.496   1.375   5.960  0.5536 -0.1547  0.9610
 2630SOL    HW119523   0.513   1.454   6.011 -3.9509  0.8800  0.8737
 2630SOL    HW219524   0.468   1.412   5.877 -1.8391  0.3944  2.0071
 2631SOL     OW19525   2.341   1.856   7.555 -0.9176  0.3437  0.1901
 2631SOL    HW119526   2.253   1.883   7.581 -1.2672  0.0187 -0.6613
 2631SOL    HW219527   2.399   1.925   7.586 -1.9179  1.6283 -0.8171
 2632SOL     OW19528   4.245   3.425   6.947  0.0395 -0.6443 -0.2063
 2632SOL    HW119529   4.197   3.445   6.867 -0.4900 -1.0437  0.0069
 2632SOL    HW219530   4.180   3.452   7.012 -0.6958 -0.7503 -0.8948
 2633SOL     OW19531   1.138   3.917  15.073  0.4446 -0.1080  0.1521
 2633SOL    HW119532   1.169   3.972  15.145 -0.0087  1.7273 -1.0370
 2633SOL    HW219533   1.106   3.981  15.008 -0.4171 -1.4675 -0.7597
 2634SOL     OW19534   4.573   2.642   4.135  0.4398 -0.2898  0.8050
 2634SOL    HW119535   4.641   2.622   4.199  0.5712  0.7713  0.9904
 2634SOL    HW219536   4.581   2.574   4.068 -0.8740  1.3925 -1.0692
 2635SOL     OW19537   1.419   0.891   0.488 -0.0188 -0.4564 -0.1450
 2635SOL    HW119538   1.359   0.959   0.517  2.4270  1.0742  1.3360
 2635SOL    HW219539   1.485   0.935   0.435 -1.2334  0.5628 -0.8009
 2636SOL     OW19540   2.527   3.356   4.461  0.1554 -0.6184 -0.5080
 2636SOL    HW119541   2.574   3.408   4.396 -2.2349  2.5534  0.2940
 2636SOL    HW219542   2.549   3.395   4.545  0.0513 -0.5128 -0.5302
 2637SOL     OW19543   2.985   2.696  16.862 -0.6620  0.0205  0.2614
 2637SOL    HW119544   3.026   2.632  16.804  0.3545  0.4482  0.4929
 2637SOL    HW219545   2.981   2.634  16.935 -0.4588  0.5718  0.7383
 2638SOL     OW19546   1.599   2.744   7.610 -0.2240  0.2477  0.2982
 2638SOL    HW119547   1.612   2.817   7.549 -1.6300 -0.2439 -0.5831
 2638SOL    HW219548   1.559   2.791   7.683  1.1247  2.0712 -0.1476
 2639SOL     OW19549   1.147   2.987  16.743 -0.0175  0.2848  0.2376
 2639SOL    HW119550   1.187   2.980  16.830  1.1832 -0.7036 -0.3923
 2639SOL    HW219551   1.134   3.081  16.755 -0.7134  0.5785 -2.8322
 2640SOL     OW19552   3.217   3.006   7.697  0.3570 -0.0225 -0.0976
 2640SOL    HW119553   3.188   3.096   7.687  0.7478 -0.1366 -2.2453
 2640SOL    HW219554   3.288   2.996   7.634  0.3841  0.6483 -0.1717
 2641SOL     OW19555   1.787   2.949   5.084  0.3403  0.2763  0.0807
 2641SOL    HW119556   1.833   2.960   5.001  2.4794 -0.2654  1.1910
 2641SOL    HW219557   1.839   2.994   5.150  0.5109  1.5395 -0.9278
 2642SOL     OW19558   2.660   0.597   5.970 -0.4819  0.4342 -0.0649
 2642SOL    HW119559   2.656   0.638   6.056  0.1561 -1.0564  0.6728
 2642SOL    HW219560   2.715   0.660   5.922  0.4637  0.3245  0.8790
 2643SOL     OW19561   1.706   1.210   5.334 -0.2212  0.0599  0.6717
 2643SOL    HW119562   1.690   1.230   5.426  1.1126  1.7772  0.5300
 2643SOL    HW219563   1.619   1.217   5.294 -0.8325  1.7249  2.2660
 2644SOL     OW19564   2.851   4.183   3.303  0.6361 -0.0169 -0.4226
 2644SOL    HW119565   2.774   4.235   3.278  0.1911  1.1015  3.1366
 2644SOL    HW219566   2.899   4.178   3.221  0.5075 -0.0581 -0.4962
 2645SOL     OW19567   3.688   4.341  10.279  0.0343 -1.0707 -0.5915
 2645SOL    HW119568   3.643   4.370  10.200 -1.2314  0.8820  0.8456
 2645SOL    HW219569   3.682   4.251  10.248  1.7823 -1.3043 -0.2652
 2646SOL     OW19570   0.563   1.493   5.246 -0.0773  0.3832  0.0135
 2646SOL    HW119571   0.615   1.569   5.270  1.4061  0.0339 -2.1033
 2646SOL    HW219572   0.505   1.536   5.183 -1.0618 -0.3831  0.3865
 2647SOL     OW19573   2.660   1.784   7.311 -0.2356 -0.1167  0.4117
 2647SOL    HW119574   2.687   1.715   7.250 -3.9123 -1.9802  0.8961
 2647SOL    HW219575   2.658   1.863   7.257  1.1523  0.0488  0.6126
 2648SOL     OW19576   3.790   3.965   7.584 -0.6215  0.2359 -0.1742
 2648SOL    HW119577   3.839   4.035   7.627 -0.5685 -1.3680  2.3469
 2648SOL    HW219578   3.751   4.010   7.509  0.7568  1.1388 -0.3407
 2649SOL     OW19579   1.575   3.040   5.180  0.0895 -0.0739 -0.2007
 2649SOL    HW119580   1.643   2.977   5.158  1.5241  1.2113  0.5871
 2649SOL    HW219581   1.618   3.122   5.154 -0.6731  0.5634  0.5302
 2650SOL     OW19582   2.513   0.370   5.387  0.0481  0.0534 -0.1470
 2650SOL    HW119583   2.559   0.454   5.390 -0.5598  0.4771 -2.1853
 2650SOL    HW219584   2.565   0.328   5.455 -1.1957 -1.3277 -0.0546
 2651SOL     OW19585   1.581   0.647   0.551 -0.2238 -0.4179 -0.3944
 2651SOL    HW119586   1.666   0.692   0.553  0.3421 -1.4996  0.0121
 2651SOL    HW219587   1.523   0.723   0.545  1.6855  0.9572 -1.6699
 2652SOL     OW19588   4.569   4.089   9.769 -0.0705 -0.7357 -0.2458
 2652SOL    HW119589   4.644   4.048   9.726 -0.7843 -0.5051 -1.7275
 2652SOL    HW219590   4.603   4.118   9.853 -0.4480 -0.8448 -0.0501
 2653SOL     OW19591   3.964   4.392  16.969 -0.6371  0.3063 -0.5233
 2653SOL    HW119592   3.924   4.437  16.895 -1.4399 -0.2325 -0.4162
 2653SOL    HW219593   3.938   4.301  16.953  0.5518 -0.0166 -0.6452
 2654SOL     OW19594   0.049   3.517   7.033  0.0697  0.1464  0.0538
 2654SOL    HW119595   0.023   3.445   7.090  0.3395  0.3731  0.4666
 2654SOL    HW219596   0.117   3.470   6.984  2.0379  0.1297  2.8210
 2655SOL     OW19597   0.105   4.166   3.247 -0.0349 -0.4524  0.1571
 2655SOL    HW119598   0.161   4.089   3.253 -1.5799 -1.6974 -1.3552
 2655SOL    HW219599   0.040   4.158   3.317 -0.1421 -0.4404  0.0584
 2656SOL     OW19600   3.852   2.523   2.922 -0.1821 -0.3273 -0.4950
 2656SOL    HW119601   3.807   2.605   2.903 -0.0778 -0.0860  0.2926
 2656SOL    HW219602   3.934   2.553   2.884 -0.8481  2.3280  0.1552
 2657SOL     OW19603   3.192   0.632  11.676  0.1679  0.1421 -0.3318
 2657SOL    HW119604   3.268   0.662  11.727  0.8338  0.3694 -1.4561
 2657SOL    HW219605   3.141   0.600  11.750 -0.5170 -1.3902 -1.4772
 2658SOL     OW19606   2.064   0.681   2.734  0.0858 -0.2385  0.7396
 2658SOL    HW119607   2.083   0.628   2.812  1.6365  0.1771  0.6415
 2658SOL    HW219608   1.969   0.689   2.742 -0.0766 -2.0826  0.5517
 2659SOL     OW19609   0.798   3.327  10.932  0.0876  0.0937 -0.1179
 2659SOL    HW119610   0.810   3.294  11.021  2.4503  0.4985 -0.2658
 2659SOL    HW219611   0.752   3.253  10.893 -1.3480  0.9396 -0.0220
 2660SOL     OW19612   2.375   3.399   0.002 -0.6164 -0.3997  0.4030
 2660SOL    HW119613   2.387   3.421  17.657 -0.6147 -1.1265  0.2243
 2660SOL    HW219614   2.340   3.309  17.746  0.3757 -0.8141  1.1749
 2661SOL     OW19615   4.395   4.465   1.841 -0.2907 -0.1771  0.1423
 2661SOL    HW119616   4.464   4.400   1.827 -1.2280 -1.3762  1.1440
 2661SOL    HW219617   4.446   4.541   1.867  1.2994 -0.9034 -0.8372
 2662SOL     OW19618   0.309   1.745   7.022  0.4206 -0.3166  0.7091
 2662SOL    HW119619   0.386   1.692   7.045  1.2355  0.5535  0.0156
 2662SOL    HW219620   0.340   1.835   7.030  0.2995 -0.1250 -0.9561
 2663SOL     OW19621   0.543   1.663   6.041  0.4678 -0.0085 -0.0939
 2663SOL    HW119622   0.556   1.757   6.032 -1.8161  0.4730  1.5485
 2663SOL    HW219623   0.623   1.629   6.002  0.3352  0.6872 -0.9637
 2664SOL     OW19624   3.883   2.442   5.563 -0.3701 -0.1718  0.0224
 2664SOL    HW119625   3.960   2.443   5.506 -0.7047  0.8245 -0.4080
 2664SOL    HW219626   3.913   2.485   5.644 -2.3651  0.0572  0.6323
 2665SOL     OW19627   1.202   0.066   5.735  0.0314  0.4672 -0.3007
 2665SOL    HW119628   1.124   0.073   5.790  0.7604 -0.0205  0.8009
 2665SOL    HW219629   1.253   4.730   5.770 -0.7899  2.0486  4.1652
 2666SOL     OW19630   4.404   3.404   2.050  0.0791  0.3382  0.5926
 2666SOL    HW119631   4.397   3.496   2.079 -0.3643  1.1612 -2.1677
 2666SOL    HW219632   4.472   3.373   2.110 -0.4907 -2.3168 -0.1365
 2667SOL     OW19633   0.501   1.426  11.175  0.1210 -0.1285 -0.4375
 2667SOL    HW119634   0.544   1.382  11.101  1.1527  1.3409 -0.7130
 2667SOL    HW219635   0.576   1.480  11.198  0.6019 -0.5573 -0.9683
 2668SOL     OW19636   2.441   4.701   5.388  0.0924 -0.0443  0.3034
 2668SOL    HW119637   2.478   4.702   5.300  0.1200 -0.8411  0.3057
 2668SOL    HW219638   2.391   0.044   5.383 -0.5762 -0.3934  1.3486
 2669SOL     OW19639   4.515   3.673   4.978  0.5507  0.5811  0.5138
 2669SOL    HW119640   4.575   3.693   4.906 -0.1581  2.6500  0.5011
 2669SOL    HW219641   4.474   3.759   4.990 -1.9365 -0.5886  0.2850
 2670SOL     OW19642   0.593   0.343  11.027 -0.4303 -0.2827  0.4733
 2670SOL    HW119643   0.683   0.313  11.035 -0.6365 -0.1883  3.1456
 2670SOL    HW219644   0.564   0.359  11.117 -1.9022  1.2315 -0.2682
 2671SOL     OW19645   2.957   4.353   5.532  0.1156  0.1404  0.6651
 2671SOL    HW119646   2.936   4.282   5.593 -0.2632 -0.5127 -0.2242
 2671SOL    HW219647   2.867   4.383   5.535 -0.0790 -0.4939  1.2889
 2672SOL     OW19648   4.151   3.490   5.860  0.0501  0.2518 -0.4583
 2672SOL    HW119649   4.178   3.517   5.948 -2.1329  2.3094 -0.4398
 2672SOL    HW219650   4.221   3.425   5.848 -0.2375 -0.1949  0.2864
 2673SOL     OW19651   2.698   1.863  13.799  0.0868 -0.6292 -0.2218
 2673SOL    HW119652   2.651   1.845  13.881 -0.9705 -0.2399 -0.7341
 2673SOL    HW219653   2.751   1.940  13.817  0.4794 -0.7741 -0.7612
 2674SOL     OW19654   3.680   4.229   5.113  0.2366  0.4910 -0.0131
 2674SOL    HW119655   3.710   4.169   5.181  1.8345 -0.4997 -1.5802
 2674SOL    HW219656   3.655   4.179   5.035  1.4938 -1.6725  0.9438
 2675SOL     OW19657   3.971   1.817   4.741  0.0877 -0.0647 -0.2124
 2675SOL    HW119658   3.968   1.728   4.777  0.5810  1.1109  2.7746
 2675SOL    HW219659   4.050   1.816   4.687  0.2744  1.3070  0.0342
 2676SOL     OW19660   4.256   1.921  13.350  0.0879  0.2345 -0.5280
 2676SOL    HW119661   4.327   1.985  13.353 -0.4048  0.5888  2.7492
 2676SOL    HW219662   4.208   1.962  13.278 -0.7483 -0.0016 -0.1005
 2677SOL     OW19663   1.615   3.296  11.908  0.0431  0.3663  0.3286
 2677SOL    HW119664   1.622   3.391  11.910 -0.7848  0.4575 -0.8564
 2677SOL    HW219665   1.640   3.285  11.816 -0.2059  0.2100  0.2785
 2678SOL     OW19666   2.606   3.929   1.589 -0.1488 -0.3534 -0.2857
 2678SOL    HW119667   2.546   3.948   1.661  0.0718  0.7780 -0.3891
 2678SOL    HW219668   2.673   3.878   1.633 -0.1620 -1.1874 -1.2413
 2679SOL     OW19669   4.717   4.676  15.888  0.1898 -0.1889  0.3350
 2679SOL    HW119670   0.021   0.007  15.834 -1.9080  0.5689 -0.3125
 2679SOL    HW219671   4.628   4.711  15.886 -0.2763 -1.4184 -0.6739
 2680SOL     OW19672   1.386   1.308  17.201 -0.1039  0.4013  0.2403
 2680SOL    HW119673   1.481   1.297  17.196 -0.0940 -0.2387  1.8506
 2680SOL    HW219674   1.370   1.292  17.294  1.3313  0.9960  0.5932
 2681SOL     OW19675   2.054   1.778   2.059 -0.0196  0.2207 -0.5127
 2681SOL    HW119676   2.042   1.826   1.976 -1.7468  1.1564  0.2790
 2681SOL    HW219677   2.146   1.795   2.081  0.0411 -0.0085 -0.5933
 2682SOL     OW19678   2.393   4.375   3.804  0.2525  0.1839 -0.3555
 2682SOL    HW119679   2.408   4.457   3.852  1.8040 -0.7532  0.7495
 2682SOL    HW219680   2.301   4.383   3.778  0.9117 -0.7959 -2.9291
 2683SOL     OW19681   3.313   3.620   4.483  0.2793 -0.5015 -0.2656
 2683SOL    HW119682   3.397   3.588   4.451 -0.6451 -0.0097 -3.1748
 2683SOL    HW219683   3.260   3.609   4.405  0.0972 -0.2648 -0.1751
 2684SOL     OW19684   4.188   4.021   9.672  0.2599 -0.4440 -0.0659
 2684SOL    HW119685   4.173   4.066   9.755 -0.6552  0.7660 -0.8664
 2684SOL    HW219686   4.265   3.967   9.691  0.9212  0.5491  0.0697
 2685SOL     OW19687   1.567   4.294   4.192 -0.3782 -0.1281  0.5363
 2685SOL    HW119688   1.531   4.378   4.165 -1.7322 -0.7917  0.2271
 2685SOL    HW219689   1.662   4.295   4.189 -0.2059 -2.7341  4.3231
 2686SOL     OW19690   0.152   0.824   4.527  0.0621 -0.4550  0.5064
 2686SOL    HW119691   0.075   0.867   4.566 -1.0602 -0.4475 -1.6942
 2686SOL    HW219692   0.196   0.790   4.604 -0.2788 -1.7700  0.1213
 2687SOL     OW19693   4.155   4.277  15.857 -0.5111  0.3099  0.4657
 2687SOL    HW119694   4.213   4.200  15.857 -0.3874  0.4047 -1.1491
 2687SOL    HW219695   4.073   4.228  15.867 -0.7692  0.6959  0.2089
 2688SOL     OW19696   0.480   0.912   3.806  0.2009 -0.6281  0.5261
 2688SOL    HW119697   0.448   0.976   3.743  0.1711  0.3677  1.5567
 2688SOL    HW219698   0.470   0.965   3.885  0.7962 -1.1501  0.9492
 2689SOL     OW19699   1.127   2.562  13.229  0.3619 -0.1436  0.1983
 2689SOL    HW119700   1.044   2.598  13.262  1.3010  2.3071 -0.1033
 2689SOL    HW219701   1.115   2.584  13.136 -1.7087 -1.1908  0.2153
 2690SOL     OW19702   3.589   1.040   6.520 -0.2286  0.0688  0.4176
 2690SOL    HW119703   3.651   0.969   6.534  0.6324  0.8522  0.6111
 2690SOL    HW219704   3.537   1.049   6.600  1.4381  1.8820  1.3058
 2691SOL     OW19705   3.864   4.164   2.436  0.2865  0.2564 -0.3306
 2691SOL    HW119706   3.821   4.222   2.498  1.5223 -0.4431  1.1788
 2691SOL    HW219707   3.885   4.088   2.490 -1.4516 -0.9840 -1.4054
 2692SOL     OW19708   0.449   4.001   6.174  0.1777  0.0277  0.0733
 2692SOL    HW119709   0.397   4.067   6.128  0.8861 -0.4581 -1.4172
 2692SOL    HW219710   0.455   4.040   6.261  3.2803  0.6041 -0.3821
 2693SOL     OW19711   0.456   3.938   9.558 -0.0111 -0.3678  0.4688
 2693SOL    HW119712   0.427   3.932   9.649 -1.6985 -0.9895 -0.1081
 2693SOL    HW219713   0.383   3.981   9.514  0.2125 -1.2697 -0.7892
 2694SOL     OW19714   4.041   1.288   8.132 -0.0746 -0.1537  0.0933
 2694SOL    HW119715   4.103   1.220   8.108 -0.8926 -0.8945  0.0632
 2694SOL    HW219716   4.087   1.329   8.205 -0.3287  0.6155 -0.1743
 2695SOL     OW19717   4.342   3.763   1.418 -0.0932 -0.3100 -0.3935
 2695SOL    HW119718   4.280   3.807   1.476  0.2074 -0.4558  0.0353
 2695SOL    HW219719   4.353   3.829   1.350 -2.0147 -1.8103 -2.1879
 2696SOL     OW19720   2.649   2.039   2.393  0.0269 -0.1987 -0.3688
 2696SOL    HW119721   2.615   2.090   2.319  1.9557 -1.0048 -1.8031
 2696SOL    HW219722   2.671   2.103   2.460 -0.7882  0.9928 -1.2337
 2697SOL     OW19723   4.676   0.111   5.278 -0.0961 -0.6114 -0.6613
 2697SOL    HW119724   0.015   0.059   5.252  1.3079  1.7221 -1.2210
 2697SOL    HW219725   4.659   0.161   5.197  0.9515 -2.0473 -1.7559
 2698SOL     OW19726   0.407   0.234   3.578 -0.0580 -0.2685 -0.4052
 2698SOL    HW119727   0.414   0.301   3.647 -1.0295 -0.8663  0.2656
 2698SOL    HW219728   0.332   0.185   3.612 -0.4795 -0.1881 -1.2117
 2699SOL     OW19729   4.327   3.005   9.508  0.1661 -0.2223 -0.4222
 2699SOL    HW119730   4.304   3.053   9.587  1.3648 -2.3166  1.2116
 2699SOL    HW219731   4.340   3.081   9.451 -0.3196  1.7291  2.0709
 2700SOL     OW19732   2.641   1.396   4.903  0.4357  0.3774  0.5278
 2700SOL    HW119733   2.708   1.460   4.927  1.0730  0.6837 -2.0158
 2700SOL    HW219734   2.579   1.410   4.974  1.5626 -0.1004  1.6058
 2701SOL     OW19735   1.106   2.006   7.901  0.1295 -0.3582  0.1464
 2701SOL    HW119736   1.018   2.025   7.868  1.3183 -0.6467 -3.1342
 2701SOL    HW219737   1.156   2.017   7.821 -1.9745  0.7940 -1.0064
 2702SOL     OW19738   4.191   4.130   7.243  0.0964 -0.6898 -0.2720
 2702SOL    HW119739   4.254   4.060   7.226  1.7198  1.8197 -4.6893
 2702SOL    HW219740   4.149   4.145   7.158  1.4966  1.4257 -0.5977
 2703SOL     OW19741   3.059   4.646  11.452  0.2745 -0.3991  0.4056
 2703SOL    HW119742   3.049   4.580  11.520 -2.1148  0.5647  1.0045
 2703SOL    HW219743   3.096   4.718  11.504  0.0159 -1.3594  1.9147
 2704SOL     OW19744   4.463   2.023   2.511 -0.0579 -0.4240  0.8047
 2704SOL    HW119745   4.556   2.008   2.526 -0.3123 -4.0077 -1.2250
 2704SOL    HW219746   4.434   2.050   2.598 -0.8707 -0.6149  0.5954
 2705SOL     OW19747   1.792   4.211   2.162  0.3264  0.2117 -0.6894
 2705SOL    HW119748   1.837   4.138   2.118 -0.0887  0.4370 -1.4996
 2705SOL    HW219749   1.708   4.207   2.116  0.1356  0.7109 -0.3799
 2706SOL     OW19750   2.906   1.736  15.430 -0.2708 -0.4907  0.0853
 2706SOL    HW119751   2.980   1.793  15.410 -0.8206  1.5545  3.9233
 2706SOL    HW219752   2.904   1.758  15.523 -1.3876  0.9147 -0.2695
 2707SOL     OW19753   0.777   3.466   8.130 -0.5458  0.2807  0.2796
 2707SOL    HW119754   0.816   3.462   8.042 -2.9215 -0.7981 -0.7111
 2707SOL    HW219755   0.777   3.560   8.148  0.7538  0.0402  1.5083
 2708SOL     OW19756   1.234   1.908  13.058  0.0605  0.2655 -0.5916
 2708SOL    HW119757   1.154   1.856  13.071  1.3583 -0.9614  2.3776
 2708SOL    HW219758   1.297   1.839  13.039  2.8438  2.3105  1.3292
 2709SOL     OW19759   4.194   1.800   4.573  0.3974  0.3332 -0.1942
 2709SOL    HW119760   4.278   1.759   4.551 -0.3417 -2.5795  2.3804
 2709SOL    HW219761   4.221   1.854   4.647  0.5533 -0.5387  0.3923
 2710SOL     OW19762   0.664   2.904   4.565  0.7388 -0.1026 -0.4182
 2710SOL    HW119763   0.680   2.891   4.659 -1.2868  0.5025 -0.0048
 2710SOL    HW219764   0.654   2.813   4.535 -1.3388 -0.2525  0.7461
 2711SOL     OW19765   1.879   1.083   6.941  0.1419  0.1982  0.8087
 2711SOL    HW119766   1.973   1.075   6.927  0.3442  0.6790  1.9013
 2711SOL    HW219767   1.845   1.044   6.860  4.1767 -0.3663 -0.6238
 2712SOL     OW19768   1.777   0.667   4.263  0.2252  0.8051 -0.0323
 2712SOL    HW119769   1.739   0.643   4.179  1.5093 -0.4319 -0.2673
 2712SOL    HW219770   1.716   0.738   4.283 -0.1705  1.3098 -3.0509
 2713SOL     OW19771   3.725   3.232   2.034 -0.0569 -0.4132  0.0011
 2713SOL    HW119772   3.757   3.158   1.982  2.7968 -0.9155  2.4076
 2713SOL    HW219773   3.774   3.295   1.982 -2.2657  0.5574 -0.8890
 2714SOL     OW19774   2.252   3.269   8.147 -0.3107 -0.4665  0.1864
 2714SOL    HW119775   2.230   3.360   8.167 -0.4153 -0.5626  0.5028
 2714SOL    HW219776   2.188   3.249   8.079 -0.6565  2.5872 -0.4211
 2715SOL     OW19777   1.383   4.733  17.712  0.1382 -0.2705  0.3108
 2715SOL    HW119778   1.435   4.717  17.633 -2.0884  2.4499 -1.6839
 2715SOL    HW219779   1.383   0.091  17.700 -0.9329 -0.3967 -0.6050
 2716SOL     OW19780   1.177   2.012   4.657  0.3927  0.2741 -0.4211
 2716SOL    HW119781   1.130   2.033   4.576  0.8591  1.7140 -0.3233
 2716SOL    HW219782   1.110   2.044   4.717 -0.5513  0.0806 -1.3641
 2717SOL     OW19783   0.042   0.316   0.772 -0.1895  0.2460  0.0180
 2717SOL    HW119784   0.078   0.234   0.739  0.4244  0.9767 -1.1292
 2717SOL    HW219785   4.726   0.282   0.843 -2.0114  0.6424 -1.1613
 2718SOL     OW19786   3.070   2.689   2.286 -0.0459  0.1964  0.7218
 2718SOL    HW119787   3.129   2.679   2.211 -1.8511 -1.2633 -0.4976
 2718SOL    HW219788   3.061   2.597   2.312  0.4488 -0.4174 -1.2758
 2719SOL     OW19789   3.122   1.428   4.417  0.4450  0.7332 -0.1538
 2719SOL    HW119790   3.111   1.333   4.408 -0.1163  0.6360  1.6942
 2719SOL    HW219791   3.075   1.441   4.499  0.3796 -0.7280  0.0559
 2720SOL     OW19792   1.156   0.909  12.439 -0.6341  0.2271  0.4093
 2720SOL    HW119793   1.061   0.903  12.450 -0.6907 -0.6475 -0.5402
 2720SOL    HW219794   1.172   0.825  12.396  0.2245 -0.5080  2.1737
 2721SOL     OW19795   4.628   1.522   8.399  0.4685  0.1516  0.3217
 2721SOL    HW119796   4.624   1.595   8.338 -2.1363 -0.1844  0.0930
 2721SOL    HW219797   4.554   1.469   8.370 -0.1009  0.0609  1.9012
 2722SOL     OW19798   4.047   3.858   5.089  0.2779  0.2744 -0.4236
 2722SOL    HW119799   4.085   3.773   5.063  1.1695  1.0577 -1.6857
 2722SOL    HW219800   4.062   3.851   5.183  1.1272  0.9598 -0.5124
 2723SOL     OW19801   0.872   1.992   2.972 -0.6077 -1.1943  0.2059
 2723SOL    HW119802   0.807   1.967   2.906 -1.5481  1.1473  0.2657
 2723SOL    HW219803   0.930   1.916   2.980 -0.1557 -0.6647  1.8195
 2724SOL     OW19804   0.510   2.709   4.886 -0.0233  0.7109  0.1565
 2724SOL    HW119805   0.454   2.714   4.963  2.4041 -1.1408  2.0441
 2724SOL    HW219806   0.571   2.644   4.921  1.1081  1.3317 -0.6466
 2725SOL     OW19807   0.500   4.055  10.350 -0.2784 -0.6669 -0.0667
 2725SOL    HW119808   0.424   3.997  10.347 -1.0439  0.3741 -0.5161
 2725SOL    HW219809   0.490   4.115  10.276  2.6557 -0.7766 -0.5767
 2726SOL     OW19810   4.133   4.677   6.063 -1.0057 -0.4685  0.5122
 2726SOL    HW119811   4.090   4.622   5.996  2.1614 -0.4669 -1.5024
 2726SOL    HW219812   4.224   4.665   6.037 -1.7636 -0.7506 -2.1004
 2727SOL     OW19813   1.115   4.213   1.703 -0.4730 -0.1045  0.4372
 2727SOL    HW119814   1.024   4.186   1.708 -0.3897  0.1992  3.3124
 2727SOL    HW219815   1.153   4.130   1.729  1.5314  1.0068  1.0820
 2728SOL     OW19816   3.536   0.359   8.113  0.7769  0.1603 -0.1285
 2728SOL    HW119817   3.447   0.393   8.118  1.2950  1.1972  2.1989
 2728SOL    HW219818   3.573   0.420   8.050  1.3386 -1.3703 -1.2605
 2729SOL     OW19819   0.037   0.433   1.757 -0.4371 -0.1366  0.4401
 2729SOL    HW119820   0.109   0.495   1.746 -1.0541  0.7131  1.2038
 2729SOL    HW219821   4.706   0.494   1.727  0.2658 -0.2389 -1.3585
 2730SOL     OW19822   4.333   0.388   7.394 -0.4164  0.0478 -0.5346
 2730SOL    HW119823   4.376   0.382   7.480 -0.3242 -0.5034 -0.6150
 2730SOL    HW219824   4.404   0.404   7.333  0.1074  0.4599  0.1802
 2731SOL     OW19825   3.847   0.237  11.599 -0.1207 -0.2317 -0.6628
 2731SOL    HW119826   3.919   0.186  11.561  1.6417  0.6344  1.5257
 2731SOL    HW219827   3.809   0.282  11.524 -0.9230 -1.2448 -0.8714
 2732SOL     OW19828   4.708   3.531  15.118  0.4222 -0.2731  0.0781
 2732SOL    HW119829   4.658   3.572  15.189  0.6404 -1.1952  0.7612
 2732SOL    HW219830   4.734   3.445  15.151  0.3261 -0.1208  0.5471
 2733SOL     OW19831   1.265   0.629   6.145 -0.0110 -0.4518  0.3904
 2733SOL    HW119832   1.264   0.533   6.155 -0.4191 -0.4627  0.2367
 2733SOL    HW219833   1.215   0.649   6.066  1.4650 -1.9374 -0.9138
 2734SOL     OW19834   1.056   3.833   7.609  0.3199 -0.0130  0.0031
 2734SOL    HW119835   1.045   3.896   7.680  0.5563 -1.1850  1.0785
 2734SOL    HW219836   1.141   3.846   7.566  1.1117 -1.2434  1.1997
 2735SOL     OW19837   1.666   2.114   7.564  0.0180  0.5084 -0.1765
 2735SOL    HW119838   1.741   2.092   7.509  1.0015  0.6386  1.1131
 2735SOL    HW219839   1.660   2.045   7.630  1.8052  0.6518  0.1167
 2736SOL     OW19840   2.047   0.734   6.009  0.2721  0.0064 -0.3884
 2736SOL    HW119841   2.006   0.805   6.058 -0.6419 -1.1763  0.5474
 2736SOL    HW219842   2.026   0.774   5.924 -1.8342 -1.9951 -0.8112
 2737SOL     OW19843   3.061   2.798   7.836  0.2852  0.3084 -0.0993
 2737SOL    HW119844   3.117   2.844   7.773 -0.9607  0.7267 -0.9177
 2737SOL    HW219845   2.973   2.820   7.806 -0.2083  1.0980  1.9244
 2738SOL     OW19846   0.563   2.831   6.467 -0.0586  0.4415 -0.2589
 2738SOL    HW119847   0.624   2.836   6.541  1.9620  1.3964 -1.9894
 2738SOL    HW219848   0.523   2.918   6.475 -0.5021  0.1707  0.4309
 2739SOL     OW19849   3.532   2.999   8.580  0.1028 -0.0509 -0.2703
 2739SOL    HW119850   3.618   3.025   8.548  0.6248 -0.7485  0.5670
 2739SOL    HW219851   3.492   2.964   8.500  0.1785  0.8358 -0.6927
 2740SOL     OW19852   3.217   1.299   6.181 -0.5511  0.0178 -0.0257
 2740SOL    HW119853   3.163   1.361   6.230  0.1221  1.1855 -0.7625
 2740SOL    HW219854   3.295   1.304   6.237  0.7757  1.5328 -2.0062
 2741SOL     OW19855   1.788   0.152   1.641 -0.1073  0.1118 -0.2165
 2741SOL    HW119856   1.798   0.067   1.598  0.4329 -0.7934  1.7058
 2741SOL    HW219857   1.697   0.158   1.669 -0.3218  0.1988 -0.9361
 2742SOL     OW19858   1.561   1.802   4.452 -0.2392  0.1725  0.4797
 2742SOL    HW119859   1.627   1.869   4.437 -0.6656  0.6610  0.8001
 2742SOL    HW219860   1.525   1.834   4.535 -2.2072 -2.8059  0.7943
 2743SOL     OW19861   2.213   3.592   6.843 -0.5742  0.2647  0.1570
 2743SOL    HW119862   2.175   3.634   6.767  2.5270  3.2754  0.3009
 2743SOL    HW219863   2.202   3.657   6.912  0.1970  0.8058 -0.2346
 2744SOL     OW19864   2.458   0.848   8.979  0.6616  0.0421 -0.9646
 2744SOL    HW119865   2.547   0.880   8.968  0.8867 -0.9506 -2.0006
 2744SOL    HW219866   2.435   0.874   9.069 -0.5509  0.5421 -1.4249
 2745SOL     OW19867   3.091   4.272   3.130  0.1770 -0.0401  0.0692
 2745SOL    HW119868   3.029   4.321   3.075 -0.2168 -2.9339 -2.0459
 2745SOL    HW219869   3.123   4.353   3.171 -0.0437 -0.0864  0.3341
 2746SOL     OW19870   3.494   3.840   7.074 -0.5835  0.0022  0.0640
 2746SOL    HW119871   3.486   3.918   7.019 -0.6983  0.6651  1.0229
 2746SOL    HW219872   3.446   3.872   7.150 -0.1168 -2.0110  1.2100
 2747SOL     OW19873   4.659   2.937   1.760 -0.6408 -0.0992  0.2693
 2747SOL    HW119874   4.693   3.026   1.749 -0.3586 -0.3419 -0.7951
 2747SOL    HW219875   4.682   2.930   1.852 -1.0219 -0.1246  0.3643
 2748SOL     OW19876   2.380   0.538   4.238  0.0043  0.3861 -0.3654
 2748SOL    HW119877   2.411   0.617   4.193  0.5434 -1.0764 -2.5392
 2748SOL    HW219878   2.372   0.565   4.330  1.0144  2.0458 -0.7650
 2749SOL     OW19879   3.350   1.423   8.291 -0.2583 -0.5726 -0.3856
 2749SOL    HW119880   3.404   1.467   8.356  0.1538  0.5705 -1.5067
 2749SOL    HW219881   3.372   1.476   8.215  2.2873 -1.0817 -0.0230
 2750SOL     OW19882   4.072   0.799   9.007 -0.1765  0.1103  0.2350
 2750SOL    HW119883   4.160   0.805   9.042  0.6254 -0.8156 -1.5801
 2750SOL    HW219884   4.062   0.709   9.039 -1.5591  0.0935 -0.2375
 2751SOL     OW19885   3.023   1.316  11.866  0.0090  0.4005  0.0926
 2751SOL    HW119886   2.966   1.352  11.934  1.1498 -1.2191  1.9173
 2751SOL    HW219887   3.055   1.235  11.907 -0.4132 -0.4891 -1.3191
 2752SOL     OW19888   4.502   0.903  15.543  0.3299 -0.5384  0.2055
 2752SOL    HW119889   4.421   0.879  15.589 -0.1467 -2.8250 -1.8725
 2752SOL    HW219890   4.538   0.815  15.532 -0.2517 -0.7897  0.2605
 2753SOL     OW19891   4.147   0.573  16.464  0.6272  0.1126 -0.2011
 2753SOL    HW119892   4.089   0.640  16.500 -1.6252 -2.3594  0.7635
 2753SOL    HW219893   4.085   0.499  16.465  0.9881 -0.2379 -3.0530
 2754SOL     OW19894   3.255   4.386  10.472 -0.0885 -0.3206 -0.2821
 2754SOL    HW119895   3.220   4.358  10.557  0.7553 -2.1055 -0.5124
 2754SOL    HW219896   3.183   4.365  10.412 -1.4711 -1.7460  1.8604
 2755SOL     OW19897   3.282   3.482   5.734 -0.3099 -0.1824 -0.5444
 2755SOL    HW119898   3.331   3.408   5.770  1.3907  0.1598 -2.1729
 2755SOL    HW219899   3.291   3.469   5.639 -0.1067 -0.5946 -0.4667
 2756SOL     OW19900   4.696   4.704  16.202 -0.2360 -0.5612  0.0349
 2756SOL    HW119901   4.607   4.693  16.169 -0.7755 -0.0882  1.3012
 2756SOL    HW219902   0.002   0.010  16.129  0.8678 -2.3564 -0.3680
 2757SOL     OW19903   1.336   4.372   4.001 -0.1741 -0.7972 -0.3289
 2757SOL    HW119904   1.315   4.400   4.090  1.0369  1.1974 -0.6674
 2757SOL    HW219905   1.375   4.453   3.968 -1.2101 -0.4157 -0.6169
 2758SOL     OW19906   2.527   2.352   1.564 -0.0345 -0.4589 -0.5300
 2758SOL    HW119907   2.442   2.370   1.604 -0.0346  0.8679 -1.1141
 2758SOL    HW219908   2.558   2.276   1.613 -0.8069 -0.2560  0.2799
 2759SOL     OW19909   4.455   2.096   5.140 -0.2486  0.0305  0.2298
 2759SOL    HW119910   4.532   2.096   5.197  0.3480 -0.4142 -0.5592
 2759SOL    HW219911   4.435   2.185   5.112  1.9952  0.3292 -0.3962
 2760SOL     OW19912   4.723   0.632   3.554  0.2356  0.0836  0.3790
 2760SOL    HW119913   0.039   0.602   3.628 -1.2996  1.4620  2.0343
 2760SOL    HW219914   4.662   0.562   3.535 -0.7111  1.3751 -1.3647
 2761SOL     OW19915   2.242   4.368   7.740 -0.6165 -0.6131 -0.1695
 2761SOL    HW119916   2.174   4.399   7.680 -0.8843  1.3686  1.1754
 2761SOL    HW219917   2.228   4.423   7.817 -2.2956 -0.3274 -0.6895
 2762SOL     OW19918   2.746   1.129   8.632  0.3519 -0.6769 -0.2622
 2762SOL    HW119919   2.737   1.117   8.538  0.4754 -0.6788 -0.2739
 2762SOL    HW219920   2.672   1.075   8.662 -0.3913  0.5514  0.1273
 2763SOL     OW19921   0.541   3.164   3.272 -0.2675 -0.7090 -0.3782
 2763SOL    HW119922   0.569   3.236   3.215 -0.9541 -0.7848 -0.8184
 2763SOL    HW219923   0.488   3.207   3.340  1.2870  1.1809 -0.3736
 2764SOL     OW19924   4.534   4.433   8.573  0.3288 -0.5335 -0.3048
 2764SOL    HW119925   4.471   4.375   8.529  0.7917 -1.1719 -0.1267
 2764SOL    HW219926   4.608   4.418   8.515  0.4069  2.0823 -0.8781
 2765SOL     OW19927   3.193   4.141  16.450  0.3761  0.6654 -0.0565
 2765SOL    HW119928   3.220   4.208  16.387 -0.7790 -0.1905 -1.4504
 2765SOL    HW219929   3.157   4.068  16.400  1.1902  0.1157  0.1642
 2766SOL     OW19930   2.087   4.426   8.673  0.4537 -0.1406  1.0209
 2766SOL    HW119931   2.093   4.361   8.603  1.2189  1.1825 -0.1190
 2766SOL    HW219932   1.997   4.451   8.651 -0.0635 -1.1819  1.9019
 2767SOL     OW19933   0.976   0.079   7.147  0.4566  0.2501 -0.1007
 2767SOL    HW119934   0.934   0.019   7.210 -0.7960  1.2781  0.0344
 2767SOL    HW219935   0.925   0.158   7.163  0.5179  0.6836 -2.0666
 2768SOL     OW19936   1.018   1.438   5.641  0.0653  0.0309  0.1231
 2768SOL    HW119937   1.041   1.375   5.573 -0.5170  1.2798 -1.2280
 2768SOL    HW219938   1.094   1.446   5.700 -1.5418 -3.2338  2.6410
 2769SOL     OW19939   0.011   4.183   9.452  0.0776  0.4745  0.3967
 2769SOL    HW119940   0.014   4.207   9.359 -0.7028  1.3769  0.6048
 2769SOL    HW219941   4.696   4.253   9.491  0.2192  1.3442 -1.0029
 2770SOL     OW19942   4.251   2.064  10.051 -0.7099  0.3651  0.0726
 2770SOL    HW119943   4.305   2.092  10.125  1.4634 -0.3022 -1.2584
 2770SOL    HW219944   4.207   2.141  10.018  1.5477  1.4776 -0.3681
 2771SOL     OW19945   0.914   0.331   0.510 -0.0630  0.1459  0.6591
 2771SOL    HW119946   0.861   0.411   0.518 -0.3652  0.1122 -0.9680
 2771SOL    HW219947   0.999   0.369   0.486  0.1275 -0.0006  1.1027
 2772SOL     OW19948   2.570   3.211   7.108 -0.1546 -0.1311  0.6054
 2772SOL    HW119949   2.474   3.214   7.107 -0.2193 -1.4173  1.5392
 2772SOL    HW219950   2.585   3.304   7.125 -1.4431  0.6483 -2.5122
 2773SOL     OW19951   0.301   3.460   3.298 -0.1769 -0.6808  0.5640
 2773SOL    HW119952   0.323   3.463   3.205  1.8816  0.4845  1.0951
 2773SOL    HW219953   0.223   3.405   3.294 -0.2065 -0.7996  2.5482
 2774SOL     OW19954   4.128   4.436   3.549 -0.2289  0.4912 -0.2902
 2774SOL    HW119955   4.059   4.459   3.487 -0.0515  1.8045  0.0003
 2774SOL    HW219956   4.188   4.507   3.527 -0.4263  0.7009 -0.1399
 2775SOL     OW19957   2.840   2.147   4.144  0.0035  0.2764  0.5262
 2775SOL    HW119958   2.854   2.212   4.212 -0.6006  0.5449  0.3980
 2775SOL    HW219959   2.772   2.094   4.186 -0.3066  0.0015 -0.3170
 2776SOL     OW19960   3.608   3.003   4.552  0.0520 -0.0223 -0.3777
 2776SOL    HW119961   3.543   2.966   4.493  1.5150 -0.5376 -1.6897
 2776SOL    HW219962   3.694   2.993   4.509  0.6801 -0.0632  0.8847
 2777SOL     OW19963   4.204   4.489  15.666  0.1138 -0.5406  0.4695
 2777SOL    HW119964   4.162   4.419  15.716 -1.3184 -0.6004 -0.8302
 2777SOL    HW219965   4.297   4.471  15.655  0.1873  0.1078  0.0400
 2778SOL     OW19966   4.066   1.818   3.564 -0.2693  0.6392 -0.7877
 2778SOL    HW119967   4.102   1.905   3.543  1.3592  0.2415  0.3483
 2778SOL    HW219968   3.978   1.840   3.597 -0.3928 -1.6855  0.3899
 2779SOL     OW19969   1.544   1.361   2.327 -0.0002 -0.0359 -0.2970
 2779SOL    HW119970   1.478   1.416   2.287 -0.1843  0.1299  0.2418
 2779SOL    HW219971   1.618   1.395   2.277  0.3621 -1.6929 -0.9080
 2780SOL     OW19972   1.704   0.004   2.837  0.0443  0.2289 -0.6657
 2780SOL    HW119973   1.656   4.680   2.781  0.5179 -0.1096 -0.6995
 2780SOL    HW219974   1.782   0.019   2.783  0.9792  0.6459  0.8013
 2781SOL     OW19975   1.391   3.205  12.155  0.6195 -0.4642  0.2431
 2781SOL    HW119976   1.463   3.144  12.170  0.7312 -0.1214  1.0826
 2781SOL    HW219977   1.317   3.148  12.176 -0.7726  0.1353 -2.8755
 2782SOL     OW19978   1.672   1.132   1.661  0.0641  0.5928 -0.7727
 2782SOL    HW119979   1.749   1.154   1.713 -0.2210 -0.4772  0.0992
 2782SOL    HW219980   1.661   1.203   1.597 -1.8731  0.5068 -0.5245
 2783SOL     OW19981   4.382   1.650   9.340  0.0509 -0.0168  0.2811
 2783SOL    HW119982   4.411   1.587   9.406  0.8066 -0.6939 -0.6983
 2783SOL    HW219983   4.396   1.725   9.398 -0.2573  1.2300 -1.2902
 2784SOL     OW19984   0.010   4.443  12.714 -0.2046 -0.1828 -0.2798
 2784SOL    HW119985   0.038   4.354  12.736 -1.3905 -0.2032  1.1293
 2784SOL    HW219986   0.098   4.472  12.689 -0.8825 -0.0896 -2.5704
 2785SOL     OW19987   3.819   2.653   6.555 -0.2622 -0.2071 -0.1539
 2785SOL    HW119988   3.749   2.670   6.492  1.6348  0.7582 -2.0019
 2785SOL    HW219989   3.899   2.691   6.519 -0.2216  1.4314  1.6379
 2786SOL     OW19990   3.796   1.694   6.248 -0.1227 -0.0139 -0.3725
 2786SOL    HW119991   3.756   1.681   6.334  1.3693  1.2063  0.5115
 2786SOL    HW219992   3.779   1.615   6.197  0.2133 -0.2984 -0.0417
 2787SOL     OW19993   0.773   2.064   8.411 -0.3295  0.3300  0.7576
 2787SOL    HW119994   0.855   2.110   8.394  0.4079 -0.8419  1.1373
 2787SOL    HW219995   0.808   1.983   8.448  0.3236 -0.2033 -0.9945
 2788SOL     OW19996   3.414   3.218   4.905 -0.0679  0.1136 -0.4579
 2788SOL    HW119997   3.432   3.290   4.845 -2.0552  0.1745 -0.9667
 2788SOL    HW219998   3.394   3.147   4.844 -1.5403  0.8574 -0.8299
 2789SOL     OW19999   1.282   2.614   3.220 -0.3595 -0.0134  0.2365
 2789SOL    HW120000   1.298   2.524   3.248  0.9826  0.4291  0.8702
 2789SOL    HW220001   1.373   2.640   3.230 -1.6946  4.7141  0.2409
 2790SOL     OW20002   2.731   2.777   9.527 -0.3484 -0.4286 -0.0833
 2790SOL    HW120003   2.643   2.782   9.487  0.4029  1.4868 -1.4988
 2790SOL    HW220004   2.728   2.844   9.595  1.0995 -0.5195  0.0587
 2791SOL     OW20005   3.860   4.168   5.970 -0.4752 -0.0795  0.4643
 2791SOL    HW120006   3.780   4.210   5.939  1.6962  1.5775 -2.9637
 2791SOL    HW220007   3.924   4.212   5.914 -2.5298  1.6631 -0.5049
 2792SOL     OW20008   0.858   1.790  13.554  0.1165  0.0258  0.4170
 2792SOL    HW120009   0.838   1.883  13.549  0.8147  0.2850  2.3665
 2792SOL    HW220010   0.893   1.770  13.467  1.1654  0.6906  0.6867
 2793SOL     OW20011   0.355   3.237   2.464  0.0508  0.1228  0.1394
 2793SOL    HW120012   0.294   3.186   2.518  0.4675 -1.5189 -0.9274
 2793SOL    HW220013   0.391   3.293   2.533 -1.3540 -0.3509  1.2587
 2794SOL     OW20014   3.904   2.133   7.378  0.2708  0.1130 -0.1174
 2794SOL    HW120015   3.879   2.141   7.470 -2.5792  1.1517 -0.9725
 2794SOL    HW220016   3.982   2.189   7.375 -0.3591  1.0212  0.5253
 2795SOL     OW20017   2.377   1.496   3.469 -0.1730 -0.4026 -0.3447
 2795SOL    HW120018   2.360   1.526   3.558 -0.1342 -2.0760  0.2351
 2795SOL    HW220019   2.444   1.428   3.475 -0.0049  0.0431  2.4657
 2796SOL     OW20020   3.667   3.841  16.242 -0.2190  0.6771 -0.1178
 2796SOL    HW120021   3.758   3.815  16.252 -0.0034  2.0523  1.5051
 2796SOL    HW220022   3.679   3.932  16.268  0.8046  0.5766 -0.2325
 2797SOL     OW20023   2.339   0.174   5.702  0.2832 -0.3902  0.2172
 2797SOL    HW120024   2.297   0.202   5.784 -0.8267 -0.2780 -0.3981
 2797SOL    HW220025   2.378   0.093   5.734 -1.4237 -1.8332 -1.4214
 2798SOL     OW20026   4.003   0.691   6.867 -0.1459 -0.1867 -0.3825
 2798SOL    HW120027   3.974   0.678   6.777  2.0988  1.7643 -1.3823
 2798SOL    HW220028   3.940   0.755   6.900  1.0332 -0.2300  1.9484
 2799SOL     OW20029   3.461   2.055   2.551  0.6531 -0.3112  0.0987
 2799SOL    HW120030   3.477   2.014   2.636  3.7941  0.3830 -0.1385
 2799SOL    HW220031   3.461   2.147   2.579  0.2480  0.0919 -1.2191
 2800SOL     OW20032   3.042   2.195   5.826  0.2433  0.1534 -0.2984
 2800SOL    HW120033   3.090   2.259   5.773 -0.1268  0.4782 -0.2402
 2800SOL    HW220034   3.053   2.232   5.913  0.2192  0.5455 -0.4588
 2801SOL     OW20035   4.090   1.712  11.859  0.1151  0.1234  0.3889
 2801SOL    HW120036   4.062   1.647  11.794  1.0164  1.0488 -0.9157
 2801SOL    HW220037   4.146   1.661  11.918 -1.3437 -1.2110  0.6285
 2802SOL     OW20038   3.123   0.149   8.169  0.4831 -0.4969 -0.1123
 2802SOL    HW120039   3.120   0.242   8.191  0.3936 -0.7167  0.8153
 2802SOL    HW220040   3.165   0.110   8.246  1.0385 -1.3987 -0.8761
 2803SOL     OW20041   0.678   1.647   1.802 -0.6509 -0.5632  0.0527
 2803SOL    HW120042   0.586   1.633   1.823 -0.6177 -0.2821  0.3841
 2803SOL    HW220043   0.699   1.574   1.744 -0.3308  1.1019 -1.9523
 2804SOL     OW20044   4.512   3.248   3.837  0.1524  0.4199  0.3213
 2804SOL    HW120045   4.554   3.327   3.870  1.4992  0.0010 -0.3977
 2804SOL    HW220046   4.529   3.257   3.744  2.5568 -0.4390  0.6711
 2805SOL     OW20047   3.836   2.630   2.584 -0.2644  0.6810 -0.0864
 2805SOL    HW120048   3.912   2.668   2.540 -0.5398  2.0441  0.5909
 2805SOL    HW220049   3.855   2.655   2.675  1.6870  1.1362 -0.6245
 2806SOL     OW20050   4.250   4.578   2.579  0.8280  0.1680 -0.1801
 2806SOL    HW120051   4.240   4.495   2.533  0.2475 -0.2394  0.6985
 2806SOL    HW220052   4.346   4.573   2.587  0.6159 -0.0384  2.2661
 2807SOL     OW20053   0.155   0.998   8.268  0.0463 -0.2087  0.0723
 2807SOL    HW120054   0.192   1.015   8.355  1.2002 -1.1343 -0.2435
 2807SOL    HW220055   0.227   0.946   8.234  0.7495  0.2727  0.8347
 2808SOL     OW20056   3.940   1.465   7.953 -0.2385  0.2672 -0.1791
 2808SOL    HW120057   4.027   1.465   7.912 -1.0135  3.7391 -1.8308
 2808SOL    HW220058   3.937   1.390   8.013 -1.3110 -0.2649 -0.9026
 2809SOL     OW20059   0.363   3.820   8.885 -0.3028 -0.5100  0.5678
 2809SOL    HW120060   0.440   3.773   8.853 -1.7710  0.4298 -4.3834
 2809SOL    HW220061   0.411   3.902   8.901 -0.7249  0.4054 -2.8203
 2810SOL     OW20062   4.384   2.325   7.885  0.1383 -0.2671  0.3876
 2810SOL    HW120063   4.318   2.361   7.825  1.1919  0.5405 -0.2922
 2810SOL    HW220064   4.333   2.275   7.948 -1.8472  0.4856 -0.6022
 2811SOL     OW20065   1.440   2.018   6.521 -0.2233  0.7052 -0.6686
 2811SOL    HW120066   1.468   2.108   6.503  0.4616  0.8690  1.2121
 2811SOL    HW220067   1.498   1.983   6.453  0.3098  1.1826 -0.4605
 2812SOL     OW20068   1.064   3.989   7.882 -0.0764  0.2144  0.2693
 2812SOL    HW120069   1.068   4.077   7.845  2.6655 -0.5578 -1.2892
 2812SOL    HW220070   1.133   3.985   7.949  1.0688  1.7971 -0.8018
 2813SOL     OW20071   2.856   1.530  11.316  0.3536  0.1422 -0.1083
 2813SOL    HW120072   2.846   1.605  11.257  0.4675 -0.1653 -0.5181
 2813SOL    HW220073   2.781   1.480  11.284 -1.8051  1.7251  2.5122
 2814SOL     OW20074   4.055   2.546  11.136  0.2757  0.3997  0.1092
 2814SOL    HW120075   4.044   2.482  11.206  1.5376 -1.0056 -0.9942
 2814SOL    HW220076   4.104   2.616  11.180  0.4196  1.4732 -1.7701
 2815SOL     OW20077   1.095   1.020   6.509  0.2518 -0.1866  0.1882
 2815SOL    HW120078   1.123   0.929   6.497 -0.6508 -0.3775 -0.4536
 2815SOL    HW220079   1.012   1.011   6.555  0.5936 -1.0767  0.6212
 2816SOL     OW20080   4.597   1.121   3.508 -0.2720  0.4279  0.4596
 2816SOL    HW120081   4.616   1.047   3.451 -0.9051 -1.3990  2.6586
 2816SOL    HW220082   4.681   1.122   3.553 -0.6264  1.2116  1.1031
 2817SOL     OW20083   3.372   1.045   4.720 -0.3131  0.1440  0.0370
 2817SOL    HW120084   3.413   1.006   4.797 -1.1032  1.3812  1.0842
 2817SOL    HW220085   3.330   1.123   4.757  1.0041  0.2986  1.2227
 2818SOL     OW20086   1.059   2.497   7.322 -0.8303 -0.0793 -0.6477
 2818SOL    HW120087   1.014   2.519   7.241  0.1319  1.2403 -0.8400
 2818SOL    HW220088   0.987   2.470   7.380 -0.6319  0.2758 -0.2274
 2819SOL     OW20089   4.123   4.006  12.323 -0.0665 -0.2101 -0.0159
 2819SOL    HW120090   4.216   4.025  12.314 -0.1622 -0.2337 -1.1718
 2819SOL    HW220091   4.138   3.955  12.402  2.1234  0.8223  0.2333
 2820SOL     OW20092   1.916   3.939   2.239  0.1566  0.2446  0.0660
 2820SOL    HW120093   1.953   3.977   2.318 -2.1684  1.0531  0.7526
 2820SOL    HW220094   1.873   3.865   2.282  1.5134 -1.2117 -1.0460
 2821SOL     OW20095   1.887   3.717   4.268  0.0152  0.3403  0.7059
 2821SOL    HW120096   1.843   3.666   4.199 -0.0715  1.3231  0.0325
 2821SOL    HW220097   1.971   3.672   4.272 -0.2159 -0.1098  0.4805
 2822SOL     OW20098   1.971   3.739   1.973 -0.2087 -0.2046  0.5215
 2822SOL    HW120099   1.955   3.678   1.901  1.6817 -0.8127  0.6125
 2822SOL    HW220100   2.045   3.691   2.012  1.1404 -0.3069 -2.1989
 2823SOL     OW20101   4.058   1.584   6.709 -0.1789  0.4351  0.2760
 2823SOL    HW120102   3.985   1.632   6.672 -0.8128 -0.6836  0.0788
 2823SOL    HW220103   4.089   1.654   6.766 -1.0057  0.3027  0.8882
 2824SOL     OW20104   1.548   4.444   3.374 -0.0629  0.3250 -0.2456
 2824SOL    HW120105   1.599   4.385   3.318 -0.3178 -0.3889  0.2736
 2824SOL    HW220106   1.550   4.522   3.318  0.8604  0.3116 -0.2329
 2825SOL     OW20107   2.898   1.061   1.237  0.2645  0.0934 -0.2017
 2825SOL    HW120108   2.865   1.132   1.181  0.5981 -0.4357 -1.0706
 2825SOL    HW220109   2.919   1.000   1.166 -1.3070 -0.4436 -0.1880
 2826SOL     OW20110   2.315   2.047   2.320  0.3012 -0.4573 -0.8379
 2826SOL    HW120111   2.355   2.127   2.355  0.8676 -1.2828  0.3857
 2826SOL    HW220112   2.276   2.006   2.397 -1.6711  2.3002 -0.3590
 2827SOL     OW20113   0.543   2.648   7.020  0.0954  0.3956  0.4753
 2827SOL    HW120114   0.581   2.592   7.088 -0.5355  0.2164  0.6861
 2827SOL    HW220115   0.610   2.716   7.017 -0.6458  1.1641  1.0307
 2828SOL     OW20116   4.114   1.005   2.990  0.1335 -0.1049  0.1872
 2828SOL    HW120117   4.033   0.962   2.961 -0.5818  2.8857 -2.2687
 2828SOL    HW220118   4.118   0.959   3.073  2.6173 -2.1801 -1.0868
 2829SOL     OW20119   2.787   1.881   6.085  0.0986  0.2645  0.0758
 2829SOL    HW120120   2.844   1.895   6.160  1.7763 -1.1501 -0.9411
 2829SOL    HW220121   2.779   1.969   6.050  1.1895  1.1011  1.9395
 2830SOL     OW20122   4.289   1.100   8.887 -0.6890 -0.1348 -0.1817
 2830SOL    HW120123   4.229   1.044   8.837 -0.2755  0.1214 -0.9752
 2830SOL    HW220124   4.236   1.131   8.959 -0.7348 -1.3802  0.3232
 2831SOL     OW20125   4.557   2.855   5.429 -0.1344  0.3019 -0.3716
 2831SOL    HW120126   4.644   2.821   5.412  0.1518  0.6374  0.4088
 2831SOL    HW220127   4.558   2.940   5.384 -0.1710  0.7018  0.3744
 2832SOL     OW20128   0.065   2.881   4.513 -0.1927 -0.0004 -0.0879
 2832SOL    HW120129   0.146   2.868   4.463 -0.3243  0.7337 -0.4786
 2832SOL    HW220130   0.099   2.863   4.601 -0.4390 -0.1692 -0.0255
 2833SOL     OW20131   0.331   2.733   7.553 -0.5369  0.7619 -0.1988
 2833SOL    HW120132   0.319   2.750   7.460  1.2430  0.1368 -0.5310
 2833SOL    HW220133   0.376   2.809   7.589 -0.0192  0.4441 -0.1835
 2834SOL     OW20134   2.208   2.421   3.055  0.1933 -0.0822 -0.4016
 2834SOL    HW120135   2.259   2.494   3.088  1.1375 -1.6149  1.5359
 2834SOL    HW220136   2.133   2.464   3.015 -0.6660 -1.2666 -0.0600
 2835SOL     OW20137   1.758   4.107  14.212  0.2138 -0.0033 -0.1405
 2835SOL    HW120138   1.724   4.069  14.293 -0.5769 -0.4500 -0.6804
 2835SOL    HW220139   1.842   4.141  14.242  0.1239 -1.3155  1.5854
 2836SOL     OW20140   4.064   1.052   6.357  0.5957 -0.1124  0.0883
 2836SOL    HW120141   4.128   1.114   6.393  0.6931 -1.1217  1.6428
 2836SOL    HW220142   4.098   0.964   6.374 -1.1473 -1.1248 -1.6834
 2837SOL     OW20143   2.664   2.590   0.538  0.4508 -0.4289  0.1985
 2837SOL    HW120144   2.666   2.622   0.628  0.0068  3.1654 -1.0904
 2837SOL    HW220145   2.588   2.625   0.492  0.8996 -2.5846 -2.1771
 2838SOL     OW20146   2.722   0.413   2.905  0.3369  0.4812 -0.8432
 2838SOL    HW120147   2.764   0.458   2.978  1.6737 -1.1022 -0.6360
 2838SOL    HW220148   2.793   0.355   2.877  0.3603  0.2597 -0.3254
 2839SOL     OW20149   3.082   3.631  12.742  0.4301  0.5623 -0.1603
 2839SOL    HW120150   3.167   3.633  12.697  0.5722  2.6346  0.2277
 2839SOL    HW220151   3.098   3.592  12.827  2.0364  0.1935 -0.6370
 2840SOL     OW20152   3.094   3.604  16.010  0.7268 -0.1140  0.5535
 2840SOL    HW120153   3.135   3.681  16.050  1.1402 -0.7358  1.3094
 2840SOL    HW220154   3.078   3.644  15.924  0.8194 -2.6791 -0.6621
 2841SOL     OW20155   4.303   4.428   9.488 -0.1113 -0.3138 -0.5139
 2841SOL    HW120156   4.291   4.435   9.583  1.8991 -0.9457 -0.2040
 2841SOL    HW220157   4.375   4.365   9.493 -0.4684 -0.6682  0.1522
 2842SOL     OW20158   3.091   1.097   6.043 -0.1722  0.5191 -0.1335
 2842SOL    HW120159   3.162   1.040   6.013 -1.0965 -0.7257  0.0268
 2842SOL    HW220160   3.147   1.165   6.080  0.2576  0.3968 -0.5642
 2843SOL     OW20161   0.519   1.474   6.691  0.5940  0.0898 -0.0388
 2843SOL    HW120162   0.500   1.563   6.722 -0.9457 -0.4526  0.5637
 2843SOL    HW220163   0.613   1.466   6.705  0.4841  2.1650  1.9685
 2844SOL     OW20164   3.062   0.034   5.868  0.2488  0.0427 -0.8895
 2844SOL    HW120165   3.152   0.007   5.848  2.0107  4.9848  0.2170
 2844SOL    HW220166   3.030   0.018   5.779  2.2526 -2.7226 -1.1186
 2845SOL     OW20167   3.644   2.473   3.151 -0.2595 -0.1386  0.2494
 2845SOL    HW120168   3.707   2.472   3.080 -0.0344  0.3145  0.4460
 2845SOL    HW220169   3.689   2.423   3.219  0.4276  1.6238  1.0902
 2846SOL     OW20170   3.093   3.068   4.189  0.4113 -0.3901  0.0831
 2846SOL    HW120171   3.175   3.021   4.206  0.2499  0.2589  2.7412
 2846SOL    HW220172   3.124   3.132   4.125  0.3965 -2.5012 -2.0367
 2847SOL     OW20173   1.183   3.201   5.747 -0.1491 -0.1568 -0.4693
 2847SOL    HW120174   1.202   3.279   5.696 -1.0588  0.8116  0.6773
 2847SOL    HW220175   1.209   3.137   5.680  0.1574 -0.8333  0.2986
 2848SOL     OW20176   3.626   0.807   1.663  0.5749 -0.5374 -0.4530
 2848SOL    HW120177   3.566   0.752   1.714  2.7601 -1.1493  1.4924
 2848SOL    HW220178   3.702   0.800   1.721  0.2818 -0.7641 -0.0909
 2849SOL     OW20179   4.375   4.673   5.957 -0.0097 -0.1767  0.0575
 2849SOL    HW120180   4.358   4.675   5.862 -1.5426 -1.5678  0.2931
 2849SOL    HW220181   4.470   4.659   5.961 -0.1045 -1.1478 -1.0474
 2850SOL     OW20182   1.218   0.747   1.492  0.0160  0.4698  0.4906
 2850SOL    HW120183   1.139   0.799   1.504 -0.7541 -0.5314 -0.2940
 2850SOL    HW220184   1.241   0.752   1.399  2.4813 -1.4025  0.9873
 2851SOL     OW20185   3.437   1.069   7.912  0.1999  0.8760  0.0929
 2851SOL    HW120186   3.515   1.066   7.857  0.5840  1.8049  0.5934
 2851SOL    HW220187   3.474   1.082   7.999 -1.0778  1.1493  0.6035
 2852SOL     OW20188   0.762   0.170   5.849 -0.8219  0.0253 -0.2719
 2852SOL    HW120189   0.735   0.088   5.889  0.6363  0.4726  1.6330
 2852SOL    HW220190   0.680   0.213   5.828  0.6316  1.8693 -2.2497
 2853SOL     OW20191   2.775   4.236   5.736  0.8930 -0.0650  0.2168
 2853SOL    HW120192   2.846   4.173   5.723  0.4037  0.1173 -3.4170
 2853SOL    HW220193   2.828   4.280   5.802  1.0164 -0.7897  0.6090
 2854SOL     OW20194   0.979   0.848  11.123  0.2197  0.1380 -0.2266
 2854SOL    HW120195   0.931   0.819  11.200  0.5142  1.8142  0.5853
 2854SOL    HW220196   0.994   0.763  11.080 -2.5275  0.9890 -2.8823
 2855SOL     OW20197   1.169   3.916   9.328  0.2601 -0.4823 -0.0521
 2855SOL    HW120198   1.259   3.947   9.337 -0.4317  0.8753  2.1702
 2855SOL    HW220199   1.121   3.999   9.325  3.4830  1.4286  0.9757
 2856SOL     OW20200   0.732   2.542  12.401 -0.2668  0.3762  0.1148
 2856SOL    HW120201   0.776   2.576  12.478 -0.8013  0.4974  0.3673
 2856SOL    HW220202   0.687   2.621  12.370  1.8383  1.1448 -0.9770
 2857SOL     OW20203   0.200   0.985  12.451  0.7544  0.3340  0.3547
 2857SOL    HW120204   0.248   0.998  12.533  0.2610  1.9778  0.3903
 2857SOL    HW220205   0.181   0.891  12.454  2.5851  0.0164  1.7743
 2858SOL     OW20206   2.758   2.718   5.723  0.0322 -0.1792  0.2129
 2858SOL    HW120207   2.690   2.777   5.755  0.7247  0.2876  0.8244
 2858SOL    HW220208   2.806   2.782   5.671 -0.5777 -0.2807 -0.4706
 2859SOL     OW20209   0.643   0.338  17.519  0.4472  0.2420  0.2385
 2859SOL    HW120210   0.619   0.410  17.460  0.5360 -0.3699 -0.5392
 2859SOL    HW220211   0.722   0.377  17.556  0.6342  1.3198 -1.2608
 2860SOL     OW20212   3.688   2.962   3.972  0.1202 -0.4032  0.4212
 2860SOL    HW120213   3.763   2.907   3.996  0.3961 -0.4282 -0.4900
 2860SOL    HW220214   3.743   3.022   3.921  1.6403 -2.6936 -0.6496
 2861SOL     OW20215   1.178   2.412   2.877 -0.2707  0.2903  0.4617
 2861SOL    HW120216   1.119   2.352   2.924  3.2672 -1.5016  2.5701
 2861SOL    HW220217   1.122   2.426   2.800 -1.1294  1.4065  1.2857
 2862SOL     OW20218   1.041   2.878   6.674  0.3797 -0.2565 -0.1692
 2862SOL    HW120219   0.979   2.878   6.601 -1.0056 -2.9966  1.0005
 2862SOL    HW220220   1.118   2.852   6.624  2.0204  2.4955  0.9491
 2863SOL     OW20221   0.836   0.418   2.358  0.1123 -0.3863 -0.2890
 2863SOL    HW120222   0.869   0.447   2.444  1.7884  0.4173 -1.2088
 2863SOL    HW220223   0.827   0.501   2.313 -2.2007 -0.7782 -0.5185
 2864SOL     OW20224   1.353   4.124   7.938  0.2488 -0.4395  0.1099
 2864SOL    HW120225   1.438   4.168   7.940 -0.8710  1.7621 -0.9228
 2864SOL    HW220226   1.297   4.191   7.978 -0.5277 -0.0969 -1.5686
 2865SOL     OW20227   0.563   0.116  12.569  0.1187 -0.2908  0.1685
 2865SOL    HW120228   0.506   0.100  12.494  0.3713 -1.5847  0.2631
 2865SOL    HW220229   0.644   0.143  12.525 -0.2306  0.2875 -0.1209
 2866SOL     OW20230   4.068   2.280  10.007  0.2458  0.3393  0.1351
 2866SOL    HW120231   4.095   2.368  10.032 -0.3251  0.9751 -1.4780
 2866SOL    HW220232   4.003   2.303   9.941 -0.0304  0.7950  0.5650
 2867SOL     OW20233   0.590   4.391  12.125  0.5654 -0.7107  0.0539
 2867SOL    HW120234   0.570   4.400  12.031  1.2135  0.9465  0.0692
 2867SOL    HW220235   0.621   4.480  12.142 -0.2906 -0.3462 -0.2533
 2868SOL     OW20236   3.494   2.386   3.822 -0.1008  0.1024  0.4316
 2868SOL    HW120237   3.510   2.295   3.847  2.1913  1.3587  3.5343
 2868SOL    HW220238   3.575   2.424   3.855 -0.2749  0.3979  0.5088
 2869SOL     OW20239   4.562   1.534  13.003 -0.2070 -0.8199 -0.0999
 2869SOL    HW120240   4.554   1.625  13.031 -0.9735 -0.2737 -2.0961
 2869SOL    HW220241   4.587   1.521  12.911  1.8079 -1.8171  0.5926
 2870SOL     OW20242   0.568   3.382   0.890  0.3658 -0.3620  0.1478
 2870SOL    HW120243   0.526   3.348   0.811  2.5629 -0.1859 -1.1142
 2870SOL    HW220244   0.517   3.349   0.964 -0.4410  2.4944  0.8508
 2871SOL     OW20245   0.788   1.667  17.219 -0.3479  0.0068  0.1670
 2871SOL    HW120246   0.785   1.666  17.314 -0.9686  0.6433  0.1514
 2871SOL    HW220247   0.749   1.753  17.201 -2.8402 -0.9800  0.8467
 2872SOL     OW20248   4.205   2.452   8.415 -0.4543 -0.4964 -0.0218
 2872SOL    HW120249   4.141   2.522   8.430  1.0808  0.6213  1.4054
 2872SOL    HW220250   4.188   2.418   8.327 -1.0183 -0.4704  0.0770
 2873SOL     OW20251   0.807   2.329   6.712  0.3127 -0.2617  0.5835
 2873SOL    HW120252   0.890   2.296   6.749  0.7390 -1.4081 -1.4108
 2873SOL    HW220253   0.756   2.302   6.789  0.1468  1.5171  1.0931
 2874SOL     OW20254   1.704   1.066   6.323 -0.0011  0.2054  0.0809
 2874SOL    HW120255   1.774   1.132   6.323  0.9284 -0.7725  2.6073
 2874SOL    HW220256   1.672   1.090   6.410 -1.0526  3.4152 -1.1974
 2875SOL     OW20257   2.350   0.858  12.435 -0.2376 -0.0484 -0.5198
 2875SOL    HW120258   2.261   0.862  12.400  0.6154 -1.2199 -2.8149
 2875SOL    HW220259   2.332   0.863  12.529 -1.9569  0.2417 -0.8788
 2876SOL     OW20260   3.147   1.121  10.226  0.4572  0.5619 -0.5666
 2876SOL    HW120261   3.200   1.052  10.266  0.1823 -0.3648 -1.8165
 2876SOL    HW220262   3.207   1.196  10.221  0.5045  0.6686  1.5327
 2877SOL     OW20263   1.237   4.052   0.720  0.4115 -0.4965 -0.1254
 2877SOL    HW120264   1.233   3.957   0.713  1.3409 -0.5186 -0.3325
 2877SOL    HW220265   1.225   4.067   0.814 -2.2332  0.6332 -0.6401
 2878SOL     OW20266   0.179   3.155   2.946 -0.3637  0.3656  0.2973
 2878SOL    HW120267   0.211   3.226   2.890  0.3872 -0.3459 -0.1888
 2878SOL    HW220268   0.251   3.094   2.928 -1.4777 -0.6989 -0.5436
 2879SOL     OW20269   0.510   4.482   2.499  0.1580  0.6184 -0.2747
 2879SOL    HW120270   0.427   4.522   2.523 -0.1928 -1.0042  1.2598
 2879SOL    HW220271   0.553   4.489   2.585 -1.6585 -0.7019  0.7550
 2880SOL     OW20272   0.878   2.280  11.933 -0.5055  0.1706  0.0643
 2880SOL    HW120273   0.801   2.225  11.920 -0.8921  0.5611  0.6955
 2880SOL    HW220274   0.856   2.321  12.017 -0.1086  3.2217 -1.3160
 2881SOL     OW20275   2.657   4.209   2.434  0.0999  0.6254 -0.0942
 2881SOL    HW120276   2.740   4.224   2.478  0.6217 -1.4138 -0.3416
 2881SOL    HW220277   2.690   4.136   2.381  0.3424 -0.6825  1.8795
 2882SOL     OW20278   3.879   1.787   2.185  0.2680 -0.1580  0.2797
 2882SOL    HW120279   3.953   1.803   2.243  0.5930 -0.5127 -0.0427
 2882SOL    HW220280   3.809   1.770   2.248 -0.7802 -0.6967 -1.0221
 2883SOL     OW20281   4.227   3.896   6.025 -0.1311 -0.1212  0.0711
 2883SOL    HW120282   4.253   3.976   5.979 -0.9662  0.8329  1.2684
 2883SOL    HW220283   4.140   3.927   6.051 -0.2610 -0.2031 -0.2721
 2884SOL     OW20284   2.073   3.073   2.566  0.2993  0.2531 -0.0833
 2884SOL    HW120285   1.998   3.099   2.512  0.2897 -1.2335 -0.7629
 2884SOL    HW220286   2.041   3.114   2.646 -1.3007 -1.4551  0.1376
 2885SOL     OW20287   0.769   1.417  12.891  0.1482 -0.2101 -0.3647
 2885SOL    HW120288   0.828   1.351  12.855  0.4086  0.3387 -0.9439
 2885SOL    HW220289   0.679   1.390  12.873  0.0229 -1.0093  1.4592
 2886SOL     OW20290   0.250   4.300   6.982 -0.1002 -0.2650 -0.0383
 2886SOL    HW120291   0.310   4.307   6.907 -0.3340 -0.9509 -0.2890
 2886SOL    HW220292   0.316   4.284   7.050  0.4180 -0.0201 -0.4805
 2887SOL     OW20293   4.426   2.134  12.314  0.3053  0.6987 -0.6363
 2887SOL    HW120294   4.435   2.147  12.408 -2.2321 -2.2494  0.0221
 2887SOL    HW220295   4.422   2.038  12.312 -0.5700  0.7527 -1.7299
 2888SOL     OW20296   4.560   0.871   4.887 -0.4971 -0.0547  0.3310
 2888SOL    HW120297   4.578   0.794   4.941  1.7380  0.3203  0.1363
 2888SOL    HW220298   4.527   0.923   4.959  0.2068  1.8156 -0.6924
 2889SOL     OW20299   3.192   1.704  10.067  0.2616 -0.0895 -0.3976
 2889SOL    HW120300   3.200   1.719   9.973 -0.8555  1.5030 -0.2403
 2889SOL    HW220301   3.144   1.622  10.055 -1.7515  1.3037 -1.8504
 2890SOL     OW20302   4.451   4.154   9.265 -0.4144  0.0520 -0.4822
 2890SOL    HW120303   4.364   4.143   9.227 -0.6674  0.8252 -0.1265
 2890SOL    HW220304   4.426   4.193   9.349  0.5740 -0.3271 -0.0081
 2891SOL     OW20305   4.078   4.315  17.664 -0.3328  0.3717  0.0330
 2891SOL    HW120306   3.991   4.298  17.700  0.6202 -0.9778  1.7094
 2891SOL    HW220307   4.070   4.409  17.652  1.4019  0.5299  0.0655
 2892SOL     OW20308   2.127   2.257   8.994 -0.5238 -0.0807 -0.7945
 2892SOL    HW120309   2.154   2.282   8.906  2.0462  0.5360  0.1906
 2892SOL    HW220310   2.033   2.248   8.978 -0.5097 -0.5234 -0.6144
 2893SOL     OW20311   0.140   0.183   4.308  0.3974 -0.0009 -0.2512
 2893SOL    HW120312   0.132   0.106   4.364 -2.4053  0.1207 -0.4877
 2893SOL    HW220313   0.227   0.175   4.268  1.9619 -1.3994  3.4679
 2894SOL     OW20314   2.539   0.299   2.218 -0.0933 -0.4095  0.5726
 2894SOL    HW120315   2.550   0.229   2.154  1.0464  0.9560 -0.7335
 2894SOL    HW220316   2.594   0.371   2.186 -0.2311 -1.0668 -1.1173
 2895SOL     OW20317   4.590   1.916   6.608 -0.1886 -0.1039  0.4472
 2895SOL    HW120318   4.630   1.834   6.579 -0.1792  0.6460 -1.6770
 2895SOL    HW220319   4.665   1.964   6.643  1.2193  0.0291 -2.7814
 2896SOL     OW20320   0.602   4.524   2.748 -0.0142 -0.2267  0.3228
 2896SOL    HW120321   0.545   4.501   2.821 -1.5268  1.3639 -0.3530
 2896SOL    HW220322   0.687   4.490   2.774 -0.4426 -0.7138  1.0609
 2897SOL     OW20323   1.579   4.423  16.627 -0.5122 -0.5444  0.5754
 2897SOL    HW120324   1.604   4.510  16.658 -1.2073  0.9211 -2.8862
 2897SOL    HW220325   1.572   4.445  16.534  1.5177 -0.0489  0.5338
 2898SOL     OW20326   4.683   2.181   9.202 -0.0223 -0.2687 -0.6253
 2898SOL    HW120327   4.638   2.247   9.255 -0.1215  0.5579 -1.7418
 2898SOL    HW220328   4.613   2.153   9.143  0.1086  0.8511 -1.3124
 2899SOL     OW20329   0.011   2.686   1.429  0.1270  0.3716  0.0975
 2899SOL    HW120330   0.065   2.758   1.396  1.3956 -0.9837 -0.7527
 2899SOL    HW220331   0.041   2.601   1.397 -1.1190  0.6148 -1.7055
 2900SOL     OW20332   4.404   3.732   5.915  0.1930  0.2637 -0.1970
 2900SOL    HW120333   4.330   3.763   5.967  1.0995 -0.0193  1.2778
 2900SOL    HW220334   4.386   3.780   5.835 -2.5082  1.8393  1.3505
 2901SOL     OW20335   0.975   0.895   6.980 -0.8487  0.0202  0.0799
 2901SOL    HW120336   0.979   0.807   7.016 -2.0960  0.4811  1.3628
 2901SOL    HW220337   1.068   0.894   6.957 -2.2274 -2.8643 -5.2189
 2902SOL     OW20338   4.697   4.297   5.519 -0.7254  0.0978  0.5254
 2902SOL    HW120339   4.643   4.374   5.538 -2.0254 -0.5503 -0.6011
 2902SOL    HW220340   4.733   4.324   5.434 -0.3723 -0.2435  0.5685
 2903SOL     OW20341   2.948   2.857   6.785 -0.3126  0.2949 -0.7844
 2903SOL    HW120342   2.998   2.785   6.746 -1.4686 -2.5057  2.8953
 2903SOL    HW220343   2.987   2.934   6.743  0.7934 -1.2979 -2.7356
 2904SOL     OW20344   3.871   1.968   7.149  0.0615  0.0130 -0.3061
 2904SOL    HW120345   3.869   2.044   7.208  0.8494 -0.1896 -0.0197
 2904SOL    HW220346   3.780   1.948   7.127 -0.2441  0.1767  0.8046
 2905SOL     OW20347   4.219   0.536  15.482 -0.0517 -0.3585  0.1818
 2905SOL    HW120348   4.259   0.559  15.566 -1.2169  1.1286  0.3500
 2905SOL    HW220349   4.231   0.619  15.435  1.0194 -0.7886 -0.2880
 2906SOL     OW20350   4.621   4.394   9.827 -0.6998 -0.4307  0.0038
 2906SOL    HW120351   4.681   4.361   9.894 -0.7832  0.0506  0.3152
 2906SOL    HW220352   4.580   4.466   9.875  0.8856  1.3899 -1.3827
 2907SOL     OW20353   2.723   4.517   8.521  0.4245 -0.5409 -0.6547
 2907SOL    HW120354   2.731   4.426   8.548  0.8138  0.6160  3.1761
 2907SOL    HW220355   2.684   4.511   8.434  1.0750 -0.4133 -0.9503
 2908SOL     OW20356   2.554   2.028   1.243 -0.3577 -0.1351 -0.5837
 2908SOL    HW120357   2.622   1.992   1.187  0.4229 -0.0796  0.3199
 2908SOL    HW220358   2.576   2.121   1.241 -2.5881  0.3906 -0.5659
 2909SOL     OW20359   1.208   2.594   5.316 -0.0302  0.0101  0.0492
 2909SOL    HW120360   1.165   2.528   5.370 -0.7270 -1.7189 -2.6113
 2909SOL    HW220361   1.230   2.550   5.234  0.1329  2.6206 -1.2847
 2910SOL     OW20362   2.166   4.401   5.047 -0.0974 -0.0778  0.2178
 2910SOL    HW120363   2.180   4.322   5.099  0.5094 -0.0332  0.1297
 2910SOL    HW220364   2.073   4.390   5.026 -0.1868  0.2580  0.4390
 2911SOL     OW20365   0.083   3.494  12.592 -0.5613 -0.4862  0.0578
 2911SOL    HW120366   4.735   3.518  12.554 -0.6568 -0.9943 -0.0582
 2911SOL    HW220367   0.073   3.512  12.685 -0.3344  1.6161 -0.3220
 2912SOL     OW20368   2.196   0.073   1.309 -0.0572  0.8310 -0.1021
 2912SOL    HW120369   2.272   0.108   1.357  0.7500 -0.7944 -0.2147
 2912SOL    HW220370   2.208   0.105   1.220  1.9900 -0.9834 -0.4788
 2913SOL     OW20371   3.369   1.220  16.683  0.3056  0.3841 -0.2410
 2913SOL    HW120372   3.291   1.262  16.646 -0.1821 -0.6606 -0.3889
 2913SOL    HW220373   3.433   1.257  16.621 -0.3477  2.4660  0.3264
 2914SOL     OW20374   1.152   1.959   8.375  0.1396 -0.3981 -0.0795
 2914SOL    HW120375   1.165   2.003   8.291 -3.0603  0.0167 -0.3506
 2914SOL    HW220376   1.208   2.010   8.434  2.7634 -1.0525 -2.0133
 2915SOL     OW20377   1.140   0.778  14.627 -0.1074 -0.1716 -0.4618
 2915SOL    HW120378   1.187   0.835  14.566 -1.9053  0.8566 -0.8815
 2915SOL    HW220379   1.064   0.748  14.578 -1.2095  1.8304  0.0198
 2916SOL     OW20380   3.636   0.870  13.691 -0.0085  0.2843  0.2879
 2916SOL    HW120381   3.628   0.957  13.651  0.0963  0.4295  0.5871
 2916SOL    HW220382   3.730   0.882  13.705  0.4229 -1.5007 -1.0685
 2917SOL     OW20383   0.368   4.078   3.826 -0.9598 -0.4765 -0.2315
 2917SOL    HW120384   0.368   4.109   3.917 -0.6167  0.8600 -0.6872
 2917SOL    HW220385   0.299   4.014   3.839 -1.3373 -0.1098 -0.4137
 2918SOL     OW20386   3.983   3.834   2.253  0.0904 -0.4119 -0.5398
 2918SOL    HW120387   3.920   3.893   2.213  0.5545 -0.3952 -1.2359
 2918SOL    HW220388   3.996   3.768   2.185 -4.6593 -1.0440 -0.7992
 2919SOL     OW20389   3.039   0.951   7.480 -0.2060 -0.3183 -0.4263
 2919SOL    HW120390   3.090   0.948   7.399 -0.2273 -1.3605 -0.4008
 2919SOL    HW220391   3.081   1.028   7.518 -1.8274  0.2205  0.2533
 2920SOL     OW20392   0.552   3.596   5.194  0.2719  0.1316 -0.0467
 2920SOL    HW120393   0.621   3.604   5.259  0.3217  1.0524 -0.2093
 2920SOL    HW220394   0.482   3.547   5.236 -0.3587  1.4833  0.4987
 2921SOL     OW20395   3.157   0.589   6.211 -0.1408  0.3415  0.9397
 2921SOL    HW120396   3.220   0.626   6.149 -1.1701 -1.2748 -1.1098
 2921SOL    HW220397   3.125   0.678   6.225 -2.7039 -0.5295  0.7884
 2922SOL     OW20398   3.965   0.067   7.373  0.0113 -0.2152 -0.3213
 2922SOL    HW120399   4.058   0.079   7.392  0.2552  2.3000 -3.1267
 2922SOL    HW220400   3.927   0.047   7.459 -1.1844 -0.7353 -0.9740
 2923SOL     OW20401   1.018   4.138  16.742 -0.1414  0.4965  0.1502
 2923SOL    HW120402   0.953   4.075  16.711  0.7523  0.7622 -2.2223
 2923SOL    HW220403   1.047   4.183  16.663  0.5325  0.0898  0.1726
 2924SOL     OW20404   1.292   2.999  16.957  0.7666  0.5954 -0.0858
 2924SOL    HW120405   1.341   2.918  16.966  2.0995  1.4120  0.0228
 2924SOL    HW220406   1.299   3.041  17.043  0.6057  1.1974 -0.3624
 2925SOL     OW20407   0.899   1.973  12.240 -0.0304  0.4699  0.3379
 2925SOL    HW120408   0.953   2.008  12.170  0.6826 -2.8468 -0.7692
 2925SOL    HW220409   0.938   1.886  12.233  0.4206  0.5701  1.5594
 2926SOL     OW20410   0.155   2.084   4.035  0.0350  0.1753  0.3446
 2926SOL    HW120411   0.084   2.147   4.049 -1.0597 -1.2002  0.9906
 2926SOL    HW220412   0.225   2.135   4.076 -0.7915  0.3174  1.5844
 2927SOL     OW20413   2.037   3.442   9.941 -0.2902 -0.4415 -0.0746
 2927SOL    HW120414   2.131   3.428   9.949 -0.2403  0.4223  0.8639
 2927SOL    HW220415   1.999   3.412  10.023 -2.1026 -1.7444 -1.3729
 2928SOL     OW20416   3.743   4.722   6.364  0.0536 -0.3295 -0.0026
 2928SOL    HW120417   3.762   0.041   6.439  1.2349 -1.8989  0.8722
 2928SOL    HW220418   3.830   4.705   6.327 -0.4735  0.9583 -1.8074
 2929SOL     OW20419   0.354   0.543  15.269 -0.5589 -0.4121 -0.9440
 2929SOL    HW120420   0.404   0.621  15.296 -1.1223 -0.3843  0.0147
 2929SOL    HW220421   0.384   0.543  15.178 -2.2962  0.3088 -1.5212
 2930SOL     OW20422   0.241   4.348   8.673  0.2500  0.7357  0.0317
 2930SOL    HW120423   0.321   4.377   8.630  0.7185  0.6520  0.8394
 2930SOL    HW220424   0.277   4.314   8.755 -1.2362  0.2434  0.4901
 2931SOL     OW20425   0.559   0.453   6.310 -0.0916  0.0038  0.0703
 2931SOL    HW120426   0.518   0.371   6.339  0.1020  0.8170  2.6847
 2931SOL    HW220427   0.552   0.504   6.391  0.1536  1.1963 -0.6663
 2932SOL     OW20428   3.458   0.428  10.327  0.0989  0.4328 -0.4288
 2932SOL    HW120429   3.512   0.349  10.331 -0.5160  0.1695  2.4990
 2932SOL    HW220430   3.416   0.427  10.413 -0.6404 -0.5293 -0.7923
 2933SOL     OW20431   4.052   1.969   4.458 -0.6730 -0.6144  0.7340
 2933SOL    HW120432   4.111   1.905   4.498 -0.6833  0.8327  3.0903
 2933SOL    HW220433   3.987   1.919   4.409  1.1896 -2.3453 -0.0114
 2934SOL     OW20434   0.047   0.404   6.018 -0.6063 -0.1480  0.6934
 2934SOL    HW120435   4.726   0.339   5.980 -2.0102  0.5012  1.7526
 2934SOL    HW220436   4.731   0.481   6.037  0.8486  0.6095  1.6809
 2935SOL     OW20437   0.614   2.839   7.401  0.2746  0.1593  0.4642
 2935SOL    HW120438   0.598   2.854   7.494 -0.8206 -1.1276  0.4903
 2935SOL    HW220439   0.546   2.780   7.368 -0.2001  0.7889  0.3146
 2936SOL     OW20440   4.709   0.082   5.542  0.2289  0.1240 -0.0844
 2936SOL    HW120441   4.684   0.133   5.465  1.1439  0.4023 -0.1900
 2936SOL    HW220442   0.042   0.031   5.502 -0.2997 -0.8472  0.2334
 2937SOL     OW20443   0.072   0.324   8.454 -0.2546 -0.5904  0.0090
 2937SOL    HW120444   0.154   0.370   8.471 -2.8479  3.9080  0.1980
 2937SOL    HW220445   0.090   0.231   8.468  1.8877 -0.6169 -3.0276
 2938SOL     OW20446   2.352   4.398   4.817 -0.4928  0.3258  0.0866
 2938SOL    HW120447   2.285   4.454   4.855 -0.4980 -1.0661  2.1204
 2938SOL    HW220448   2.318   4.397   4.728 -0.7051  0.0362  0.1699
 2939SOL     OW20449   0.765   4.627   7.247  0.1533 -0.1626 -0.1374
 2939SOL    HW120450   0.686   4.586   7.283  0.7760 -0.7440  0.5695
 2939SOL    HW220451   0.745   4.623   7.153 -0.6509  1.4251 -0.0336
 2940SOL     OW20452   1.420   1.884   4.694  0.3357 -0.3660 -0.2336
 2940SOL    HW120453   1.345   1.939   4.672 -0.7914 -1.9701 -0.3773
 2940SOL    HW220454   1.475   1.954   4.728  0.7764 -0.1931 -1.2957
 2941SOL     OW20455   0.005   1.774   7.445  0.0393 -0.6849 -0.2383
 2941SOL    HW120456   0.040   1.792   7.357 -0.8743  0.6023 -0.3254
 2941SOL    HW220457   0.077   1.786   7.507 -0.2182  0.3436 -0.1492
 2942SOL     OW20458   1.264   0.925  17.592 -0.1439 -0.6920  0.5651
 2942SOL    HW120459   1.226   0.859  17.533  0.9074  0.4408 -1.3606
 2942SOL    HW220460   1.199   0.994  17.604  0.5361  0.5134 -2.7354
 2943SOL     OW20461   4.680   1.085  12.471  0.1222 -0.2550 -0.4240
 2943SOL    HW120462   4.643   1.000  12.495  0.1800 -0.2867 -0.4485
 2943SOL    HW220463   0.035   1.064  12.455 -0.1172  0.7909 -3.1412
 2944SOL     OW20464   0.883   0.475   7.917  0.1493 -0.4952 -0.4926
 2944SOL    HW120465   0.891   0.550   7.977 -0.4602 -0.1519 -0.8398
 2944SOL    HW220466   0.963   0.428   7.939 -0.2282 -0.4158  1.0540
 2945SOL     OW20467   1.207   1.028  13.337  0.0636 -0.4052 -0.1148
 2945SOL    HW120468   1.180   0.939  13.312  0.4021 -1.2184  2.4157
 2945SOL    HW220469   1.137   1.074  13.290 -1.1484 -0.5566  1.5577
 2946SOL     OW20470   1.977   2.860   1.102 -0.5020 -0.1435  0.3109
 2946SOL    HW120471   1.931   2.836   1.183  0.3308 -1.0338  0.5205
 2946SOL    HW220472   2.004   2.940   1.148 -0.1133 -0.2987  0.3472
 2947SOL     OW20473   0.346   0.899   9.081 -0.8927 -0.7213 -0.7572
 2947SOL    HW120474   0.254   0.901   9.054 -0.9120 -1.2751 -0.7405
 2947SOL    HW220475   0.333   0.826   9.141 -2.7903 -0.8285 -1.2892
 2948SOL     OW20476   2.740   3.653  10.224  0.2544 -0.1344  0.8039
 2948SOL    HW120477   2.770   3.564  10.238 -0.6537 -0.6529 -0.5287
 2948SOL    HW220478   2.647   3.645  10.248  0.2781 -1.8309  0.3327
 2949SOL     OW20479   1.522   1.453  11.482  0.7857 -0.3176 -0.0115
 2949SOL    HW120480   1.518   1.510  11.405 -0.8305  1.1790  1.1950
 2949SOL    HW220481   1.493   1.371  11.442  0.0402  0.1941 -0.5117
 2950SOL     OW20482   2.567   1.135   2.200  0.0563  0.1333  0.0231
 2950SOL    HW120483   2.508   1.211   2.202  1.0109  0.8634  0.3456
 2950SOL    HW220484   2.512   1.058   2.217 -1.8205  1.2986 -0.7324
 2951SOL     OW20485   1.529   1.894   1.102  0.1859  0.0411  0.2238
 2951SOL    HW120486   1.514   1.983   1.134  1.1118  0.6962 -1.1814
 2951SOL    HW220487   1.624   1.887   1.100  0.0897 -0.5073 -1.9962
 2952SOL     OW20488   1.459   1.946  16.892  0.3430 -0.0469 -1.4110
 2952SOL    HW120489   1.397   1.876  16.872 -0.4731  0.9585 -2.3592
 2952SOL    HW220490   1.416   2.023  16.856 -0.8791 -0.2618 -0.4062
 2953SOL     OW20491   3.380   4.611   3.455  0.1747 -0.4750 -0.1649
 2953SOL    HW120492   3.365   4.517   3.463 -2.7046  0.1101  1.3894
 2953SOL    HW220493   3.346   4.634   3.542 -0.0768  0.5807 -0.5489
 2954SOL     OW20494   3.384   3.123   2.392  0.0979 -0.0271 -0.0708
 2954SOL    HW120495   3.306   3.068   2.402 -0.3733  0.3670 -1.5304
 2954SOL    HW220496   3.343   3.203   2.360 -1.3298 -0.4448  0.6705
 2955SOL     OW20497   2.725   0.276   3.313 -0.1239  0.0331  0.4023
 2955SOL    HW120498   2.633   0.302   3.315 -0.6854 -2.1142  3.8472
 2955SOL    HW220499   2.724   0.191   3.269  2.3267  0.8068 -1.1534
 2956SOL     OW20500   3.274   0.249   3.146 -0.1748  0.2141  0.0272
 2956SOL    HW120501   3.345   0.193   3.178  0.3854 -0.0478 -1.6400
 2956SOL    HW220502   3.309   0.338   3.150 -0.7085  0.4606 -0.8497
 2957SOL     OW20503   0.041   4.625   4.625  0.2608 -0.3225  0.0079
 2957SOL    HW120504   4.699   4.643   4.574 -0.5903 -2.1866  0.6713
 2957SOL    HW220505   0.091   4.703   4.602 -0.6336 -0.3626 -2.0644
 2958SOL     OW20506   0.802   1.091   4.187  0.0579  0.2167  0.3106
 2958SOL    HW120507   0.786   1.172   4.139  1.4992  0.1411 -0.2963
 2958SOL    HW220508   0.854   1.038   4.126 -2.6357 -1.8679 -0.2013
 2959SOL     OW20509   2.410   4.095   2.416  0.5870  0.0901 -0.4901
 2959SOL    HW120510   2.497   4.132   2.432  0.7439 -0.8199  0.7067
 2959SOL    HW220511   2.395   4.040   2.493  1.8532 -2.6715 -2.2348
 2960SOL     OW20512   3.435   0.084   8.240 -0.1706 -0.1027 -0.0510
 2960SOL    HW120513   3.449   0.177   8.223 -0.2890 -0.4220 -1.8775
 2960SOL    HW220514   3.400   0.073   8.329  0.8155  1.0001  0.4757
 2961SOL     OW20515   0.753   1.166   8.245 -0.0272 -0.0912 -0.3918
 2961SOL    HW120516   0.666   1.164   8.283  0.6599 -1.8073  1.0553
 2961SOL    HW220517   0.793   1.230   8.304  0.2174 -1.0033  0.4227
 2962SOL     OW20518   0.370   1.280   1.005 -0.4542 -0.6782  0.6791
 2962SOL    HW120519   0.391   1.191   0.977 -0.8434 -0.0671 -1.5969
 2962SOL    HW220520   0.443   1.308   1.061 -0.5170  0.1279  0.3607
 2963SOL     OW20521   1.596   0.688  14.661 -0.4663 -0.2706  0.2946
 2963SOL    HW120522   1.507   0.705  14.691 -0.7784  0.5897 -1.1146
 2963SOL    HW220523   1.578   0.606  14.614 -0.0756  0.5157 -1.2507
 2964SOL     OW20524   2.212   3.708   5.059 -0.5195  0.1568 -0.0518
 2964SOL    HW120525   2.200   3.708   5.154 -1.4393 -0.5267 -0.1670
 2964SOL    HW220526   2.249   3.796   5.058  1.6073 -0.7369  1.8662
 2965SOL     OW20527   4.044   2.706   5.293 -0.3146 -0.5473  0.1809
 2965SOL    HW120528   4.133   2.718   5.327 -0.7937  0.3707  1.1053
 2965SOL    HW220529   3.992   2.742   5.365 -0.7990  1.7186 -1.3044
 2966SOL     OW20530   3.361   4.252   6.723 -0.3841  0.2944  0.6537
 2966SOL    HW120531   3.267   4.266   6.714 -0.8511 -3.0908  0.3431
 2966SOL    HW220532   3.381   4.339   6.760  0.5262  0.8551 -1.1471
 2967SOL     OW20533   1.271   2.759  17.163 -0.3424  0.5539  0.4330
 2967SOL    HW120534   1.263   2.836  17.220 -0.2393  1.0075 -0.1654
 2967SOL    HW220535   1.366   2.757  17.155 -0.2803 -2.0476  1.7965
 2968SOL     OW20536   4.322   2.653  14.314 -0.3202  0.0148 -0.0635
 2968SOL    HW120537   4.370   2.735  14.310 -1.9331  1.0790  1.8715
 2968SOL    HW220538   4.323   2.642  14.410  2.9442 -0.7233 -0.1794
 2969SOL     OW20539   2.466   4.533   0.402  0.3520  0.3515  0.2546
 2969SOL    HW120540   2.495   4.618   0.434  1.1621 -0.0919  0.6968
 2969SOL    HW220541   2.374   4.527   0.430  0.5735  0.8649  1.0839
 2970SOL     OW20542   2.433   4.041   6.355 -0.4275 -0.2029  0.3837
 2970SOL    HW120543   2.482   4.043   6.438 -0.7041 -0.9657  0.5605
 2970SOL    HW220544   2.367   4.109   6.371 -2.6768 -2.0790 -1.0353
 2971SOL     OW20545   3.213   3.443   8.327 -0.2738  0.0833  0.1094
 2971SOL    HW120546   3.280   3.400   8.273 -0.3937  0.9655 -0.7530
 2971SOL    HW220547   3.164   3.498   8.265  1.0873  0.5579 -0.5551
 2972SOL     OW20548   1.595   0.392  12.093  0.2969 -0.2635  0.0696
 2972SOL    HW120549   1.644   0.357  12.167  0.0864  0.5952  0.6124
 2972SOL    HW220550   1.559   0.308  12.063  0.2906 -0.1297 -0.3047
 2973SOL     OW20551   1.530   3.989  16.554 -0.1979  0.1098 -0.8062
 2973SOL    HW120552   1.577   3.930  16.496  1.0204  2.1126 -1.8440
 2973SOL    HW220553   1.602   4.035  16.597 -0.1073  0.1491 -0.9985
 2974SOL     OW20554   4.270   2.371   7.045  0.1595  0.1481 -0.0820
 2974SOL    HW120555   4.359   2.394   7.070 -0.8367 -1.1056  4.5141
 2974SOL    HW220556   4.266   2.278   7.069  1.7401  0.1516  0.1377
 2975SOL     OW20557   0.372   1.331   5.482  0.2470  0.5699  0.2951
 2975SOL    HW120558   0.408   1.411   5.444 -2.2651  1.7787  0.4174
 2975SOL    HW220559   0.285   1.316   5.444  0.6809  1.8474 -1.2063
 2976SOL     OW20560   3.897   4.354   7.536  0.2380 -0.1545  0.4476
 2976SOL    HW120561   3.957   4.282   7.555  1.7770  1.1565  0.5817
 2976SOL    HW220562   3.937   4.400   7.463 -1.4208  0.4772 -0.0653
 2977SOL     OW20563   2.874   0.547  13.808 -0.2853 -0.0281 -0.4429
 2977SOL    HW120564   2.803   0.567  13.869  0.8420  4.5214 -0.6238
 2977SOL    HW220565   2.910   0.636  13.799  0.9589 -0.4993 -0.0935
 2978SOL     OW20566   0.947   3.908   8.454  0.2947 -0.4924 -0.4304
 2978SOL    HW120567   0.870   3.900   8.511  0.8671 -1.7928  0.1508
 2978SOL    HW220568   0.978   3.819   8.473  2.6157  0.0823 -1.5375
 2979SOL     OW20569   1.669   1.716   8.121 -0.1967 -0.6851 -0.2407
 2979SOL    HW120570   1.716   1.656   8.063 -0.0992  0.1582 -1.0203
 2979SOL    HW220571   1.594   1.749   8.072  0.0748  0.1631 -0.0877
 2980SOL     OW20572   1.803   1.639  15.881  0.4524 -0.2844  0.1856
 2980SOL    HW120573   1.782   1.570  15.944  3.6820 -0.8410  0.6183
 2980SOL    HW220574   1.895   1.617  15.872  0.7473  0.0721  2.2003
 2981SOL     OW20575   0.573   0.719  12.625  0.0886 -0.7166 -0.5714
 2981SOL    HW120576   0.592   0.789  12.563  1.4626 -1.6892 -1.2455
 2981SOL    HW220577   0.617   0.645  12.583  0.4860 -0.9430  0.2316
 2982SOL     OW20578   0.695   2.539   9.105  0.3047 -0.3183 -0.0135
 2982SOL    HW120579   0.784   2.515   9.130 -0.2097 -0.6184  1.5397
 2982SOL    HW220580   0.657   2.456   9.075  0.8502 -0.5478 -0.0676
 2983SOL     OW20581   0.251   2.063   8.024  0.1177 -0.4666  0.0062
 2983SOL    HW120582   0.188   2.133   8.006  0.0296 -1.0967 -2.0569
 2983SOL    HW220583   0.322   2.115   8.062  0.3273  1.3354 -2.8457
 2984SOL     OW20584   3.829   4.667   7.605 -0.0279  0.0967 -0.0201
 2984SOL    HW120585   3.894   4.599   7.623 -0.2805 -0.5590 -1.5464
 2984SOL    HW220586   3.827   4.710   7.690  0.3148 -1.6239  0.8391
 2985SOL     OW20587   0.643   4.241   7.590  0.2750 -0.1569 -0.0378
 2985SOL    HW120588   0.613   4.330   7.573 -0.6091 -0.5304 -0.4353
 2985SOL    HW220589   0.729   4.235   7.547  0.3912 -1.0871  0.3286
 2986SOL     OW20590   1.025   4.649  14.704 -0.1887  0.0678 -0.2526
 2986SOL    HW120591   1.037   4.728  14.652  2.2126  0.6393  1.1692
 2986SOL    HW220592   1.048   4.687  14.789 -1.5134 -1.6190  0.8786
 2987SOL     OW20593   2.074   0.044  12.706 -0.1821  0.0267  0.1531
 2987SOL    HW120594   2.116   0.129  12.693 -0.2593 -0.0594 -0.6362
 2987SOL    HW220595   2.001   0.065  12.765  1.0697 -0.1458  1.7646
 2988SOL     OW20596   2.126   4.478   1.242  0.4631  0.7447 -0.2737
 2988SOL    HW120597   2.168   4.558   1.274 -0.8909  0.9779  0.9683
 2988SOL    HW220598   2.158   4.491   1.153  0.8732 -0.2385 -0.2605
 2989SOL     OW20599   1.645   1.200  16.401  0.2165  0.1467 -0.4612
 2989SOL    HW120600   1.620   1.191  16.493  1.3410  2.7789  0.1159
 2989SOL    HW220601   1.684   1.287  16.413  0.2870  0.1271 -0.5507
 2990SOL     OW20602   2.012   1.175   4.414  0.0515 -0.1818 -0.6272
 2990SOL    HW120603   2.001   1.193   4.321  3.2493  4.2009 -0.1370
 2990SOL    HW220604   2.036   1.082   4.408  0.4769  0.0257 -2.0954
 2991SOL     OW20605   0.053   0.345   9.180 -0.2841  0.7440 -0.4504
 2991SOL    HW120606   0.130   0.305   9.220 -0.6746 -0.1039 -0.5450
 2991SOL    HW220607   0.042   0.425   9.231  1.7952 -0.7518  2.3403
 2992SOL     OW20608   4.177   1.771   5.133  0.6672  0.5162 -0.1682
 2992SOL    HW120609   4.196   1.754   5.225 -2.2170  1.6031  0.6155
 2992SOL    HW220610   4.166   1.866   5.146 -0.8701  0.0254  2.1945
 2993SOL     OW20611   0.722   3.275   1.130  0.0755 -0.6264 -0.0019
 2993SOL    HW120612   0.736   3.340   1.061 -0.7865  0.6686  1.0285
 2993SOL    HW220613   0.779   3.315   1.195 -0.7420 -0.4144  0.5940
 2994SOL     OW20614   0.934   0.325   6.574 -0.0611  0.2873  1.0388
 2994SOL    HW120615   0.996   0.368   6.515 -0.7074  0.4752  0.5080
 2994SOL    HW220616   0.988   0.284   6.642 -1.3288  1.3280  2.6875
 2995SOL     OW20617   4.501   0.635   2.999 -0.6365  0.1578 -0.5665
 2995SOL    HW120618   4.439   0.702   2.969 -0.9136 -0.4663 -1.3947
 2995SOL    HW220619   4.461   0.563   2.950 -0.8964  0.3777 -0.6748
 2996SOL     OW20620   4.279   3.956   3.376  0.6596  0.0293  0.1682
 2996SOL    HW120621   4.272   4.019   3.448  0.7614  0.0586  0.1528
 2996SOL    HW220622   4.223   3.890   3.416  0.6212 -0.6484 -0.9901
 2997SOL     OW20623   3.888   4.468  16.703  0.5995  0.4539  0.0143
 2997SOL    HW120624   3.903   4.537  16.638 -3.1313 -1.4248 -2.8509
 2997SOL    HW220625   3.964   4.410  16.701  1.4988  1.6283  0.1021
 2998SOL     OW20626   2.224   3.306   6.544  0.0556  0.5006 -0.3793
 2998SOL    HW120627   2.266   3.276   6.625 -1.2414 -0.2475  0.0290
 2998SOL    HW220628   2.130   3.301   6.565 -0.1173  0.9514 -1.0296
 2999SOL     OW20629   1.146   1.677   0.966  0.5953 -0.0186 -0.1592
 2999SOL    HW120630   1.109   1.747   1.019 -0.1512  1.1285 -2.2083
 2999SOL    HW220631   1.200   1.635   1.034 -1.4928  0.0639  1.5416
 3000SOL     OW20632   4.639   1.134  14.793 -0.2177  0.7151 -0.2937
 3000SOL    HW120633   4.706   1.176  14.739  0.9830 -1.1073 -0.2437
 3000SOL    HW220634   4.601   1.211  14.834 -2.6731  0.7653 -2.6417
 3001SOL     OW20635   1.561   4.247   8.109 -0.2274 -0.2902 -0.6693
 3001SOL    HW120636   1.566   4.333   8.151 -1.9551 -0.0297 -0.9947
 3001SOL    HW220637   1.485   4.212   8.154 -0.1205 -0.8209 -0.9052
 3002SOL     OW20638   2.379   3.870   8.994 -0.2216 -0.4532  0.0024
 3002SOL    HW120639   2.384   3.819   8.913  0.4460 -0.9193  0.3349
 3002SOL    HW220640   2.471   3.885   9.016 -0.4704  0.5490  0.3698
 3003SOL     OW20641   1.411   1.104   4.373 -0.0197  0.0453  0.4247
 3003SOL    HW120642   1.369   1.061   4.448  1.1272  1.6055  1.9846
 3003SOL    HW220643   1.401   1.199   4.384  1.2981  0.1122  1.0602
 3004SOL     OW20644   3.000   3.280  13.083 -0.3305  0.1821  0.7853
 3004SOL    HW120645   2.910   3.261  13.109 -0.7030 -1.5660 -1.8023
 3004SOL    HW220646   3.027   3.189  13.071 -2.4301 -0.2165 -0.7432
 3005SOL     OW20647   0.279   0.332   3.167 -0.1859 -0.3803  0.3207
 3005SOL    HW120648   0.232   0.249   3.168  0.6761 -0.8754 -0.2064
 3005SOL    HW220649   0.311   0.340   3.077 -1.0262 -1.3726 -0.0604
 3006SOL     OW20650   0.952   1.714   6.095  0.5317  0.1735  0.2124
 3006SOL    HW120651   0.895   1.791   6.096  1.5630  0.9516 -0.7975
 3006SOL    HW220652   0.896   1.662   6.037 -0.0216  1.7330 -0.6671
 3007SOL     OW20653   2.736   0.519   2.206  0.5099 -0.3810 -0.5753
 3007SOL    HW120654   2.742   0.535   2.300 -1.8518  0.5153 -0.5759
 3007SOL    HW220655   2.712   0.607   2.178 -0.6781 -0.5482 -0.0787
 3008SOL     OW20656   4.334   0.576   8.715 -0.1652  0.5018  0.0732
 3008SOL    HW120657   4.290   0.495   8.690 -1.0379  1.0145 -0.0412
 3008SOL    HW220658   4.286   0.655   8.690 -0.3466  0.3176 -0.1599
 3009SOL     OW20659   2.475   3.757   3.065 -0.7124 -0.4999  0.4072
 3009SOL    HW120660   2.384   3.777   3.086 -0.8837 -2.4362  1.5801
 3009SOL    HW220661   2.460   3.709   2.983  1.9511  1.5564 -1.2733
 3010SOL     OW20662   2.970   1.130   9.041 -0.5117 -0.7389 -0.1172
 3010SOL    HW120663   2.976   1.138   8.946  0.2246  0.3856  0.0315
 3010SOL    HW220664   2.920   1.208   9.061 -1.9151 -2.0567  1.5140
 3011SOL     OW20665   0.235   3.284   8.996 -0.3798  0.2943 -0.0019
 3011SOL    HW120666   0.161   3.234   9.028  0.6913 -1.2267  0.0781
 3011SOL    HW220667   0.185   3.361   8.967  1.6900  0.7606 -2.2855
 3012SOL     OW20668   0.048   1.858   7.177  0.2593 -0.0101  0.9016
 3012SOL    HW120669   0.116   1.818   7.122 -0.0944  0.1341  0.3640
 3012SOL    HW220670   0.023   1.937   7.129 -0.0015 -0.3018  0.5543
 3013SOL     OW20671   2.830   0.672   1.555 -0.5386 -0.1055 -0.6713
 3013SOL    HW120672   2.891   0.743   1.573  0.3382 -1.0529  0.0823
 3013SOL    HW220673   2.881   0.592   1.564 -1.1327 -0.3082  0.8857
 3014SOL     OW20674   0.074   2.137   1.173  0.0068 -0.3076  0.2930
 3014SOL    HW120675   0.059   2.076   1.101 -1.1751  1.0821 -0.6334
 3014SOL    HW220676   0.156   2.114   1.216 -1.1388  0.4380  2.8752
 3015SOL     OW20677   4.250   0.375   4.109  0.1037  0.1895  0.3405
 3015SOL    HW120678   4.268   0.309   4.176 -3.5336 -1.1786 -0.0638
 3015SOL    HW220679   4.309   0.356   4.036 -0.4034 -1.6841  0.4177
 3016SOL     OW20680   4.053   2.635   6.861 -0.1378 -0.2188 -0.1008
 3016SOL    HW120681   4.148   2.639   6.872 -0.0543 -4.9176  0.9005
 3016SOL    HW220682   4.021   2.628   6.950 -0.4901  1.7025 -0.0915
 3017SOL     OW20683   0.846   0.202   3.106 -0.7496 -0.0709  0.1982
 3017SOL    HW120684   0.800   0.272   3.153  0.6178 -0.0664  1.5222
 3017SOL    HW220685   0.933   0.233   3.129 -0.7423  0.9667 -1.2675
 3018SOL     OW20686   3.914   0.321   7.235  0.0873  0.0371  0.1921
 3018SOL    HW120687   3.939   0.246   7.288  0.2495  0.7116  1.0863
 3018SOL    HW220688   3.969   0.388   7.277 -1.0215  0.2555  1.2951
 3019SOL     OW20689   2.625   0.455   1.807  0.8600 -0.0050 -0.0765
 3019SOL    HW120690   2.543   0.481   1.849  0.8491  1.5109 -1.0339
 3019SOL    HW220691   2.604   0.466   1.714  3.8812  0.4281 -0.7161
 3020SOL     OW20692   2.245   2.362   5.651  0.1442  0.4455  0.0441
 3020SOL    HW120693   2.322   2.351   5.595  1.4180  1.3173  1.6143
 3020SOL    HW220694   2.198   2.280   5.639  0.6616 -0.3065  3.1720
 3021SOL     OW20695   2.046   2.759   4.480  0.6583  0.2804  0.2820
 3021SOL    HW120696   2.017   2.755   4.571 -1.0066  0.7623 -0.2332
 3021SOL    HW220697   1.978   2.701   4.444  0.6564  0.5511 -0.1485
 3022SOL     OW20698   4.269   3.722   6.552 -0.0152 -0.1914 -0.1388
 3022SOL    HW120699   4.299   3.715   6.643  1.3320 -0.2334 -0.5836
 3022SOL    HW220700   4.348   3.731   6.499  0.9595 -0.1621  1.2943
 3023SOL     OW20701   0.014   4.452   4.313 -0.0300 -0.3134  0.5116
 3023SOL    HW120702   4.712   4.446   4.400 -0.8742 -1.6426  0.0355
 3023SOL    HW220703   0.096   4.498   4.332  0.3418 -0.4184 -0.8104
 3024SOL     OW20704   0.135   2.588   2.473 -0.2888 -0.3567  0.0674
 3024SOL    HW120705   0.213   2.532   2.475 -0.2403 -0.2386  1.7267
 3024SOL    HW220706   0.164   2.657   2.414 -2.9047  0.7403  0.0960
 3025SOL     OW20707   1.077   2.272  14.150 -0.0461 -0.4316 -0.1611
 3025SOL    HW120708   1.052   2.300  14.238 -0.9685 -1.4684 -0.0883
 3025SOL    HW220709   0.986   2.266  14.119 -0.2212  0.6288  0.1348
 3026SOL     OW20710   4.490   0.527   3.450 -0.0817 -0.6321  0.1010
 3026SOL    HW120711   4.422   0.473   3.411  0.1082  0.2033 -1.4332
 3026SOL    HW220712   4.476   0.503   3.541 -1.2944 -1.7710 -0.4011
 3027SOL     OW20713   2.016   2.734   8.396 -0.2970  0.1426 -0.2372
 3027SOL    HW120714   2.049   2.645   8.410  1.1465  0.4461 -1.7735
 3027SOL    HW220715   2.081   2.768   8.334  0.7155 -0.1287  0.6641
 3028SOL     OW20716   2.213   0.601  10.233 -0.3867  0.1987 -0.1103
 3028SOL    HW120717   2.306   0.581  10.247 -0.1240 -0.5645 -3.0821
 3028SOL    HW220718   2.230   0.687  10.196 -0.8430 -0.0367 -0.8571
 3029SOL     OW20719   2.055   1.091   3.117  0.0721  0.5031 -0.4564
 3029SOL    HW120720   2.148   1.089   3.140 -0.0980  3.0661  0.4766
 3029SOL    HW220721   2.039   1.010   3.069 -1.1903  0.5693 -0.1507
 3030SOL     OW20722   0.940   4.460   5.557 -0.2194  0.4513 -0.2942
 3030SOL    HW120723   1.018   4.482   5.506 -0.4444  0.8415 -0.4636
 3030SOL    HW220724   0.903   4.544   5.583 -0.3703  0.1577  0.4607
 3031SOL     OW20725   2.155   4.051   9.038 -0.3712 -0.2000  0.0353
 3031SOL    HW120726   2.236   3.999   9.039 -1.3743 -1.7501  0.3481
 3031SOL    HW220727   2.191   4.123   8.987 -1.7872 -2.6865 -4.5620
 3032SOL     OW20728   3.938   4.196  10.026  0.1183  0.6824  0.1096
 3032SOL    HW120729   3.855   4.242  10.013 -0.2918  0.3372  1.5489
 3032SOL    HW220730   3.932   4.163  10.116  1.4714 -0.0238 -0.0656
 3033SOL     OW20731   4.400   2.043   3.764 -0.3666  0.5844 -0.1919
 3033SOL    HW120732   4.425   1.951   3.757  0.0135  0.4989  2.5088
 3033SOL    HW220733   4.426   2.056   3.855  1.5910 -0.0548 -0.6538
 3034SOL     OW20734   2.200   3.395  16.798  0.1629  0.2068 -0.0169
 3034SOL    HW120735   2.291   3.397  16.827 -0.2259 -0.2056  1.2361
 3034SOL    HW220736   2.191   3.302  16.778  3.1810  0.1586 -1.1476
 3035SOL     OW20737   3.658   0.136  16.070  0.6069  0.1669 -0.4795
 3035SOL    HW120738   3.600   0.179  16.006 -1.0641  1.1254  1.6936
 3035SOL    HW220739   3.601   0.143  16.146  2.7085 -0.3512  1.1145
 3036SOL     OW20740   1.254   2.966  12.186 -0.1573  0.0614 -0.4163
 3036SOL    HW120741   1.346   2.942  12.186 -0.2328 -0.2184  0.4338
 3036SOL    HW220742   1.220   2.897  12.128  0.9475 -0.5142 -0.3807
 3037SOL     OW20743   1.412   1.792   9.341  0.4393  0.0960  0.7039
 3037SOL    HW120744   1.480   1.778   9.275 -1.4524 -0.8565 -1.0608
 3037SOL    HW220745   1.440   1.731   9.408  1.6039  0.8574  0.9159
 3038SOL     OW20746   0.639   3.214   7.974  0.0845  0.3834 -0.0347
 3038SOL    HW120747   0.710   3.268   7.939 -0.5080  0.4672 -1.1049
 3038SOL    HW220748   0.638   3.239   8.066  2.5408  2.3952 -0.5824
 3039SOL     OW20749   1.233   0.938  15.243  0.4592  0.2245  0.0625
 3039SOL    HW120750   1.171   0.945  15.316  0.9036 -3.3679  0.7742
 3039SOL    HW220751   1.313   0.905  15.284  0.0584 -1.6362 -0.6070
 3040SOL     OW20752   2.948   2.723   3.173 -0.4828  0.8027 -0.0684
 3040SOL    HW120753   2.912   2.695   3.257 -1.3608  2.0152 -0.0554
 3040SOL    HW220754   3.010   2.789   3.203 -0.7151  0.4995  1.0781
 3041SOL     OW20755   2.710   3.100  16.198 -0.6234 -0.2324 -0.2396
 3041SOL    HW120756   2.690   3.194  16.196 -1.0350 -0.3284 -0.6005
 3041SOL    HW220757   2.699   3.074  16.107  2.2640 -0.9837 -0.3756
 3042SOL     OW20758   3.938   0.268   9.012 -1.0101 -0.0823  0.1635
 3042SOL    HW120759   3.976   0.234   9.094 -0.4026  0.7076  0.2119
 3042SOL    HW220760   4.012   0.254   8.953 -1.8494 -1.0578 -0.6508
 3043SOL     OW20761   3.802   0.469   1.693 -0.0658  0.0455  0.9053
 3043SOL    HW120762   3.885   0.478   1.740 -0.1508  3.0041  0.5008
 3043SOL    HW220763   3.821   0.544   1.636 -0.1479 -0.8426 -0.2951
 3044SOL     OW20764   3.374   1.249   9.984 -0.0152 -0.1638  0.3285
 3044SOL    HW120765   3.451   1.217   9.939  1.1786 -0.4433  2.5570
 3044SOL    HW220766   3.364   1.336   9.944  0.8694 -2.1427 -4.1838
 3045SOL     OW20767   1.183   0.689  14.872  0.7406 -0.3098  0.3591
 3045SOL    HW120768   1.232   0.757  14.918  0.9150  0.7434 -1.3810
 3045SOL    HW220769   1.150   0.736  14.795  1.1026 -1.5950 -0.5981
 3046SOL     OW20770   1.645   4.211   1.326  0.3082 -0.4488 -0.0996
 3046SOL    HW120771   1.635   4.281   1.391 -0.2538 -0.0656 -0.5975
 3046SOL    HW220772   1.714   4.164   1.374 -0.2237  0.3759  1.4846
 3047SOL     OW20773   1.395   3.388   8.375 -0.0201 -0.2038 -0.3835
 3047SOL    HW120774   1.394   3.293   8.384  0.2317 -0.1738 -0.0199
 3047SOL    HW220775   1.341   3.407   8.452  0.4349 -0.4887  0.0031
 3048SOL     OW20776   3.373   3.607   1.998  0.0493  0.4618  0.0714
 3048SOL    HW120777   3.411   3.523   2.023 -0.3242  0.6083  1.1105
 3048SOL    HW220778   3.379   3.600   1.903 -0.6025 -0.3633  0.0907
 3049SOL     OW20779   1.208   3.982  13.728  0.0229 -0.3695  0.1355
 3049SOL    HW120780   1.223   3.968  13.822 -2.5896  0.8705  0.7314
 3049SOL    HW220781   1.132   4.040  13.727  0.7883  0.6065 -0.7559
 3050SOL     OW20782   2.323   1.127   4.466  0.2672 -0.0199 -0.1025
 3050SOL    HW120783   2.288   1.143   4.554 -0.0290 -0.4547 -0.1415
 3050SOL    HW220784   2.409   1.170   4.468  0.6489 -0.7331 -1.5107
 3051SOL     OW20785   0.688   1.533  13.454 -0.2438 -0.4609  0.0400
 3051SOL    HW120786   0.713   1.552  13.363  0.5999 -0.5893  0.2423
 3051SOL    HW220787   0.774   1.549  13.494 -0.5427 -1.9469  1.2486
 3052SOL     OW20788   0.107   0.593  17.706 -0.1411 -0.0444 -0.1524
 3052SOL    HW120789   0.107   0.498  17.716 -1.2026  0.2699  2.7393
 3052SOL    HW220790   0.195   0.607  17.670  0.7082 -0.9232  1.6461
 3053SOL     OW20791   2.185   2.802   4.244  0.2330 -0.3007 -0.5298
 3053SOL    HW120792   2.129   2.796   4.322  2.9400 -0.6109  1.4032
 3053SOL    HW220793   2.268   2.771   4.281  0.7254  0.8169 -0.7218
 3054SOL     OW20794   0.328   3.129   3.533  0.1970  0.3305  0.0674
 3054SOL    HW120795   0.286   3.045   3.515  1.1281 -0.3973  1.2404
 3054SOL    HW220796   0.390   3.100   3.601 -2.9610 -2.4299  1.7572
 3055SOL     OW20797   4.729   3.013   7.010  0.1429 -0.8814 -0.5332
 3055SOL    HW120798   0.080   2.993   6.980  0.3665 -0.0096 -0.4725
 3055SOL    HW220799   4.671   2.965   6.951 -0.8666  0.3233 -0.5362
 3056SOL     OW20800   1.417   2.980   1.911 -0.0934 -0.0208  0.8374
 3056SOL    HW120801   1.496   2.955   1.957  0.1236 -0.5400  0.1795
 3056SOL    HW220802   1.358   2.953   1.981 -1.0574  0.0430  0.0567
 3057SOL     OW20803   3.022   0.158  14.294 -0.2802  0.0283  0.4015
 3057SOL    HW120804   3.069   0.075  14.283 -0.6591 -0.4485  2.3658
 3057SOL    HW220805   3.058   0.228  14.239 -0.9810  2.0785  2.5064
 3058SOL     OW20806   1.501   3.975  16.964  0.0171  0.6060 -0.2728
 3058SOL    HW120807   1.438   3.904  16.952  0.7503 -0.5097  2.6157
 3058SOL    HW220808   1.480   4.049  16.907 -2.6013 -0.5737 -0.8119
 3059SOL     OW20809   2.668   3.645   3.775 -0.6187 -0.0134 -0.1859
 3059SOL    HW120810   2.689   3.560   3.812  3.9271  1.5572  0.8111
 3059SOL    HW220811   2.573   3.636   3.773 -0.5627 -0.8974  1.2756
 3060SOL     OW20812   3.645   3.213   1.268 -0.1675  0.3280 -0.5548
 3060SOL    HW120813   3.598   3.155   1.328  0.4535 -1.8403 -2.1616
 3060SOL    HW220814   3.699   3.145   1.227 -3.3594 -1.7108 -1.3498
 3061SOL     OW20815   4.637   3.981   4.914 -0.2923  0.0540 -0.3808
 3061SOL    HW120816   4.724   3.940   4.912 -0.0986  0.5392 -2.2748
 3061SOL    HW220817   4.639   4.012   5.004  0.2634 -3.2248  0.7304
 3062SOL     OW20818   2.297   3.398   9.965 -0.2965  0.1036 -0.5117
 3062SOL    HW120819   2.329   3.361  10.047 -1.1145  2.5191  0.8880
 3062SOL    HW220820   2.355   3.473   9.958  0.7644 -0.8937 -2.2740
 3063SOL     OW20821   3.249   0.348   4.793  0.3229 -0.6061  0.2921
 3063SOL    HW120822   3.266   0.288   4.721  1.2542 -0.5967  0.5039
 3063SOL    HW220823   3.154   0.338   4.794  0.2350  0.1173 -1.0784
 3064SOL     OW20824   4.195   0.040   4.359  0.5392  0.4147 -0.3493
 3064SOL    HW120825   4.144   4.715   4.308  1.2783 -0.3618 -0.1311
 3064SOL    HW220826   4.251   4.717   4.408  1.2273  0.8907 -0.5518
 3065SOL     OW20827   3.452   4.668   1.457 -0.4299  0.2382  0.4323
 3065SOL    HW120828   3.454   0.003   1.393 -1.7342 -1.2495 -1.2831
 3065SOL    HW220829   3.459   4.721   1.536  2.3615  1.9548 -0.9554
 3066SOL     OW20830   4.289   1.519   7.421  0.0349  0.1053  0.1428
 3066SOL    HW120831   4.237   1.574   7.363  0.1432 -1.3619 -1.3319
 3066SOL    HW220832   4.375   1.560   7.425 -0.5107  1.2463 -0.0246
 3067SOL     OW20833   2.603   0.844   8.630  0.4269  0.6603  0.6208
 3067SOL    HW120834   2.521   0.866   8.674 -1.0428 -0.9922 -1.3529
 3067SOL    HW220835   2.651   0.801   8.701 -0.4082 -0.3322  0.5854
 3068SOL     OW20836   0.365   1.892  13.669  0.0753  0.1957  0.0938
 3068SOL    HW120837   0.441   1.842  13.640  0.5385  0.6193  0.5649
 3068SOL    HW220838   0.378   1.975  13.623 -0.9600  0.0238 -0.5187
 3069SOL     OW20839   2.058   4.138  14.290  0.6306  0.1903  0.3398
 3069SOL    HW120840   2.116   4.173  14.223  0.8215 -1.6291 -0.4651
 3069SOL    HW220841   2.123   4.082  14.333 -0.6094 -0.5264  1.3097
 3070SOL     OW20842   1.529   4.555   6.657 -0.0874  0.2756 -0.2069
 3070SOL    HW120843   1.557   4.524   6.743  2.0484  2.2552 -0.2125
 3070SOL    HW220844   1.450   4.502   6.645  0.3993 -0.0994 -1.6981
 3071SOL     OW20845   3.539   3.788   9.707  0.2712 -0.5262 -0.0200
 3071SOL    HW120846   3.482   3.837   9.647 -0.3816 -0.6216  0.5317
 3071SOL    HW220847   3.524   3.703   9.664 -0.0114 -0.3421 -0.2834
 3072SOL     OW20848   0.903   0.160   2.294 -0.2216  0.1399  0.6721
 3072SOL    HW120849   0.986   0.207   2.304  1.4776 -3.0696  1.4970
 3072SOL    HW220850   0.852   0.241   2.297 -1.5333 -0.6480 -0.5013
 3073SOL     OW20851   2.971   0.805   2.345  0.3603 -0.3747  0.0722
 3073SOL    HW120852   2.911   0.731   2.354  1.2900 -1.2049 -0.4186
 3073SOL    HW220853   2.918   0.877   2.378 -0.6850 -1.1750  0.1408
 3074SOL     OW20854   1.509   1.041  17.556 -0.0755 -0.4317  0.4854
 3074SOL    HW120855   1.433   0.991  17.584 -0.8530 -0.2731 -1.3997
 3074SOL    HW220856   1.518   1.090  17.639 -3.9798  0.6839  0.2316
 3075SOL     OW20857   0.609   3.945  11.506  0.4278  0.1298  0.1742
 3075SOL    HW120858   0.594   3.872  11.565 -0.3683 -1.7143 -2.3189
 3075SOL    HW220859   0.686   3.910  11.461 -0.5340  1.4668 -2.5299
 3076SOL     OW20860   4.037   0.268   4.427  0.1030 -0.2758  0.7235
 3076SOL    HW120861   4.103   0.318   4.476  1.5799  0.2242 -1.7972
 3076SOL    HW220862   4.064   0.178   4.445 -0.1076 -0.0834  2.0424
 3077SOL     OW20863   2.481   0.250  17.039 -0.6983 -0.0337 -0.0118
 3077SOL    HW120864   2.519   0.165  17.017  0.0078 -0.1288  1.5573
 3077SOL    HW220865   2.393   0.221  17.066 -1.6676  0.7254 -2.4293
 3078SOL     OW20866   2.909   3.445   8.868 -0.2920  0.0105 -0.1694
 3078SOL    HW120867   2.949   3.475   8.787 -0.7932 -0.3273 -0.5408
 3078SOL    HW220868   2.860   3.523   8.898 -0.0000  0.3885 -0.6896
 3079SOL     OW20869   3.695   4.203   6.948  0.1892 -0.2115  0.0004
 3079SOL    HW120870   3.640   4.187   7.025  1.0948 -0.7671  0.5309
 3079SOL    HW220871   3.673   4.122   6.901 -0.0129  0.6498 -1.4000
 3080SOL     OW20872   3.982   3.428   6.233  0.3783 -0.2060 -0.2040
 3080SOL    HW120873   4.064   3.444   6.280  1.1923  0.7175 -1.9384
 3080SOL    HW220874   3.974   3.499   6.169  1.5405 -1.0884 -1.3206
 3081SOL     OW20875   2.838   1.576   1.109  0.0249  0.4931  0.1318
 3081SOL    HW120876   2.873   1.635   1.175  2.1072  0.5717 -1.0506
 3081SOL    HW220877   2.781   1.628   1.052 -2.3904 -1.4996  0.7235
 3082SOL     OW20878   2.223   0.171   1.041  0.8411 -0.9374  0.2490
 3082SOL    HW120879   2.252   0.258   1.013  1.0945 -0.6004  1.5418
 3082SOL    HW220880   2.164   0.156   0.968  0.1813  1.0965  0.3708
 3083SOL     OW20881   3.221   3.290   2.658 -0.3819 -0.2773  0.0709
 3083SOL    HW120882   3.164   3.214   2.644 -1.5905  0.6608  0.0108
 3083SOL    HW220883   3.308   3.249   2.660 -0.2600  0.0376  0.8706
 3084SOL     OW20884   2.859   1.607   8.054 -0.7134 -0.3464  1.0307
 3084SOL    HW120885   2.801   1.540   8.088 -0.8184 -0.3690  0.8078
 3084SOL    HW220886   2.823   1.689   8.089 -0.5986  0.6192 -1.0905
 3085SOL     OW20887   0.751   1.022   6.845 -0.1821 -0.0134 -0.9477
 3085SOL    HW120888   0.753   1.112   6.878 -1.2561 -0.3306 -0.0245
 3085SOL    HW220889   0.809   0.986   6.912 -0.6075 -1.3365 -1.2781
 3086SOL     OW20890   1.214   0.695   6.695  0.0246 -0.2900  0.0889
 3086SOL    HW120891   1.220   0.721   6.603  1.8265  0.1561  0.3222
 3086SOL    HW220892   1.275   0.621   6.698 -1.2171 -1.3210 -0.2445
 3087SOL     OW20893   4.269   1.971   3.168 -1.1032 -0.0666  0.2404
 3087SOL    HW120894   4.354   1.929   3.173 -0.8295  0.4002 -0.5384
 3087SOL    HW220895   4.243   1.961   3.077  0.3005  0.9605 -0.2726
 3088SOL     OW20896   3.941   4.251  16.138  0.7643 -0.6093 -0.1870
 3088SOL    HW120897   4.036   4.258  16.129  0.7127  0.2911 -0.0850
 3088SOL    HW220898   3.941   4.233  16.232 -1.0100 -0.9125 -0.2387
 3089SOL     OW20899   2.088   2.915   8.789 -0.5394  0.0935  0.1939
 3089SOL    HW120900   2.157   2.874   8.841 -0.8928 -1.2209 -0.3557
 3089SOL    HW220901   2.011   2.876   8.829 -0.1918 -1.9807 -1.1359
 3090SOL     OW20902   3.116   1.394   3.003 -0.0950  0.4444 -0.4761
 3090SOL    HW120903   3.031   1.413   3.043  0.3771  0.2163  0.6310
 3090SOL    HW220904   3.105   1.422   2.912 -0.0240 -1.4662 -1.0773
 3091SOL     OW20905   2.573   3.936   6.584  0.4947  0.6934  0.2858
 3091SOL    HW120906   2.647   3.882   6.556  0.4280  1.6506 -1.7464
 3091SOL    HW220907   2.505   3.872   6.565  0.1178  0.9106  0.9153
 3092SOL     OW20908   1.223   2.348   4.238 -0.3732 -0.1997  0.3728
 3092SOL    HW120909   1.311   2.371   4.207 -0.1755 -1.3142  0.1005
 3092SOL    HW220910   1.181   2.434   4.235  0.3586  0.1900  1.1781
 3093SOL     OW20911   3.270   3.466  12.240 -1.1106  0.1325  0.3380
 3093SOL    HW120912   3.232   3.484  12.154  1.0678  0.5536 -0.5534
 3093SOL    HW220913   3.214   3.510  12.304  0.5479  0.8021  1.3324
 3094SOL     OW20914   2.795   0.915   3.940  0.1624 -0.3065 -0.5617
 3094SOL    HW120915   2.740   0.991   3.924  0.2320 -0.1132  0.1330
 3094SOL    HW220916   2.732   0.843   3.933  0.5323 -0.4967 -2.0171
 3095SOL     OW20917   3.579   0.749   6.315 -0.1651  0.6948 -0.3088
 3095SOL    HW120918   3.614   0.707   6.237  1.6292  1.2858  0.1702
 3095SOL    HW220919   3.546   0.832   6.280 -0.0126  1.3067  1.0048
 3096SOL     OW20920   2.539   4.310   8.148 -0.0522  0.1422  0.0837
 3096SOL    HW120921   2.475   4.363   8.195  1.0902  0.5642  1.1605
 3096SOL    HW220922   2.536   4.227   8.196 -0.1577  0.1529  0.0952
 3097SOL     OW20923   4.234   2.044  14.338  0.7171  0.4850 -0.0794
 3097SOL    HW120924   4.321   2.034  14.297 -0.4478  0.3728 -2.5354
 3097SOL    HW220925   4.262   2.105  14.406  0.9234 -0.0420  0.3119
 3098SOL     OW20926   0.163   1.008   4.290 -0.0675 -0.2728  0.8541
 3098SOL    HW120927   0.252   0.998   4.256  0.0888 -0.0115  1.1832
 3098SOL    HW220928   0.173   0.961   4.373  0.1902 -2.6311 -0.4979
 3099SOL     OW20929   4.247   3.981   6.707 -0.4348  0.4776 -0.0637
 3099SOL    HW120930   4.186   4.011   6.638  0.7351 -0.2064 -1.3969
 3099SOL    HW220931   4.322   3.948   6.658 -1.0327 -1.3980  0.2517
 3100SOL     OW20932   4.011   0.563  10.839  0.2299 -0.5009 -0.5946
 3100SOL    HW120933   4.086   0.523  10.883 -0.7326  1.7391  3.1047
 3100SOL    HW220934   3.972   0.617  10.908 -0.0895 -0.7389 -0.5902
 3101SOL     OW20935   3.283   2.756   4.610  0.0528 -0.5217  0.0557
 3101SOL    HW120936   3.217   2.706   4.561  0.8548 -1.5479  0.0255
 3101SOL    HW220937   3.365   2.740   4.564  0.3045  1.3110 -0.1195
 3102SOL     OW20938   3.390   2.100   7.432 -0.0726  0.3163 -0.2218
 3102SOL    HW120939   3.394   2.184   7.478  1.0863  0.6605 -0.9501
 3102SOL    HW220940   3.329   2.054   7.491  0.1085  0.4680  0.0827
 3103SOL     OW20941   3.102   4.591   9.130  0.0176  0.1506 -0.1693
 3103SOL    HW120942   3.126   4.648   9.057  0.3804 -1.1564 -1.0651
 3103SOL    HW220943   3.153   4.645   9.190 -3.2226  1.4935  1.3739
 3104SOL     OW20944   0.782   2.341  12.182  0.6794  0.2884  0.1533
 3104SOL    HW120945   0.759   2.403  12.251  2.1031 -0.4218  1.2633
 3104SOL    HW220946   0.766   2.255  12.221 -0.7551 -1.4810 -4.3660
 3105SOL     OW20947   2.128   2.237   7.014 -0.1515 -0.5100  0.1160
 3105SOL    HW120948   2.057   2.201   6.962  0.7288 -0.6538 -0.9838
 3105SOL    HW220949   2.080   2.274   7.088 -0.4717  1.8329 -1.2566
 3106SOL     OW20950   2.012   1.032  16.272 -0.3219 -0.3808  0.1436
 3106SOL    HW120951   1.990   0.962  16.334  1.2913 -1.6148 -0.6571
 3106SOL    HW220952   1.933   1.031  16.218  0.0070 -0.7782 -0.3302
 3107SOL     OW20953   2.320   3.881  14.573  0.5088  0.8729  0.0919
 3107SOL    HW120954   2.331   3.835  14.656 -2.6739  0.1355  0.0959
 3107SOL    HW220955   2.395   3.841  14.528 -0.5497 -1.8570  0.7633
 3108SOL     OW20956   2.294   1.038  16.249 -0.1534  0.3828 -0.1199
 3108SOL    HW120957   2.299   1.127  16.214 -4.4246  1.1721  1.2907
 3108SOL    HW220958   2.199   1.026  16.251 -0.2235  1.1897  1.2213
 3109SOL     OW20959   1.212   1.114   7.966  0.1267  0.0514  0.7252
 3109SOL    HW120960   1.203   1.204   7.996 -3.1330 -0.2273  0.6057
 3109SOL    HW220961   1.199   1.110   7.871 -1.3984  0.3507  0.9085
 3110SOL     OW20962   0.828   0.192   5.330  0.4268  0.1595 -0.4452
 3110SOL    HW120963   0.750   0.220   5.281  0.6274  1.2862 -0.1155
 3110SOL    HW220964   0.827   0.276   5.375  1.8872  0.0504 -0.2270
 3111SOL     OW20965   4.546   3.569   3.477  0.0751  0.1983 -0.2365
 3111SOL    HW120966   4.627   3.613   3.502 -0.0950  1.3688 -1.7656
 3111SOL    HW220967   4.525   3.619   3.399 -1.1348  1.6136  0.9940
 3112SOL     OW20968   2.550   1.476  16.723  0.0101  0.2005  0.5164
 3112SOL    HW120969   2.496   1.460  16.646  0.4011  0.5435  0.1728
 3112SOL    HW220970   2.527   1.397  16.773  1.2151 -0.4301  0.0810
 3113SOL     OW20971   1.505   4.505   8.208  0.4412 -0.0978  0.2358
 3113SOL    HW120972   1.485   4.598   8.213  3.8093  0.6743 -0.3242
 3113SOL    HW220973   1.465   4.495   8.122  0.6472  2.6954 -0.2010
 3114SOL     OW20974   0.940   0.867   9.979 -0.1132  0.3552 -0.4648
 3114SOL    HW120975   0.940   0.825  10.064  2.3698  0.8527 -0.2143
 3114SOL    HW220976   0.908   0.805   9.913  1.7863 -1.4843  0.3438
 3115SOL     OW20977   2.293   3.130  10.789 -0.3514  0.8650 -0.0774
 3115SOL    HW120978   2.254   3.065  10.731  1.1616 -2.2300  2.3504
 3115SOL    HW220979   2.328   3.072  10.857  2.1213  0.7684 -1.4455
 3116SOL     OW20980   0.332   4.678   3.293 -0.5628 -0.7430  0.0767
 3116SOL    HW120981   0.416   4.633   3.289 -0.4231 -0.3911 -1.0741
 3116SOL    HW220982   0.312   4.674   3.386  1.8895  0.1578  0.6577
 3117SOL     OW20983   3.106   0.671   4.667 -0.4229  0.1887 -0.0586
 3117SOL    HW120984   3.134   0.743   4.612  1.2956  1.0999  2.0296
 3117SOL    HW220985   3.025   0.710   4.701  0.3546  2.9380 -1.4754
 3118SOL     OW20986   3.477   2.263   2.179  0.0300 -0.2269  0.4728
 3118SOL    HW120987   3.508   2.205   2.249  2.1349 -2.5545 -2.4000
 3118SOL    HW220988   3.543   2.255   2.110 -2.8805  0.5550 -2.3539
 3119SOL     OW20989   0.796   3.604   6.559  0.3000 -0.1978  0.3574
 3119SOL    HW120990   0.867   3.571   6.615  0.6985  0.9348  0.5287
 3119SOL    HW220991   0.753   3.668   6.616  0.1412 -0.1698  0.2034
 3120SOL     OW20992   1.858   4.725   3.749 -0.0982  0.0169  1.0220
 3120SOL    HW120993   1.810   4.675   3.683  0.1967  1.4391 -0.2502
 3120SOL    HW220994   1.797   4.711   3.821  1.7172 -0.5471  2.4475
 3121SOL     OW20995   4.406   4.068  16.847 -0.7568 -0.1177 -0.0098
 3121SOL    HW120996   4.441   4.066  16.936  1.3067  2.2775 -0.7720
 3121SOL    HW220997   4.346   4.141  16.858 -0.3306 -0.0636  1.8687
 3122SOL     OW20998   0.583   2.951   8.432  0.3894  0.3315  0.0610
 3122SOL    HW120999   0.550   2.991   8.513  0.6798  0.2589  0.2179
 3122SOL    HW221000   0.524   2.878   8.418  1.0703 -0.3844  0.9172
 3123SOL     OW21001   3.146   0.924   6.804  0.4336  0.0720 -0.0609
 3123SOL    HW121002   3.175   0.914   6.714 -1.3957  0.7100 -0.7265
 3123SOL    HW221003   3.220   0.967   6.846 -0.5575 -0.5136  2.3246
 3124SOL     OW21004   2.274   3.185   7.695 -0.0582 -0.2101  0.1934
 3124SOL    HW121005   2.183   3.162   7.677 -0.0194 -0.3767  0.2166
 3124SOL    HW221006   2.278   3.274   7.731  1.5229  0.0863 -0.6943
 3125SOL     OW21007   0.406   3.840  12.388 -0.0176  0.0636  0.2857
 3125SOL    HW121008   0.448   3.916  12.348 -1.8981  1.1367  0.3062
 3125SOL    HW221009   0.486   3.802  12.423 -1.7415 -1.8986  2.0979
 3126SOL     OW21010   1.700   2.180  11.982  0.2211  0.2017 -0.8993
 3126SOL    HW121011   1.774   2.153  12.035  0.2801  1.0136 -0.5746
 3126SOL    HW221012   1.748   2.225  11.912  2.7749  0.0532  0.7697
 3127SOL     OW21013   1.259   1.428   3.589 -0.2187 -0.0241  0.1607
 3127SOL    HW121014   1.193   1.415   3.520  0.4665  1.4777 -0.7897
 3127SOL    HW221015   1.323   1.481   3.540 -3.0250  0.5303 -2.9113
 3128SOL     OW21016   4.214   1.259   7.144 -0.1474  0.2081 -0.2940
 3128SOL    HW121017   4.182   1.337   7.189 -0.3071 -0.0128 -0.0303
 3128SOL    HW221018   4.308   1.272   7.158  0.1089 -1.8365 -0.1631
 3129SOL     OW21019   3.087   0.472   3.078  0.1905  0.0796  0.3722
 3129SOL    HW121020   3.102   0.388   3.122 -0.7283 -1.7754 -2.8561
 3129SOL    HW221021   3.174   0.485   3.040 -0.5407  1.3023 -0.8350
 3130SOL     OW21022   0.854   1.352   4.866  0.4165 -0.7551  0.0180
 3130SOL    HW121023   0.785   1.330   4.928 -0.1105 -1.5329 -0.8464
 3130SOL    HW221024   0.844   1.275   4.809 -1.4697 -0.9747  0.6625
 3131SOL     OW21025   2.987   4.127   6.450  0.3779  0.4083 -0.1233
 3131SOL    HW121026   2.934   4.113   6.529 -0.9343 -1.1345 -1.2868
 3131SOL    HW221027   2.988   4.223   6.456 -0.4369  0.3072  1.9285
 3132SOL     OW21028   3.044   3.247   8.395  0.3502  0.2710  0.2704
 3132SOL    HW121029   3.099   3.319   8.364  1.6988 -0.9437 -0.1978
 3132SOL    HW221030   3.080   3.163   8.366 -0.0938  0.5582 -1.1291
 3133SOL     OW21031   0.320   1.631   9.563  0.5870 -0.2850 -0.1516
 3133SOL    HW121032   0.264   1.656   9.637  1.9595 -1.9125  1.4489
 3133SOL    HW221033   0.408   1.639   9.600  0.7601  2.6701 -1.2385
 3134SOL     OW21034   3.078   3.972   4.381  0.5076  0.4300 -0.3721
 3134SOL    HW121035   3.012   3.917   4.423 -0.0264  0.7604 -0.7844
 3134SOL    HW221036   3.026   4.031   4.328 -4.1676 -2.2341  1.2911
 3135SOL     OW21037   2.541   0.118   7.115  0.4718 -0.1367 -0.0646
 3135SOL    HW121038   2.500   0.184   7.059  0.0342 -0.2286  0.1508
 3135SOL    HW221039   2.583   0.174   7.179 -0.0513  0.0703  0.0981
 3136SOL     OW21040   0.525   3.058  12.544  0.1254  0.2785  0.0398
 3136SOL    HW121041   0.482   3.043  12.460 -0.1965  0.3337  0.1930
 3136SOL    HW221042   0.488   3.144  12.566  2.5723  1.1040  0.9373
 3137SOL     OW21043   1.457   1.491  10.706 -0.3182  0.4825  0.5242
 3137SOL    HW121044   1.549   1.511  10.722 -0.5529  1.7398  0.2816
 3137SOL    HW221045   1.420   1.548  10.773 -1.5008  1.2864 -0.8082
 3138SOL     OW21046   0.901   2.233   3.362 -0.1511 -0.2465  0.0003
 3138SOL    HW121047   0.854   2.157   3.328  0.7405 -1.5897  1.8055
 3138SOL    HW221048   0.990   2.198   3.361 -0.1811 -0.3533  2.1623
 3139SOL     OW21049   0.510   3.274  17.209 -0.4457  0.7788 -0.0542
 3139SOL    HW121050   0.453   3.201  17.230  2.0563 -1.6082 -1.6332
 3139SOL    HW221051   0.472   3.332  17.274 -1.9682 -1.2452  0.8223
 3140SOL     OW21052   4.326   1.997  10.316  0.1316  0.3703  0.4797
 3140SOL    HW121053   4.346   2.002  10.409  0.1219  1.9107  0.4048
 3140SOL    HW221054   4.243   2.043  10.303  0.8237  1.1253 -1.3959
 3141SOL     OW21055   2.262   0.962  13.933  0.0850  0.5238  0.3474
 3141SOL    HW121056   2.324   0.903  13.890 -1.0244  0.0979 -0.6723
 3141SOL    HW221057   2.279   1.037  13.876  1.1852  0.2627  0.3232
 3142SOL     OW21058   0.914   4.584   4.176  0.0959  0.2423 -0.5415
 3142SOL    HW121059   0.988   4.639   4.150 -1.1766  2.7878  1.2567
 3142SOL    HW221060   0.929   4.518   4.108 -0.6377 -1.2432  0.7504
 3143SOL     OW21061   1.040   0.300  15.807 -0.0558 -0.2027  0.1432
 3143SOL    HW121062   0.949   0.273  15.796 -0.2150  0.2668  0.3125
 3143SOL    HW221063   1.078   0.266  15.727  1.5479 -2.0145  1.6601
 3144SOL     OW21064   3.402   2.949   4.972 -0.1788 -0.0752  0.4351
 3144SOL    HW121065   3.465   2.878   4.956 -2.0454 -1.3592 -1.1197
 3144SOL    HW221066   3.465   2.984   5.035  0.4321 -0.3282 -0.0320
 3145SOL     OW21067   1.446   2.548   6.799  0.1646 -0.2965  0.2810
 3145SOL    HW121068   1.500   2.469   6.793  1.7602  0.8391 -0.1228
 3145SOL    HW221069   1.500   2.621   6.768  0.6328 -0.8270 -0.1565
 3146SOL     OW21070   1.666   1.396   1.939  0.4616  0.8941 -0.2426
 3146SOL    HW121071   1.612   1.448   1.999 -0.9282 -0.3935 -0.3863
 3146SOL    HW221072   1.606   1.324   1.919 -1.3224  2.3628 -0.2473
 3147SOL     OW21073   0.018   2.872   8.375  0.0151  0.2211  0.4567
 3147SOL    HW121074   0.108   2.873   8.342  0.7790  1.7413  2.6094
 3147SOL    HW221075   0.000   2.779   8.363 -1.5055  0.4755  0.7508
 3148SOL     OW21076   1.580   0.852   1.827  0.3662  0.2062 -0.3628
 3148SOL    HW121077   1.612   0.924   1.772  1.9828  0.1813  0.5564
 3148SOL    HW221078   1.486   0.855   1.809  0.5067  2.0519 -0.7760
 3149SOL     OW21079   0.116   3.853   5.770 -0.3459 -0.4815  0.0940
 3149SOL    HW121080   0.205   3.848   5.736 -0.8077 -1.1858 -0.9864
 3149SOL    HW221081   0.094   3.929   5.717  1.0153 -1.5606 -1.9817
 3150SOL     OW21082   1.081   0.650   8.890  0.1326  0.5464 -0.3785
 3150SOL    HW121083   1.130   0.668   8.809 -0.7530  1.4882 -0.7028
 3150SOL    HW221084   0.995   0.634   8.851  0.4382  0.0299 -0.8365
 3151SOL     OW21085   2.169   3.831   2.187  0.5552 -0.1025  0.3327
 3151SOL    HW121086   2.191   3.886   2.113  1.2708 -0.8899 -0.0357
 3151SOL    HW221087   2.081   3.864   2.205  0.6887  1.4008 -1.8441
 3152SOL     OW21088   0.678   0.842   5.406 -0.2846  0.2742  0.4765
 3152SOL    HW121089   0.723   0.922   5.375 -0.0907 -0.5857 -1.4669
 3152SOL    HW221090   0.745   0.779   5.378 -2.4404 -1.4915 -0.6386
 3153SOL     OW21091   2.647   2.157   5.306 -0.6157 -0.9027  0.0174
 3153SOL    HW121092   2.702   2.234   5.293 -1.3043 -0.4090  0.0626
 3153SOL    HW221093   2.628   2.135   5.215 -1.4901 -2.6208  0.6177
 3154SOL     OW21094   0.720   3.930   9.082 -0.2257  0.0682  0.0084
 3154SOL    HW121095   0.653   3.957   9.019  1.5922  0.4845 -1.7126
 3154SOL    HW221096   0.677   3.955   9.164  0.1722 -1.4846  0.6973
 3155SOL     OW21097   2.530   0.084   4.513 -0.5622  0.5174 -0.1001
 3155SOL    HW121098   2.593   0.016   4.535  0.7717  1.4120 -1.1368
 3155SOL    HW221099   2.465   0.031   4.468  0.9400 -1.8697  0.5773
 3156SOL     OW21100   3.558   2.748   8.944  0.0083 -0.4845 -0.1209
 3156SOL    HW121101   3.626   2.682   8.929 -0.5306 -1.4932  1.8513
 3156SOL    HW221102   3.598   2.807   9.009  0.9420  0.1377 -1.2658
 3157SOL     OW21103   2.945   2.742   9.741  0.1778 -0.0369  0.4250
 3157SOL    HW121104   2.890   2.664   9.745 -1.2583  1.0429  2.2816
 3157SOL    HW221105   2.909   2.777   9.659  1.3277 -3.5337 -1.5505
 3158SOL     OW21106   4.424   2.725   5.230 -0.3371 -0.3893 -0.1713
 3158SOL    HW121107   4.352   2.786   5.212 -0.3296  1.1167  5.0484
 3158SOL    HW221108   4.450   2.766   5.312  1.9932 -0.5743 -0.8325
 3159SOL     OW21109   4.495   1.979  14.907 -0.3191 -0.2127 -0.1390
 3159SOL    HW121110   4.516   1.896  14.864 -1.1116 -0.6853  0.3849
 3159SOL    HW221111   4.434   1.957  14.978  1.3701 -2.1126  0.7133
 3160SOL     OW21112   0.945   0.032   0.526  0.0571  0.5721 -0.2722
 3160SOL    HW121113   0.933   0.123   0.551 -0.3090  1.2304 -2.8279
 3160SOL    HW221114   0.987   0.055   0.443 -0.3448 -1.7412 -1.1237
 3161SOL     OW21115   0.793   1.384   0.952  0.1672 -0.0208 -0.1360
 3161SOL    HW121116   0.865   1.321   0.950 -1.4939 -2.0172  2.2312
 3161SOL    HW221117   0.740   1.349   1.024 -1.3247 -1.0838 -1.7641
 3162SOL     OW21118   0.198   1.451   0.860 -0.0174  0.5567 -0.3023
 3162SOL    HW121119   0.272   1.396   0.889  0.3954  1.2500 -0.0364
 3162SOL    HW221120   0.152   1.385   0.809  1.5742 -2.2144  1.8199
 3163SOL     OW21121   2.741   0.444  16.783  0.5280  0.4159  0.1842
 3163SOL    HW121122   2.760   0.392  16.862 -0.3870 -1.7647 -1.0243
 3163SOL    HW221123   2.815   0.504  16.781  1.7637 -1.1572 -1.7847
 3164SOL     OW21124   3.665   3.230   6.255 -0.2716  0.2378 -0.1036
 3164SOL    HW121125   3.591   3.260   6.308  1.3375 -0.7952  2.7122
 3164SOL    HW221126   3.709   3.173   6.318 -1.4445 -0.0527  0.4633
 3165SOL     OW21127   1.481   2.349  11.819 -0.0306  0.4408 -0.3764
 3165SOL    HW121128   1.567   2.390  11.828 -0.3262  0.5388  1.9757
 3165SOL    HW221129   1.506   2.256  11.821  0.8255  0.7042  1.4537
 3166SOL     OW21130   1.996   3.265  11.163  0.1084 -0.0511 -0.4297
 3166SOL    HW121131   2.000   3.355  11.195  1.9372 -0.5957  0.8648
 3166SOL    HW221132   2.078   3.229  11.195  1.5503  2.1368 -1.6831
 3167SOL     OW21133   1.655   4.003   8.095 -0.1751  0.1341 -0.1540
 3167SOL    HW121134   1.745   4.024   8.071  0.2566  0.4278  1.7283
 3167SOL    HW221135   1.622   4.092   8.107 -1.3298 -0.2967 -0.1368
 3168SOL     OW21136   2.390   1.928  14.845  0.5133 -0.0776  0.0709
 3168SOL    HW121137   2.401   1.834  14.836  2.8617  0.1997  0.2130
 3168SOL    HW221138   2.479   1.959  14.830  0.3164  0.8496  0.7659
 3169SOL     OW21139   1.548   2.189  11.565  0.5815  0.0062  0.1245
 3169SOL    HW121140   1.477   2.147  11.614 -0.4124  2.1471  0.5511
 3169SOL    HW221141   1.599   2.113  11.540  0.6236  0.3792 -0.9373
 3170SOL     OW21142   1.479   4.735  12.616 -0.4773 -0.1404 -0.4532
 3170SOL    HW121143   1.529   4.678  12.674 -1.6867 -0.1802  0.5562
 3170SOL    HW221144   1.477   4.686  12.534  2.1002  0.4819 -0.8837
 3171SOL     OW21145   3.444   4.364   4.119 -0.1331 -0.0141 -0.2440
 3171SOL    HW121146   3.470   4.316   4.041 -2.1259  0.1087 -1.0005
 3171SOL    HW221147   3.477   4.453   4.103 -1.2540  0.4524 -0.0236
 3172SOL     OW21148   3.257   1.720   7.536 -0.4187  0.1218 -0.2032
 3172SOL    HW121149   3.175   1.682   7.504 -1.6323  2.1025  0.5819
 3172SOL    HW221150   3.265   1.669   7.617 -0.4626  0.5954  0.1016
 3173SOL     OW21151   1.766   0.192   0.078 -0.0243 -0.0082  0.2367
 3173SOL    HW121152   1.765   0.115   0.021  0.1867  0.1942 -0.0492
 3173SOL    HW221153   1.687   0.192   0.130 -0.7917  0.7437 -0.9260
 3174SOL     OW21154   2.536   3.995   9.576 -0.3147  0.2345 -0.3114
 3174SOL    HW121155   2.480   4.071   9.562 -1.4717 -0.5121  0.2686
 3174SOL    HW221156   2.600   4.033   9.636 -0.7229  0.2378  0.1244
 3175SOL     OW21157   3.705   0.404   1.980  0.5308 -0.5433 -0.2546
 3175SOL    HW121158   3.721   0.446   1.895  2.1860 -1.0310 -0.1854
 3175SOL    HW221159   3.758   0.462   2.036 -1.7249  2.6821 -1.4446
 3176SOL     OW21160   2.622   2.311   1.255 -0.1509  0.5303  0.1909
 3176SOL    HW121161   2.601   2.388   1.203  0.2625 -0.1790 -1.0423
 3176SOL    HW221162   2.596   2.353   1.337 -0.0600 -1.2026  1.1097
 3177SOL     OW21163   2.410   3.587   9.443  0.0590 -0.4128 -0.0874
 3177SOL    HW121164   2.404   3.662   9.502  2.8041  1.8931 -2.7186
 3177SOL    HW221165   2.423   3.516   9.506  1.6810 -1.0287 -1.1025
 3178SOL     OW21166   1.288   3.050   3.726 -0.7885 -0.4092 -0.8255
 3178SOL    HW121167   1.271   3.043   3.820  0.9629  4.7264 -0.1421
 3178SOL    HW221168   1.306   3.141   3.701  0.6639  0.4065  3.1057
 3179SOL     OW21169   2.354   2.792  10.817  0.2119 -0.0985 -0.0572
 3179SOL    HW121170   2.274   2.747  10.843 -0.3344  0.1613 -1.2581
 3179SOL    HW221171   2.379   2.844  10.893  0.1125 -0.7191  0.4040
 3180SOL     OW21172   3.480   0.687   8.265 -0.6492 -0.0967  0.4275
 3180SOL    HW121173   3.557   0.743   8.261  0.0053 -1.1666 -1.9894
 3180SOL    HW221174   3.499   0.645   8.349  0.1685 -0.6074 -0.0198
 3181SOL     OW21175   4.049   1.495  12.830 -0.5287  0.0076  0.0285
 3181SOL    HW121176   4.109   1.423  12.849 -0.3548 -0.1850 -1.2665
 3181SOL    HW221177   4.035   1.522  12.921 -1.1588 -1.9458  0.5140
 3182SOL     OW21178   1.534   2.272  12.203  0.6338  0.1864  0.0130
 3182SOL    HW121179   1.557   2.294  12.113 -2.7719 -1.7004 -1.3048
 3182SOL    HW221180   1.439   2.265  12.204  0.7619 -1.3526  1.2558
 3183SOL     OW21181   4.686   3.799   7.637 -0.1408  0.5255 -0.2611
 3183SOL    HW121182   4.653   3.747   7.709 -0.4423 -0.8270 -1.3742
 3183SOL    HW221183   0.040   3.773   7.626 -0.1619 -0.2923  1.5397
 3184SOL     OW21184   0.124   1.991   9.207  0.2702 -0.4646  0.3967
 3184SOL    HW121185   0.060   1.939   9.256 -2.3130  1.8194 -0.5772
 3184SOL    HW221186   0.083   2.077   9.210  1.3108  0.0789 -0.6864
 3185SOL     OW21187   0.070   2.619   6.351 -0.0291 -0.0926 -0.4481
 3185SOL    HW121188   0.129   2.631   6.276 -0.6139 -0.7301 -1.0183
 3185SOL    HW221189   0.062   2.523   6.354  1.7959 -0.2364 -0.4114
 3186SOL     OW21190   4.332   0.533   0.043  0.0377  0.0952  0.5806
 3186SOL    HW121191   4.423   0.555   0.062 -0.0084 -2.1450  3.3453
 3186SOL    HW221192   4.289   0.618   0.056 -1.7115 -0.8084  0.7332
 3187SOL     OW21193   4.661   3.185  11.069 -0.1646  0.2854 -0.1350
 3187SOL    HW121194   4.733   3.247  11.058  0.3031 -0.1960  0.2563
 3187SOL    HW221195   4.631   3.206  11.157  0.2607  2.5194 -0.5276
 3188SOL     OW21196   0.966   0.029   9.471  0.0460  0.0927  0.2800
 3188SOL    HW121197   1.046   0.009   9.519  0.5655  0.8052 -0.2832
 3188SOL    HW221198   0.906   0.031   9.545 -0.5971 -3.3482 -0.1386
 3189SOL     OW21199   3.208   0.297   3.821  0.1678 -0.3275  0.2139
 3189SOL    HW121200   3.257   0.363   3.871  1.1021 -0.6798 -0.2366
 3189SOL    HW221201   3.119   0.313   3.853 -1.0230 -0.1934 -3.2018
 3190SOL     OW21202   2.721   1.797   6.707 -0.1576  0.0553 -0.1730
 3190SOL    HW121203   2.706   1.705   6.728 -1.0395  0.0080 -0.9801
 3190SOL    HW221204   2.807   1.798   6.666 -0.2676  0.3592 -0.4008
 3191SOL     OW21205   0.424   1.096   3.617  0.3852  0.2253  0.1818
 3191SOL    HW121206   0.399   1.154   3.689  1.9860 -0.8388  1.5744
 3191SOL    HW221207   0.395   1.132   3.533 -1.4969 -1.2207  0.2119
 3192SOL     OW21208   0.332   4.273   4.844  0.0064  0.5964 -0.1283
 3192SOL    HW121209   0.292   4.358   4.828 -0.1482  0.2189 -1.7273
 3192SOL    HW221210   0.254   4.227   4.876  1.2154 -1.7906 -0.6140
 3193SOL     OW21211   0.117   2.625  13.404  0.3817  0.0633  0.5583
 3193SOL    HW121212   0.138   2.717  13.419  2.0696  0.0608 -1.7555
 3193SOL    HW221213   0.096   2.624  13.311 -1.5738 -1.3317  0.9888
 3194SOL     OW21214   3.369   2.571   9.893 -0.3398 -0.4661 -1.0157
 3194SOL    HW121215   3.318   2.609   9.822  0.7887 -0.1391 -1.6484
 3194SOL    HW221216   3.308   2.570   9.967  2.2056  1.7561  1.1159
 3195SOL     OW21217   4.512   3.973  16.612  0.0956  0.8459  0.1399
 3195SOL    HW121218   4.598   4.013  16.620  0.7638 -0.7371  0.9823
 3195SOL    HW221219   4.482   3.996  16.700  1.4723  1.9384  0.3104
 3196SOL     OW21220   3.274   2.425   3.357  0.6751 -0.2531 -0.2156
 3196SOL    HW121221   3.323   2.412   3.438  0.0220 -0.8333  0.0774
 3196SOL    HW221222   3.326   2.372   3.297  0.5015 -1.0817  0.3778
 3197SOL     OW21223   2.759   2.216   1.752  0.4245  0.1962 -0.3010
 3197SOL    HW121224   2.845   2.185   1.782  0.1245  1.1072  1.4635
 3197SOL    HW221225   2.791   2.290   1.699 -1.2984  1.5066  0.4821
 3198SOL     OW21226   3.179   2.599   9.219  0.6573  0.1669 -0.2627
 3198SOL    HW121227   3.211   2.599   9.129  1.0703 -0.0231 -0.1188
 3198SOL    HW221228   3.121   2.524   9.203 -0.2800  0.2920  2.5130
 3199SOL     OW21229   1.526   2.436   4.950  0.2716  0.1561  0.2797
 3199SOL    HW121230   1.546   2.526   4.921 -0.4483  0.7956  1.8044
 3199SOL    HW221231   1.464   2.456   5.019 -1.3068 -2.6369 -0.3400
 3200SOL     OW21232   0.380   3.114   9.385  0.6091 -0.0279  0.1258
 3200SOL    HW121233   0.375   3.087   9.293  0.0146 -1.1154  0.4726
 3200SOL    HW221234   0.422   3.037   9.422  1.4122 -0.8989 -2.5894
 3201SOL     OW21235   2.486   1.869   0.565 -0.3068  0.2793  0.0608
 3201SOL    HW121236   2.490   1.960   0.535  2.1698  0.8044  2.0301
 3201SOL    HW221237   2.434   1.881   0.645 -0.6055  3.0185 -0.5214
 3202SOL     OW21238   1.162   2.418   2.480  0.2215  0.4074 -0.1203
 3202SOL    HW121239   1.090   2.354   2.475  0.0423  0.6965 -1.1777
 3202SOL    HW221240   1.232   2.368   2.439  0.2628 -0.0418  0.4982
 3203SOL     OW21241   2.180   1.154   5.518 -0.8618  0.7749  0.0070
 3203SOL    HW121242   2.255   1.189   5.566 -1.3184  1.4690  0.2222
 3203SOL    HW221243   2.230   1.079   5.486 -2.2333  0.3361 -1.0765
 3204SOL     OW21244   0.685   1.826   3.686 -0.3649 -0.3682 -0.1584
 3204SOL    HW121245   0.662   1.918   3.679 -0.5809 -0.3437  0.8736
 3204SOL    HW221246   0.693   1.822   3.781 -2.6383 -0.7024  0.0351
 3205SOL     OW21247   3.851   0.254  17.261  0.5131 -0.1998  0.5372
 3205SOL    HW121248   3.882   0.284  17.346  1.0658 -0.1437  0.3130
 3205SOL    HW221249   3.904   0.311  17.206  0.0710  0.8866  1.2317
 3206SOL     OW21250   1.606   4.652   0.749 -0.1967  0.4384 -0.0140
 3206SOL    HW121251   1.571   0.002   0.727 -1.7823 -0.2778 -0.3081
 3206SOL    HW221252   1.532   4.607   0.709 -0.3346 -0.4742  1.2760
 3207SOL     OW21253   1.327   3.498  13.586 -0.2601  0.3368 -0.1390
 3207SOL    HW121254   1.270   3.426  13.561  1.7719 -0.9339 -1.1271
 3207SOL    HW221255   1.264   3.543  13.642 -1.2293  1.3388 -2.0406
 3208SOL     OW21256   3.268   1.282   6.514 -0.2894 -0.0786  0.0049
 3208SOL    HW121257   3.224   1.361   6.544  0.2097  0.3691 -0.4542
 3208SOL    HW221258   3.191   1.226   6.508 -0.3238 -0.2268  1.8591
 3209SOL     OW21259   2.787   2.347   3.270 -0.0279 -0.0837  0.0711
 3209SOL    HW121260   2.754   2.363   3.359  2.7547  0.7666  0.9650
 3209SOL    HW221261   2.712   2.381   3.221 -0.4001 -0.1650  0.5811
 3210SOL     OW21262   2.053   4.654   7.427  0.4266 -0.7781  0.1950
 3210SOL    HW121263   2.145   4.677   7.438  0.0952  0.0746  1.1175
 3210SOL    HW221264   2.053   4.619   7.337 -1.2078  1.2461 -0.5959
 3211SOL     OW21265   1.484   3.785   5.129  0.0261  0.5969  0.7766
 3211SOL    HW121266   1.461   3.862   5.076 -2.3289  0.8037  2.1278
 3211SOL    HW221267   1.516   3.722   5.065  2.4354  2.7668 -0.1744
 3212SOL     OW21268   2.722   2.437  13.395 -0.0094 -0.4291  0.0903
 3212SOL    HW121269   2.809   2.472  13.418  0.2520 -1.4174  0.6325
 3212SOL    HW221270   2.673   2.505  13.441 -1.9447 -1.5554 -0.2933
 3213SOL     OW21271   0.911   4.116   3.067  0.1099  0.1826 -0.4900
 3213SOL    HW121272   0.885   4.145   3.154  0.9277 -1.0532  0.1643
 3213SOL    HW221273   0.827   4.134   3.024  0.9754  0.3064 -2.1426
 3214SOL     OW21274   3.973   3.307   7.982  0.3592 -0.4026  0.3400
 3214SOL    HW121275   4.035   3.248   8.025  1.1645 -0.6924 -1.2085
 3214SOL    HW221276   4.026   3.308   7.902 -0.3326 -0.8171 -0.1185
 3215SOL     OW21277   3.931   4.540   3.368  0.1441 -0.1592 -0.4906
 3215SOL    HW121278   3.889   4.614   3.325 -1.9079 -0.4298  1.0790
 3215SOL    HW221279   4.005   4.528   3.308  1.6724 -1.4893  1.6372
 3216SOL     OW21280   0.301   2.071   8.754  0.0062  0.6637  0.2902
 3216SOL    HW121281   0.340   2.015   8.687  0.1015  1.2493 -0.1470
 3216SOL    HW221282   0.331   2.158   8.728  0.9308  0.5111  0.8359
 3217SOL     OW21283   4.454   4.323   2.463  0.0286  0.6872 -0.0518
 3217SOL    HW121284   4.495   4.238   2.482 -0.8909  0.4497  0.8341
 3217SOL    HW221285   4.364   4.291   2.459 -0.0599  1.1935 -2.4218
 3218SOL     OW21286   2.343   3.218   5.580 -0.3285 -0.3380  0.3840
 3218SOL    HW121287   2.305   3.131   5.590  0.3293 -0.3406  2.9234
 3218SOL    HW221288   2.303   3.260   5.656 -0.1912 -1.1119  0.8841
 3219SOL     OW21289   2.332   1.456  14.764 -0.7286 -0.2830 -0.0439
 3219SOL    HW121290   2.259   1.397  14.743 -1.3247  0.8537 -1.1999
 3219SOL    HW221291   2.279   1.515  14.818 -0.0286 -1.9780  2.4754
 3220SOL     OW21292   0.959   3.650   7.365  0.1376  0.5274  0.2568
 3220SOL    HW121293   0.929   3.621   7.278 -1.0825  0.9463  0.5491
 3220SOL    HW221294   1.040   3.697   7.344  0.7660  0.2047  2.0048
 3221SOL     OW21295   4.233   3.495   6.306  0.3431 -0.5598  0.1897
 3221SOL    HW121296   4.311   3.527   6.351  0.1361  1.1365 -0.6691
 3221SOL    HW221297   4.281   3.480   6.225 -2.2535  1.5537 -1.7017
 3222SOL     OW21298   4.688   3.010   2.040 -0.1201 -0.5498 -0.8864
 3222SOL    HW121299   4.626   3.067   2.086 -0.7830 -1.0947 -1.1031
 3222SOL    HW221300   4.668   2.934   2.094 -2.2061  1.4343  1.1555
 3223SOL     OW21301   2.565   2.525   1.109 -0.4380  0.3423  0.2256
 3223SOL    HW121302   2.492   2.581   1.084 -1.4944 -1.4405 -0.7034
 3223SOL    HW221303   2.600   2.499   1.023 -0.9375 -1.6355  0.6061
 3224SOL     OW21304   2.189   3.680  10.396  0.2709 -0.4298 -0.4047
 3224SOL    HW121305   2.101   3.717  10.390  0.5059  0.2362  0.3565
 3224SOL    HW221306   2.167   3.632  10.475  1.6249  1.6172  1.2269
 3225SOL     OW21307   2.318   1.895   8.657 -0.6646  0.3166  0.6167
 3225SOL    HW121308   2.247   1.834   8.678  0.2410 -0.8575  0.2420
 3225SOL    HW221309   2.390   1.831   8.651 -1.4102 -0.5289  0.6465
 3226SOL     OW21310   2.309   1.937   7.129  0.8277 -0.5590  0.5660
 3226SOL    HW121311   2.354   1.895   7.056  1.0847 -1.2168  1.1048
 3226SOL    HW221312   2.358   2.016   7.149  3.1333 -2.0326  0.7123
 3227SOL     OW21313   1.883   0.407   6.883 -0.3833  0.1382 -0.2734
 3227SOL    HW121314   1.955   0.400   6.821  1.5778 -1.7114  2.2151
 3227SOL    HW221315   1.824   0.335   6.859  0.8044 -0.9706  0.1544
 3228SOL     OW21316   0.146   0.047  10.241 -0.0705  0.5606  0.1038
 3228SOL    HW121317   0.099   0.015  10.318 -1.8391  0.7084 -0.8999
 3228SOL    HW221318   0.210   0.110  10.273 -0.1416 -0.1555  1.6594
 3229SOL     OW21319   1.750   4.260   5.787 -0.4053  0.0860  0.0198
 3229SOL    HW121320   1.728   4.175   5.748  1.5823  0.3642 -1.7169
 3229SOL    HW221321   1.681   4.276   5.852  1.2465 -0.9539  2.0112
 3230SOL     OW21322   2.909   1.553   5.727 -0.3941  0.0741  0.5145
 3230SOL    HW121323   2.887   1.485   5.791  0.9447  0.0477  0.9431
 3230SOL    HW221324   2.850   1.628   5.737  0.6108  0.7394  1.3884
 3231SOL     OW21325   3.592   0.163   5.903 -0.3932 -0.0565 -0.3264
 3231SOL    HW121326   3.545   0.207   5.831  0.2288 -1.9974 -1.9053
 3231SOL    HW221327   3.656   0.117   5.850 -0.2452 -0.9931  0.6727
 3232SOL     OW21328   2.243   3.838  11.334 -0.0728 -0.0155 -0.6301
 3232SOL    HW121329   2.217   3.773  11.269  0.5031 -0.6031 -0.2763
 3232SOL    HW221330   2.246   3.922  11.290  0.8382 -0.2544 -1.0185
 3233SOL     OW21331   1.256   1.003   4.602  0.4950 -0.5055 -0.1293
 3233SOL    HW121332   1.207   0.935   4.649  0.6083 -0.8600 -0.5189
 3233SOL    HW221333   1.253   1.070   4.670 -3.0969  0.0021 -0.7983
 3234SOL     OW21334   4.657   4.558   5.938 -0.4997 -0.0216 -0.3390
 3234SOL    HW121335   4.708   4.478   5.928 -1.7246 -0.7313 -0.9722
 3234SOL    HW221336   4.638   4.553   6.032 -0.9810  0.1525 -0.4260
 3235SOL     OW21337   4.235   4.535   7.201  0.5009  0.4716 -0.6207
 3235SOL    HW121338   4.208   4.562   7.113  2.7032  1.8056 -0.8887
 3235SOL    HW221339   4.208   4.616   7.243 -3.1747 -0.5804 -0.8810
 3236SOL     OW21340   1.274   3.050   4.525  0.6520 -0.2296 -0.5825
 3236SOL    HW121341   1.250   3.079   4.613  0.1723  0.2717 -0.8783
 3236SOL    HW221342   1.337   3.121   4.508  0.0298  0.4895  0.0820
 3237SOL     OW21343   1.877   1.930  11.693  0.4689  0.3691  0.7108
 3237SOL    HW121344   1.919   1.952  11.609  0.8330 -0.1308  0.7619
 3237SOL    HW221345   1.822   1.855  11.669  0.5372  0.5204  0.0777
 3238SOL     OW21346   4.217   4.120   4.243 -0.0692 -0.1308 -0.2608
 3238SOL    HW121347   4.220   4.201   4.295 -0.0440  0.0457 -0.5360
 3238SOL    HW221348   4.225   4.156   4.155  0.9826  0.4194  0.0558
 3239SOL     OW21349   1.980   1.406  12.025 -0.4402  0.1968 -0.2075
 3239SOL    HW121350   1.906   1.466  12.015  0.5897  1.5451  0.2169
 3239SOL    HW221351   1.967   1.341  11.957  2.1906  0.3832 -0.8865
 3240SOL     OW21352   0.604   0.635   3.052 -0.1990  0.2730  0.3461
 3240SOL    HW121353   0.537   0.575   3.084 -0.6784  0.2280 -0.7411
 3240SOL    HW221354   0.595   0.633   2.956  0.5693  1.7996  0.2358
 3241SOL     OW21355   1.777   4.424  15.414  0.4351  0.5785 -0.8721
 3241SOL    HW121356   1.829   4.350  15.443 -1.9268 -1.5252 -2.0399
 3241SOL    HW221357   1.721   4.383  15.348 -1.8414  0.7781  0.9433
 3242SOL     OW21358   4.706   4.313   2.708 -0.6485  0.5101 -0.1888
 3242SOL    HW121359   4.705   4.221   2.736  0.5644  0.5166 -0.1349
 3242SOL    HW221360   0.062   4.331   2.716 -0.5933  0.4420 -0.6967
 3243SOL     OW21361   1.694   3.698   2.129  0.0483  0.0793 -0.0690
 3243SOL    HW121362   1.787   3.681   2.113  0.0036 -1.8399  1.6565
 3243SOL    HW221363   1.690   3.723   2.222  0.2450  1.5323 -0.4508
 3244SOL     OW21364   4.189   1.224   4.688 -0.1175 -0.2585  0.0229
 3244SOL    HW121365   4.285   1.219   4.691 -0.1349 -1.2186 -1.2610
 3244SOL    HW221366   4.165   1.165   4.760 -3.6867  0.9218 -0.2206
 3245SOL     OW21367   3.325   0.889  10.685 -0.2403  0.0851 -0.0011
 3245SOL    HW121368   3.350   0.838  10.608  2.6171  2.2005 -0.4743
 3245SOL    HW221369   3.314   0.815  10.746 -0.5868 -0.4828 -0.7556
 3246SOL     OW21370   3.223   4.479  12.714  0.6108  0.3740 -0.0376
 3246SOL    HW121371   3.257   4.545  12.653 -1.0902  2.4880  1.3253
 3246SOL    HW221372   3.129   4.498  12.714  0.5544  0.0824  0.5526
 3247SOL     OW21373   4.703   2.493  10.579  0.5239 -0.0319 -0.2532
 3247SOL    HW121374   4.719   2.398  10.582  0.8378 -0.0256 -1.6772
 3247SOL    HW221375   4.608   2.501  10.570  0.4704 -0.7615 -0.3940
 3248SOL     OW21376   1.921   0.316   6.118  0.2995 -0.3015 -0.0784
 3248SOL    HW121377   1.957   0.268   6.194  1.1902 -0.5176 -0.6321
 3248SOL    HW221378   2.004   0.361   6.105  0.3609 -0.3467  0.1392
 3249SOL     OW21379   3.158   1.838   2.518 -0.3301 -0.3100 -0.1992
 3249SOL    HW121380   3.172   1.913   2.459  0.0620 -2.1875 -2.5142
 3249SOL    HW221381   3.064   1.849   2.531 -0.6695 -1.8942 -1.3430
 3250SOL     OW21382   3.263   0.874   7.833  0.1891 -0.2365 -0.1019
 3250SOL    HW121383   3.338   0.933   7.839 -1.2570  1.6116 -0.0047
 3250SOL    HW221384   3.190   0.935   7.843 -0.6623 -1.1030 -0.9435
 3251SOL     OW21385   1.445   1.804   1.992  0.0452  0.0199  0.0502
 3251SOL    HW121386   1.406   1.811   2.079 -0.4328  0.4099 -0.1950
 3251SOL    HW221387   1.383   1.856   1.941 -0.0523 -0.5948 -0.4489
 3252SOL     OW21388   0.918   1.704  13.292 -0.1262 -0.2407 -0.2848
 3252SOL    HW121389   0.956   1.740  13.211  0.4975  1.3234  0.7127
 3252SOL    HW221390   0.992   1.683  13.348 -0.7786  1.3688  1.1587
 3253SOL     OW21391   4.639   1.871   4.131 -0.0325 -0.7452 -0.0749
 3253SOL    HW121392   4.616   1.939   4.068 -2.3652 -0.0366  1.5072
 3253SOL    HW221393   4.688   1.807   4.079 -0.6707 -1.0763 -0.2776
 3254SOL     OW21394   3.215   3.895   7.935  0.1072  0.3135  0.0262
 3254SOL    HW121395   3.262   3.950   7.998 -0.2153 -1.0732  1.5150
 3254SOL    HW221396   3.159   3.841   7.992 -0.2791  1.0281  0.3189
 3255SOL     OW21397   3.608   2.550   3.548 -0.1989  0.5742 -0.1953
 3255SOL    HW121398   3.676   2.511   3.494 -2.2771 -0.4031 -2.1025
 3255SOL    HW221399   3.666   2.591   3.612  1.0261 -1.9054  0.2517
 3256SOL     OW21400   4.533   3.111   9.180 -0.4347  0.0041 -0.7355
 3256SOL    HW121401   4.471   3.163   9.127 -1.3374 -1.1467 -0.8007
 3256SOL    HW221402   4.490   3.026   9.171  1.8156 -1.0771 -1.2597
 3257SOL     OW21403   2.798   2.990   2.314  0.0350  0.0848 -0.7409
 3257SOL    HW121404   2.804   2.895   2.304  3.6572  0.3629 -1.2052
 3257SOL    HW221405   2.721   2.995   2.371 -0.5890  0.8750 -1.6576
 3258SOL     OW21406   3.123   3.440   3.750  0.4932  0.1526  0.4981
 3258SOL    HW121407   3.208   3.484   3.741  0.2407  0.8229  1.4811
 3258SOL    HW221408   3.098   3.419   3.660  4.2795 -1.4010 -0.1995
 3259SOL     OW21409   4.089   0.032   3.579  0.1942 -0.1659  0.4532
 3259SOL    HW121410   4.035   0.006   3.654  0.3557  0.3215  0.7323
 3259SOL    HW221411   4.176   0.044   3.618 -0.0242  2.3463  0.1659
 3260SOL     OW21412   3.376   1.137   8.214 -0.4706 -0.4534 -0.1289
 3260SOL    HW121413   3.376   1.229   8.240  1.7134  0.0960 -2.1027
 3260SOL    HW221414   3.281   1.126   8.210 -0.3081 -2.4209  1.4847
 3261SOL     OW21415   4.161   0.532   2.715 -0.2084  0.8295 -0.1736
 3261SOL    HW121416   4.151   0.438   2.727  1.6196  0.4938 -1.2288
 3261SOL    HW221417   4.079   0.562   2.753 -0.1154  1.3546 -0.3827
 3262SOL     OW21418   3.382   0.380   3.566 -0.0521  0.0354  0.0701
 3262SOL    HW121419   3.445   0.402   3.634 -0.7978 -1.2968  1.1945
 3262SOL    HW221420   3.305   0.335   3.601  0.9992 -1.1437  0.8333
 3263SOL     OW21421   3.205   0.611  17.439  0.0130  0.6544 -0.0694
 3263SOL    HW121422   3.272   0.658  17.390  0.1260  2.0231  1.3881
 3263SOL    HW221423   3.211   0.525  17.399 -0.7841  0.3906  0.3608
 3264SOL     OW21424   0.627   3.581   2.468 -0.4243  0.3206 -0.6239
 3264SOL    HW121425   0.591   3.501   2.430  1.5754 -0.9566  0.2133
 3264SOL    HW221426   0.646   3.553   2.557 -0.6466  2.4948  0.1090
 3265SOL     OW21427   1.853   0.330   3.233 -0.3913 -0.3437  0.1918
 3265SOL    HW121428   1.935   0.280   3.236  0.3299  0.8502  0.3921
 3265SOL    HW221429   1.799   0.269   3.183  0.1586 -0.5243 -0.1898
 3266SOL     OW21430   1.042   2.031   2.298 -0.0859  0.0576  0.1131
 3266SOL    HW121431   0.948   2.051   2.304 -0.0346  0.3949 -0.2018
 3266SOL    HW221432   1.076   2.057   2.384  0.7223 -0.7556  0.0363
 3267SOL     OW21433   3.748   4.600  16.119  0.0073 -0.4970  1.1200
 3267SOL    HW121434   3.688   4.595  16.193 -0.3744 -0.4280  0.8160
 3267SOL    HW221435   3.753   4.694  16.100 -3.1886 -0.0809  2.4065
 3268SOL     OW21436   2.678   3.205  11.571  0.3783 -0.3978  0.1900
 3268SOL    HW121437   2.675   3.192  11.476  2.5149  2.1111 -0.2209
 3268SOL    HW221438   2.641   3.122  11.602 -1.8270  0.5327  0.0406
 3269SOL     OW21439   4.726   4.545  12.975 -0.5168 -0.0766  0.3382
 3269SOL    HW121440   4.675   4.538  12.894 -1.8973 -0.6237  1.2571
 3269SOL    HW221441   0.070   4.580  12.937 -0.6315 -0.3418 -0.1531
 3270SOL     OW21442   3.515   1.360  13.200 -0.4546 -0.1644  0.2607
 3270SOL    HW121443   3.584   1.294  13.205 -0.5923 -0.3859 -0.7920
 3270SOL    HW221444   3.536   1.428  13.265  2.2965 -1.6506  0.9233
 3271SOL     OW21445   2.122   3.717  16.979  0.2023  0.5020 -0.1653
 3271SOL    HW121446   2.196   3.753  16.931 -0.6644 -2.4258 -3.6712
 3271SOL    HW221447   2.070   3.792  17.006 -1.8856 -0.1190 -2.5053
 3272SOL     OW21448   1.127   0.375   3.064 -0.7294 -0.3062  0.0928
 3272SOL    HW121449   1.128   0.454   3.010  0.2949 -0.4164 -0.0564
 3272SOL    HW221450   1.161   0.311   3.002  1.4713  1.5213 -0.6056
 3273SOL     OW21451   4.150   3.650   1.859  0.6223  0.9056 -0.1064
 3273SOL    HW121452   4.230   3.692   1.891  0.5988 -0.1418  1.3581
 3273SOL    HW221453   4.108   3.632   1.943 -1.0424 -0.7481 -1.3121
 3274SOL     OW21454   1.192   3.802   2.792  0.3722  0.6325 -0.4603
 3274SOL    HW121455   1.163   3.729   2.737  0.4620  1.0256 -1.0353
 3274SOL    HW221456   1.135   3.787   2.867  0.7635 -0.7883 -0.4506
 3275SOL     OW21457   1.833   4.593   3.226  0.2933 -0.2114 -0.3515
 3275SOL    HW121458   1.879   4.526   3.277  0.3961  0.5955  0.6278
 3275SOL    HW221459   1.856   4.562   3.138  2.6018  2.1689 -0.5778
 3276SOL     OW21460   1.713   1.840   6.687  0.2004 -0.2075 -0.0040
 3276SOL    HW121461   1.729   1.791   6.768 -1.2629 -0.6431  0.0153
 3276SOL    HW221462   1.618   1.849   6.687  0.2393  0.1878  0.7737
 3277SOL     OW21463   3.418   4.708   7.775  0.0826  0.1161 -0.4467
 3277SOL    HW121464   3.331   4.692   7.812  0.1580 -1.1738 -0.8353
 3277SOL    HW221465   3.478   4.665   7.836  0.6369  1.8477  0.2406
 3278SOL     OW21466   0.451   2.743   2.809 -0.1904 -0.8936  0.1310
 3278SOL    HW121467   0.374   2.689   2.792  0.5455 -2.2699  1.1202
 3278SOL    HW221468   0.526   2.683   2.804 -0.1331 -0.9190  1.2145
 3279SOL     OW21469   3.119   2.383   2.699  0.4690 -0.4254 -0.3712
 3279SOL    HW121470   3.036   2.382   2.747 -0.5064  1.6167 -2.0482
 3279SOL    HW221471   3.153   2.302   2.737  0.5434  0.1175  0.7145
 3280SOL     OW21472   1.512   0.004   4.277 -0.5194 -0.1381 -0.8982
 3280SOL    HW121473   1.467   0.025   4.359 -2.4268 -2.1603 -1.4420
 3280SOL    HW221474   1.588   0.061   4.289  1.5273 -2.5168 -2.4527
 3281SOL     OW21475   1.305   3.524   4.229 -0.9687 -0.0697 -0.0310
 3281SOL    HW121476   1.368   3.596   4.223 -2.3132  1.1609  0.3554
 3281SOL    HW221477   1.232   3.561   4.178 -2.2957  0.5043  2.2868
 3282SOL     OW21478   0.117   1.593   6.894 -0.2362 -0.0258 -0.5294
 3282SOL    HW121479   0.108   1.661   6.827 -3.8764 -0.8446 -0.8366
 3282SOL    HW221480   0.177   1.635   6.955 -0.6476 -0.0634 -0.1036
 3283SOL     OW21481   3.927   4.151  12.194  0.0401  0.3309  0.5336
 3283SOL    HW121482   4.018   4.145  12.224  1.2803  1.6755 -2.9107
 3283SOL    HW221483   3.876   4.108  12.262  0.4232 -1.2484 -0.1828
 3284SOL     OW21484   0.991   3.435   1.171 -0.4887 -0.0609 -0.4801
 3284SOL    HW121485   0.913   3.478   1.135 -0.7670  1.3272  1.8074
 3284SOL    HW221486   1.023   3.514   1.215 -0.6195 -0.1319 -0.2614
 3285SOL     OW21487   1.210   3.889  10.106 -0.0765  0.3780  0.2718
 3285SOL    HW121488   1.237   3.941  10.182  1.1196 -2.1839  1.6211
 3285SOL    HW221489   1.255   3.941  10.040  0.2878 -0.3691 -0.0612
 3286SOL     OW21490   3.561   0.986  13.344 -0.2706  0.0540  0.2888
 3286SOL    HW121491   3.490   1.036  13.385 -0.2223  0.8743 -0.6371
 3286SOL    HW221492   3.604   1.061  13.304  0.9679 -0.1476  1.2403
 3287SOL     OW21493   2.546   3.573   1.093  0.4451 -0.0167  0.3948
 3287SOL    HW121494   2.454   3.546   1.089  0.6519 -0.6713 -0.0193
 3287SOL    HW221495   2.554   3.609   1.005 -1.4366  1.8041  0.9525
 3288SOL     OW21496   1.443   1.752   7.990  0.1366  0.3296 -0.2898
 3288SOL    HW121497   1.351   1.761   8.015  0.2583  1.1120 -0.1421
 3288SOL    HW221498   1.422   1.709   7.907 -0.1851 -2.5147  1.2458
 3289SOL     OW21499   4.287   2.784   2.476  0.6435  0.2677  0.3148
 3289SOL    HW121500   4.203   2.769   2.433  0.9603  1.3727 -0.6500
 3289SOL    HW221501   4.252   2.826   2.555  1.2880 -0.9753  1.2675
 3290SOL     OW21502   3.417   4.168  16.689  0.1649 -0.4579  0.6016
 3290SOL    HW121503   3.426   4.096  16.752  2.4477 -1.4573 -0.9107
 3290SOL    HW221504   3.385   4.114  16.617  2.8925 -0.9122 -0.2852
 3291SOL     OW21505   3.446   4.530  14.127  0.2530  0.0463 -0.2013
 3291SOL    HW121506   3.385   4.459  14.108  0.8956 -0.6598  0.3712
 3291SOL    HW221507   3.447   4.522  14.222  0.3228  0.8610 -0.1327
 3292SOL     OW21508   0.002   3.270   7.137 -0.4585  0.9053 -0.2575
 3292SOL    HW121509   0.012   3.183   7.099 -1.6913  0.0167  1.4454
 3292SOL    HW221510   0.061   3.271   7.212 -0.2201  1.4851 -0.4493
 3293SOL     OW21511   2.274   3.357   1.149 -0.0795 -0.0751  0.0541
 3293SOL    HW121512   2.303   3.314   1.068  1.6704  0.9381  0.1422
 3293SOL    HW221513   2.219   3.424   1.110  0.3413 -1.2647 -2.5874
 3294SOL     OW21514   0.480   3.734   2.006 -0.2272 -0.7607 -0.0600
 3294SOL    HW121515   0.504   3.666   1.942  0.6242  0.4798 -1.0401
 3294SOL    HW221516   0.408   3.691   2.052 -0.7497  0.0105 -0.1536
 3295SOL     OW21517   2.609   3.788  11.754 -0.7634 -0.1266  0.2731
 3295SOL    HW121518   2.519   3.782  11.786 -0.4259  0.4088  1.3394
 3295SOL    HW221519   2.641   3.715  11.807 -0.5053  0.3443  0.7724
 3296SOL     OW21520   3.953   1.320   6.235 -0.0276  0.0873 -0.3155
 3296SOL    HW121521   3.888   1.291   6.171  2.7465 -3.7980 -1.3632
 3296SOL    HW221522   3.961   1.249   6.299 -0.9601 -0.0469 -0.3506
 3297SOL     OW21523   1.120   1.881  14.132  0.1461  0.1069  0.0101
 3297SOL    HW121524   1.077   1.927  14.204  0.2999 -0.0038  0.1721
 3297SOL    HW221525   1.118   1.787  14.150 -1.1336 -0.2271 -1.8589
 3298SOL     OW21526   4.183   4.619  17.035  0.2918  0.0403  0.8660
 3298SOL    HW121527   4.180   4.546  16.972  0.6056  0.9954 -0.2560
 3298SOL    HW221528   4.095   4.612  17.073  0.0962  0.6448  0.5096
 3299SOL     OW21529   4.600   3.480   8.198  0.4077  0.4931 -0.3263
 3299SOL    HW121530   4.562   3.549   8.144  0.7004 -0.3407 -1.5885
 3299SOL    HW221531   4.693   3.497   8.189  1.0179 -2.1843  0.6997
 3300SOL     OW21532   1.461   2.297  17.219 -0.0190 -0.6435  1.1440
 3300SOL    HW121533   1.511   2.300  17.138  0.0228  1.6393  1.2451
 3300SOL    HW221534   1.370   2.307  17.191  0.4203  1.0715  0.2868
 3301SOL     OW21535   0.504   4.390  11.632  0.0708  0.8128  0.2448
 3301SOL    HW121536   0.482   4.400  11.539  1.0325  0.6926  0.0014
 3301SOL    HW221537   0.596   4.411  11.618 -0.1605  1.9430  0.3934
 3302SOL     OW21538   1.276   4.415   4.830  0.2717  0.0787  0.4727
 3302SOL    HW121539   1.187   4.389   4.850 -0.5301  2.1245 -0.4454
 3302SOL    HW221540   1.293   4.413   4.735  2.6960  1.5293  0.8640
 3303SOL     OW21541   2.962   1.062   4.696 -0.2460 -0.4101 -0.2885
 3303SOL    HW121542   2.939   0.970   4.707  1.6878 -0.7874  0.5832
 3303SOL    HW221543   2.917   1.103   4.770  0.9391 -0.4793  0.4555
 3304SOL     OW21544   4.160   3.145   8.103 -1.1488 -0.6088  0.1290
 3304SOL    HW121545   4.190   3.075   8.160 -1.5145 -1.1324 -0.3149
 3304SOL    HW221546   4.204   3.226   8.129 -2.2948  0.3880 -1.0493
 3305SOL     OW21547   2.473   1.565  11.381  0.2665  0.2833  0.3904
 3305SOL    HW121548   2.388   1.523  11.376  0.6272 -0.1289 -2.2650
 3305SOL    HW221549   2.526   1.511  11.323 -0.5989  1.1243 -1.1736
 3306SOL     OW21550   0.882   4.144   5.106 -0.2113 -0.2672 -0.1263
 3306SOL    HW121551   0.932   4.063   5.105 -0.0055 -0.1203 -1.2634
 3306SOL    HW221552   0.937   4.206   5.155  0.0215  1.2889 -2.3450
 3307SOL     OW21553   1.339   3.756   4.504 -0.3681 -0.6027 -0.3641
 3307SOL    HW121554   1.410   3.819   4.521 -0.0034 -1.2949  0.6803
 3307SOL    HW221555   1.345   3.762   4.409 -0.0071  0.3677 -0.2848
 3308SOL     OW21556   2.383   4.220   9.574 -0.0862 -0.9142  0.0332
 3308SOL    HW121557   2.302   4.221   9.625  0.4551 -2.6487  0.9517
 3308SOL    HW221558   2.395   4.315   9.576 -0.5864 -0.8738  1.2012
 3309SOL     OW21559   4.216   2.330   6.379 -0.2644 -0.4556  0.0771
 3309SOL    HW121560   4.140   2.379   6.411 -0.5708  1.0971 -3.0676
 3309SOL    HW221561   4.199   2.338   6.285  1.1630 -0.8115 -0.2118
 3310SOL     OW21562   1.874   3.937  14.561  0.3152  0.3650  0.1115
 3310SOL    HW121563   1.783   3.957  14.538 -0.3104 -0.4607  1.8610
 3310SOL    HW221564   1.895   3.855  14.516  1.5225  1.4173 -1.2354
 3311SOL     OW21565   2.292   0.608  17.284  0.3454 -0.0540 -0.1974
 3311SOL    HW121566   2.214   0.570  17.243  0.9980 -1.6062 -0.0043
 3311SOL    HW221567   2.272   0.701  17.277  0.4803  0.0390  0.7019
 3312SOL     OW21568   0.326   3.179   2.131  0.2186  0.4124 -0.2517
 3312SOL    HW121569   0.393   3.145   2.190  0.3873 -0.2926 -0.8444
 3312SOL    HW221570   0.289   3.105   2.082 -0.4471 -0.9478  2.2625
 3313SOL     OW21571   3.847   4.204   8.204  0.3776 -0.0752 -0.2217
 3313SOL    HW121572   3.910   4.132   8.198  0.7730  0.4319 -2.3897
 3313SOL    HW221573   3.884   4.266   8.266  1.2120 -1.4469  0.6656
 3314SOL     OW21574   0.848   0.971   6.609  0.0450  0.4161 -0.3217
 3314SOL    HW121575   0.821   0.972   6.701  0.3999 -0.0815 -0.2115
 3314SOL    HW221576   0.771   1.007   6.566  2.1360  1.1460 -3.4471
 3315SOL     OW21577   4.355   3.904   4.295  0.0632 -0.1480 -0.1690
 3315SOL    HW121578   4.420   3.974   4.302 -0.4018  0.2367  0.2722
 3315SOL    HW221579   4.289   3.958   4.252 -0.6976 -0.2689  0.8721
 3316SOL     OW21580   4.274   1.294   2.755  0.0803  0.1625  0.3585
 3316SOL    HW121581   4.292   1.273   2.847  0.5099  1.3053  0.5280
 3316SOL    HW221582   4.225   1.375   2.762 -0.7194 -0.6377  3.9943
 3317SOL     OW21583   0.169   2.883   3.512  0.1443  0.0754 -0.8772
 3317SOL    HW121584   0.160   2.896   3.417  2.9206 -2.4122 -1.4707
 3317SOL    HW221585   0.244   2.824   3.514  1.0571  1.2819  0.1626
 3318SOL     OW21586   0.542   4.533   8.064 -0.2892  0.3572  0.0397
 3318SOL    HW121587   0.448   4.535   8.044  0.0241  2.1309 -1.2039
 3318SOL    HW221588   0.544   4.566   8.153  0.8848 -0.8679  0.4662
 3319SOL     OW21589   0.813   2.679   5.594 -0.2724  0.8568  0.1819
 3319SOL    HW121590   0.762   2.745   5.546 -0.6703  0.4111 -0.0135
 3319SOL    HW221591   0.897   2.725   5.601  0.7869 -1.1316  0.3952
 3320SOL     OW21592   2.195   1.159   2.735  0.2192  0.2646  0.0009
 3320SOL    HW121593   2.233   1.111   2.809  0.5361 -0.0809 -0.3870
 3320SOL    HW221594   2.188   1.088   2.672 -2.9621  1.6247 -1.1649
 3321SOL     OW21595   4.129   0.739  17.162  0.0990 -0.3239  0.4000
 3321SOL    HW121596   4.035   0.755  17.167  0.2773  0.9604 -0.4305
 3321SOL    HW221597   4.144   0.710  17.072 -0.5951  0.8110 -0.0786
 3322SOL     OW21598   1.123   4.128  15.514 -0.4502 -0.0762 -0.2437
 3322SOL    HW121599   1.186   4.086  15.574 -1.1947  2.1796  2.1001
 3322SOL    HW221600   1.038   4.095  15.544 -1.0251  1.5248 -0.1586
 3323SOL     OW21601   1.902   0.935   3.417 -0.2247 -0.3412  0.2427
 3323SOL    HW121602   1.989   0.897   3.430 -0.0761  0.5263  1.7950
 3323SOL    HW221603   1.875   0.865   3.357  1.1854 -1.4319  0.8734
 3324SOL     OW21604   2.665   1.777  10.683 -0.2264  0.4323 -0.7004
 3324SOL    HW121605   2.666   1.855  10.739 -1.3662 -0.9340  1.2072
 3324SOL    HW221606   2.685   1.707  10.744  0.5609  2.6378  1.5539
 3325SOL     OW21607   1.455   3.686  11.146 -0.0998 -0.1097 -0.0706
 3325SOL    HW121608   1.379   3.632  11.123  0.0627 -0.1152 -0.5950
 3325SOL    HW221609   1.426   3.740  11.220  0.1003 -0.3762  0.2040
 3326SOL     OW21610   2.220   0.358   7.769  0.2600  0.4653 -0.0325
 3326SOL    HW121611   2.178   0.328   7.850  2.1576  0.8277  1.0838
 3326SOL    HW221612   2.252   0.273   7.741  1.3733  1.0905 -0.6587
 3327SOL     OW21613   2.692   1.524   2.644  0.0236 -0.0729 -0.0857
 3327SOL    HW121614   2.730   1.601   2.686 -2.2316  1.1341 -0.2661
 3327SOL    HW221615   2.760   1.515   2.577  0.2912 -0.4774  0.2391
 3328SOL     OW21616   3.027   2.935  12.218  0.3171  0.1410 -0.0918
 3328SOL    HW121617   3.095   2.907  12.157 -0.6062  0.4874 -1.2836
 3328SOL    HW221618   2.945   2.933  12.167 -0.8633 -0.2338  1.8290
 3329SOL     OW21619   2.168   0.061   0.157 -0.1844 -0.0804 -0.0135
 3329SOL    HW121620   2.169   4.723   0.217  1.0796 -1.8672 -2.2943
 3329SOL    HW221621   2.177   0.019   0.072 -2.3422  3.1714 -1.8285
 3330SOL     OW21622   1.132   3.063   0.514  0.3249 -0.2220  0.0601
 3330SOL    HW121623   1.076   3.010   0.458  1.5492  0.4142 -1.7392
 3330SOL    HW221624   1.213   3.062   0.463  1.0370  1.1500  1.1493
 3331SOL     OW21625   3.646   1.432  13.414  0.2454 -0.1165  0.2403
 3331SOL    HW121626   3.674   1.510  13.463 -1.8356  0.8160 -0.0789
 3331SOL    HW221627   3.593   1.392  13.483 -0.3433  0.9291  0.4008
 3332SOL     OW21628   0.438   3.096  11.469 -0.5549  0.2410  0.5005
 3332SOL    HW121629   0.351   3.126  11.443 -0.8131  0.9516  2.1849
 3332SOL    HW221630   0.496   3.172  11.468 -1.4921  0.9548  0.6740
 3333SOL     OW21631   1.410   1.292  13.535  0.7666 -0.0703  0.2791
 3333SOL    HW121632   1.435   1.200  13.527 -0.8728 -0.2917 -2.1931
 3333SOL    HW221633   1.326   1.286  13.581 -0.2940  0.4722 -1.5904
 3334SOL     OW21634   3.001   4.346  13.410  0.6278 -0.5615 -0.5228
 3334SOL    HW121635   2.948   4.399  13.351 -1.7109 -1.1776  1.0589
 3334SOL    HW221636   3.022   4.417  13.471  0.2693  0.8875 -2.0837
 3335SOL     OW21637   2.385   4.477   2.348  0.1814 -0.1147 -0.5740
 3335SOL    HW121638   2.474   4.507   2.365  0.0966  1.0143 -2.1063
 3335SOL    HW221639   2.401   4.383   2.337  1.0549 -0.3106  2.4232
 3336SOL     OW21640   4.500   1.880   0.041  0.3625 -0.8765 -0.3090
 3336SOL    HW121641   4.508   1.975   0.037 -1.4754 -0.7004  0.2480
 3336SOL    HW221642   4.406   1.868   0.053  0.6117 -0.0863  2.5732
 3337SOL     OW21643   3.164   0.565  17.698 -0.1101  0.7159  0.5973
 3337SOL    HW121644   3.161   0.582  17.604 -1.5725  0.4178  0.5869
 3337SOL    HW221645   3.206   0.479  17.694 -1.1246  0.2161  0.5692
 3338SOL     OW21646   4.378   0.016  16.935 -0.1661  0.6153  0.1557
 3338SOL    HW121647   4.398   0.086  16.997 -0.5561 -0.7928  1.8606
 3338SOL    HW221648   4.305   4.710  16.978  1.3845 -2.3783 -0.1878
 3339SOL     OW21649   2.822   4.178   4.756 -0.5531  0.3834 -0.1967
 3339SOL    HW121650   2.834   4.174   4.662  0.5748  1.0625 -0.0864
 3339SOL    HW221651   2.861   4.092   4.770  0.9289  1.1857  0.6600
 3340SOL     OW21652   2.329   1.350   2.143 -0.3288 -0.3490  0.5543
 3340SOL    HW121653   2.337   1.445   2.140 -0.4317 -0.3841 -1.0823
 3340SOL    HW221654   2.235   1.342   2.154 -0.1988  0.4408  2.1606
 3341SOL     OW21655   4.105   2.784   3.257  0.4920  0.2059  0.2342
 3341SOL    HW121656   4.093   2.830   3.174  0.1508  0.8164  0.6238
 3341SOL    HW221657   4.195   2.812   3.277  0.8216 -0.6428 -0.0482
 3342SOL     OW21658   0.275   4.283   5.640  0.2488 -0.2831  0.3256
 3342SOL    HW121659   0.363   4.282   5.600  0.1456  1.7402  0.0254
 3342SOL    HW221660   0.286   4.255   5.731  0.8480 -1.7164 -0.1809
 3343SOL     OW21661   3.069   2.063  11.121 -0.0991  0.3445  0.2194
 3343SOL    HW121662   3.052   2.137  11.180  1.3670  1.6800 -1.0349
 3343SOL    HW221663   3.087   1.998  11.188  0.4279 -1.9706 -2.1763
 3344SOL     OW21664   2.508   4.662   6.656  0.0557  0.3353 -0.2290
 3344SOL    HW121665   2.421   4.688   6.684 -0.9192 -2.1941 -0.8517
 3344SOL    HW221666   2.564   4.671   6.733 -0.8823  1.4264  0.3148
 3345SOL     OW21667   2.598   1.273  11.955 -0.3346 -0.1119  0.0891
 3345SOL    HW121668   2.690   1.277  11.978 -0.4780 -0.3780  0.7032
 3345SOL    HW221669   2.585   1.344  12.019 -2.5369  0.2932 -0.7816
 3346SOL     OW21670   2.844   4.587   6.336  0.3823  0.1631 -0.1161
 3346SOL    HW121671   2.807   4.651   6.396  0.3949  0.4088 -0.3734
 3346SOL    HW221672   2.802   4.512   6.378  1.2192 -0.2917 -0.0705
 3347SOL     OW21673   2.486   2.153   7.157 -0.3379  0.1971 -0.2870
 3347SOL    HW121674   2.554   2.156   7.091  1.2227  0.6271  1.3529
 3347SOL    HW221675   2.513   2.217   7.223  1.3722 -1.8294  0.9570
 3348SOL     OW21676   1.142   2.943   2.000 -0.0634  0.2300  0.4686
 3348SOL    HW121677   1.114   2.920   1.911 -1.1744  0.9490  0.6284
 3348SOL    HW221678   1.095   3.020   2.034 -2.5259 -1.3814  0.6962
 3349SOL     OW21679   2.784   0.282   6.875  0.3148  0.1636  0.0305
 3349SOL    HW121680   2.692   0.305   6.891  0.5040  1.1582 -0.2733
 3349SOL    HW221681   2.780   0.190   6.900  0.2306  0.1640  0.0191
 3350SOL     OW21682   2.044   1.510   2.134  0.1859 -0.4360  0.3935
 3350SOL    HW121683   2.047   1.587   2.077 -0.5046  0.1810  1.1955
 3350SOL    HW221684   2.089   1.545   2.211 -0.4129 -1.3110  1.1356
 3351SOL     OW21685   1.571   3.907   5.957 -0.0942 -0.0548 -0.0416
 3351SOL    HW121686   1.488   3.863   5.934 -1.3748  2.3661 -0.0016
 3351SOL    HW221687   1.586   3.849   6.032  1.6925  0.6149  0.0970
 3352SOL     OW21688   4.101   4.616  12.220  0.7433 -0.3963  0.4917
 3352SOL    HW121689   4.188   4.645  12.191  2.1094 -3.1686  1.7422
 3352SOL    HW221690   4.058   4.673  12.156  0.7132  1.6430  2.3149
 3353SOL     OW21691   2.552   3.030   9.956 -0.1983  0.3034 -0.3214
 3353SOL    HW121692   2.523   3.036   9.865 -1.2306 -1.2207 -0.0943
 3353SOL    HW221693   2.600   2.948   9.964 -0.9209  0.1358  2.3415
 3354SOL     OW21694   2.731   3.537   7.900 -0.5618  1.3788 -0.1303
 3354SOL    HW121695   2.710   3.445   7.887  2.1434  0.7477  0.0097
 3354SOL    HW221696   2.723   3.543   7.996 -0.7443 -0.0150 -0.0580
 3355SOL     OW21697   1.791   4.630  11.824  0.4765  0.0070  0.3312
 3355SOL    HW121698   1.798   4.678  11.742 -1.4596 -0.7400 -0.2665
 3355SOL    HW221699   1.847   4.554  11.809 -0.8431 -0.9243  0.1530
 3356SOL     OW21700   3.010   0.329   8.586 -1.1122 -0.3322 -0.6884
 3356SOL    HW121701   2.952   0.405   8.596 -0.3687  0.2302 -0.6910
 3356SOL    HW221702   3.094   0.361   8.617 -0.5763 -1.9514 -0.4829
 3357SOL     OW21703   3.157   1.085   5.741 -0.0168  0.1850  0.2459
 3357SOL    HW121704   3.177   1.000   5.781 -0.8997 -0.1980 -0.1314
 3357SOL    HW221705   3.074   1.060   5.700  1.7034 -1.4160 -2.2095
 3358SOL     OW21706   3.335   1.689   6.757  0.3124  0.3604 -0.0415
 3358SOL    HW121707   3.416   1.734   6.733  0.2831 -0.0008 -0.8183
 3358SOL    HW221708   3.371   1.608   6.791  0.7903  0.5561 -0.0716
 3359SOL     OW21709   2.187   0.566   8.916 -0.8146 -0.3321 -0.3541
 3359SOL    HW121710   2.145   0.499   8.862  1.0530 -1.9655  0.1920
 3359SOL    HW221711   2.212   0.513   8.992  0.2132  0.8024  0.1086
 3360SOL     OW21712   3.792   2.334   6.262 -0.6442  0.2147 -0.1787
 3360SOL    HW121713   3.741   2.409   6.293  1.2537  0.4567  2.3313
 3360SOL    HW221714   3.726   2.291   6.207 -0.8293 -0.2126  0.3817
 3361SOL     OW21715   0.782   3.544   1.026 -0.2031 -0.0128  0.2220
 3361SOL    HW121716   0.740   3.508   0.948  2.8414 -1.6903 -0.6468
 3361SOL    HW221717   0.761   3.637   1.016 -0.7458 -0.1105  0.4270
 3362SOL     OW21718   2.109   2.837   1.597  0.2388 -0.7303  0.8095
 3362SOL    HW121719   2.057   2.761   1.573 -0.2282  0.1217 -0.8650
 3362SOL    HW221720   2.121   2.821   1.691  1.3184  1.3777  1.0353
 3363SOL     OW21721   0.076   2.709   7.180  0.0266 -0.0135  0.1697
 3363SOL    HW121722   4.729   2.678   7.145 -0.5795 -0.2906  1.8657
 3363SOL    HW221723   0.140   2.688   7.112  0.6036  0.7993  0.4627
 3364SOL     OW21724   0.169   2.039   3.769  0.2265  0.0085  0.2729
 3364SOL    HW121725   0.148   2.081   3.853 -3.0405 -1.1177  0.0116
 3364SOL    HW221726   0.082   2.030   3.731 -0.4674  0.4981  1.7596
 3365SOL     OW21727   1.257   2.211   6.674  0.5381 -0.6974 -0.0399
 3365SOL    HW121728   1.301   2.234   6.592  2.3892 -1.0462  0.8553
 3365SOL    HW221729   1.324   2.232   6.739 -0.8202 -0.0371  1.1670
 3366SOL     OW21730   4.261   1.426   3.118 -0.1545 -0.2646 -0.1769
 3366SOL    HW121731   4.239   1.519   3.122  2.0226  0.1307  1.8671
 3366SOL    HW221732   4.291   1.415   3.208  1.3832 -0.4078 -0.7087
 3367SOL     OW21733   0.764   2.473   3.409  0.2996  0.1547  0.5546
 3367SOL    HW121734   0.797   2.384   3.407  1.5196  0.6285 -0.4232
 3367SOL    HW221735   0.691   2.458   3.470 -0.0965  1.4482  0.4188
 3368SOL     OW21736   0.027   3.679   2.548 -0.0878  0.1818  0.4431
 3368SOL    HW121737   0.065   3.666   2.634  0.5710 -1.0707 -0.0344
 3368SOL    HW221738   0.029   3.593   2.507  1.8735  1.1313 -1.4449
 3369SOL     OW21739   0.717   0.559  10.018  0.2640  0.6481  0.0654
 3369SOL    HW121740   0.782   0.569   9.948  0.5439 -2.0839 -0.0306
 3369SOL    HW221741   0.763   0.590  10.096  0.4369 -0.0157  0.2195
 3370SOL     OW21742   0.149   3.450   7.603 -0.3710 -0.6832 -0.7253
 3370SOL    HW121743   0.126   3.421   7.691  0.4382  2.8327  0.6458
 3370SOL    HW221744   0.239   3.477   7.624 -0.9408  0.8407 -0.2293
 3371SOL     OW21745   1.032   3.248   2.886  0.1659 -0.2821  0.1825
 3371SOL    HW121746   1.001   3.165   2.849  0.4081  0.1843 -1.0424
 3371SOL    HW221747   1.007   3.307   2.815 -0.0037  0.6271  0.9935
 3372SOL     OW21748   0.392   1.460   8.484  0.1792  0.0093  0.2274
 3372SOL    HW121749   0.417   1.387   8.427  1.3852  2.5833 -2.5698
 3372SOL    HW221750   0.460   1.524   8.464  0.4213 -0.2560  0.1928
 3373SOL     OW21751   2.488   1.663   8.076 -0.7112  0.5264  0.5054
 3373SOL    HW121752   2.569   1.711   8.057 -0.8369  0.5618  0.0604
 3373SOL    HW221753   2.418   1.728   8.070 -1.3743 -0.2854 -0.5188
 3374SOL     OW21754   2.500   0.977   8.116 -0.7140  0.3024 -1.0415
 3374SOL    HW121755   2.468   1.061   8.149  0.1560  1.1614 -2.3527
 3374SOL    HW221756   2.480   0.921   8.190  2.7364  0.4563 -0.0110
 3375SOL     OW21757   2.104   4.237   2.866  0.2487  0.3835 -0.2543
 3375SOL    HW121758   2.185   4.280   2.839 -0.1847  0.2379 -1.7351
 3375SOL    HW221759   2.043   4.281   2.806 -0.2456  0.8182  0.5531
 3376SOL     OW21760   0.152   3.829   9.264  0.3192  0.0183  0.0019
 3376SOL    HW121761   0.179   3.743   9.231 -2.9140 -0.6624 -0.9257
 3376SOL    HW221762   0.060   3.836   9.237 -0.5954  0.7500  3.3302
 3377SOL     OW21763   3.716   2.163  14.977 -0.4335 -0.2764  0.1452
 3377SOL    HW121764   3.674   2.078  14.963 -1.0909  0.2553 -1.2057
 3377SOL    HW221765   3.714   2.191  14.885  1.2524  1.3165  0.6038
 3378SOL     OW21766   3.227   0.575   1.211  0.1285 -0.4551 -0.2653
 3378SOL    HW121767   3.226   0.587   1.306  1.4380 -0.3050 -0.2790
 3378SOL    HW221768   3.318   0.550   1.198  0.4436  0.4240  0.2736
 3379SOL     OW21769   1.280   4.469   2.610  0.1734 -0.3939 -0.2633
 3379SOL    HW121770   1.201   4.432   2.570  1.2029 -1.2725 -1.5099
 3379SOL    HW221771   1.351   4.405   2.605  0.3751 -0.1313 -0.7208
 3380SOL     OW21772   3.171   3.697  13.991 -0.0733 -0.2221 -0.0345
 3380SOL    HW121773   3.222   3.764  13.946 -2.0284 -0.9849 -3.3469
 3380SOL    HW221774   3.093   3.702  13.936  0.3353 -1.1960 -0.6889
 3381SOL     OW21775   0.588   2.656  13.410 -0.6773 -0.7738 -0.1704
 3381SOL    HW121776   0.498   2.672  13.382 -0.8811  0.6429  1.2871
 3381SOL    HW221777   0.616   2.593  13.343 -0.2978 -1.7603  0.9183
 3382SOL     OW21778   4.045   0.855   3.211  0.5470 -0.5712  0.3639
 3382SOL    HW121779   4.117   0.849   3.274  0.2715 -0.6066  0.6741
 3382SOL    HW221780   3.996   0.773   3.205  0.0202 -0.2544  0.2818
 3383SOL     OW21781   1.549   3.422   7.033 -0.1814 -0.1975  0.3702
 3383SOL    HW121782   1.478   3.481   7.054  0.3549  0.4172  0.4474
 3383SOL    HW221783   1.500   3.343   7.056 -1.4196 -0.0610 -1.7624
 3384SOL     OW21784   0.381   2.488   2.432 -0.0141  0.3377  0.4189
 3384SOL    HW121785   0.347   2.419   2.376 -1.0066  1.1672 -0.0042
 3384SOL    HW221786   0.435   2.531   2.366 -1.1135  0.9964 -0.0699
 3385SOL     OW21787   3.152   3.653   5.343 -0.3193  0.0447 -1.0171
 3385SOL    HW121788   3.093   3.668   5.416  0.2307  1.5166 -0.8728
 3385SOL    HW221789   3.206   3.586   5.386  0.2583  1.3789  0.3267
 3386SOL     OW21790   2.148   4.349   6.688 -0.0624  0.2656 -0.2719
 3386SOL    HW121791   2.099   4.304   6.757 -1.5315  0.8612 -0.9171
 3386SOL    HW221792   2.231   4.364   6.734  0.1801 -0.6448 -0.4165
 3387SOL     OW21793   1.325   3.970  12.227 -0.2191  0.4802  0.0036
 3387SOL    HW121794   1.332   3.882  12.191  1.3037  0.4018  0.5240
 3387SOL    HW221795   1.293   4.015  12.148  0.7766  0.4415 -0.4207
 3388SOL     OW21796   1.748   0.408  14.856 -0.2092 -0.2325 -0.4570
 3388SOL    HW121797   1.746   0.319  14.891  1.3688  0.4990  1.5151
 3388SOL    HW221798   1.696   0.464  14.914 -0.3243 -1.0677  0.2364
 3389SOL     OW21799   3.386   0.415  10.612 -0.2261 -0.1697  0.6845
 3389SOL    HW121800   3.319   0.428  10.679 -0.6494 -1.4219  0.5058
 3389SOL    HW221801   3.441   0.354  10.661  1.3162 -1.3296 -2.5215
 3390SOL     OW21802   1.798   2.148   6.420  0.2607 -0.1136 -0.1118
 3390SOL    HW121803   1.878   2.148   6.368 -1.2081  2.9335 -2.3912
 3390SOL    HW221804   1.736   2.116   6.355 -0.0710  0.5016 -0.1064
 3391SOL     OW21805   1.531   1.412   3.367  0.1914  0.3315  0.2719
 3391SOL    HW121806   1.555   1.329   3.407 -1.2743 -0.7417 -1.0598
 3391SOL    HW221807   1.621   1.443   3.358  0.1323 -0.0269 -1.4611
 3392SOL     OW21808   0.980   0.779   4.876  0.0938 -0.1143  0.0576
 3392SOL    HW121809   1.032   0.765   4.797 -0.6753  1.6804 -0.7491
 3392SOL    HW221810   1.040   0.834   4.927  2.3707 -1.1162 -1.5385
 3393SOL     OW21811   1.073   4.313  16.205  0.2820  0.7027 -0.3206
 3393SOL    HW121812   1.121   4.259  16.142 -0.1662 -0.7376  0.5822
 3393SOL    HW221813   1.088   4.269  16.288  2.1224 -0.7247 -1.3995
 3394SOL     OW21814   0.392   2.088   7.531  0.3349 -0.3174  0.4470
 3394SOL    HW121815   0.317   2.044   7.571 -0.7332 -0.1677 -1.3672
 3394SOL    HW221816   0.339   2.168   7.531  2.1554  0.8999 -1.0681
 3395SOL     OW21817   2.601   2.953   2.871 -0.4779 -0.3076 -0.4373
 3395SOL    HW121818   2.667   2.994   2.927 -0.1501 -1.0369 -0.2956
 3395SOL    HW221819   2.571   3.028   2.819 -0.3966 -1.3981 -2.0474
 3396SOL     OW21820   3.117   0.065   3.282  0.5365 -0.6520  0.4568
 3396SOL    HW121821   3.197   0.116   3.272 -0.6416  0.8828 -1.1078
 3396SOL    HW221822   3.068   0.127   3.337 -0.2579 -0.7163 -0.1793
 3397SOL     OW21823   1.589   0.245   2.170 -0.0918  0.3723  0.7513
 3397SOL    HW121824   1.539   0.198   2.237 -0.6232 -1.2522 -0.8011
 3397SOL    HW221825   1.607   0.318   2.229  1.8894  0.7250 -0.2888
 3398SOL     OW21826   2.318   1.736   9.800  0.1907 -0.2145 -0.3863
 3398SOL    HW121827   2.410   1.716   9.819  0.1005 -1.8743 -1.7587
 3398SOL    HW221828   2.325   1.761   9.708  1.0038  0.0378 -0.2590
 3399SOL     OW21829   3.728   1.444   2.354  0.5468  0.0894 -0.1661
 3399SOL    HW121830   3.657   1.505   2.374 -0.7871 -1.8301  0.8933
 3399SOL    HW221831   3.777   1.424   2.434  2.2455  0.8756 -1.0032
 3400SOL     OW21832   0.243   3.187   4.702 -0.1446  0.0450 -0.2947
 3400SOL    HW121833   0.179   3.188   4.631 -1.1905  0.9092  0.6687
 3400SOL    HW221834   0.323   3.223   4.664  0.1943 -1.5510 -1.1358
 3401SOL     OW21835   1.439   2.592   1.996  0.0737 -0.6634 -0.0560
 3401SOL    HW121836   1.432   2.590   2.092  0.1583  0.3436 -0.0283
 3401SOL    HW221837   1.531   2.613   1.980  0.4180 -1.1315  1.2837
 3402SOL     OW21838   3.692   3.949   6.848 -0.4250  0.3949 -0.0086
 3402SOL    HW121839   3.732   3.878   6.898  0.3365  1.2018  0.4967
 3402SOL    HW221840   3.692   3.924   6.755 -3.1263  0.1582  0.0351
 3403SOL     OW21841   1.614   0.036  10.135 -0.0820 -0.7305 -0.6539
 3403SOL    HW121842   1.637   4.689  10.175 -0.7855  0.5826  2.5706
 3403SOL    HW221843   1.581   0.088  10.208 -0.5935  0.2958 -1.6290
 3404SOL     OW21844   1.256   3.223   3.451  0.7094  0.5592 -0.2653
 3404SOL    HW121845   1.286   3.268   3.531  0.2544 -0.2847  0.3717
 3404SOL    HW221846   1.322   3.261   3.393  0.2872  0.4260 -0.8317
 3405SOL     OW21847   1.408   4.551   5.592  0.8626  0.2760  0.1895
 3405SOL    HW121848   1.476   4.609   5.560  1.1041  0.8713  1.7748
 3405SOL    HW221849   1.460   4.471   5.583 -1.7775 -1.3384 -0.8694
 3406SOL     OW21850   4.041   0.496   1.797 -0.2089  0.0282 -0.0074
 3406SOL    HW121851   4.081   0.465   1.878 -0.1584 -0.1899 -0.1164
 3406SOL    HW221852   4.102   0.451   1.738  1.5402  1.9102  0.3721
 3407SOL     OW21853   0.628   1.174   8.620  0.2462  0.1335 -0.8038
 3407SOL    HW121854   0.712   1.192   8.577 -0.5802  1.8461 -1.6970
 3407SOL    HW221855   0.615   1.093   8.570  1.2866 -1.5300  1.6171
 3408SOL     OW21856   4.068   2.403   1.032  0.0028 -0.1972  0.0176
 3408SOL    HW121857   4.051   2.370   1.121 -0.3927 -1.7372 -0.6198
 3408SOL    HW221858   4.065   2.498   1.041  1.4859  0.0787 -2.4000
 3409SOL     OW21859   1.866   1.495   6.625 -0.0043 -1.1135 -0.5044
 3409SOL    HW121860   1.938   1.487   6.562  0.6082  1.9334 -0.1804
 3409SOL    HW221861   1.787   1.491   6.571  0.9516  0.2180 -2.0332
 3410SOL     OW21862   2.879   1.545  15.770 -0.0227  0.2885 -0.4796
 3410SOL    HW121863   2.948   1.577  15.713 -0.3009 -1.6970 -1.9143
 3410SOL    HW221864   2.843   1.633  15.788 -0.4707  0.3950 -1.8621
 3411SOL     OW21865   4.724   2.128   7.799 -0.0754 -0.6676 -0.5122
 3411SOL    HW121866   4.705   2.218   7.771  2.7854 -0.3071 -1.3590
 3411SOL    HW221867   0.072   2.111   7.758 -0.0050 -1.4336 -0.0580
 3412SOL     OW21868   1.862   1.150   1.257 -0.0912  0.3475 -1.2038
 3412SOL    HW121869   1.808   1.090   1.308  1.1471 -0.5162 -0.8911
 3412SOL    HW221870   1.879   1.208   1.331 -1.2208 -0.6148 -0.1846
 3413SOL     OW21871   3.058   2.915   5.553 -0.4115 -0.3986 -0.1993
 3413SOL    HW121872   3.064   2.948   5.464  0.0170  2.7031  1.0046
 3413SOL    HW221873   3.069   2.990   5.610  1.7535 -1.2169  0.4613
 3414SOL     OW21874   2.258   0.562   6.777  0.2248  0.1795 -0.5475
 3414SOL    HW121875   2.278   0.649   6.742 -1.6858  0.7902 -0.1476
 3414SOL    HW221876   2.241   0.586   6.868  0.1166  0.4030 -0.6249
 3415SOL     OW21877   2.028   4.048   4.511 -0.4498  0.3539  0.2309
 3415SOL    HW121878   1.957   4.041   4.575  1.9296 -0.2419  2.8315
 3415SOL    HW221879   2.099   4.002   4.556  0.7188 -0.2215 -2.2134
 3416SOL     OW21880   0.466   1.501   8.900  0.4547  0.0229 -0.3835
 3416SOL    HW121881   0.422   1.454   8.829 -1.2646  0.5513  0.3215
 3416SOL    HW221882   0.550   1.455   8.895 -0.1885 -1.0405 -1.4698
 3417SOL     OW21883   2.709   2.141   3.075 -0.1186  0.4653 -0.4824
 3417SOL    HW121884   2.790   2.182   3.106 -0.1850  0.6799 -0.5882
 3417SOL    HW221885   2.682   2.201   3.005 -0.2207  1.6536  0.5670
 3418SOL     OW21886   3.752   2.992   4.773 -0.3048  0.0889 -0.5171
 3418SOL    HW121887   3.755   3.087   4.761 -1.3412 -0.0053 -1.5001
 3418SOL    HW221888   3.674   2.962   4.725 -1.3697  2.0505  0.0184
 3419SOL     OW21889   0.458   4.255   1.976  0.3553  0.0834 -0.1609
 3419SOL    HW121890   0.413   4.287   1.898 -0.5074  0.5105  0.5064
 3419SOL    HW221891   0.418   4.314   2.040  0.1590  0.1942 -0.3877
 3420SOL     OW21892   2.531   3.004   4.205  0.1785  0.2180  0.1940
 3420SOL    HW121893   2.558   2.968   4.121  0.1951  0.2977  0.1651
 3420SOL    HW221894   2.515   2.933   4.267  0.0016 -1.1942 -1.4694
 3421SOL     OW21895   3.357   1.028   2.550  0.6594  0.3583  0.3660
 3421SOL    HW121896   3.298   0.953   2.542 -1.3080  2.0022 -0.6244
 3421SOL    HW221897   3.406   1.016   2.468 -0.8934 -0.1875 -0.4987
 3422SOL     OW21898   3.772   2.822  13.764  0.3218 -0.0668 -0.4514
 3422SOL    HW121899   3.763   2.763  13.838  1.9664  2.2228  1.5646
 3422SOL    HW221900   3.746   2.904  13.805 -0.3622  0.0322 -1.0754
 3423SOL     OW21901   1.691   1.874   7.083 -0.0289 -0.3449 -0.1406
 3423SOL    HW121902   1.772   1.924   7.092 -2.9153  4.1257  1.3875
 3423SOL    HW221903   1.631   1.928   7.031  0.4762  0.4103  0.0568
 3424SOL     OW21904   4.344   2.062   6.671  0.3523  0.4114  0.3750
 3424SOL    HW121905   4.424   2.113   6.661 -0.0202  0.8633 -0.3147
 3424SOL    HW221906   4.380   1.975   6.653  0.6115 -0.1465  3.6582
 3425SOL     OW21907   1.711   2.904   7.888  0.5071  0.1016  0.6018
 3425SOL    HW121908   1.624   2.910   7.926 -0.4518 -0.1375 -1.5636
 3425SOL    HW221909   1.697   2.960   7.812 -0.1510  0.9768  1.3718
 3426SOL     OW21910   4.013   2.187   0.546  0.3165 -0.0587 -0.6018
 3426SOL    HW121911   3.945   2.126   0.574  0.4763  0.5735  1.1850
 3426SOL    HW221912   4.086   2.177   0.608 -1.1577 -1.4691  0.9172
 3427SOL     OW21913   0.595   0.537   4.436  0.2344 -0.4265  0.8722
 3427SOL    HW121914   0.666   0.492   4.481  0.3940 -0.1504  0.8920
 3427SOL    HW221915   0.612   0.629   4.456  0.4912 -0.0007 -1.3090
 3428SOL     OW21916   3.177   1.856   3.517 -0.1035 -0.1101  0.5073
 3428SOL    HW121917   3.141   1.918   3.580 -0.1379  1.8626 -1.4522
 3428SOL    HW221918   3.258   1.907   3.504 -0.8603  1.0930  0.4634
 3429SOL     OW21919   0.701   4.368  10.739 -0.1851  0.3437  0.2249
 3429SOL    HW121920   0.785   4.405  10.714 -0.0462 -0.5293 -0.6042
 3429SOL    HW221921   0.636   4.388  10.671 -1.5272  0.8116  1.6550
 3430SOL     OW21922   2.442   2.430   6.894 -0.0911 -0.2234  0.2023
 3430SOL    HW121923   2.397   2.431   6.979 -0.6921 -0.6944 -0.1081
 3430SOL    HW221924   2.531   2.426   6.930 -0.0666  2.8597  0.4624
 3431SOL     OW21925   3.534   3.452  17.465 -0.4843  0.0290 -0.6859
 3431SOL    HW121926   3.458   3.500  17.498  0.4753  1.6412 -0.8372
 3431SOL    HW221927   3.526   3.481  17.375 -0.8298 -1.8328 -1.2671
 3432SOL     OW21928   1.855   1.620   3.101  0.3538  0.2324  0.1748
 3432SOL    HW121929   1.858   1.607   3.006  0.5761  1.0724  0.0687
 3432SOL    HW221930   1.923   1.685   3.117  0.5753  0.2185 -0.6702
 3433SOL     OW21931   4.654   1.920   9.504  0.1761 -0.1318 -0.2387
 3433SOL    HW121932   4.569   1.962   9.494 -1.4205 -3.4227 -0.3817
 3433SOL    HW221933   4.673   1.949   9.594  1.0430 -2.3891  0.3017
 3434SOL     OW21934   3.869   1.482  12.655 -0.1453  0.3719  0.3287
 3434SOL    HW121935   3.885   1.388  12.641  0.8663  0.6835 -0.5535
 3434SOL    HW221936   3.930   1.490  12.729 -0.6232  2.6268  0.4603
 3435SOL     OW21937   0.352   4.129   0.851  0.4125  0.2344  0.0628
 3435SOL    HW121938   0.348   4.204   0.910  2.6413 -1.2981  2.1468
 3435SOL    HW221939   0.304   4.064   0.902  2.6461 -0.8787  0.7168
 3436SOL     OW21940   0.219   3.205  11.345  0.6961 -0.0233  0.2549
 3436SOL    HW121941   0.159   3.280  11.348 -2.1618 -2.2645 -1.3010
 3436SOL    HW221942   0.258   3.240  11.265 -2.6826 -1.1792 -1.8801
 3437SOL     OW21943   3.610   1.941   6.166  0.2425 -0.2334 -0.0438
 3437SOL    HW121944   3.524   1.914   6.199  1.1871 -0.9183  1.8605
 3437SOL    HW221945   3.657   1.865   6.199 -0.3225  0.4754  2.3888
 3438SOL     OW21946   0.636   3.225   2.113  0.1115 -0.3613  0.4449
 3438SOL    HW121947   0.587   3.278   2.050  0.6867  0.8949  1.0495
 3438SOL    HW221948   0.618   3.273   2.194 -2.3626 -1.4433  0.5164
 3439SOL     OW21949   4.265   4.418   9.749 -0.4784 -0.2797 -0.0342
 3439SOL    HW121950   4.307   4.337   9.778  0.3567  0.6131  1.2374
 3439SOL    HW221951   4.227   4.449   9.831 -0.5818 -0.3655 -0.0500
 3440SOL     OW21952   0.501   2.185   8.088  0.3102 -0.3204  0.0303
 3440SOL    HW121953   0.512   2.172   8.183  0.8673  2.3491  0.3455
 3440SOL    HW221954   0.513   2.280   8.091  0.0451 -0.2665 -0.8605
 3441SOL     OW21955   0.682   0.255   6.564  0.1945 -0.2586 -0.8522
 3441SOL    HW121956   0.770   0.289   6.580  0.3658 -1.4295  0.7134
 3441SOL    HW221957   0.693   0.229   6.473 -2.6938 -1.5087 -0.8407
 3442SOL     OW21958   3.686   0.213  17.018 -0.3190 -0.2983 -0.8679
 3442SOL    HW121959   3.767   0.207  16.967  0.0767  2.6858 -0.6310
 3442SOL    HW221960   3.727   0.243  17.100 -1.9129 -0.2042 -0.1009
 3443SOL     OW21961   4.323   1.891   8.043  0.3634  0.5740 -0.5571
 3443SOL    HW121962   4.320   1.918   8.135 -0.8877  1.5629 -0.8827
 3443SOL    HW221963   4.411   1.855   8.043 -0.1630 -0.6271  3.0405
 3444SOL     OW21964   3.564   4.170   9.472  0.3075 -0.6690 -0.6039
 3444SOL    HW121965   3.502   4.174   9.545 -0.1039 -1.2119 -0.9207
 3444SOL    HW221966   3.599   4.258   9.485 -1.3110  0.1511 -1.7452
 3445SOL     OW21967   1.697   2.522   5.545 -0.1152 -0.0829  0.0896
 3445SOL    HW121968   1.725   2.515   5.454  0.9737  1.8156  0.2851
 3445SOL    HW221969   1.784   2.523   5.585 -0.6987 -0.4785  1.3825
 3446SOL     OW21970   3.913   2.038   5.868  0.2411  0.2530  0.7299
 3446SOL    HW121971   3.910   1.995   5.953 -1.1709 -2.1413 -0.5468
 3446SOL    HW221972   4.000   2.021   5.832  0.7069  3.2271  0.4111
 3447SOL     OW21973   0.886   4.398   0.714 -0.2424 -0.0809 -0.3750
 3447SOL    HW121974   0.953   4.450   0.759 -0.6252  0.1560 -0.0907
 3447SOL    HW221975   0.855   4.459   0.646 -2.4790 -0.0694  0.6733
 3448SOL     OW21976   1.787   2.656   8.633  0.5066  0.5687  0.0936
 3448SOL    HW121977   1.832   2.615   8.560 -1.4330  1.3760 -1.5619
 3448SOL    HW221978   1.856   2.632   8.695 -0.1339  1.2051  1.0473
 3449SOL     OW21979   3.827   4.353   6.733 -0.1468 -0.1660 -0.1210
 3449SOL    HW121980   3.762   4.339   6.664  1.0853 -0.2643 -1.2581
 3449SOL    HW221981   3.794   4.292   6.800 -0.0759 -0.1618 -0.0826
 3450SOL     OW21982   4.451   1.191   4.603 -0.8111 -0.1322 -0.3893
 3450SOL    HW121983   4.534   1.238   4.616 -1.5343  1.1397 -0.3700
 3450SOL    HW221984   4.474   1.122   4.542  2.2000 -0.3157  0.9108
 3451SOL     OW21985   0.573   0.657   5.828 -0.1679 -0.3032  0.3034
 3451SOL    HW121986   0.534   0.714   5.894 -0.2772 -0.7293  0.6133
 3451SOL    HW221987   0.589   0.728   5.767  0.9477 -0.5765  0.2706
 3452SOL     OW21988   2.116   2.568   3.432 -0.5433 -0.0149  0.0746
 3452SOL    HW121989   2.166   2.517   3.368 -1.6572 -1.6978  0.5568
 3452SOL    HW221990   2.029   2.536   3.408 -0.5786 -1.9468  2.8213
 3453SOL     OW21991   3.218   4.455   8.193 -0.0771 -0.4594  0.5557
 3453SOL    HW121992   3.300   4.411   8.170 -0.3253 -1.7315  2.0946
 3453SOL    HW221993   3.249   4.540   8.164 -0.1867 -1.5026 -2.6362
 3454SOL     OW21994   2.984   4.716  15.208 -0.4444 -0.2462 -0.4275
 3454SOL    HW121995   2.973   0.074  15.219  1.4384 -0.2184  1.1974
 3454SOL    HW221996   2.943   4.682  15.288  2.2792  0.3120  1.2200
 3455SOL     OW21997   0.299   3.618   4.385  0.1096  0.5641  0.3539
 3455SOL    HW121998   0.354   3.662   4.319  1.9056 -0.7587  0.9566
 3455SOL    HW221999   0.314   3.681   4.455 -1.0257  2.6687 -1.2923
 3456SOL     OW22000   3.652   1.012   3.505  0.0547 -0.6963 -0.0766
 3456SOL    HW122001   3.615   1.024   3.418 -3.5874 -0.1468  1.5782
 3456SOL    HW222002   3.586   1.031   3.572 -1.0018  2.0921 -1.9093
 3457SOL     OW22003   0.229   0.583   4.021 -0.4100  0.6543 -0.1228
 3457SOL    HW122004   0.241   0.546   4.108 -0.9663  0.6738 -0.0384
 3457SOL    HW222005   0.247   0.676   4.032  1.8623 -0.0284  1.9462
 3458SOL     OW22006   3.672   0.855   0.400 -0.0353  0.5241 -0.2054
 3458SOL    HW122007   3.646   0.933   0.351 -0.4363 -0.2123 -1.1617
 3458SOL    HW222008   3.589   0.811   0.418 -0.9174  1.8546 -1.0059
 3459SOL     OW22009   2.104   2.460   9.688 -0.2723  0.1707  0.0931
 3459SOL    HW122010   2.038   2.490   9.625  0.8955  0.4091 -1.0234
 3459SOL    HW222011   2.168   2.526   9.664 -1.9743  0.6689 -3.0628
 3460SOL     OW22012   4.604   2.614   3.164 -0.5287  0.2340 -0.9178
 3460SOL    HW122013   4.664   2.561   3.111  0.0923  2.2699 -2.2635
 3460SOL    HW222014   4.600   2.574   3.251 -1.4667  0.6406 -0.7751
 3461SOL     OW22015   4.599   3.665   1.464 -0.4068  0.2082 -0.1848
 3461SOL    HW122016   4.516   3.706   1.441 -0.5163  0.6466  0.9984
 3461SOL    HW222017   4.584   3.570   1.461 -0.1543  0.0475  2.8104
 3462SOL     OW22018   4.588   2.330   7.035 -0.3996  0.2300  0.5956
 3462SOL    HW122019   4.679   2.356   7.046 -0.4198  0.4607  0.2068
 3462SOL    HW222020   4.584   2.246   7.081  2.4433  0.8070  1.9055
 3463SOL     OW22021   2.779   1.477   6.504  0.3863 -0.4588 -0.1364
 3463SOL    HW122022   2.823   1.424   6.437  0.8692 -0.1594 -0.0549
 3463SOL    HW222023   2.746   1.544   6.444  0.9247 -0.0763  0.0001
 3464SOL     OW22024   1.954   3.567   7.690  0.3041  0.3417 -0.2809
 3464SOL    HW122025   1.909   3.491   7.652  1.4262  0.4589 -1.8376
 3464SOL    HW222026   1.915   3.563   7.778 -0.9454  0.4561 -0.8247
 3465SOL     OW22027   2.121   2.571   4.676 -0.6315  0.7485 -0.0900
 3465SOL    HW122028   2.143   2.525   4.596 -0.2054  0.8060 -0.0059
 3465SOL    HW222029   2.071   2.511   4.732 -0.5318 -0.1660 -0.9856
 3466SOL     OW22030   3.879   0.663  11.053  0.2392  0.7366 -0.4088
 3466SOL    HW122031   3.820   0.718  11.002 -0.9258  0.6110  0.8155
 3466SOL    HW222032   3.822   0.634  11.124 -1.9412  1.6606 -1.7565
 3467SOL     OW22033   3.945   4.353   6.243 -0.0166  0.4364 -0.2112
 3467SOL    HW122034   3.933   4.264   6.276  2.3179  0.6694  1.2845
 3467SOL    HW222035   4.029   4.339   6.199 -0.4235  0.5621 -1.0250
 3468SOL     OW22036   2.099   1.277   8.952 -0.3230  0.7734 -0.6733
 3468SOL    HW122037   2.137   1.189   8.951 -1.5535  0.2484 -0.3453
 3468SOL    HW222038   2.016   1.257   8.909 -1.6356  3.3281  0.7056
 3469SOL     OW22039   3.914   4.201  16.424 -0.1953  0.5650  0.4620
 3469SOL    HW122040   3.986   4.239  16.474 -1.2777  0.3958  2.1497
 3469SOL    HW222041   3.912   4.111  16.456 -1.8730  0.0721 -1.0454
 3470SOL     OW22042   2.845   2.925   7.709 -0.5882  0.5184  0.6764
 3470SOL    HW122043   2.767   2.969   7.675  0.3898  0.4335 -1.6755
 3470SOL    HW222044   2.900   2.916   7.631 -0.1182  0.6733  0.9926
 3471SOL     OW22045   4.018   4.104   3.777  0.4250  0.2995 -0.2959
 3471SOL    HW122046   3.966   4.091   3.698  0.3685 -0.5424 -0.1238
 3471SOL    HW222047   4.108   4.118   3.748  0.1496  0.3579 -1.1185
 3472SOL     OW22048   2.804   1.604   6.062 -0.1386  0.2297 -0.6388
 3472SOL    HW122049   2.796   1.694   6.029  0.4697 -0.2306 -2.0391
 3472SOL    HW222050   2.759   1.623   6.144 -2.2824  0.3194 -1.8150
 3473SOL     OW22051   3.291   3.984  14.275  0.3162  0.6147  0.4667
 3473SOL    HW122052   3.221   4.048  14.261 -1.0252 -0.4015  2.5396
 3473SOL    HW222053   3.346   3.985  14.197 -0.4551  3.5554 -0.0447
 3474SOL     OW22054   4.071   0.771  17.633 -0.2209  0.1779 -0.2128
 3474SOL    HW122055   4.009   0.815  17.575  0.7040  1.3132 -0.3335
 3474SOL    HW222056   4.032   0.783  17.720  0.1746 -0.0291 -0.0094
 3475SOL     OW22057   3.286   3.539   2.744  0.6355 -0.4601 -0.0588
 3475SOL    HW122058   3.251   3.469   2.689 -0.8499 -0.3351  0.7233
 3475SOL    HW222059   3.354   3.489   2.789  0.9589 -1.1573 -1.3324
 3476SOL     OW22060   3.419   3.380  13.514 -0.2636 -0.0759 -0.8043
 3476SOL    HW122061   3.328   3.409  13.507 -0.4580  0.0491  2.2689
 3476SOL    HW222062   3.447   3.414  13.599 -0.0805 -0.0368 -0.8800
 3477SOL     OW22063   4.587   1.145   2.490 -0.1020  0.1493  0.3706
 3477SOL    HW122064   4.551   1.057   2.472  0.8092 -0.2706  0.6130
 3477SOL    HW222065   4.616   1.138   2.581  1.7806  0.4275 -0.2151
 3478SOL     OW22066   3.046   1.162   3.677 -0.0939  0.1312 -0.2439
 3478SOL    HW122067   3.077   1.084   3.723 -1.8030 -0.5555 -0.2563
 3478SOL    HW222068   3.128   1.197   3.642  0.4534 -0.4333  0.4561
 3479SOL     OW22069   4.132   2.110   3.654  0.2959 -0.9316  0.4116
 3479SOL    HW122070   4.227   2.109   3.671  0.7796  0.9438 -2.0767
 3479SOL    HW222071   4.105   2.073   3.738 -0.1268 -1.8997 -0.1537
 3480SOL     OW22072   3.837   3.721   0.759 -0.0793  0.2671  0.1426
 3480SOL    HW122073   3.751   3.735   0.800 -0.7450 -1.6176 -0.6218
 3480SOL    HW222074   3.882   3.666   0.822 -0.7841  0.8653  1.1707
 3481SOL     OW22075   0.535   0.731   7.561 -0.5803  0.2846 -0.0165
 3481SOL    HW122076   0.569   0.656   7.610 -0.7492  0.1487 -0.1111
 3481SOL    HW222077   0.454   0.699   7.523  0.3157 -0.0992 -1.6244
 3482SOL     OW22078   1.989   0.839  16.971  0.5241 -0.1395 -0.2518
 3482SOL    HW122079   1.917   0.899  16.990  2.9306  2.6411  0.0975
 3482SOL    HW222080   2.043   0.862  17.047 -0.0457  1.9573 -0.4816
 3483SOL     OW22081   1.295   1.969   1.756 -0.2951 -0.8931 -0.3802
 3483SOL    HW122082   1.299   1.986   1.662  0.4185  1.4666  0.0916
 3483SOL    HW222083   1.200   1.959   1.767 -0.7696  1.3555 -2.5659
 3484SOL     OW22084   3.689   1.181   2.793  0.3067 -0.0431  0.1320
 3484SOL    HW122085   3.745   1.250   2.827  2.8060 -0.5282 -3.0082
 3484SOL    HW222086   3.632   1.229   2.733  0.1085 -1.8654 -1.1573
 3485SOL     OW22087   3.420   0.731  13.603 -0.1025  0.1999  0.1144
 3485SOL    HW122088   3.488   0.774  13.654 -0.4810  2.0443 -0.9075
 3485SOL    HW222089   3.480   0.719  13.529  1.0903  1.5028  0.8716
 3486SOL     OW22090   2.062   2.172   3.068 -0.2080 -0.2141 -0.3992
 3486SOL    HW122091   2.124   2.244   3.059 -1.3145  0.6075 -1.5025
 3486SOL    HW222092   2.002   2.203   3.000 -0.0027 -1.1337 -1.0038
 3487SOL     OW22093   3.239   4.649  11.253 -0.4874 -0.0922  0.1255
 3487SOL    HW122094   3.187   4.694  11.187  1.1999  1.4006 -0.2007
 3487SOL    HW222095   3.172   4.640  11.321 -0.1242  2.7796  0.8901
 3488SOL     OW22096   2.903   3.833   9.681 -0.1043 -0.2643 -0.2317
 3488SOL    HW122097   2.938   3.854   9.595 -2.3588  1.5685 -0.7098
 3488SOL    HW222098   2.815   3.802   9.660 -0.2934  0.5729 -0.6923
 3489SOL     OW22099   3.004   0.717   2.075  0.1291  0.1916 -0.1449
 3489SOL    HW122100   2.993   0.721   2.170  1.9650 -1.3857  0.1291
 3489SOL    HW222101   3.096   0.696   2.061 -0.5702 -1.0099 -2.9293
 3490SOL     OW22102   4.462   4.405  16.416  0.6420  0.1615 -0.2001
 3490SOL    HW122103   4.464   4.315  16.384  0.9691  0.7023 -1.7344
 3490SOL    HW222104   4.423   4.441  16.336 -0.4764 -0.5305  0.0449
 3491SOL     OW22105   1.267   3.433   2.580  0.2872  0.3685  0.0886
 3491SOL    HW122106   1.259   3.497   2.509  2.3159  3.0376  2.2421
 3491SOL    HW222107   1.357   3.455   2.604  0.6945 -0.3917 -0.7651
 3492SOL     OW22108   0.089   0.385   2.374  0.0080 -0.6218  0.3625
 3492SOL    HW122109   0.141   0.417   2.447  0.5339  2.9805 -1.5922
 3492SOL    HW222110   0.020   0.448   2.355 -0.1147 -0.7718  0.3025
 3493SOL     OW22111   3.553   0.282  17.300  0.5288 -0.0405 -0.1929
 3493SOL    HW122112   3.546   0.188  17.285  0.6537  0.0365 -0.7666
 3493SOL    HW222113   3.649   0.286  17.298  0.5690 -1.1266 -0.4900
 3494SOL     OW22114   1.178   1.401   2.378 -0.0030  0.5031  0.7121
 3494SOL    HW122115   1.164   1.329   2.438  0.9147  1.3025  1.8989
 3494SOL    HW222116   1.203   1.468   2.441  2.0140  0.4935 -0.0809
 3495SOL     OW22117   0.685   0.198   4.527 -0.0648 -0.5174 -0.0883
 3495SOL    HW122118   0.775   0.231   4.534 -0.7761  1.4276 -0.1788
 3495SOL    HW222119   0.706   0.112   4.490 -2.8439 -0.6136 -1.4135
 3496SOL     OW22120   0.035   1.600   9.308 -0.5835 -0.3170 -0.3625
 3496SOL    HW122121   0.076   1.527   9.262 -1.5848 -0.5757 -0.8476
 3496SOL    HW222122   4.716   1.624   9.235 -1.1441 -0.6002 -0.0228
 3497SOL     OW22123   3.397   4.532   2.424 -0.0616 -0.2026  0.0153
 3497SOL    HW122124   3.344   4.593   2.373 -0.4531 -0.6868 -0.1623
 3497SOL    HW222125   3.489   4.557   2.414 -0.1593 -0.2059 -0.8737
 3498SOL     OW22126   1.026   2.854   5.652 -0.4438 -0.3275  0.1389
 3498SOL    HW122127   1.087   2.926   5.634 -0.4564 -0.5496 -0.7765
 3498SOL    HW222128   0.954   2.901   5.693 -0.6362  0.8776 -1.5662
 3499SOL     OW22129   3.155   0.902   0.082 -0.1639  0.5307  0.3288
 3499SOL    HW122130   3.116   0.861   0.005 -0.5738  0.4724  0.5689
 3499SOL    HW222131   3.108   0.985   0.087 -0.9570  0.1310 -0.3809
 3500SOL     OW22132   0.257   4.591   4.328  0.5844 -0.3927 -0.2533
 3500SOL    HW122133   0.333   4.622   4.377  0.6226  0.3491 -0.7689
 3500SOL    HW222134   0.285   4.620   4.241 -0.1221  1.3597  0.0965
 3501SOL     OW22135   2.669   3.771  12.619 -0.2823 -0.0180  0.4720
 3501SOL    HW122136   2.683   3.676  12.622 -5.0176 -0.7397  0.4363
 3501SOL    HW222137   2.754   3.807  12.644 -0.7626  0.8209  0.8823
 3502SOL     OW22138   0.236   2.778   2.324 -0.0304 -0.1254 -0.5178
 3502SOL    HW122139   0.241   2.737   2.237  1.1268 -0.4558 -0.3015
 3502SOL    HW222140   0.309   2.840   2.327 -1.5297  1.6764 -1.7040
 3503SOL     OW22141   2.211   1.053   8.716  0.3714 -0.6303  0.5261
 3503SOL    HW122142   2.175   1.134   8.680  0.9463 -0.3251  0.6356
 3503SOL    HW222143   2.205   0.999   8.638  0.2176  1.6246 -1.0219
 3504SOL     OW22144   1.167   3.397   7.267 -0.5620 -0.0485  0.0922
 3504SOL    HW122145   1.092   3.351   7.229  0.4545  0.1355 -2.1774
 3504SOL    HW222146   1.237   3.372   7.206 -1.4172 -1.0014 -0.4932
 3505SOL     OW22147   2.572   2.767   7.975  1.1915 -0.3073 -0.3622
 3505SOL    HW122148   2.574   2.844   8.031  0.6111 -0.4850 -0.0997
 3505SOL    HW222149   2.487   2.780   7.932  0.8590 -0.3903  0.2716
 3506SOL     OW22150   2.279   0.452   1.070  0.1534  0.0096 -0.2451
 3506SOL    HW122151   2.185   0.470   1.074  0.3625  0.7548  1.1373
 3506SOL    HW222152   2.306   0.522   1.129  2.7832 -2.1549  1.1423
 3507SOL     OW22153   3.122   4.716   2.494 -0.1440  0.4724  0.2517
 3507SOL    HW122154   3.104   4.654   2.564  1.8930  1.9015  2.0529
 3507SOL    HW222155   3.118   4.648   2.426  1.1939  0.2045  0.4561
 3508SOL     OW22156   1.126   0.495  15.047 -0.1904 -0.0321  0.1939
 3508SOL    HW122157   1.152   0.542  14.968  0.0208  0.6161  0.6537
 3508SOL    HW222158   1.203   0.438  15.060 -0.1272  0.0051 -0.0145
 3509SOL     OW22159   1.573   0.767   1.383  0.9551 -0.1774  0.1434
 3509SOL    HW122160   1.561   0.672   1.395 -0.6116 -0.0391 -0.2844
 3509SOL    HW222161   1.497   0.785   1.328 -0.0992 -1.6604  1.1053
 3510SOL     OW22162   2.455   0.519   9.989 -0.3359 -0.3187 -0.4160
 3510SOL    HW122163   2.422   0.432  10.009 -2.1251  0.4584  0.0645
 3510SOL    HW222164   2.380   0.553   9.939  0.1358  0.5969 -0.5102
 3511SOL     OW22165   0.057   3.126   9.120  0.4874  0.3721  0.1678
 3511SOL    HW122166   4.704   3.114   9.149 -0.2319  0.5688 -1.9945
 3511SOL    HW222167   0.090   3.126   9.210 -1.8811  2.5351  1.0508
 3512SOL     OW22168   0.722   2.818   0.977 -0.4164  0.7388 -0.7258
 3512SOL    HW122169   0.699   2.815   1.070  1.8100  0.4963 -0.1806
 3512SOL    HW222170   0.790   2.885   0.968 -1.4973  1.9455  0.2045
 3513SOL     OW22171   2.506   1.101   9.833 -0.5018 -0.3070  0.0797
 3513SOL    HW122172   2.569   1.101   9.761  1.1121  2.1458  1.4938
 3513SOL    HW222173   2.509   1.010   9.862  1.8128 -0.3142 -0.1680
 3514SOL     OW22174   2.549   2.142  17.271  0.1668 -0.0533 -0.2692
 3514SOL    HW122175   2.456   2.164  17.277 -0.0033 -0.9688  0.4886
 3514SOL    HW222176   2.556   2.061  17.321  1.5343  0.5086  0.4602
 3515SOL     OW22177   2.390   0.281   2.672  0.3146 -0.1597 -0.1824
 3515SOL    HW122178   2.373   0.258   2.580 -1.1182  1.3759 -0.3118
 3515SOL    HW222179   2.471   0.329   2.657 -0.0867  0.6609  0.3169
 3516SOL     OW22180   1.682   1.466  11.736  0.4858 -0.3664  0.0530
 3516SOL    HW122181   1.617   1.467  11.666 -2.3544  0.4690  2.7220
 3516SOL    HW222182   1.735   1.390  11.710 -0.0823 -0.2023 -1.5326
 3517SOL     OW22183   0.138   1.392  13.497  0.4983  0.5034 -0.2775
 3517SOL    HW122184   0.211   1.331  13.511  0.9209  0.8119 -1.1322
 3517SOL    HW222185   0.073   1.332  13.532  1.1410  0.5151  0.9689
 3518SOL     OW22186   2.912   3.786   3.700 -0.3976 -0.6595  0.3323
 3518SOL    HW122187   2.826   3.743   3.702 -0.1247 -1.2551 -0.9159
 3518SOL    HW222188   2.950   3.743   3.623  1.2205 -0.0296  0.7942
 3519SOL     OW22189   2.454   3.764  12.461  0.1761  0.8063 -0.2886
 3519SOL    HW122190   2.493   3.826  12.400 -0.7821  0.3492 -1.3626
 3519SOL    HW222191   2.517   3.768  12.533  0.1355  0.3147 -0.2273
 3520SOL     OW22192   0.112   0.181   8.155  0.5338 -0.5324  0.3307
 3520SOL    HW122193   0.103   0.097   8.111 -0.6301  0.4474 -1.3471
 3520SOL    HW222194   0.123   0.146   8.243  0.1796 -1.2029  0.1071
 3521SOL     OW22195   1.516   3.301   7.754  0.4131 -1.1497  0.0136
 3521SOL    HW122196   1.532   3.395   7.756  0.9055 -1.1689 -2.2038
 3521SOL    HW222197   1.545   3.275   7.841 -2.5850  0.5913  1.5329
 3522SOL     OW22198   0.839   0.370   3.857  0.3868  0.0376 -0.1576
 3522SOL    HW122199   0.819   0.440   3.920 -1.3785  0.1627 -0.8441
 3522SOL    HW222200   0.804   0.411   3.778 -0.9624 -1.4809 -0.3490
 3523SOL     OW22201   3.503   2.184   4.010  0.3694  0.3699 -0.3205
 3523SOL    HW122202   3.421   2.150   4.047 -0.1195  2.1348  0.2231
 3523SOL    HW222203   3.510   2.266   4.060  0.5914 -1.4256  2.6252
 3524SOL     OW22204   4.601   0.597   0.083 -0.5782  0.6586  0.2172
 3524SOL    HW122205   4.677   0.600   0.024 -0.3687  2.5905  0.5714
 3524SOL    HW222206   4.618   0.520   0.137 -0.4245 -1.9297 -3.5212
 3525SOL     OW22207   4.681   1.194  13.537  0.1581 -0.3364 -0.5307
 3525SOL    HW122208   4.608   1.144  13.571  0.1311 -0.2544 -0.4673
 3525SOL    HW222209   4.712   1.131  13.472  0.1894 -0.0814 -0.7628
 3526SOL     OW22210   2.253   0.305   4.162  0.0254  0.3062 -0.3142
 3526SOL    HW122211   2.190   0.297   4.234  0.0370  0.3540 -0.2987
 3526SOL    HW222212   2.292   0.390   4.181  1.0760 -0.5092  1.1592
 3527SOL     OW22213   1.910   3.625   8.322  0.3212 -0.2541 -0.1464
 3527SOL    HW122214   1.819   3.655   8.327  0.9910  1.9120 -1.2592
 3527SOL    HW222215   1.892   3.541   8.364 -0.7249 -0.2905 -0.6468
 3528SOL     OW22216   2.574   1.846  14.044  0.4854  0.0107  0.0744
 3528SOL    HW122217   2.556   1.814  14.132 -2.5747  0.0285 -0.5330
 3528SOL    HW222218   2.494   1.826  13.995 -0.0135 -0.6007  1.1501
 3529SOL     OW22219   3.136   2.073   8.683 -0.2600 -0.0707 -0.1599
 3529SOL    HW122220   3.121   1.984   8.651  0.6942 -0.1701 -0.3210
 3529SOL    HW222221   3.228   2.069   8.707  0.3524 -0.1146 -2.4698
 3530SOL     OW22222   0.469   1.501  10.148  0.5598  0.2485  0.2044
 3530SOL    HW122223   0.490   1.558  10.074 -0.4245 -0.6598 -0.7820
 3530SOL    HW222224   0.504   1.419  10.112  2.2327  0.9419  0.2911
 3531SOL     OW22225   1.887   3.183   2.722  0.4455 -0.4551  0.4884
 3531SOL    HW122226   1.877   3.100   2.768 -2.4047 -0.0931  0.5322
 3531SOL    HW222227   1.803   3.215   2.689 -0.5607 -4.8752 -1.2746
 3532SOL     OW22228   4.476   2.332   2.561 -0.0163 -0.1273  0.2427
 3532SOL    HW122229   4.429   2.280   2.626  2.1826 -1.1864  0.9384
 3532SOL    HW222230   4.404   2.385   2.524 -0.6385 -1.3534 -0.2849
 3533SOL     OW22231   4.030   1.438   7.277 -0.5763 -0.5192  0.6620
 3533SOL    HW122232   3.938   1.452   7.296 -0.3775  3.9155 -1.7770
 3533SOL    HW222233   4.047   1.524   7.238  3.9131 -1.2988  0.8336
 3534SOL     OW22234   1.041   0.475  17.404  0.6717 -0.0246  0.1059
 3534SOL    HW122235   1.099   0.551  17.413 -1.6041  1.6931  0.2452
 3534SOL    HW222236   1.001   0.502  17.321  0.3994 -1.5743 -0.2801
 3535SOL     OW22237   1.323   1.037   5.729 -0.3727 -0.2142 -0.1346
 3535SOL    HW122238   1.401   0.986   5.712 -0.2939 -0.5513  1.2713
 3535SOL    HW222239   1.259   0.982   5.683 -3.1562  2.2189  0.7570
 3536SOL     OW22240   1.853   3.524   2.956  0.0423  0.4982  0.0191
 3536SOL    HW122241   1.893   3.593   3.009  1.8406 -0.5130 -0.0081
 3536SOL    HW222242   1.932   3.470   2.946 -0.4658 -0.4681  1.2525
 3537SOL     OW22243   3.741   3.311   3.713 -0.6185 -0.1407  0.1589
 3537SOL    HW122244   3.664   3.269   3.752 -1.8894 -1.0901 -3.3578
 3537SOL    HW222245   3.816   3.285   3.767  0.2216 -0.9006 -1.3743
 3538SOL     OW22246   0.679   2.032   4.365 -0.3409 -0.3047  0.2112
 3538SOL    HW122247   0.615   2.082   4.416  0.7960  1.0284  0.3384
 3538SOL    HW222248   0.701   1.969   4.434  0.3228 -0.8528 -0.4908
 3539SOL     OW22249   1.888   0.972   8.836 -0.5467 -0.5589  0.2458
 3539SOL    HW122250   1.979   0.954   8.861 -0.7741 -2.0391  0.0243
 3539SOL    HW222251   1.864   0.881   8.817  0.9405 -0.8755 -0.1241
 3540SOL     OW22252   1.849   0.884   6.176 -0.6010 -0.1319  0.0075
 3540SOL    HW122253   1.789   0.917   6.243 -1.0285 -0.5229 -0.1853
 3540SOL    HW222254   1.862   0.966   6.127 -0.5487  0.3806  0.8728
 3541SOL     OW22255   1.473   4.360  17.311 -0.5111  0.8188 -0.1168
 3541SOL    HW122256   1.453   4.305  17.236 -0.6463 -1.3377  1.5003
 3541SOL    HW222257   1.386   4.387  17.341 -0.5912  1.4594 -0.9444
 3542SOL     OW22258   0.782   2.440   5.742  0.0318  0.1440  0.2775
 3542SOL    HW122259   0.803   2.504   5.674  1.3107 -1.2922 -0.6838
 3542SOL    HW222260   0.750   2.496   5.813  0.5264  1.1180 -0.2666
 3543SOL     OW22261   4.593   3.047   4.673  0.4016 -0.3087  0.3495
 3543SOL    HW122262   4.569   3.125   4.623  0.6468 -0.1339  0.5091
 3543SOL    HW222263   4.656   3.015   4.608 -0.2834 -1.3534  0.2003
 3544SOL     OW22264   4.289   3.976   3.079  0.8475 -0.1241 -0.8296
 3544SOL    HW122265   4.280   3.964   3.174 -1.5972  0.9408 -0.9137
 3544SOL    HW222266   4.249   3.895   3.047  0.7790 -0.7585  0.8745
 3545SOL     OW22267   0.520   3.522  17.077  0.1130  0.0437  0.1649
 3545SOL    HW122268   0.432   3.559  17.075  0.5129  0.8635 -2.6309
 3545SOL    HW222269   0.502   3.441  17.125 -0.3313 -0.9215 -1.6359
 3546SOL     OW22270   4.344   1.320  12.746  0.0193  0.2248  0.8149
 3546SOL    HW122271   4.392   1.308  12.828 -0.8298  1.7017  1.5219
 3546SOL    HW222272   4.261   1.285  12.778 -1.3358  2.1960 -0.5557
 3547SOL     OW22273   3.786   2.595   9.598  0.2957  0.0387  0.1376
 3547SOL    HW122274   3.776   2.679   9.553 -1.5716 -0.3345 -0.1445
 3547SOL    HW222275   3.742   2.612   9.681  2.8318  1.0308  1.2716
 3548SOL     OW22276   3.430   2.027  17.292  0.1425  0.9474 -0.4973
 3548SOL    HW122277   3.487   1.996  17.362  0.3671 -1.3647 -1.7164
 3548SOL    HW222278   3.456   1.973  17.218  1.1278  0.9532 -0.1570
 3549SOL     OW22279   2.349   0.490  15.259  0.1454  0.2461 -0.2959
 3549SOL    HW122280   2.268   0.442  15.277  0.8528 -0.1032  1.9069
 3549SOL    HW222281   2.337   0.559  15.323  0.7404  0.1533 -0.0841
 3550SOL     OW22282   1.544   4.202  13.431  0.3074 -0.2384 -0.2221
 3550SOL    HW122283   1.508   4.285  13.400 -3.3245 -1.9755 -0.6529
 3550SOL    HW222284   1.632   4.232  13.456 -0.2282 -0.8192  2.3898
 3551SOL     OW22285   3.143   4.603   4.549 -0.2393 -0.6070  0.1808
 3551SOL    HW122286   3.226   4.630   4.509 -1.2659  0.2340 -1.3948
 3551SOL    HW222287   3.087   4.578   4.476 -0.3977 -3.0087  1.1405
 3552SOL     OW22288   4.012   3.984   6.853 -0.0964 -0.7919  0.3196
 3552SOL    HW122289   4.012   3.890   6.868  0.1037 -0.8929 -0.3187
 3552SOL    HW222290   4.090   3.987   6.797  1.5782 -2.5530  2.5575
 3553SOL     OW22291   0.799   0.044  15.763 -0.0593  0.3504  0.1099
 3553SOL    HW122292   0.719   0.065  15.714 -0.7992  0.4488  1.3741
 3553SOL    HW222293   0.777   0.051  15.856 -1.7714 -0.0469 -0.2644
 3554SOL     OW22294   4.002   2.374   0.367 -0.0557 -0.3236 -0.4608
 3554SOL    HW122295   3.998   2.313   0.440  0.9399  0.5063  0.2923
 3554SOL    HW222296   3.942   2.331   0.306 -0.3057 -0.3922 -0.1605
 3555SOL     OW22297   1.227   4.670   6.678  0.1260  0.0944  0.2180
 3555SOL    HW122298   1.293   0.001   6.687  1.1154 -0.7710 -0.4243
 3555SOL    HW222299   1.272   4.586   6.676 -0.5844 -0.2919  0.4985
 3556SOL     OW22300   1.324   1.219  17.446 -0.0063  0.4066  0.8820
 3556SOL    HW122301   1.234   1.185  17.444  0.7829 -1.5788 -1.5014
 3556SOL    HW222302   1.360   1.165  17.517  0.9727 -0.6708 -0.4225
 3557SOL     OW22303   4.162   0.944   3.989 -0.0500  0.4993  0.8089
 3557SOL    HW122304   4.136   1.034   3.967  0.4125 -0.3861 -3.1835
 3557SOL    HW222305   4.086   0.896   3.956  0.0403  0.6355  0.4057
 3558SOL     OW22306   2.587   3.479   9.117  0.5975 -0.7161  0.0382
 3558SOL    HW122307   2.655   3.500   9.182 -1.2666  0.9972  1.4315
 3558SOL    HW222308   2.511   3.459   9.172 -0.0451 -0.7685 -0.8729
 3559SOL     OW22309   2.503   2.813   6.888  0.8829 -0.2369  0.2971
 3559SOL    HW122310   2.534   2.871   6.958 -2.3757  1.3891  0.3805
 3559SOL    HW222311   2.419   2.849   6.861  0.9480  0.1995  0.6854
 3560SOL     OW22312   2.298   0.304   3.908 -0.2037  0.1507 -0.3838
 3560SOL    HW122313   2.258   0.288   3.993 -2.1803  1.6548 -1.0239
 3560SOL    HW222314   2.226   0.336   3.855  0.9697  2.8299 -0.3799
 3561SOL     OW22315   4.269   4.645  16.423 -0.4016  0.1113 -0.1891
 3561SOL    HW122316   4.220   4.578  16.375  0.6958 -1.0661  0.3339
 3561SOL    HW222317   4.350   4.635  16.373 -0.3706  0.7980 -0.2660
 3562SOL     OW22318   1.603   4.343   5.544 -0.0489  0.1626 -0.4437
 3562SOL    HW122319   1.669   4.350   5.475 -0.8097  0.8030 -1.1013
 3562SOL    HW222320   1.669   4.342   5.614 -0.8155 -2.3394  0.2313
 3563SOL     OW22321   0.938   0.640   7.086  0.5961 -0.4077 -0.8695
 3563SOL    HW122322   0.991   0.574   7.131 -0.9077 -1.7971 -1.1650
 3563SOL    HW222323   0.909   0.582   7.016 -0.1949 -2.9308  1.5286
 3564SOL     OW22324   1.427   1.666  14.258 -0.3616 -0.5359 -0.3404
 3564SOL    HW122325   1.331   1.669  14.258 -0.3021  1.3255  0.2048
 3564SOL    HW222326   1.450   1.648  14.350 -1.6168  1.9627  0.4798
 3565SOL     OW22327   3.929   0.647   3.416  0.0026  0.3935 -0.1306
 3565SOL    HW122328   3.888   0.712   3.473 -0.0982 -2.3920  2.9600
 3565SOL    HW222329   3.877   0.567   3.406 -0.6711  1.0323 -1.7484
 3566SOL     OW22330   1.826   2.180   3.190  0.0414  0.4488  0.3044
 3566SOL    HW122331   1.828   2.273   3.213  0.7192  0.1161  1.5498
 3566SOL    HW222332   1.916   2.159   3.166  0.3285  1.3391  0.6099
 3567SOL     OW22333   3.583   1.040   7.337 -0.7172  0.1390  0.1042
 3567SOL    HW122334   3.620   0.996   7.414 -0.6082 -1.2867 -0.7485
 3567SOL    HW222335   3.661   1.054   7.284 -1.4000  3.3874 -0.0491
 3568SOL     OW22336   3.897   1.081   3.228  0.6536  0.3555 -0.1613
 3568SOL    HW122337   3.823   1.042   3.181  0.0234 -0.8865  1.8386
 3568SOL    HW222338   3.955   1.005   3.231 -1.5103 -1.2016  2.6615
 3569SOL     OW22339   1.243   4.073  11.980 -0.5679 -0.5506  0.4607
 3569SOL    HW122340   1.155   4.101  11.956 -0.8249 -1.3255  0.5048
 3569SOL    HW222341   1.271   4.026  11.901  2.8191  2.7346 -0.2964
 3570SOL     OW22342   3.586   4.063   5.386  0.0311 -0.4812 -0.7653
 3570SOL    HW122343   3.494   4.040   5.374 -0.2912  0.8962 -0.9635
 3570SOL    HW222344   3.625   3.989   5.339  0.1161 -0.2224 -1.1052
 3571SOL     OW22345   0.957   1.733  17.002 -0.0616  0.6574 -0.1473
 3571SOL    HW122346   0.915   1.678  17.069 -1.5249  1.8186 -0.1203
 3571SOL    HW222347   0.944   1.681  16.923 -0.5986 -0.6857  0.8117
 3572SOL     OW22348   1.265   4.340  12.046 -0.0394  0.0911  0.4219
 3572SOL    HW122349   1.274   4.245  12.043  3.0612  0.3555  1.9954
 3572SOL    HW222350   1.187   4.350  12.101 -1.1562 -2.8250 -0.6276
 3573SOL     OW22351   3.118   0.799   5.821  0.6594  0.1994  0.0227
 3573SOL    HW122352   3.171   0.774   5.897  0.3995 -0.4046  0.0095
 3573SOL    HW222353   3.132   0.733   5.753 -1.2876 -0.0148 -0.1668
 3574SOL     OW22354   1.063   4.485   1.033  0.5108 -0.0266  1.1125
 3574SOL    HW122355   0.980   4.519   1.068  1.8111  2.5204  1.7437
 3574SOL    HW222356   1.069   4.394   1.062  0.4483 -0.7649 -1.1445
 3575SOL     OW22357   1.413   4.533   6.196  0.5336 -0.1019 -0.5709
 3575SOL    HW122358   1.350   4.474   6.155 -0.2741  0.2359  0.1692
 3575SOL    HW222359   1.372   4.620   6.188  0.1383 -0.3346 -1.0597
 3576SOL     OW22360   1.993   4.074   4.980  0.2944 -0.1104  0.1827
 3576SOL    HW122361   1.958   4.158   4.950  2.2378  0.6585  0.0245
 3576SOL    HW222362   1.931   4.016   4.938  0.5039 -2.3065  2.8939
 3577SOL     OW22363   0.125   1.819   2.492 -0.3481 -0.0524 -0.6970
 3577SOL    HW122364   0.090   1.753   2.552 -1.6597 -0.0769 -1.4716
 3577SOL    HW222365   0.212   1.782   2.476  0.4837  0.9171  1.6493
 3578SOL     OW22366   3.266   2.542  10.168 -0.3039  0.2158 -1.2351
 3578SOL    HW122367   3.171   2.529  10.164 -0.2625 -0.2963 -0.4999
 3578SOL    HW222368   3.268   2.593  10.249  0.4536  0.3959 -1.3692
 3579SOL     OW22369   0.826   2.298   4.093 -0.0111 -0.0119  0.5148
 3579SOL    HW122370   0.791   2.379   4.129 -1.8928 -0.7772  0.4193
 3579SOL    HW222371   0.862   2.328   4.010 -1.2056 -3.2952 -1.2092
 3580SOL     OW22372   3.679   1.301   6.503 -0.2055  0.3442 -0.6755
 3580SOL    HW122373   3.774   1.296   6.519  0.0715 -1.5488 -2.7814
 3580SOL    HW222374   3.660   1.215   6.467  1.3602 -0.7607  1.1506
 3581SOL     OW22375   3.876   4.448   4.142 -0.6865  0.0542  0.4957
 3581SOL    HW122376   3.814   4.515   4.171 -0.8453 -0.2487  0.8444
 3581SOL    HW222377   3.839   4.418   4.059  0.4250  1.2089 -0.4260
 3582SOL     OW22378   4.222   2.181   8.685 -0.6117 -0.1475 -0.2472
 3582SOL    HW122379   4.253   2.091   8.669 -1.4505 -0.3153 -0.9154
 3582SOL    HW222380   4.307   2.225   8.689  0.1962 -1.7060 -0.2010
 3583SOL     OW22381   1.543   1.268  10.302 -0.0414  0.0506  0.4312
 3583SOL    HW122382   1.481   1.202  10.269  0.5634 -0.3862  0.1835
 3583SOL    HW222383   1.486   1.309  10.368 -1.0315 -1.1049  0.2997
 3584SOL     OW22384   3.980   4.310  14.754  0.1781  0.0267 -0.4890
 3584SOL    HW122385   3.933   4.298  14.836 -1.6424  1.2483 -1.3364
 3584SOL    HW222386   4.001   4.403  14.767  1.6899  0.0604 -3.1973
 3585SOL     OW22387   3.264   2.002   5.856  0.6373 -0.7931  0.1129
 3585SOL    HW122388   3.349   1.965   5.832  1.1812 -0.3060  1.3204
 3585SOL    HW222389   3.215   2.014   5.775  1.9675  0.1733 -0.5538
 3586SOL     OW22390   1.513   3.116   2.262  0.2735 -0.5004  0.1609
 3586SOL    HW122391   1.451   3.142   2.330  3.2444  1.9236  1.8897
 3586SOL    HW222392   1.571   3.062   2.315  0.4004 -1.5319 -1.0257
 3587SOL     OW22393   1.851   2.258   8.865  0.2605 -0.0453 -0.0284
 3587SOL    HW122394   1.824   2.222   8.949  0.8270  2.2471  1.1497
 3587SOL    HW222395   1.815   2.347   8.863  1.0153  0.2654 -0.0030
 3588SOL     OW22396   1.230   3.683  12.740  0.6222  0.7898  0.0816
 3588SOL    HW122397   1.209   3.776  12.739 -0.6974  0.4751 -1.2603
 3588SOL    HW222398   1.143   3.645  12.733  0.9626 -0.3957  2.1038
 3589SOL     OW22399   3.950   1.738   4.119 -0.1867  0.2788 -0.2419
 3589SOL    HW122400   4.014   1.671   4.145 -1.2295  0.0656  1.7803
 3589SOL    HW222401   4.009   1.796   4.072 -2.0815  2.2288 -0.2003
 3590SOL     OW22402   1.063   2.497   3.513 -0.5075  0.2693 -0.2635
 3590SOL    HW122403   1.019   2.532   3.436 -2.0935  1.7419  1.3172
 3590SOL    HW222404   1.033   2.559   3.580  1.0216 -0.4135  1.0559
 3591SOL     OW22405   0.399   1.312   8.708 -0.5296 -0.1636 -0.0781
 3591SOL    HW122406   0.473   1.253   8.691 -1.2668 -0.8080 -1.0911
 3591SOL    HW222407   0.397   1.373   8.634 -2.3688  0.5432  0.5446
 3592SOL     OW22408   0.427   3.011   6.106  0.1084  0.3159  0.4783
 3592SOL    HW122409   0.381   3.075   6.160  0.0235  2.4813 -2.1535
 3592SOL    HW222410   0.514   3.049   6.116  0.4088 -0.0399 -0.7878
 3593SOL     OW22411   4.133   3.729   8.801  0.0359  0.2715 -0.2256
 3593SOL    HW122412   4.146   3.781   8.880  0.1356  0.3652 -0.3041
 3593SOL    HW222413   4.162   3.795   8.738  0.0465  2.2969  1.9434
 3594SOL     OW22414   3.304   3.495   0.459 -0.0149 -0.1501  0.1679
 3594SOL    HW122415   3.361   3.546   0.401  1.4291 -1.0797  0.7465
 3594SOL    HW222416   3.227   3.473   0.408 -0.1981  0.4260  0.2073
 3595SOL     OW22417   4.195   2.662   1.153  1.1705 -0.1629  0.0297
 3595SOL    HW122418   4.244   2.715   1.216  1.5078  1.4984 -1.6131
 3595SOL    HW222419   4.114   2.658   1.203  0.1636  0.0300 -1.5674
 3596SOL     OW22420   3.864   1.343   4.159  0.4732  0.4720  0.3338
 3596SOL    HW122421   3.952   1.376   4.178  2.1084 -3.0491 -1.1022
 3596SOL    HW222422   3.849   1.286   4.234  0.3209 -0.0464 -0.0822
 3597SOL     OW22423   0.404   1.044   6.608 -0.4716 -0.0995  0.0162
 3597SOL    HW122424   0.474   1.003   6.658 -0.9914 -1.9689 -0.7874
 3597SOL    HW222425   0.328   1.032   6.664 -1.5633  0.7587 -1.2627
 3598SOL     OW22426   4.033   3.722  16.553  0.1288 -0.3001  0.1143
 3598SOL    HW122427   4.063   3.658  16.617 -0.4361 -1.0705 -0.3884
 3598SOL    HW222428   4.099   3.792  16.557 -0.1758 -0.1080  1.5680
 3599SOL     OW22429   3.254   0.015  17.703  0.1622  0.5062  0.0773
 3599SOL    HW122430   3.204   0.093  17.680 -0.3822  0.0893 -0.1537
 3599SOL    HW222431   3.182   4.689  17.712 -0.4658  1.1134 -0.6514
 3600SOL     OW22432   0.767   3.689   3.392  0.3708  0.1852 -0.2295
 3600SOL    HW122433   0.799   3.601   3.415 -1.0802 -0.2820 -0.0083
 3600SOL    HW222434   0.804   3.728   3.471 -0.0054 -0.1830  0.1259
 3601SOL     OW22435   1.162   0.074   9.289 -0.1088  0.3256 -0.0752
 3601SOL    HW122436   1.081   0.068   9.339  0.1284  0.4729  0.3314
 3601SOL    HW222437   1.147   0.161   9.253  0.1278  0.9395  1.3119
 3602SOL     OW22438   1.235   1.010   2.276  0.1828 -0.2952 -0.1805
 3602SOL    HW122439   1.254   1.093   2.232 -1.1767  0.3367  0.4175
 3602SOL    HW222440   1.210   0.949   2.208 -0.3437 -1.2196  0.8418
 3603SOL     OW22441   2.401   1.402   7.467  0.0070  0.3796  0.2757
 3603SOL    HW122442   2.451   1.359   7.398 -0.9718  0.6955 -0.6380
 3603SOL    HW222443   2.476   1.456   7.490  1.4385 -1.9816  1.1007
 3604SOL     OW22444   4.545   0.047   3.681  0.1835  0.5546  0.4150
 3604SOL    HW122445   4.566   0.103   3.756 -0.5794  0.7602  0.4697
 3604SOL    HW222446   4.450   0.035   3.685 -0.1097  2.5854 -0.5955
 3605SOL     OW22447   4.428   2.801   5.681  0.6303 -0.7011 -0.1573
 3605SOL    HW122448   4.492   2.739   5.717 -0.2466 -2.4619 -1.6018
 3605SOL    HW222449   4.495   2.840   5.624  0.2650  0.7105  0.3877
 3606SOL     OW22450   1.451   4.492  12.174 -0.1290  0.0932  0.6768
 3606SOL    HW122451   1.383   4.446  12.126  0.8386 -0.0321 -0.5726
 3606SOL    HW222452   1.526   4.433  12.168 -1.6608 -1.7475 -0.4152
 3607SOL     OW22453   2.928   2.303  10.738 -0.2514  0.0719 -0.3301
 3607SOL    HW122454   3.017   2.330  10.761  0.3298 -1.1226 -1.1536
 3607SOL    HW222455   2.932   2.216  10.776 -0.3001 -0.3956 -1.3964
 3608SOL     OW22456   4.511   1.593   1.475 -0.0370  0.0538 -0.3170
 3608SOL    HW122457   4.418   1.608   1.461 -0.0662 -0.3686 -0.5663
 3608SOL    HW222458   4.536   1.681   1.505 -0.9747  0.7602 -1.5766
 3609SOL     OW22459   2.162   3.575   4.274  0.3857  0.3485  0.0606
 3609SOL    HW122460   2.177   3.551   4.365 -0.3221  0.7096  0.2680
 3609SOL    HW222461   2.116   3.500   4.238 -0.1832  0.1281  1.2581
 3610SOL     OW22462   3.998   4.479  12.976 -0.5313 -0.1863  0.9894
 3610SOL    HW122463   3.917   4.431  12.992 -0.3783 -0.3196  1.3682
 3610SOL    HW222464   3.976   4.571  12.987 -1.1876 -0.2980  0.5858
 3611SOL     OW22465   4.395   1.372   1.791  0.1306 -0.0062  0.0311
 3611SOL    HW122466   4.313   1.372   1.741  1.0330 -2.5616 -1.4584
 3611SOL    HW222467   4.360   1.338   1.874  1.5182 -0.7091  0.3351
 3612SOL     OW22468   4.318   2.465   5.328  0.2670 -0.2265 -0.3911
 3612SOL    HW122469   4.343   2.551   5.294  1.3020  0.2169  1.4399
 3612SOL    HW222470   4.401   2.418   5.327  0.5455  0.2087  1.6632
 3613SOL     OW22471   3.233   2.953   3.701 -0.2492 -0.1351 -0.0575
 3613SOL    HW122472   3.188   2.893   3.761 -1.0572 -0.8112 -1.3353
 3613SOL    HW222473   3.323   2.955   3.732 -0.5190 -0.2651  0.7397
 3614SOL     OW22474   0.706   3.151   4.427 -0.0145  0.3695  0.1756
 3614SOL    HW122475   0.716   3.068   4.473 -0.0350  1.3310  1.9121
 3614SOL    HW222476   0.732   3.203   4.502  1.3747 -0.5019  0.2909
 3615SOL     OW22477   3.671   0.200   8.983 -0.5332 -0.3041 -0.8912
 3615SOL    HW122478   3.650   0.246   8.902 -0.0201 -0.2947 -1.0198
 3615SOL    HW222479   3.744   0.258   9.005  0.5689 -1.6972 -0.9072
 3616SOL     OW22480   3.390   3.231   4.151 -0.0077 -0.7868 -0.0616
 3616SOL    HW122481   3.312   3.244   4.097 -1.1252 -2.6169  1.1264
 3616SOL    HW222482   3.363   3.201   4.238  1.1127  2.6332  1.4513
 3617SOL     OW22483   0.621   4.238   2.958 -0.1728 -0.3199 -0.2796
 3617SOL    HW122484   0.694   4.299   2.945  1.1588 -2.1587 -1.3711
 3617SOL    HW222485   0.607   4.217   2.866  0.7244 -1.1249 -0.2324
 3618SOL     OW22486   0.977   1.373   6.638 -0.4653  0.4889 -0.1752
 3618SOL    HW122487   1.038   1.398   6.707 -0.7307  1.0193 -0.1339
 3618SOL    HW222488   0.895   1.364   6.686 -1.2715 -0.1241 -1.6599
 3619SOL     OW22489   0.083   3.105   4.981 -0.0802  0.2023  0.0807
 3619SOL    HW122490   0.099   3.075   4.892 -0.5934  2.1327 -0.6489
 3619SOL    HW222491   0.134   3.046   5.036  1.2200  0.5386 -0.7807
 3620SOL     OW22492   1.492   0.902   7.984 -0.4836 -0.5266  0.5584
 3620SOL    HW122493   1.446   0.850   8.050 -0.9137  1.0889  1.5410
 3620SOL    HW222494   1.583   0.885   8.010  0.2330 -1.3075 -2.5452
 3621SOL     OW22495   0.050   3.926   9.679  0.6438  0.3608 -0.0936
 3621SOL    HW122496   0.049   3.888   9.591 -0.5912 -0.2727  0.1939
 3621SOL    HW222497   0.140   3.917   9.712  1.0045 -0.5354 -1.3120
 3622SOL     OW22498   2.787   0.698   8.059  0.0601  0.2019  0.6030
 3622SOL    HW122499   2.699   0.670   8.084 -1.1447  2.3483 -1.2797
 3622SOL    HW222500   2.809   0.619   8.009 -0.0290  1.0535 -0.7878
 3623SOL     OW22501   3.237   0.469   8.239  0.2854 -0.6731 -0.2186
 3623SOL    HW122502   3.258   0.538   8.176 -0.9124 -1.0941 -1.0732
 3623SOL    HW222503   3.222   0.521   8.318  0.3846  0.0584 -0.6810
 3624SOL     OW22504   0.910   4.050  15.697 -0.0893 -0.0104 -0.1242
 3624SOL    HW122505   0.999   4.015  15.710  0.7158  2.0679 -0.0820
 3624SOL    HW222506   0.897   4.123  15.757 -3.3315 -0.4341 -0.3422
 3625SOL     OW22507   1.027   2.000   6.908 -0.5009  0.6842  0.4514
 3625SOL    HW122508   0.975   1.956   6.975  0.2108 -0.7830  0.0199
 3625SOL    HW222509   1.116   1.976   6.933 -0.2597  0.0591 -1.0222
 3626SOL     OW22510   1.140   1.617  14.255 -0.0189  0.4176  0.1742
 3626SOL    HW122511   1.118   1.581  14.170  1.9671 -0.0304 -0.1496
 3626SOL    HW222512   1.054   1.642  14.288 -0.1985  1.6988 -1.2561
 3627SOL     OW22513   3.990   2.855  17.520 -0.0451  0.0135  0.2531
 3627SOL    HW122514   4.032   2.769  17.517 -0.2425 -0.0558 -0.5062
 3627SOL    HW222515   4.021   2.883  17.606 -0.6502  1.3391  0.0484
 3628SOL     OW22516   3.953   4.303  15.090 -0.0715  0.1781  0.0857
 3628SOL    HW122517   3.937   4.224  15.143  1.9889 -1.0687 -1.1759
 3628SOL    HW222518   4.042   4.292  15.057  0.5313  1.1145  1.4010
 3629SOL     OW22519   2.311   2.055  10.983 -0.2366 -0.0401  0.5818
 3629SOL    HW122520   2.292   2.121  10.916 -0.2547 -0.4905  0.1479
 3629SOL    HW222521   2.402   2.076  11.000  0.0676 -0.1955 -0.8967
 3630SOL     OW22522   1.002   0.204   1.033  0.4370  0.3946 -0.4794
 3630SOL    HW122523   0.946   0.132   1.061  0.3749  0.2861 -0.8895
 3630SOL    HW222524   0.945   0.246   0.970  0.3084 -0.8351 -1.1725
 3631SOL     OW22525   0.033   0.524  12.937  0.3855  0.0517  0.1240
 3631SOL    HW122526   0.036   0.460  12.866  0.9083  0.6462 -0.3773
 3631SOL    HW222527   0.123   0.555  12.936  1.5282 -3.1146  1.6699
 3632SOL     OW22528   3.045   0.847   6.213  0.1052  0.0095  0.5284
 3632SOL    HW122529   3.075   0.923   6.162 -0.9024  0.6945  0.9580
 3632SOL    HW222530   2.958   0.864   6.249 -1.0824  0.0970 -2.4193
 3633SOL     OW22531   0.176   3.423   0.421 -0.0092 -0.8405  0.1234
 3633SOL    HW122532   0.117   3.487   0.381  0.4046 -0.4050  0.2211
 3633SOL    HW222533   0.169   3.357   0.352 -0.6780  0.4582 -1.0530
 3634SOL     OW22534   3.521   0.067   3.933  0.0654 -0.6492  0.4709
 3634SOL    HW122535   3.466   0.018   3.994  1.0669 -1.8992  0.3484
 3634SOL    HW222536   3.607   0.030   3.950  1.1444  0.7456 -2.0080
 3635SOL     OW22537   0.444   3.703   6.624  0.6939 -0.0282  0.3125
 3635SOL    HW122538   0.533   3.736   6.635  1.0493 -1.2749  1.2070
 3635SOL    HW222539   0.387   3.780   6.616 -2.2652 -2.3426 -0.8006
 3636SOL     OW22540   0.353   1.337   7.191 -0.0826 -0.1819 -0.1765
 3636SOL    HW122541   0.287   1.379   7.246 -0.1230 -0.2146 -0.2000
 3636SOL    HW222542   0.402   1.409   7.153  2.3996 -2.3250 -1.0525
 3637SOL     OW22543   2.342   2.816  14.271  0.1001 -0.0372  0.0426
 3637SOL    HW122544   2.324   2.907  14.248 -0.2835 -0.0772  0.1736
 3637SOL    HW222545   2.363   2.776  14.187  1.3233  0.7387 -0.0051
 3638SOL     OW22546   1.915   4.430   2.691  0.3440  0.2515 -0.5101
 3638SOL    HW122547   1.874   4.432   2.605 -0.0424  1.2812 -0.3000
 3638SOL    HW222548   1.997   4.477   2.678  0.7224  0.2668  1.9231
 3639SOL     OW22549   4.301   2.354  10.782  0.1278  0.1997  0.1262
 3639SOL    HW122550   4.312   2.449  10.776 -1.8167  0.4928  1.1520
 3639SOL    HW222551   4.263   2.355  10.869  0.4146  0.9268  0.2408
 3640SOL     OW22552   2.990   3.448   0.453  0.5658 -0.2569 -0.9153
 3640SOL    HW122553   3.012   3.365   0.412  2.1894  1.1065 -2.7971
 3640SOL    HW222554   2.964   3.495   0.374  1.5662 -0.2295 -1.2226
 3641SOL     OW22555   2.796   3.032   9.087 -0.3270 -0.5778  0.1712
 3641SOL    HW122556   2.850   3.010   9.012 -0.4666 -2.2755  0.5571
 3641SOL    HW222557   2.784   3.123   9.060 -1.4978 -0.5604  0.7520
 3642SOL     OW22558   0.859   3.686  13.858 -0.0680  0.0835 -0.1482
 3642SOL    HW122559   0.838   3.593  13.848 -0.8076  0.0771  1.5192
 3642SOL    HW222560   0.810   3.698  13.939  3.5567  3.5125  1.5391
 3643SOL     OW22561   3.092   0.810   1.803 -0.5772 -0.2613  0.1135
 3643SOL    HW122562   3.115   0.718   1.816  0.0032  0.0212  1.0096
 3643SOL    HW222563   3.050   0.830   1.886 -0.0191  1.0154  0.0867
 3644SOL     OW22564   0.006   3.823  10.357  0.1403 -0.4973  0.0230
 3644SOL    HW122565   4.725   3.908  10.315 -1.4019 -1.6515 -1.6440
 3644SOL    HW222566   4.661   3.773  10.354 -0.4441  0.4265  0.4197
 3645SOL     OW22567   2.181   2.686   2.040 -0.2626  0.6029  0.6659
 3645SOL    HW122568   2.264   2.650   2.006 -2.2827 -1.8175 -1.6978
 3645SOL    HW222569   2.211   2.689   2.131 -0.0922 -2.2620  0.7228
 3646SOL     OW22570   4.157   2.948   2.239  0.2195 -0.4929  0.7778
 3646SOL    HW122571   4.114   2.868   2.271  1.2617 -2.0216 -1.6682
 3646SOL    HW222572   4.167   2.918   2.149 -1.3047  1.8832 -0.2020
 3647SOL     OW22573   2.557   2.143  11.113  0.2321  0.5211  0.3409
 3647SOL    HW122574   2.653   2.149  11.120  0.4377  0.3054 -2.2589
 3647SOL    HW222575   2.539   2.233  11.085 -2.5514 -0.1526 -0.0056
 3648SOL     OW22576   0.304   2.805   6.268 -0.0044 -0.4020  0.0268
 3648SOL    HW122577   0.236   2.779   6.206  0.2643 -1.2993  0.1186
 3648SOL    HW222578   0.361   2.854   6.209 -2.3704  0.3531 -1.6297
 3649SOL     OW22579   1.374   0.176  15.531  0.0964  0.2930 -0.5485
 3649SOL    HW122580   1.389   0.253  15.586 -1.5098  1.1053 -1.2455
 3649SOL    HW222581   1.302   0.198  15.472  0.0352  0.5275 -0.3855
 3650SOL     OW22582   1.026   2.020  16.973 -0.1482 -0.0178 -0.5742
 3650SOL    HW122583   1.026   2.057  17.061 -0.4774 -1.0935 -0.1231
 3650SOL    HW222584   1.001   1.929  16.987  0.6272 -0.1867 -0.2789
 3651SOL     OW22585   1.591   2.237   8.401 -0.6237  0.2649 -0.0769
 3651SOL    HW122586   1.607   2.214   8.492  0.0928 -3.2333 -1.0626
 3651SOL    HW222587   1.497   2.255   8.400 -1.1085 -2.2917 -1.0283
 3652SOL     OW22588   3.748   0.301  16.289  0.2597  0.5677  0.1094
 3652SOL    HW122589   3.662   0.306  16.331  0.8714  1.9730  1.2006
 3652SOL    HW222590   3.734   0.304  16.194 -1.7387 -1.2617  0.3488
 3653SOL     OW22591   1.066   0.034   4.610 -0.1491  0.7916 -0.7750
 3653SOL    HW122592   1.035   0.101   4.550 -3.0162  0.7251  0.6450
 3653SOL    HW222593   1.049   0.084   4.690 -1.4203  0.1348 -0.6333
 3654SOL     OW22594   4.370   1.531   8.990 -0.4274  0.4306 -0.3016
 3654SOL    HW122595   4.424   1.464   8.948 -2.3293  0.0625 -2.1413
 3654SOL    HW222596   4.434   1.593   9.026  0.8625 -2.6250  2.6477
 3655SOL     OW22597   0.656   4.309  14.923  0.1548  0.6137  0.0762
 3655SOL    HW122598   0.699   4.252  14.860  0.7796 -0.0192  1.0808
 3655SOL    HW222599   0.708   4.389  14.913  1.3418  0.1845  2.9939
 3656SOL     OW22600   0.442   3.659   6.348  0.1055  0.0706 -0.2588
 3656SOL    HW122601   0.356   3.682   6.313 -0.8834  0.3067  2.3230
 3656SOL    HW222602   0.418   3.643   6.439  0.1998 -1.4266 -0.4902
 3657SOL     OW22603   3.393   2.967   9.853 -0.5821  0.3655  0.8013
 3657SOL    HW122604   3.373   2.950   9.945 -1.7199 -2.4171  0.0373
 3657SOL    HW222605   3.336   2.898   9.818  1.4089 -0.7344 -0.2659
 3658SOL     OW22606   2.369   3.161  10.115  0.3565 -0.2472 -0.0442
 3658SOL    HW122607   2.290   3.109  10.097  0.1769 -0.3207  0.9583
 3658SOL    HW222608   2.430   3.119  10.055 -1.1174  0.3202 -1.9263
 3659SOL     OW22609   2.532   4.287   2.090  0.6377  0.3311  0.0275
 3659SOL    HW122610   2.621   4.253   2.084  0.3690 -0.5493  0.8689
 3659SOL    HW222611   2.485   4.210   2.057 -0.6440  0.5050  1.4248
 3660SOL     OW22612   3.175   0.174   5.414  0.4892 -0.1236 -0.0679
 3660SOL    HW122613   3.227   0.165   5.494 -0.1126  0.8839  0.4443
 3660SOL    HW222614   3.202   0.097   5.364  1.1269  0.3672 -0.5000
 3661SOL     OW22615   1.427   0.531   6.765  0.3574 -0.5755 -0.0696
 3661SOL    HW122616   1.406   0.534   6.859  0.1115 -1.3653 -0.0927
 3661SOL    HW222617   1.518   0.558   6.774  1.3634 -3.0364 -2.8295
 3662SOL     OW22618   0.817   3.399   7.862  0.4462  0.2620 -0.3450
 3662SOL    HW122619   0.865   3.469   7.818 -1.2150 -0.0225 -2.5614
 3662SOL    HW222620   0.884   3.333   7.842  0.4528 -0.4488  1.9174
 3663SOL     OW22621   3.288   2.320   1.983 -0.3071 -0.0215 -0.0673
 3663SOL    HW122622   3.222   2.265   2.026  1.4484 -1.1853  1.1402
 3663SOL    HW222623   3.367   2.309   2.036 -1.8004  2.4878  2.6833
 3664SOL     OW22624   0.429   3.282   6.223 -0.0896  0.4575 -0.4487
 3664SOL    HW122625   0.438   3.370   6.186  1.1631  1.1004  1.4244
 3664SOL    HW222626   0.376   3.293   6.301  1.1431  2.3034  0.1392
 3665SOL     OW22627   0.309   3.737   0.350  0.3405  0.2948  0.1765
 3665SOL    HW122628   0.392   3.691   0.337 -0.8171 -2.3861  2.0925
 3665SOL    HW222629   0.327   3.784   0.430 -1.2017  1.3737 -0.0970
 3666SOL     OW22630   3.369   2.884   8.772 -0.4569 -0.0069 -0.1209
 3666SOL    HW122631   3.413   2.918   8.694 -1.4409  0.2318 -0.5731
 3666SOL    HW222632   3.434   2.820   8.804  0.3948  0.6989 -0.4357
 3667SOL     OW22633   4.052   2.080  16.989  0.0965 -0.3317 -0.1361
 3667SOL    HW122634   4.102   2.082  16.907  2.0249 -0.6615  1.0081
 3667SOL    HW222635   4.084   2.162  17.025  0.3914 -0.1764 -0.7526
 3668SOL     OW22636   1.310   2.231   6.220 -0.2699  0.3755  0.1629
 3668SOL    HW122637   1.239   2.294   6.221 -1.1420 -0.5535 -2.0652
 3668SOL    HW222638   1.331   2.236   6.127  0.6485  1.1803  0.4207
 3669SOL     OW22639   3.682   0.575   5.483 -0.8765 -0.3629 -0.2852
 3669SOL    HW122640   3.709   0.496   5.532 -0.3189 -0.6548 -1.0665
 3669SOL    HW222641   3.696   0.541   5.395 -0.2513 -2.0727  0.4673
 3670SOL     OW22642   3.455   3.116   2.639 -0.3990 -0.1212 -0.1546
 3670SOL    HW122643   3.456   3.116   2.544  1.1886 -1.8832 -0.1457
 3670SOL    HW222644   3.541   3.081   2.661 -1.3589 -1.1147  1.9993
 3671SOL     OW22645   4.218   1.559  12.041 -0.5010  0.5211  0.3559
 3671SOL    HW122646   4.213   1.549  12.136 -1.2557  0.2827  0.2917
 3671SOL    HW222647   4.264   1.475  12.038 -1.6342 -0.2050  2.7315
 3672SOL     OW22648   2.783   1.557   9.341  0.0232  0.0546 -0.4295
 3672SOL    HW122649   2.748   1.577   9.428 -3.3386 -2.8890 -1.1096
 3672SOL    HW222650   2.855   1.620   9.335  0.6105 -0.4355  1.4280
 3673SOL     OW22651   0.051   0.929  15.662  0.9601  0.4510  0.2335
 3673SOL    HW122652   0.024   0.841  15.689  1.6292 -0.3788 -1.7522
 3673SOL    HW222653   0.138   0.903  15.631  0.0585 -1.7379 -0.4652
 3674SOL     OW22654   1.363   2.663   2.511  0.0327  0.2749  0.3943
 3674SOL    HW122655   1.401   2.602   2.575 -1.5080 -0.2159  0.8432
 3674SOL    HW222656   1.323   2.731   2.565 -1.7734  0.5253 -1.2521
 3675SOL     OW22657   4.334   1.297  12.468  0.1646 -0.5447 -0.4143
 3675SOL    HW122658   4.307   1.388  12.462  2.3806  0.2639  1.8974
 3675SOL    HW222659   4.344   1.289  12.563  0.5308  0.9356 -0.3399
 3676SOL     OW22660   0.211   0.102   5.382  0.9411  0.2246 -0.0156
 3676SOL    HW122661   0.228   0.121   5.290 -1.2658  1.6005 -0.1524
 3676SOL    HW222662   0.299   0.089   5.417  1.2163  2.3844  0.1191
 3677SOL     OW22663   2.057   3.158   8.723  0.2278  0.2862  0.0421
 3677SOL    HW122664   2.083   3.067   8.735 -2.5128 -0.5447 -0.3100
 3677SOL    HW222665   2.054   3.190   8.814 -3.2764 -0.0008  0.0313
 3678SOL     OW22666   4.240   2.890   5.845  0.0758 -0.4994  0.2397
 3678SOL    HW122667   4.234   2.984   5.829  0.4352 -0.1585  2.0873
 3678SOL    HW222668   4.326   2.876   5.806  1.0014  0.5339  1.8929
 3679SOL     OW22669   3.602   1.234   8.388  0.0123  0.4461 -1.1617
 3679SOL    HW122670   3.600   1.147   8.348  1.5197 -0.4580  0.7635
 3679SOL    HW222671   3.691   1.264   8.369  0.4206 -0.3028 -0.4320
 3680SOL     OW22672   2.408   1.548   6.531  0.2827  0.1348  0.0250
 3680SOL    HW122673   2.372   1.588   6.610  1.3289 -0.6608  0.9028
 3680SOL    HW222674   2.463   1.619   6.499  0.3149 -0.2783 -0.8615
 3681SOL     OW22675   1.304   1.968   6.977  0.4491 -0.4063  0.2734
 3681SOL    HW122676   1.313   1.899   7.043 -2.3944 -1.5095 -0.5057
 3681SOL    HW222677   1.326   2.051   7.019 -1.2967 -1.1207  2.5881
 3682SOL     OW22678   1.654   1.502  13.364 -0.1359  0.4497  0.2886
 3682SOL    HW122679   1.681   1.411  13.375  0.5712  0.8012  1.4489
 3682SOL    HW222680   1.607   1.506  13.281 -0.6326 -0.5739  0.5235
 3683SOL     OW22681   0.256   1.532   6.644  0.5378  0.4864  0.1215
 3683SOL    HW122682   0.332   1.475   6.647 -1.0324 -1.6927 -1.2169
 3683SOL    HW222683   0.228   1.528   6.735 -1.0339  0.2815 -0.3628
 3684SOL     OW22684   3.142   3.835  12.419  0.2688 -0.2631 -0.1141
 3684SOL    HW122685   3.076   3.885  12.466  1.8743  0.4138  1.4297
 3684SOL    HW222686   3.120   3.746  12.446  1.4054 -0.5754 -0.1997
 3685SOL     OW22687   3.653   1.549   8.170  0.6067 -0.4214 -0.3580
 3685SOL    HW122688   3.595   1.586   8.237  0.6003  0.3866 -0.8106
 3685SOL    HW222689   3.737   1.574   8.208  0.3416 -2.4350  1.5696
 3686SOL     OW22690   3.203   1.662  17.402 -0.0372 -0.1288  0.1288
 3686SOL    HW122691   3.252   1.583  17.426 -0.3745 -1.3879 -3.4281
 3686SOL    HW222692   3.264   1.685  17.332 -0.3696  0.9479  0.2000
 3687SOL     OW22693   1.952   4.246   3.194  0.4219  0.1661  0.2928
 3687SOL    HW122694   1.880   4.186   3.175  1.2104 -0.7921  0.2995
 3687SOL    HW222695   2.028   4.188   3.194  0.0217 -0.3689 -0.8150
 3688SOL     OW22696   4.568   0.214   9.314  0.2359  0.2570 -0.5931
 3688SOL    HW122697   4.629   0.266   9.261  0.0468  0.0297 -1.0274
 3688SOL    HW222698   4.537   0.280   9.377  1.8335 -1.8771  2.4326
 3689SOL     OW22699   1.899   4.285  12.871 -0.3803  0.2627 -0.2013
 3689SOL    HW122700   1.917   4.366  12.824  1.3361  0.5815  1.0176
 3689SOL    HW222701   1.837   4.312  12.940  1.6256  0.7960  1.3975
 3690SOL     OW22702   2.863   1.304   1.085  1.0051  0.4056 -0.3333
 3690SOL    HW122703   2.850   1.397   1.105  1.0869  0.3139  0.1398
 3690SOL    HW222704   2.955   1.314   1.060  0.8044  2.6762 -0.2228
 3691SOL     OW22705   2.929   4.175   2.349  0.6404 -0.2730 -0.0643
 3691SOL    HW122706   2.961   4.220   2.427  0.8715  0.0583 -0.3479
 3691SOL    HW222707   2.989   4.106   2.321  1.6404  0.0944  1.1636
 3692SOL     OW22708   3.775   2.180   4.098 -0.2877 -0.0912  0.2099
 3692SOL    HW122709   3.695   2.149   4.056  0.7911 -0.8592 -1.2463
 3692SOL    HW222710   3.757   2.271   4.122 -0.6074  0.5301 -2.3865
 3693SOL     OW22711   4.447   1.720  11.893  0.4370 -0.5605  0.4318
 3693SOL    HW122712   4.440   1.675  11.809  0.9597  2.2570 -1.0952
 3693SOL    HW222713   4.365   1.695  11.935  1.4055 -2.5608  1.1445
 3694SOL     OW22714   2.215   3.773   6.146  0.0155 -0.0223 -0.1443
 3694SOL    HW122715   2.188   3.854   6.103  0.0363 -0.6135 -1.2782
 3694SOL    HW222716   2.305   3.769   6.114 -0.4132 -0.3544 -1.3304
 3695SOL     OW22717   1.547   0.242   8.586 -0.0625 -0.0926  0.4794
 3695SOL    HW122718   1.482   0.272   8.650 -2.8610  0.4147 -2.5682
 3695SOL    HW222719   1.503   0.269   8.505  1.8197 -1.1561 -0.9124
 3696SOL     OW22720   4.665   1.754   6.130  0.7020  0.1197  0.6780
 3696SOL    HW122721   4.629   1.667   6.114  1.3147 -0.0047 -0.0155
 3696SOL    HW222722   4.600   1.802   6.183  0.6377 -0.0727  0.7745
 3697SOL     OW22723   0.661   3.725   4.689  0.1073  0.5853 -0.1645
 3697SOL    HW122724   0.597   3.795   4.673 -0.8461 -0.6395 -1.6737
 3697SOL    HW222725   0.623   3.692   4.771  0.9567 -1.2776 -0.5298
 3698SOL     OW22726   2.280   1.621   4.350  0.2648  0.0174  0.1561
 3698SOL    HW122727   2.357   1.601   4.297  0.1462 -2.2547  0.8700
 3698SOL    HW222728   2.314   1.637   4.437  0.7469 -1.0586  0.1552
 3699SOL     OW22729   3.252   2.447   6.119  0.0584 -0.4419  0.2088
 3699SOL    HW122730   3.320   2.490   6.067 -1.6019 -0.3901 -1.9282
 3699SOL    HW222731   3.290   2.457   6.206  0.4976 -1.8956  0.1927
 3700SOL     OW22732   1.305   3.726   6.877  0.0653  0.4352  0.1653
 3700SOL    HW122733   1.320   3.775   6.958 -1.7837 -1.2335  1.5013
 3700SOL    HW222734   1.236   3.665   6.901  1.5142 -0.8416  1.0275
 3701SOL     OW22735   2.939   1.590   7.212 -0.4087  0.3500  0.2168
 3701SOL    HW122736   2.977   1.616   7.296  1.1594 -0.2827 -0.3090
 3701SOL    HW222737   2.896   1.509   7.238  1.1654 -0.2331  0.9895
 3702SOL     OW22738   1.608   2.949   6.396  0.0496  0.7411  0.5349
 3702SOL    HW122739   1.669   2.900   6.340 -1.4563 -0.6093  0.0910
 3702SOL    HW222740   1.523   2.924   6.361  1.8277 -1.8267 -1.9984
 3703SOL     OW22741   3.746   4.631  12.816 -0.4363 -0.2796 -0.0284
 3703SOL    HW122742   3.703   4.571  12.755 -2.1282 -0.5216  1.3957
 3703SOL    HW222743   3.835   4.622  12.781 -0.0263 -1.1243  1.2269
 3704SOL     OW22744   4.161   1.812   2.620 -0.0241  0.8616 -0.4053
 3704SOL    HW122745   4.117   1.730   2.644  0.1246  0.2537 -2.2386
 3704SOL    HW222746   4.183   1.796   2.529 -1.4745  1.3601 -0.8448
 3705SOL     OW22747   3.958   1.813   1.772 -0.4370 -0.4371  0.0840
 3705SOL    HW122748   4.011   1.775   1.702  0.7108 -1.1808  1.3772
 3705SOL    HW222749   3.954   1.739   1.833  1.7254  0.4626  1.3130
 3706SOL     OW22750   3.588   2.048   2.305  0.1273 -0.9292 -0.0807
 3706SOL    HW122751   3.641   1.968   2.307  1.6804  0.1056  0.5679
 3706SOL    HW222752   3.556   2.046   2.395  0.7683 -1.5517  0.1296
 3707SOL     OW22753   1.597   1.189  16.676 -0.1222  0.0375 -0.1557
 3707SOL    HW122754   1.512   1.233  16.676  0.2841  0.8212 -0.1060
 3707SOL    HW222755   1.650   1.231  16.744 -0.1450  2.0309 -1.4037
 3708SOL     OW22756   4.491   3.878   9.248 -0.5204  0.4590  0.4735
 3708SOL    HW122757   4.396   3.868   9.246 -0.6693  1.8064  0.4986
 3708SOL    HW222758   4.501   3.974   9.247 -1.3752  0.5445 -0.8317
 3709SOL     OW22759   0.040   2.281   8.079 -0.3210  0.2044  0.1918
 3709SOL    HW122760   0.118   2.337   8.079  0.2856 -0.6372 -1.6173
 3709SOL    HW222761   4.736   2.331   8.009  1.1514  1.0420 -0.0848
 3710SOL     OW22762   0.258   1.396  15.362 -0.5130  0.0285  0.0207
 3710SOL    HW122763   0.286   1.401  15.270  0.3293 -0.9238  0.2287
 3710SOL    HW222764   0.267   1.486  15.392 -2.3013 -0.7649  2.8707
 3711SOL     OW22765   1.226   1.134  16.405 -0.1381  0.3660  0.1342
 3711SOL    HW122766   1.177   1.216  16.401 -1.1441 -0.0674  3.7720
 3711SOL    HW222767   1.213   1.108  16.496  3.3033 -0.7938  0.3088
 3712SOL     OW22768   4.526   1.357   7.740 -0.0012 -0.0347  0.7582
 3712SOL    HW122769   4.601   1.397   7.782  1.0362 -0.5570 -0.6064
 3712SOL    HW222770   4.497   1.306   7.816 -2.4537  0.7896  0.3786
 3713SOL     OW22771   0.231   2.543   3.539 -0.5045  0.5789  0.2784
 3713SOL    HW122772   0.175   2.474   3.576  1.0809 -0.6704  0.3385
 3713SOL    HW222773   0.255   2.510   3.453 -0.5027 -1.9431  1.2511
 3714SOL     OW22774   3.236   3.956   5.601  0.5740 -0.0707 -0.0717
 3714SOL    HW122775   3.307   3.986   5.658  0.4147  2.1080 -1.0162
 3714SOL    HW222776   3.199   3.885   5.652  1.4768  0.4865  1.3528
 3715SOL     OW22777   0.441   4.218   1.159  0.2839  0.1740 -0.0344
 3715SOL    HW122778   0.363   4.196   1.209  0.1641  0.9040  0.0923
 3715SOL    HW222779   0.504   4.233   1.230  0.1205  0.0657  0.1322
 3716SOL     OW22780   0.871   2.892   2.219  0.6467  0.3867  0.1201
 3716SOL    HW122781   0.848   2.955   2.150 -1.9962 -0.8936 -0.1625
 3716SOL    HW222782   0.871   2.805   2.179  1.6804  0.2680  0.3960
 3717SOL     OW22783   1.837   2.546  14.253  0.5395  0.2771  0.2145
 3717SOL    HW122784   1.904   2.599  14.210 -0.5304  0.9700 -0.5806
 3717SOL    HW222785   1.791   2.507  14.179 -0.6192  1.5369  0.2781
 3718SOL     OW22786   4.431   0.821   1.732 -0.5946  0.6509 -0.0783
 3718SOL    HW122787   4.345   0.795   1.766  0.0012 -0.8845  0.2444
 3718SOL    HW222788   4.421   0.916   1.724 -1.0770  0.6618  0.6616
 3719SOL     OW22789   0.075   3.220   8.359 -0.2467  0.3674 -0.3517
 3719SOL    HW122790   0.087   3.132   8.394 -2.1418  0.4297  0.4105
 3719SOL    HW222791   0.125   3.279   8.415 -1.8544  1.9338 -0.5991
 3720SOL     OW22792   1.558   0.045  11.884 -0.1693 -0.3004 -0.5024
 3720SOL    HW122793   1.582   0.095  11.805 -1.3785  1.2121  0.1055
 3720SOL    HW222794   1.633   4.723  11.890  1.6968  1.7756 -3.1890
 3721SOL     OW22795   1.925   2.364   7.176  0.2038  0.5603 -0.6316
 3721SOL    HW122796   1.923   2.330   7.265 -1.1275  0.3327 -0.7639
 3721SOL    HW222797   1.986   2.438   7.184 -0.1975  0.8334 -0.1721
 3722SOL     OW22798   4.416   3.066   6.220 -0.3931  0.2469 -0.7250
 3722SOL    HW122799   4.384   2.984   6.257  0.8479  0.4417  0.7601
 3722SOL    HW222800   4.414   3.124   6.296  2.3156  2.1772 -2.1344
 3723SOL     OW22801   1.446   1.518   8.874  0.3668  0.5820  0.5259
 3723SOL    HW122802   1.457   1.490   8.965  0.8176 -0.7187  0.0732
 3723SOL    HW222803   1.530   1.488   8.840 -0.0974  0.4119 -0.4686
 3724SOL     OW22804   4.285   2.096   6.053  0.0467  0.1325  0.2316
 3724SOL    HW122805   4.309   2.189   6.061  3.1895 -0.7713  1.1185
 3724SOL    HW222806   4.270   2.096   5.959  0.5202  2.8289  0.1538
 3725SOL     OW22807   0.104   3.253   2.226  0.2706 -0.0033  0.7533
 3725SOL    HW122808   0.069   3.274   2.140 -0.6892  0.5818  1.2913
 3725SOL    HW222809   0.193   3.226   2.203 -0.1299 -2.3838  1.9586
 3726SOL     OW22810   4.542   2.671   0.588 -0.0215  0.0567  0.3713
 3726SOL    HW122811   4.557   2.625   0.671 -1.0940 -0.6345  0.1812
 3726SOL    HW222812   4.452   2.700   0.598  0.7878  1.7419  2.8556
 3727SOL     OW22813   3.041   1.967   6.223  0.6256  0.6208  0.4163
 3727SOL    HW122814   3.071   2.031   6.158  1.1557 -0.0073  0.0509
 3727SOL    HW222815   3.068   1.882   6.188 -2.8767 -0.4169  0.2513
 3728SOL     OW22816   4.360   1.463   4.832  0.5422 -0.2011 -0.4924
 3728SOL    HW122817   4.366   1.464   4.737 -1.3564  0.0208 -0.6139
 3728SOL    HW222818   4.411   1.384   4.848  0.1613 -0.1389  1.0519
 3729SOL     OW22819   3.086   4.617   3.032 -0.1197 -0.6556 -0.3906
 3729SOL    HW122820   3.179   4.599   3.022 -0.2008 -2.1698  1.5349
 3729SOL    HW222821   3.101   4.691   3.092  2.6300 -0.5754 -1.1818
 3730SOL     OW22822   1.663   1.709   8.593  0.2050  0.4208  0.4942
 3730SOL    HW122823   1.592   1.728   8.654  0.5367 -3.0358  1.9617
 3730SOL    HW222824   1.609   1.692   8.516 -0.7413 -2.9970  1.9201
 3731SOL     OW22825   0.730   0.832   8.567 -0.0030  0.5991 -0.3437
 3731SOL    HW122826   0.638   0.808   8.572 -0.1954  1.3995 -0.0453
 3731SOL    HW222827   0.752   0.795   8.481  0.7349  0.0320  0.0911
 3732SOL     OW22828   4.219   1.310  15.558  0.4458 -0.0601 -0.3636
 3732SOL    HW122829   4.275   1.371  15.607  0.7836 -1.4215  0.9438
 3732SOL    HW222830   4.193   1.249  15.627 -1.4702  2.4039  1.0983
 3733SOL     OW22831   0.756   3.668   3.886 -0.4721  0.7630 -0.1992
 3733SOL    HW122832   0.702   3.627   3.819  1.3780  0.0747 -1.2564
 3733SOL    HW222833   0.821   3.599   3.898 -0.5929  0.2946 -2.2846
 3734SOL     OW22834   4.224   2.212   9.155  0.1166 -0.3891  0.1150
 3734SOL    HW122835   4.202   2.294   9.199 -0.9751 -1.2092  1.0761
 3734SOL    HW222836   4.142   2.169   9.130  1.1364 -1.1840 -1.9012
 3735SOL     OW22837   0.039   1.621  14.779  0.2712 -0.2442  0.6267
 3735SOL    HW122838   0.075   1.569  14.708  1.0242  0.3358  0.5802
 3735SOL    HW222839   0.077   1.707  14.758 -3.4764  1.2190 -0.2247
 3736SOL     OW22840   3.220   1.588   7.755 -0.7671  0.8523  0.3329
 3736SOL    HW122841   3.279   1.626   7.820 -0.1867  2.4654 -1.1344
 3736SOL    HW222842   3.260   1.501   7.753  0.4489  1.4404 -1.8007
 3737SOL     OW22843   0.551   1.299   1.936 -0.0502  0.5039  0.2632
 3737SOL    HW122844   0.483   1.340   1.884 -0.0304  0.0927 -0.0874
 3737SOL    HW222845   0.542   1.351   2.016 -0.6469  0.5459  0.1658
 3738SOL     OW22846   4.711   3.948   5.366  0.7053 -0.1308 -0.3296
 3738SOL    HW122847   0.019   4.002   5.301  2.5891 -0.6559  0.5545
 3738SOL    HW222848   0.016   3.969   5.449  1.2975  0.7153 -0.8405
 3739SOL     OW22849   4.105   4.551   5.484 -0.1173  0.0242  0.2261
 3739SOL    HW122850   4.066   4.539   5.397 -0.9630  2.2702  0.2988
 3739SOL    HW222851   4.037   4.513   5.539 -1.2752  1.2096 -0.3744
 3740SOL     OW22852   1.609   2.739   4.950 -0.4523 -0.3268 -0.2913
 3740SOL    HW122853   1.627   2.736   4.856  2.6556 -3.4849  0.3986
 3740SOL    HW222854   1.677   2.795   4.986 -1.2062  1.4135 -1.5787
 3741SOL     OW22855   4.418   4.438  15.927 -0.4731  0.1297 -0.2168
 3741SOL    HW122856   4.465   4.435  15.844 -0.5376  0.6600 -0.2714
 3741SOL    HW222857   4.338   4.386  15.913 -0.4734  0.1472 -0.2815
 3742SOL     OW22858   4.638   0.912   7.516  0.9623  0.1185 -0.0265
 3742SOL    HW122859   4.641   0.827   7.472  1.0265  0.9818 -1.6926
 3742SOL    HW222860   4.710   0.908   7.579  1.7452  0.5552 -0.8940
 3743SOL     OW22861   4.142   4.678  16.668 -0.3122 -0.1872  0.0077
 3743SOL    HW122862   4.096   0.024  16.662  2.8603  1.6512  1.3403
 3743SOL    HW222863   4.182   4.670  16.581  0.4232 -0.3176  0.3582
 3744SOL     OW22864   2.414   2.082  12.766 -0.1102  0.5268  0.3819
 3744SOL    HW122865   2.455   2.099  12.681 -2.0463 -1.6293 -0.9683
 3744SOL    HW222866   2.419   2.166  12.811 -2.3089 -0.4079  2.3822
 3745SOL     OW22867   0.245   3.934   6.588 -0.2396  0.0229 -0.4825
 3745SOL    HW122868   0.182   3.964   6.653  1.0579 -0.5090  1.0171
 3745SOL    HW222869   0.307   4.007   6.592 -1.3684  1.0275 -1.5334
 3746SOL     OW22870   4.198   4.568   4.652  0.4092 -0.1983  0.3898
 3746SOL    HW122871   4.275   4.609   4.612  1.3763 -2.8099 -0.3711
 3746SOL    HW222872   4.231   4.539   4.737 -1.4102 -3.7750 -0.1539
 3747SOL     OW22873   2.947   1.527   7.741 -0.3000  0.1595  0.1330
 3747SOL    HW122874   3.039   1.553   7.749  0.5659 -2.1310 -2.3178
 3747SOL    HW222875   2.919   1.535   7.832 -2.9681  1.1497 -0.7784
 3748SOL     OW22876   4.119   1.534   4.219  0.0232  0.0908  0.4082
 3748SOL    HW122877   4.189   1.551   4.282  2.2587  1.6911 -2.4683
 3748SOL    HW222878   4.162   1.461   4.175 -0.9878 -0.3823  0.2089
 3749SOL     OW22879   0.836   3.342   4.617  0.2033 -0.3512  0.0470
 3749SOL    HW122880   0.916   3.328   4.666  0.6229 -0.9095 -0.7906
 3749SOL    HW222881   0.772   3.297   4.672 -0.2236 -0.8823 -0.8650
 3750SOL     OW22882   2.134   4.454  10.141 -0.4699 -0.1152  0.1874
 3750SOL    HW122883   2.064   4.404  10.183 -0.2069 -0.4167  0.2712
 3750SOL    HW222884   2.140   4.400  10.061  0.0599 -1.8922  1.4298
 3751SOL     OW22885   3.528   1.301   2.626  0.1918 -0.4640 -0.2091
 3751SOL    HW122886   3.524   1.223   2.570  1.3598 -0.1882 -0.6709
 3751SOL    HW222887   3.442   1.338   2.606  0.8327  1.6370  0.9643
 3752SOL     OW22888   3.575   3.382   4.009 -0.1650 -0.0606  0.5810
 3752SOL    HW122889   3.530   3.315   4.061  0.3327 -0.1466  0.8945
 3752SOL    HW222890   3.532   3.357   3.927  4.8890  1.1599 -2.4294
 3753SOL     OW22891   0.925   3.384  17.175 -0.6445  0.0067 -0.1824
 3753SOL    HW122892   0.969   3.306  17.209 -0.4067 -0.5447 -1.7476
 3753SOL    HW222893   0.857   3.403  17.239  0.1270  1.7929  0.1033
 3754SOL     OW22894   1.471   3.710   8.984  0.4773 -0.2984  0.2726
 3754SOL    HW122895   1.491   3.662   8.904 -1.4067  0.2727 -0.5580
 3754SOL    HW222896   1.560   3.734   9.010  0.2227 -1.1672  1.9029
 3755SOL     OW22897   3.683   2.820   1.601 -0.1606 -0.7981 -0.5622
 3755SOL    HW122898   3.727   2.737   1.619  1.7410  0.3567  0.0606
 3755SOL    HW222899   3.607   2.812   1.658 -0.4588 -0.2088 -0.8709
 3756SOL     OW22900   1.558   1.596   2.128 -0.0878  0.4219  0.0380
 3756SOL    HW122901   1.646   1.584   2.163  0.5258  0.3881 -1.5169
 3756SOL    HW222902   1.565   1.667   2.065  0.5500  0.4107  0.1005
 3757SOL     OW22903   1.513   1.312   7.867  0.2522  0.2480 -0.2631
 3757SOL    HW122904   1.515   1.224   7.829  1.1814 -0.0493  0.4624
 3757SOL    HW222905   1.529   1.364   7.789 -0.7081 -0.9143 -1.2443
 3758SOL     OW22906   0.836   2.277  11.483 -0.0882 -0.5100  0.2529
 3758SOL    HW122907   0.784   2.292  11.404 -1.9440 -1.7535  1.2252
 3758SOL    HW222908   0.801   2.340  11.545  0.9390 -0.9865  1.3082
 3759SOL     OW22909   3.494   2.628   7.282 -0.0171 -0.6324 -0.3816
 3759SOL    HW122910   3.491   2.549   7.335  0.9597 -1.3033 -1.3089
 3759SOL    HW222911   3.466   2.582   7.202 -0.7469 -1.6643  0.4787
 3760SOL     OW22912   0.277   4.356   6.156  0.1723 -0.1524  0.4839
 3760SOL    HW122913   0.303   4.446   6.175  0.6824  0.0526 -1.2121
 3760SOL    HW222914   0.304   4.313   6.237  3.8542 -1.1191 -1.2733
 3761SOL     OW22915   4.641   0.705   8.001 -0.2538 -0.1586 -0.3866
 3761SOL    HW122916   4.678   0.629   8.045 -1.0910 -0.9876 -1.1012
 3761SOL    HW222917   4.625   0.764   8.075 -4.0034 -2.6735  0.8317
 3762SOL     OW22918   2.112   1.389   3.362 -0.1394  0.2895  0.0802
 3762SOL    HW122919   2.155   1.412   3.280  1.4396  1.0909  1.1237
 3762SOL    HW222920   2.157   1.444   3.426  0.1237 -1.1441  1.1304
 3763SOL     OW22921   0.120   3.306   3.189 -0.6615 -0.2595 -0.5761
 3763SOL    HW122922   0.183   3.273   3.125 -0.1867 -1.2556  0.4045
 3763SOL    HW222923   0.088   3.379   3.137 -2.7548 -0.9708 -0.3159
 3764SOL     OW22924   3.860   1.209   9.736  0.1331  0.1630 -0.1989
 3764SOL    HW122925   3.933   1.203   9.797  0.7664 -1.2477 -1.0992
 3764SOL    HW222926   3.913   1.241   9.663  1.6564 -1.3215  0.2739
 3765SOL     OW22927   2.831   2.960  11.798  0.1439  0.1300 -0.6247
 3765SOL    HW122928   2.878   2.938  11.718  1.0929  0.2686 -0.0994
 3765SOL    HW222929   2.748   2.984  11.756 -0.8817  1.5629  2.2016
 3766SOL     OW22930   0.153   0.936   7.915  0.1250 -0.2467  0.4179
 3766SOL    HW122931   0.191   1.023   7.925  0.8769 -0.6174  0.7731
 3766SOL    HW222932   0.063   0.948   7.946 -0.3516 -4.3693  0.6140
 3767SOL     OW22933   1.917   1.569   2.512  0.3590  0.7076 -0.0128
 3767SOL    HW122934   1.969   1.493   2.536  0.9959  1.1271 -0.0610
 3767SOL    HW222935   1.969   1.612   2.444 -0.2172 -0.0276 -0.9117
 3768SOL     OW22936   3.374   0.658   4.395  0.1531 -0.0023  0.0879
 3768SOL    HW122937   3.349   0.578   4.441  2.5266 -0.0034  1.3948
 3768SOL    HW222938   3.298   0.658   4.337  1.0396 -0.7501 -1.0563
 3769SOL     OW22939   3.518   3.901   7.799  0.2152  0.5443  0.2954
 3769SOL    HW122940   3.533   3.971   7.736  1.0030  0.3799  0.2993
 3769SOL    HW222941   3.561   3.923   7.882  1.9161 -0.2184 -0.3841
 3770SOL     OW22942   0.931   3.344   5.562  0.2261 -0.4664  0.6024
 3770SOL    HW122943   0.913   3.326   5.654 -1.5104 -1.0134  0.1584
 3770SOL    HW222944   1.023   3.337   5.539 -0.2580 -0.5057 -1.3308
 3771SOL     OW22945   0.961   0.443   4.955 -0.2595 -0.1074 -0.1212
 3771SOL    HW122946   0.867   0.446   4.936 -0.0485  0.9721 -0.9985
 3771SOL    HW222947   0.973   0.538   4.951 -2.1025  0.1437  0.0320
 3772SOL     OW22948   0.430   0.266   4.639  0.4431  0.1623 -0.0351
 3772SOL    HW122949   0.478   0.322   4.700 -0.1914  0.7321 -0.0513
 3772SOL    HW222950   0.510   0.245   4.592 -0.1482  0.5517 -1.2148
 3773SOL     OW22951   2.965   0.333   3.933 -0.6183 -0.3231 -0.3085
 3773SOL    HW122952   2.922   0.328   4.019 -0.9162 -0.6976 -0.4775
 3773SOL    HW222953   2.940   0.253   3.887 -0.0935 -0.6444 -0.0391
 3774SOL     OW22954   2.812   4.374   7.575  0.2069  0.2527  0.2088
 3774SOL    HW122955   2.717   4.362   7.571  0.1526  1.3454 -2.3625
 3774SOL    HW222956   2.838   4.443   7.513  0.1907  2.2769  2.4602
 3775SOL     OW22957   1.385   1.001   1.571 -0.1574 -0.1808  0.0823
 3775SOL    HW122958   1.336   0.980   1.651  1.3820  0.1488  1.1248
 3775SOL    HW222959   1.409   0.914   1.539 -2.4494 -0.7572 -0.0073
 3776SOL     OW22960   0.270   2.332   2.925  0.0904  0.4399  0.2505
 3776SOL    HW122961   0.196   2.283   2.887  2.4557 -2.0480 -1.1100
 3776SOL    HW222962   0.230   2.362   3.007  0.1690 -0.1830  0.5127
 3777SOL     OW22963   4.123   3.716   3.450  0.4616  0.4921  0.2364
 3777SOL    HW122964   4.095   3.705   3.541 -0.8350  1.5205 -0.0451
 3777SOL    HW222965   4.042   3.706   3.400  0.4983  2.7363 -0.2540
 3778SOL     OW22966   1.997   0.870   4.695  0.1179  0.2121 -0.0342
 3778SOL    HW122967   1.963   0.812   4.626 -0.1946 -0.9182  1.0730
 3778SOL    HW222968   2.091   0.862   4.678  0.0255 -2.7192  0.7444
 3779SOL     OW22969   0.175   4.481  15.984  1.0239  0.2894 -0.0498
 3779SOL    HW122970   0.238   4.496  15.913  0.5455 -2.2833 -1.0093
 3779SOL    HW222971   0.123   4.559  15.969  0.6019 -0.0493 -0.3527
 3780SOL     OW22972   1.235   2.028   2.094 -0.1194 -0.5337 -0.3252
 3780SOL    HW122973   1.179   2.044   2.170  1.1293  0.8700  0.2938
 3780SOL    HW222974   1.176   2.054   2.023  1.7758  0.1950 -1.6277
 3781SOL     OW22975   3.267   2.165   5.501  0.1162  0.1275  0.7807
 3781SOL    HW122976   3.238   2.229   5.566 -2.5942  0.9226 -1.2205
 3781SOL    HW222977   3.324   2.223   5.451  0.5916 -0.6612  0.4062
 3782SOL     OW22978   1.575   3.701   1.111 -0.5549  0.0367  0.0358
 3782SOL    HW122979   1.486   3.679   1.136  0.0663 -1.8739  0.5790
 3782SOL    HW222980   1.571   3.785   1.064  1.5915 -0.3869 -0.9319
 3783SOL     OW22981   3.653   0.883  16.979 -0.5857 -0.7940 -0.8007
 3783SOL    HW122982   3.616   0.969  16.961 -1.4469 -0.7744  1.0781
 3783SOL    HW222983   3.622   0.833  16.904 -0.5422  0.3814 -1.5921
 3784SOL     OW22984   2.737   1.927   3.543  0.0364 -0.1696  0.0881
 3784SOL    HW122985   2.767   2.017   3.555 -1.3849  0.1994  0.8602
 3784SOL    HW222986   2.732   1.902   3.635 -2.8376 -0.2514 -0.0800
 3785SOL     OW22987   0.491   2.852   9.991 -0.8993  0.2839  0.1837
 3785SOL    HW122988   0.482   2.778  10.051  0.9937  0.4632  0.6815
 3785SOL    HW222989   0.535   2.918  10.044  0.3942  0.7422 -1.4539
 3786SOL     OW22990   2.338   3.036   9.552  0.6076  0.1278  0.7254
 3786SOL    HW122991   2.302   3.065   9.635 -1.5442 -2.6672  0.7757
 3786SOL    HW222992   2.408   3.101   9.549  0.1911  0.5666  0.6151
 3787SOL     OW22993   1.199   2.287  13.301 -0.0035  0.1470 -0.3237
 3787SOL    HW122994   1.204   2.353  13.232 -0.3477 -2.6524 -3.0454
 3787SOL    HW222995   1.220   2.340  13.378 -0.3641  0.9746 -0.7928
 3788SOL     OW22996   3.275   1.669   8.521 -0.7179 -0.3450  0.1010
 3788SOL    HW122997   3.241   1.702   8.604 -1.1512 -0.4052 -0.0511
 3788SOL    HW222998   3.229   1.724   8.457 -1.8071 -0.3391  0.8880
 3789SOL     OW22999   0.835   0.148  12.830  0.0065 -0.2264 -0.4965
 3789SOL    HW123000   0.753   0.099  12.824  0.1275 -0.5509  0.4686
 3789SOL    HW223001   0.841   0.191  12.745 -3.1671  1.5354  0.1893
 3790SOL     OW23002   0.223   0.390   5.577 -0.2427  0.2510  0.2219
 3790SOL    HW123003   0.223   0.297   5.601  1.6645  0.7195  2.0275
 3790SOL    HW223004   0.157   0.430   5.634 -0.3689  2.8595 -1.7618
 3791SOL     OW23005   3.569   3.156   3.543 -0.6197  0.0380 -0.6792
 3791SOL    HW123006   3.594   3.067   3.568 -3.7418 -0.7772 -0.4983
 3791SOL    HW223007   3.653   3.201   3.548 -1.2940  1.0122  1.4688
 3792SOL     OW23008   2.548   1.291   6.438  0.0720  0.8325 -0.3838
 3792SOL    HW123009   2.575   1.257   6.524  0.2506  1.8578 -0.0338
 3792SOL    HW223010   2.535   1.383   6.460 -1.3681  1.0235 -2.1182
 3793SOL     OW23011   3.237   1.315   3.556  0.2315 -0.3146 -0.1224
 3793SOL    HW123012   3.247   1.350   3.467 -0.8145  1.3035  0.4017
 3793SOL    HW223013   3.207   1.393   3.603  1.9649  0.9381 -1.0815
 3794SOL     OW23014   3.900   0.620   2.067  0.8296 -0.5154  1.3479
 3794SOL    HW123015   3.891   0.553   2.135  0.7195  0.2918  2.1334
 3794SOL    HW223016   3.973   0.673   2.099  0.7657 -0.1463  0.8790
 3795SOL     OW23017   4.705   3.272   2.659 -0.5469  0.4237  0.0700
 3795SOL    HW123018   4.667   3.247   2.743  2.4439 -0.3159  1.1831
 3795SOL    HW223019   4.730   3.184   2.629 -0.8420 -0.8137  3.4636
 3796SOL     OW23020   1.252   2.071   8.154  0.4598  0.0711 -0.0395
 3796SOL    HW123021   1.193   2.061   8.080 -0.2349  0.0845  0.5157
 3796SOL    HW223022   1.335   2.085   8.108  0.3640 -1.0701 -0.5658
 3797SOL     OW23023   1.040   0.895   8.328 -0.3053 -0.0856 -0.9455
 3797SOL    HW123024   1.047   0.981   8.369  0.7455  0.4043 -2.1694
 3797SOL    HW223025   1.078   0.908   8.242  0.3463 -1.1712 -0.8273
 3798SOL     OW23026   4.058   4.423  10.744 -0.6145 -0.5218  0.2946
 3798SOL    HW123027   4.102   4.412  10.828 -1.2685  0.8687  0.8194
 3798SOL    HW223028   3.987   4.485  10.761 -1.3819 -1.0188 -1.0321
 3799SOL     OW23029   4.144   4.216   4.709  0.7383  0.6421 -0.1242
 3799SOL    HW123030   4.083   4.241   4.778 -2.1925 -1.9189 -1.7984
 3799SOL    HW223031   4.229   4.235   4.749 -0.6114 -0.0511  3.1191
 3800SOL     OW23032   0.076   1.996   0.009  0.2201 -0.2733 -0.2317
 3800SOL    HW123033   0.031   1.911   0.015 -3.1876  1.5035 -0.8051
 3800SOL    HW223034   0.095   1.995  17.662  0.0650  0.9993 -0.2682
 3801SOL     OW23035   1.467   2.908   1.220 -0.3257  0.2225 -0.4023
 3801SOL    HW123036   1.510   2.946   1.143  2.8665 -1.8602  0.3227
 3801SOL    HW223037   1.383   2.870   1.193  0.8310 -0.4804 -3.0270
 3802SOL     OW23038   4.309   0.886  17.330  0.1831 -0.2800  0.1873
 3802SOL    HW123039   4.325   0.860  17.421  1.0422  0.8203  0.3545
 3802SOL    HW223040   4.270   0.804  17.300  0.0571 -0.6359  1.3225
 3803SOL     OW23041   2.481   0.344   1.611 -0.3960  0.0737  0.7052
 3803SOL    HW123042   2.493   0.326   1.518  1.6360 -0.3232  1.0308
 3803SOL    HW223043   2.395   0.386   1.611 -1.3389 -1.8635 -0.0443
 3804SOL     OW23044   1.827   3.898  15.609 -0.2090 -0.2030  0.2952
 3804SOL    HW123045   1.787   3.923  15.692  2.2632 -0.4041  1.5225
 3804SOL    HW223046   1.781   3.955  15.546 -1.3594 -2.5357 -0.9579
 3805SOL     OW23047   1.676   2.758   6.668  0.4272  0.0476  0.0368
 3805SOL    HW123048   1.742   2.821   6.697  0.2762  0.5259 -0.6662
 3805SOL    HW223049   1.703   2.729   6.581  1.6330  1.2960 -0.0156
 3806SOL     OW23050   2.007   3.516   5.013  0.0726  0.2475  0.8492
 3806SOL    HW123051   2.079   3.579   5.007 -1.0727  1.6675  1.9057
 3806SOL    HW223052   1.995   3.531   5.107 -0.5370 -0.6192  0.9066
 3807SOL     OW23053   4.399   1.141   7.898  0.0080  0.0075  0.1468
 3807SOL    HW123054   4.334   1.116   7.832 -1.0111  0.7394  0.8819
 3807SOL    HW223055   4.350   1.128   7.979  1.1723 -0.1139  0.8426
 3808SOL     OW23056   2.402   0.907   7.242 -0.4534 -0.0293 -0.1123
 3808SOL    HW123057   2.388   0.901   7.148  0.3272 -1.3250 -0.1375
 3808SOL    HW223058   2.336   0.975   7.258  0.5198  1.0794 -0.8784
 3809SOL     OW23059   0.350   0.239  10.306  0.0121  0.1701  0.3258
 3809SOL    HW123060   0.360   0.261  10.399 -0.3672  0.7564  0.2288
 3809SOL    HW223061   0.417   0.289  10.260  1.7357 -2.3515  0.1058
 3810SOL     OW23062   4.628   1.020   7.974  0.0856 -0.2827 -0.2876
 3810SOL    HW123063   4.565   1.075   7.928 -0.7751 -0.7366  0.3415
 3810SOL    HW223064   4.610   0.928   7.952  2.3210 -0.7606 -0.1380
 3811SOL     OW23065   1.765   2.570   7.968 -0.0441  0.1191  1.1298
 3811SOL    HW123066   1.706   2.552   8.041 -1.0659 -0.2166  0.2261
 3811SOL    HW223067   1.837   2.517   8.001  2.8160  2.9129 -0.5832
 3812SOL     OW23068   0.189   2.364   4.881 -0.4116  0.1161 -0.6813
 3812SOL    HW123069   0.127   2.301   4.919  0.9306 -1.2536 -0.7408
 3812SOL    HW223070   0.273   2.318   4.890 -2.7543 -3.8585  1.0123
 3813SOL     OW23071   4.289   1.252   6.445  0.3146 -0.9209 -0.4140
 3813SOL    HW123072   4.247   1.338   6.449 -1.9783 -2.0480 -0.2446
 3813SOL    HW223073   4.323   1.241   6.534  0.9144  1.9599 -0.3093
 3814SOL     OW23074   4.598   3.683  16.220 -1.0108  0.2119 -0.3281
 3814SOL    HW123075   4.684   3.685  16.180 -1.0764  2.5864 -0.3639
 3814SOL    HW223076   4.623   3.733  16.298 -1.2824 -0.0786 -0.0563
 3815SOL     OW23077   2.411   0.790   6.962  0.0801 -0.0843 -0.4048
 3815SOL    HW123078   2.385   0.845   6.888  1.6586  0.1556 -0.7740
 3815SOL    HW223079   2.492   0.758   6.922  0.2680 -0.6278  0.4229
 3816SOL     OW23080   3.081   1.049   0.404  0.0906 -0.1344 -0.3580
 3816SOL    HW123081   3.168   1.009   0.405  0.3004  0.3465  1.2105
 3816SOL    HW223082   3.079   1.120   0.340  2.1465 -0.1361 -0.4239
 3817SOL     OW23083   3.103   0.668   5.275  0.4612  0.2522  0.0580
 3817SOL    HW123084   3.187   0.713   5.279  0.8982 -0.2535 -3.4042
 3817SOL    HW223085   3.115   0.614   5.354  0.4809 -0.2825 -0.3101
 3818SOL     OW23086   3.610   1.509   6.868  0.0838 -0.1314  0.7520
 3818SOL    HW123087   3.568   1.485   6.950  1.8815  0.2970  1.8048
 3818SOL    HW223088   3.688   1.541   6.913  0.8207  0.3962 -0.8804
 3819SOL     OW23089   0.229   0.872   5.597 -0.2707 -0.6218 -0.3866
 3819SOL    HW123090   0.323   0.879   5.585  0.0465 -0.3061  2.1804
 3819SOL    HW223091   0.218   0.904   5.687  0.3427  0.0582 -0.5530
 3820SOL     OW23092   3.779   0.060   7.833  0.0914 -0.3102 -0.1689
 3820SOL    HW123093   3.708   0.122   7.853 -0.2925 -1.2229  1.2638
 3820SOL    HW223094   3.846   0.129   7.833  1.1371 -1.3654  2.4817
 3821SOL     OW23095   1.340   0.827   7.078  0.4162 -0.3964 -0.5408
 3821SOL    HW123096   1.328   0.889   7.006  0.9216 -0.1135 -0.3773
 3821SOL    HW223097   1.329   0.889   7.150 -0.5820 -2.4045  1.0450
 3822SOL     OW23098   4.512   1.360   3.015 -0.2692  0.4684 -0.0154
 3822SOL    HW123099   4.443   1.383   3.077  1.2474 -0.2205  1.9191
 3822SOL    HW223100   4.577   1.317   3.069  0.3852 -0.0175 -1.1922
 3823SOL     OW23101   0.434   2.565   3.708  0.2351 -0.4067  0.1526
 3823SOL    HW123102   0.466   2.655   3.694  0.9324 -0.3807  1.9753
 3823SOL    HW223103   0.365   2.570   3.642  0.1882 -0.0954  0.2245
 3824SOL     OW23104   2.573   1.217  12.627  0.0721 -0.2655  0.4098
 3824SOL    HW123105   2.543   1.263  12.549  0.6498  0.9750  0.9171
 3824SOL    HW223106   2.550   1.126  12.607  3.5846 -1.1819  0.5175
 3825SOL     OW23107   1.582   3.125  13.108  0.0684  0.1690 -0.2180
 3825SOL    HW123108   1.661   3.129  13.163  0.3648  1.0034 -0.7141
 3825SOL    HW223109   1.616   3.093  13.025  0.9833  2.9478 -0.9051
 3826SOL     OW23110   4.450   3.383   1.118  0.9065 -0.6437  1.0196
 3826SOL    HW123111   4.510   3.447   1.157  1.8652 -1.3968  0.7563
 3826SOL    HW223112   4.508   3.346   1.052  2.2191 -0.8183  2.2653
 3827SOL     OW23113   2.607   1.330   7.300 -0.2115  0.1175  0.7964
 3827SOL    HW123114   2.697   1.354   7.322  0.4530 -3.2841  1.8958
 3827SOL    HW223115   2.611   1.240   7.333 -0.5866 -0.4545 -0.7262
 3828SOL     OW23116   4.655   3.753   1.913  0.1019 -0.2276 -0.6010
 3828SOL    HW123117   0.012   3.749   1.930  0.1466  1.5686 -0.3581
 3828SOL    HW223118   4.655   3.679   1.852 -0.8796  1.4410 -2.6504
 3829SOL     OW23119   2.599   0.617  10.901 -0.0208 -0.0887  0.4008
 3829SOL    HW123120   2.568   0.694  10.853 -0.0961  0.0834  0.7250
 3829SOL    HW223121   2.677   0.651  10.944 -1.0756  0.5854  1.7559
 3830SOL     OW23122   2.660   2.324   4.749  0.2193  0.1365  0.7983
 3830SOL    HW123123   2.702   2.410   4.744  0.8143 -0.1038  1.6097
 3830SOL    HW223124   2.704   2.264   4.810  2.0383  0.2034 -0.4550
 3831SOL     OW23125   1.185   0.495   4.709  0.0023 -0.0753  0.1599
 3831SOL    HW123126   1.188   0.482   4.804  1.2018 -0.1220  0.1159
 3831SOL    HW223127   1.181   0.406   4.673  1.5598 -0.2882  0.5090
 3832SOL     OW23128   2.814   2.549   4.804 -0.4064  0.1471  0.5973
 3832SOL    HW123129   2.860   2.566   4.886  0.0916  2.1383 -0.0921
 3832SOL    HW223130   2.849   2.612   4.741  0.2035 -2.3033 -1.5586
 3833SOL     OW23131   2.812   2.208  11.176  0.1149 -0.0476 -0.8493
 3833SOL    HW123132   2.829   2.293  11.137 -0.0344  0.3131 -0.1378
 3833SOL    HW223133   2.867   2.222  11.253  0.3827  0.0410 -1.0583
 3834SOL     OW23134   0.960   0.855   5.722  0.6294 -0.4437  0.7507
 3834SOL    HW123135   0.979   0.948   5.708  1.1940 -0.7078 -0.2433
 3834SOL    HW223136   0.898   0.868   5.793  0.5873  0.0436  0.6265
 3835SOL     OW23137   0.565   4.159   4.750 -0.0196  0.0385  0.0170
 3835SOL    HW123138   0.506   4.218   4.798 -0.7098 -0.6517  0.0243
 3835SOL    HW223139   0.567   4.213   4.671 -0.0928 -0.1970 -0.1461
 3836SOL     OW23140   4.230   4.236  15.054  0.2587  0.2733 -0.2875
 3836SOL    HW123141   4.274   4.218  14.971  0.4658 -1.0909  0.1246
 3836SOL    HW223142   4.303   4.273  15.103  0.8388 -0.8225 -0.3315
 3837SOL     OW23143   3.592   1.588   0.073  0.6682 -0.7563  0.2691
 3837SOL    HW123144   3.636   1.654   0.018 -2.4965 -1.6019 -3.2769
 3837SOL    HW223145   3.657   1.545   0.129 -1.1909 -1.6780  1.6833
 3838SOL     OW23146   1.232   2.362   3.814 -0.0175 -0.3249 -0.5430
 3838SOL    HW123147   1.137   2.374   3.821 -0.0038 -0.1974 -0.5797
 3838SOL    HW223148   1.248   2.331   3.724 -0.8773  0.1701 -0.8637
 3839SOL     OW23149   4.713   4.737   7.493  0.5135  0.1517 -0.1229
 3839SOL    HW123150   0.046   4.736   7.428 -0.7238 -2.7643 -1.4053
 3839SOL    HW223151   4.645   0.039   7.438 -0.0495 -1.4550 -0.5785
 3840SOL     OW23152   1.859   2.696  11.673  0.3146 -0.9208  0.2448
 3840SOL    HW123153   1.816   2.630  11.728 -1.2620  0.5392  0.7589
 3840SOL    HW223154   1.820   2.669  11.590 -0.7958  1.9052 -0.1594
 3841SOL     OW23155   3.436   1.629  17.600 -0.1767  0.2357  0.4356
 3841SOL    HW123156   3.448   1.548  17.551  1.8989 -0.0090  1.3466
 3841SOL    HW223157   3.481   1.616  17.684 -0.2036  1.9531  0.7168
 3842SOL     OW23158   1.785   2.768  15.360 -0.5113  0.6499 -0.6651
 3842SOL    HW123159   1.784   2.673  15.352 -0.9230  0.6705 -0.8727
 3842SOL    HW223160   1.879   2.786  15.361 -0.2992 -0.5019  1.0038
 3843SOL     OW23161   0.121   2.668   6.071 -0.4418 -0.3580  0.0412
 3843SOL    HW123162   0.125   2.574   6.053 -1.4520 -0.4713  0.3968
 3843SOL    HW223163   0.026   2.679   6.066 -0.0611  2.0876 -1.6185
 3844SOL     OW23164   1.633   4.013  13.999 -0.4864  0.2223  0.8683
 3844SOL    HW123165   1.544   4.033  14.029  0.1911  1.8306  1.8389
 3844SOL    HW223166   1.673   4.006  14.086  2.6178 -0.9911 -0.7103
 3845SOL     OW23167   4.042   2.863   7.292  0.0111  0.1273 -0.2441
 3845SOL    HW123168   4.015   2.907   7.372  1.8630 -0.4209  0.6971
 3845SOL    HW223169   4.075   2.780   7.328  0.2496 -0.8146 -2.6304
 3846SOL     OW23170   3.733   4.078   7.337  0.1364 -0.1728 -0.4492
 3846SOL    HW123171   3.685   4.072   7.254  2.0002  0.6376 -1.5855
 3846SOL    HW223172   3.708   4.166   7.365 -1.0337 -0.5655 -0.2412
 3847SOL     OW23173   1.029   2.168   4.206  0.0783 -0.2853  0.3754
 3847SOL    HW123174   1.096   2.234   4.226 -1.1562  0.7966  0.8829
 3847SOL    HW223175   0.963   2.216   4.156  0.9297  0.6864  0.1806
 3848SOL     OW23176   2.431   4.488  11.463 -0.2697 -0.3280  0.2565
 3848SOL    HW123177   2.430   4.561  11.401 -0.4200  0.9566  1.7785
 3848SOL    HW223178   2.403   4.417  11.405 -2.0470  0.5821  0.0131
 3849SOL     OW23179   4.530   0.945  10.043 -0.2332  0.2745 -0.3203
 3849SOL    HW123180   4.471   1.016  10.019 -1.2578 -0.3123  0.4508
 3849SOL    HW223181   4.503   0.928  10.133 -1.7400 -0.8659 -0.9895
 3850SOL     OW23182   1.190   1.206   8.820 -0.4325 -0.1034 -0.2388
 3850SOL    HW123183   1.098   1.187   8.802  0.1882 -1.9557 -1.3853
 3850SOL    HW223184   1.179   1.250   8.904  2.5539 -2.7488  1.5534
 3851SOL     OW23185   3.443   3.502   0.796 -0.7110 -0.1187 -0.3644
 3851SOL    HW123186   3.380   3.456   0.852 -0.5637  1.1805  0.8489
 3851SOL    HW223187   3.440   3.437   0.726  2.0973 -0.4775 -0.1423
 3852SOL     OW23188   3.498   2.858   6.865 -0.4525  0.3024 -0.1212
 3852SOL    HW123189   3.403   2.848   6.878 -0.5051 -0.6822 -1.2270
 3852SOL    HW223190   3.551   2.821   6.936 -0.8651  0.3298  0.2048
 3853SOL     OW23191   3.932   0.622  13.536  0.2550  0.0265  0.2639
 3853SOL    HW123192   3.924   0.687  13.467 -1.2077 -0.2625  0.1637
 3853SOL    HW223193   3.840   0.627  13.559  0.1315 -0.0312 -0.2228
 3854SOL     OW23194   3.874   1.637   1.949  0.0255 -0.2078 -0.4559
 3854SOL    HW123195   3.875   1.658   2.043 -1.7169  0.3365 -0.5541
 3854SOL    HW223196   3.807   1.568   1.946 -0.0503 -0.2063  1.1325
 3855SOL     OW23197   1.426   2.373   9.924  0.0531 -0.0652 -0.3649
 3855SOL    HW123198   1.443   2.279   9.912  1.4580 -0.1129  1.8442
 3855SOL    HW223199   1.516   2.403   9.941  0.1997 -0.7908  0.1493
 3856SOL     OW23200   0.603   2.948   7.986 -0.1530  0.5874  0.0844
 3856SOL    HW123201   0.611   3.039   7.960  0.1248  0.3089 -0.8226
 3856SOL    HW223202   0.631   2.939   8.077  1.1111 -0.3797 -0.4029
 3857SOL     OW23203   2.396   0.607  12.380 -0.5174 -0.3915  0.6436
 3857SOL    HW123204   2.432   0.598  12.291 -0.6317 -1.1421  0.6742
 3857SOL    HW223205   2.372   0.699  12.390  0.3760 -0.1306  0.4379
 3858SOL     OW23206   1.248   1.899  12.470  0.3190 -0.6741 -0.4311
 3858SOL    HW123207   1.215   1.972  12.523 -0.4366 -1.4074  0.1112
 3858SOL    HW223208   1.195   1.827  12.505 -1.6141  0.3293 -1.3527
 3859SOL     OW23209   4.034   1.576  13.103 -0.5843  0.4950  0.4494
 3859SOL    HW123210   3.955   1.562  13.155 -0.3520 -0.9861  0.4059
 3859SOL    HW223211   4.092   1.620  13.165  1.4362 -0.3225 -0.8539
 3860SOL     OW23212   0.815   0.045  15.123 -0.2903 -0.1224  0.0032
 3860SOL    HW123213   0.879   0.114  15.104  1.5802 -1.1053  2.6446
 3860SOL    HW223214   0.740   0.053  15.064  0.2659  1.6958 -0.4690
 3861SOL     OW23215   1.514   2.920   6.822  0.8076  0.2085 -0.4361
 3861SOL    HW123216   1.585   2.983   6.839  2.1840 -1.8794  1.5687
 3861SOL    HW223217   1.561   2.848   6.780  0.2230 -1.2298  1.3325
 3862SOL     OW23218   1.228   3.760   9.571  0.6748 -0.0358  0.3070
 3862SOL    HW123219   1.150   3.805   9.601 -0.1338 -0.6699 -0.8493
 3862SOL    HW223220   1.271   3.822   9.512  0.8229 -0.2561  0.1819
 3863SOL     OW23221   1.244   2.949   7.429  0.0107 -0.1353  0.6009
 3863SOL    HW123222   1.329   2.990   7.418  0.4282 -1.0933  0.2688
 3863SOL    HW223223   1.206   2.974   7.344  1.1234  0.8659  0.4021
 3864SOL     OW23224   2.229   3.201  10.361 -0.0569  0.4477 -0.7638
 3864SOL    HW123225   2.249   3.295  10.359  0.2511  0.4228  1.6678
 3864SOL    HW223226   2.305   3.173  10.310  0.0354 -0.7980  0.0652
 3865SOL     OW23227   0.664   3.473   6.909  0.2867 -0.3881 -0.0136
 3865SOL    HW123228   0.710   3.402   6.866  0.9068  0.6296 -1.0192
 3865SOL    HW223229   0.582   3.452   6.865 -0.5941  0.3949  1.2520
 3866SOL     OW23230   0.678   0.594   8.145  0.6373  0.5228  0.2480
 3866SOL    HW123231   0.605   0.643   8.182 -2.1295 -0.3164 -4.0238
 3866SOL    HW223232   0.745   0.624   8.206 -0.4018  1.8765  0.7191
 3867SOL     OW23233   2.535   2.754   8.406  0.0536  0.2498 -0.8821
 3867SOL    HW123234   2.462   2.693   8.418  1.7960 -0.9989  3.3541
 3867SOL    HW223235   2.607   2.695   8.380 -0.6375 -0.0451 -2.1230
 3868SOL     OW23236   1.009   4.009   5.526  0.5162  0.3822 -0.2129
 3868SOL    HW123237   0.999   3.943   5.458  2.6967 -0.8763  0.7059
 3868SOL    HW223238   1.062   4.073   5.479 -0.3412  1.3690  0.1508
 3869SOL     OW23239   0.394   3.559   7.627  0.3891 -0.0077 -0.5556
 3869SOL    HW123240   0.478   3.547   7.582  2.1049  1.2891  2.2959
 3869SOL    HW223241   0.433   3.556   7.714 -1.0534  1.0788  0.1194
 3870SOL     OW23242   0.248   0.414   6.288  0.2842 -0.7558 -0.4787
 3870SOL    HW123243   0.328   0.460   6.264  1.3209 -1.5953  1.3071
 3870SOL    HW223244   0.208   0.400   6.203  1.2893  0.4191 -1.1428
 3871SOL     OW23245   0.609   3.109   3.000 -0.1955 -0.2939 -0.1175
 3871SOL    HW123246   0.573   3.087   3.086 -0.4324 -0.1653 -0.1856
 3871SOL    HW223247   0.666   3.031   2.999 -3.4763 -2.6851 -1.3172
 3872SOL     OW23248   4.285   4.534   6.859 -0.2851 -0.5079 -0.4258
 3872SOL    HW123249   4.224   4.503   6.791  0.2073  2.0374 -2.0440
 3872SOL    HW223250   4.270   4.464   6.922  0.4674 -1.1064 -0.9111
 3873SOL     OW23251   0.684   2.251   2.405 -0.0751  0.3615  0.1013
 3873SOL    HW123252   0.698   2.342   2.381 -0.6935  0.4905  0.2515
 3873SOL    HW223253   0.691   2.246   2.500  0.4181 -0.1839  0.0398
 3874SOL     OW23254   3.490   3.309   8.543 -0.2473  0.4781  0.5836
 3874SOL    HW123255   3.536   3.226   8.537 -0.6194  0.3667 -0.6472
 3874SOL    HW223256   3.533   3.363   8.477  0.3106 -0.9732 -0.2262
 3875SOL     OW23257   0.812   3.207  11.212 -0.0210  0.1666  0.7051
 3875SOL    HW123258   0.790   3.172  11.298 -1.5585  0.0572  0.2649
 3875SOL    HW223259   0.811   3.134  11.150  1.1353  1.5077 -0.9098
 3876SOL     OW23260   3.913   0.632  10.579 -0.7781  0.0258  0.0832
 3876SOL    HW123261   3.963   0.577  10.639 -0.4232 -1.5069 -1.6139
 3876SOL    HW223262   3.955   0.718  10.584 -1.5320  0.4257 -0.4424
 3877SOL     OW23263   1.568   4.478   7.251  0.0113  0.3919 -0.4781
 3877SOL    HW123264   1.616   4.483   7.169  0.4558  0.0286 -0.2426
 3877SOL    HW223265   1.497   4.424   7.216 -0.9053 -0.1698  2.2143
 3878SOL     OW23266   4.705   1.193   4.887  0.1131  0.1579 -0.6558
 3878SOL    HW123267   4.612   1.187   4.910  0.3172  2.1178  0.6374
 3878SOL    HW223268   4.701   1.272   4.832 -2.4115  0.6483  0.2460
 3879SOL     OW23269   3.029   0.914   7.170 -0.4289 -0.1645 -0.2621
 3879SOL    HW123270   3.103   0.859   7.194 -1.6337 -0.3368  3.0498
 3879SOL    HW223271   3.068   1.001   7.167 -1.2785  0.2433  0.4352
 3880SOL     OW23272   0.133   1.801   5.292 -0.3462 -0.0895 -0.6839
 3880SOL    HW123273   0.155   1.712   5.318  1.1385  0.4394 -0.1499
 3880SOL    HW223274   0.071   1.830   5.359  0.6986 -0.6802  0.5235
 3881SOL     OW23275   1.204   0.623   2.963 -0.0993  0.6373 -0.5715
 3881SOL    HW123276   1.205   0.658   2.874  3.5214  2.5216  0.2401
 3881SOL    HW223277   1.236   0.701   3.007 -1.4675  0.8202  0.1126
 3882SOL     OW23278   3.118   2.151   2.096 -0.6818 -0.2331 -0.7949
 3882SOL    HW123279   3.037   2.117   2.134 -1.0955  2.0897  0.4059
 3882SOL    HW223280   3.180   2.114   2.158 -1.7907  0.0355  0.4896
 3883SOL     OW23281   3.263   3.779   4.061 -0.6234 -0.3309  0.0750
 3883SOL    HW123282   3.199   3.819   4.002  0.8632 -0.3003 -1.5183
 3883SOL    HW223283   3.214   3.766   4.142 -0.5398 -3.3344 -0.3568
 3884SOL     OW23284   0.132   1.375   2.829  0.1600  0.5703  0.2053
 3884SOL    HW123285   0.139   1.294   2.779  4.1354  0.9887  0.0555
 3884SOL    HW223286   0.041   1.403   2.818 -1.1920 -3.8448  0.4954
 3885SOL     OW23287   0.853   1.648   7.292 -0.0380 -0.1244 -0.3825
 3885SOL    HW123288   0.912   1.602   7.351 -0.7108  0.0901  0.4531
 3885SOL    HW223289   0.773   1.642   7.344  0.9207 -2.7835  0.7687
 3886SOL     OW23290   0.684   1.196   2.949 -0.2392  0.3760  0.0237
 3886SOL    HW123291   0.652   1.142   3.021 -2.0675  1.2493 -0.1429
 3886SOL    HW223292   0.696   1.123   2.888 -2.8688 -0.5306  0.5827
 3887SOL     OW23293   0.525   0.640   3.789  0.2718 -0.4423  0.1438
 3887SOL    HW123294   0.528   0.734   3.775  1.6980 -0.6380 -0.9034
 3887SOL    HW223295   0.568   0.620   3.706  0.2376  1.5639 -0.3506
 3888SOL     OW23296   4.053   3.821  14.694  0.4631  0.5311 -0.1625
 3888SOL    HW123297   4.071   3.757  14.625 -0.5086  0.6230 -0.5011
 3888SOL    HW223298   4.060   3.906  14.651 -0.3628  0.9582  0.5577
 3889SOL     OW23299   3.404   2.882   6.373  0.2198  0.0189  0.4968
 3889SOL    HW123300   3.395   2.840   6.459 -0.3402  0.4143  0.6361
 3889SOL    HW223301   3.472   2.833   6.329 -0.6641 -0.5563 -0.2320
 3890SOL     OW23302   2.872   0.476  16.438 -0.7940  0.4536  0.4624
 3890SOL    HW123303   2.843   0.466  16.347  0.0039 -2.5604  0.5526
 3890SOL    HW223304   2.848   0.568  16.449  0.6631  0.8735  0.1112
 3891SOL     OW23305   2.633   0.333  16.308 -0.1532  0.1816  0.5645
 3891SOL    HW123306   2.664   0.386  16.234 -2.7705 -0.2187 -0.8007
 3891SOL    HW223307   2.657   0.386  16.384 -0.8162  2.3059 -0.6932
 3892SOL     OW23308   2.768   3.664   8.960 -0.5976  0.1434 -0.5960
 3892SOL    HW123309   2.768   3.739   9.019 -0.0061  0.4578 -0.9867
 3892SOL    HW223310   2.688   3.622   8.992 -0.8100  0.2204 -1.0179
 3893SOL     OW23311   1.243   2.080  11.448 -0.5550 -0.3092 -0.2889
 3893SOL    HW123312   1.289   2.037  11.520 -1.8748  2.1067  1.9954
 3893SOL    HW223313   1.232   2.169  11.482  1.4389 -0.5280  0.9248
 3894SOL     OW23314   2.210   4.632   1.961 -0.3152 -0.6500 -0.1589
 3894SOL    HW123315   2.306   4.631   1.962 -0.3313 -0.6365  1.0406
 3894SOL    HW223316   2.190   4.538   1.958 -1.5701 -0.4012  0.3339
 3895SOL     OW23317   3.609   4.168   8.826  0.2556 -0.0424  0.1959
 3895SOL    HW123318   3.547   4.100   8.798 -1.0339  0.4057  1.9852
 3895SOL    HW223319   3.657   4.184   8.745 -1.3329 -1.1993 -0.9891
 3896SOL     OW23320   4.166   1.687   3.104 -0.2157  0.3752  0.0667
 3896SOL    HW123321   4.087   1.693   3.158 -0.5954 -3.8433 -0.0066
 3896SOL    HW223322   4.139   1.756   3.043 -3.0404 -0.5100  0.3309
 3897SOL     OW23323   1.368   1.337   8.578 -0.3710 -0.7829  0.6341
 3897SOL    HW123324   1.372   1.364   8.669 -2.4874  1.1233  0.1522
 3897SOL    HW223325   1.319   1.406   8.533 -0.3738 -2.1734 -1.5143
 3898SOL     OW23326   2.376   3.776   9.614  0.4742 -0.3839 -0.0788
 3898SOL    HW123327   2.416   3.860   9.638 -0.8157  0.3464 -0.4876
 3898SOL    HW223328   2.293   3.788   9.660  0.5664  0.3833 -0.1028
 3899SOL     OW23329   3.651   2.072   1.526 -0.1432  0.1516  0.1870
 3899SOL    HW123330   3.716   2.056   1.458 -0.5117 -1.4749  0.1944
 3899SOL    HW223331   3.665   1.992   1.578  0.5516 -0.2114 -0.5706
 3900SOL     OW23332   0.565   3.076   1.070  0.7659 -0.4800 -0.1961
 3900SOL    HW123333   0.627   3.143   1.100 -1.4663  0.0638  3.1243
 3900SOL    HW223334   0.608   2.996   1.100  2.6205  0.3613 -0.6106
 3901SOL     OW23335   4.101   0.775   4.852  0.3157 -0.3598 -0.1311
 3901SOL    HW123336   4.056   0.692   4.864 -0.3844 -0.0382 -0.5410
 3901SOL    HW223337   4.091   0.797   4.759 -2.7283 -1.2085 -0.0046
 3902SOL     OW23338   0.238   4.584  12.810  0.2066  0.0713  0.7862
 3902SOL    HW123339   0.262   4.673  12.836  2.0160 -1.1956  3.4921
 3902SOL    HW223340   0.324   4.542  12.816 -0.1047 -0.6070  0.5033
 3903SOL     OW23341   4.189   2.550   0.505  0.4982  0.2590  0.2674
 3903SOL    HW123342   4.139   2.484   0.552  4.2273 -1.2351  2.1295
 3903SOL    HW223343   4.134   2.545   0.427  0.2227 -2.5971  0.6596
 3904SOL     OW23344   3.942   2.404   1.687  0.0320 -0.3235  0.2407
 3904SOL    HW123345   3.987   2.320   1.698  1.2524  0.1501 -1.1186
 3904SOL    HW223346   3.851   2.375   1.682  0.8362 -3.1076  1.6969
 3905SOL     OW23347   2.330   1.511  11.132 -0.4091  1.0875  0.2884
 3905SOL    HW123348   2.279   1.453  11.188 -0.0328  0.1584 -0.3240
 3905SOL    HW223349   2.263   1.564  11.090 -0.3396  1.8489  1.1457
 3906SOL     OW23350   2.363   2.035  11.663  0.2843 -0.0187  0.2554
 3906SOL    HW123351   2.418   1.981  11.606  0.0190  0.5467 -0.5329
 3906SOL    HW223352   2.319   1.961  11.704 -0.0779 -0.4323 -0.9001
 3907SOL     OW23353   3.025   3.644   8.199 -0.1799  0.0172  0.6412
 3907SOL    HW123354   3.044   3.737   8.199  2.1573 -0.4766 -0.1554
 3907SOL    HW223355   2.989   3.644   8.110  1.8574 -0.8055 -0.1889
 3908SOL     OW23356   3.321   0.542   3.330 -0.0033 -0.0409 -0.0729
 3908SOL    HW123357   3.366   0.614   3.375  0.6657 -1.2297  1.1445
 3908SOL    HW223358   3.331   0.472   3.394  3.2036 -0.4332 -0.9680
 3909SOL     OW23359   4.624   4.429   2.998 -0.2555  0.1596 -0.1041
 3909SOL    HW123360   4.639   4.505   3.055 -0.8788  0.4422 -0.3175
 3909SOL    HW223361   4.708   4.435   2.954 -0.3400 -2.4201 -0.5962
 3910SOL     OW23362   0.913   3.399   3.093  0.0940 -0.4610 -0.1028
 3910SOL    HW123363   0.982   3.362   3.037 -1.8740 -1.0193 -2.1667
 3910SOL    HW223364   0.909   3.340   3.168  0.3392 -1.0223 -0.5260
 3911SOL     OW23365   1.392   2.838   0.380 -0.2006 -0.4673 -0.5560
 3911SOL    HW123366   1.370   2.813   0.469 -0.6243 -0.6994 -0.7273
 3911SOL    HW223367   1.432   2.753   0.360  0.3472 -0.9042  2.4787
 3912SOL     OW23368   0.867   2.040   8.993  0.0997  0.0388 -0.3848
 3912SOL    HW123369   0.923   2.084   9.056 -1.7226  1.7179  0.0415
 3912SOL    HW223370   0.790   2.024   9.048 -0.3014  0.4985 -0.8130
 3913SOL     OW23371   2.190   4.330  12.891 -0.0633  0.1020  0.1041
 3913SOL    HW123372   2.185   4.379  12.809 -0.2423  0.9254  0.6040
 3913SOL    HW223373   2.112   4.275  12.902 -0.3243 -0.0918 -2.7252
 3914SOL     OW23374   0.046   3.198   4.496 -0.2966  0.0876 -0.2231
 3914SOL    HW123375   0.018   3.284   4.466 -2.1782 -0.3547  0.2886
 3914SOL    HW223376   4.731   3.135   4.445  0.9720  0.4850 -1.9869
 3915SOL     OW23377   3.855   0.399  10.435 -0.0669  0.1552  0.4877
 3915SOL    HW123378   3.906   0.348  10.498 -0.9625 -0.5080  0.6747
 3915SOL    HW223379   3.867   0.488  10.468  1.3531  0.0042  0.3587
 3916SOL     OW23380   0.539   3.601   0.301 -0.2779  0.6293 -0.1680
 3916SOL    HW123381   0.517   3.509   0.282 -2.0347  0.9964  0.0841
 3916SOL    HW223382   0.589   3.584   0.381 -0.7268 -0.0142 -0.0188
 3917SOL     OW23383   0.982   3.538   8.789 -0.1132  0.1761 -0.6927
 3917SOL    HW123384   1.007   3.462   8.736  0.6040 -1.2421  1.7100
 3917SOL    HW223385   1.052   3.552   8.852 -0.6161  0.5375 -0.2137
 3918SOL     OW23386   4.247   4.317   6.998 -0.3165  0.5349  0.1367
 3918SOL    HW123387   4.258   4.222   6.998 -1.0091  0.4552 -0.2710
 3918SOL    HW223388   4.158   4.326   7.033  0.4715  0.5360  2.1397
 3919SOL     OW23389   2.564   0.688   1.625 -0.2394 -0.1027  0.0968
 3919SOL    HW123390   2.659   0.678   1.613 -0.3812  1.8708 -2.5054
 3919SOL    HW223391   2.530   0.666   1.539 -0.1504 -0.6519  0.1998
 3920SOL     OW23392   1.764   1.164   7.518  0.3963  0.0514  0.8690
 3920SOL    HW123393   1.710   1.115   7.457  0.3324  0.0528  0.9238
 3920SOL    HW223394   1.749   1.105   7.592 -0.5219 -0.8191 -0.0100
 3921SOL     OW23395   4.058   1.861   7.583  0.0004 -0.1008  0.1999
 3921SOL    HW123396   4.126   1.871   7.650  1.9412 -2.3963 -1.4428
 3921SOL    HW223397   4.035   1.770   7.600  0.4065  0.1083  1.8461
 3922SOL     OW23398   0.867   4.498  15.867  0.1514 -0.3220  0.2141
 3922SOL    HW123399   0.846   4.539  15.783 -1.0671 -1.2436  0.0755
 3922SOL    HW223400   0.779   4.501  15.905 -0.3104 -0.8141 -0.8147
 3923SOL     OW23401   4.293   1.618   2.126  0.1837 -0.1855 -0.2762
 3923SOL    HW123402   4.274   1.550   2.190 -1.6671  2.1226  1.6701
 3923SOL    HW223403   4.279   1.699   2.176  0.1001  1.0766 -2.3094
 3924SOL     OW23404   3.909   1.692   9.178 -0.3237  0.9815 -0.1939
 3924SOL    HW123405   3.995   1.714   9.213  0.2425  0.3055 -1.1623
 3924SOL    HW223406   3.856   1.731   9.248 -1.0612  1.4654 -1.0133
 3925SOL     OW23407   0.126   0.299   4.045  0.4765  0.3197  0.3593
 3925SOL    HW123408   0.214   0.268   4.027  1.3178  2.7996  0.1725
 3925SOL    HW223409   0.126   0.323   4.138  0.0228 -0.3729  0.5420
 3926SOL     OW23410   0.775   0.381   2.008  0.2701 -0.6049 -0.2633
 3926SOL    HW123411   0.739   0.301   1.972 -0.7807  0.6181 -1.9002
 3926SOL    HW223412   0.702   0.413   2.061  0.1893 -0.0432 -0.7184
 3927SOL     OW23413   0.502   2.290   2.816  0.4175 -0.3299 -0.7203
 3927SOL    HW123414   0.418   2.308   2.858  1.0849 -0.0761  0.5146
 3927SOL    HW223415   0.519   2.380   2.787 -0.5269  0.4165  1.0525
 3928SOL     OW23416   4.297   3.099   9.756 -0.0937  0.9568  0.2980
 3928SOL    HW123417   4.384   3.067   9.781  0.5322  0.9397 -1.9447
 3928SOL    HW223418   4.305   3.187   9.795  0.2423  0.8023  0.5810
 3929SOL     OW23419   2.424   2.940   7.721 -0.4227  0.3154  0.3880
 3929SOL    HW123420   2.337   2.900   7.723 -1.5132  2.7194  0.9791
 3929SOL    HW223421   2.396   3.026   7.750 -0.0258  0.6225 -0.1371
 3930SOL     OW23422   2.164   0.608   7.676 -0.1436 -0.0591  0.5246
 3930SOL    HW123423   2.215   0.609   7.595  0.3328  2.0528  0.8517
 3930SOL    HW223424   2.178   0.516   7.698 -0.2964  0.0446  1.0654
 3931SOL     OW23425   2.139   0.252  16.046 -0.3283  0.2835  0.1529
 3931SOL    HW123426   2.164   0.229  15.957  1.0040 -1.3957  0.9599
 3931SOL    HW223427   2.222   0.285  16.079  0.3997 -2.5401  1.1977
 3932SOL     OW23428   3.591   2.452   6.728 -0.0935  0.2421 -0.1456
 3932SOL    HW123429   3.642   2.517   6.680  0.7464  1.2288  2.1085
 3932SOL    HW223430   3.654   2.430   6.796 -1.2745 -0.8793  0.5870
 3933SOL     OW23431   1.510   3.032   1.454  0.0688  0.5069  0.1474
 3933SOL    HW123432   1.558   2.964   1.500 -0.9023 -0.6284 -0.5247
 3933SOL    HW223433   1.514   2.987   1.370 -1.0229 -1.4704  1.1670
 3934SOL     OW23434   4.420   3.669   2.154 -0.6544 -0.1857 -0.2673
 3934SOL    HW123435   4.398   3.714   2.072 -1.2671  0.7335  0.4076
 3934SOL    HW223436   4.489   3.725   2.189 -2.6191  1.8465  0.3031
 3935SOL     OW23437   0.622   4.444   9.650 -0.1492  0.2026 -0.6225
 3935SOL    HW123438   0.544   4.396   9.622 -0.2771  0.7176 -1.1408
 3935SOL    HW223439   0.596   4.532   9.624 -1.3338  0.5072  1.6158
 3936SOL     OW23440   1.629   1.103   8.210 -0.2042 -0.2096 -0.0471
 3936SOL    HW123441   1.710   1.118   8.160  0.7333  0.1197  1.5761
 3936SOL    HW223442   1.563   1.073   8.147  1.3933  1.5991 -2.6132
 3937SOL     OW23443   1.621   1.319  14.881 -0.5106  0.0567 -0.1951
 3937SOL    HW123444   1.596   1.230  14.909  2.6905 -0.5075  0.8281
 3937SOL    HW223445   1.685   1.352  14.943  0.4234 -0.7165 -0.7493
 3938SOL     OW23446   1.598   2.281  17.000 -0.1421  0.0836 -1.0952
 3938SOL    HW123447   1.668   2.344  16.983 -0.8869  1.0989 -0.3714
 3938SOL    HW223448   1.587   2.246  16.912 -2.2096  2.6352 -1.8451
 3939SOL     OW23449   1.857   0.702   7.163 -0.1493 -0.1813  0.0187
 3939SOL    HW123450   1.841   0.712   7.257  0.6757  2.6928 -0.1334
 3939SOL    HW223451   1.771   0.707   7.119  0.2125 -1.0216 -0.7707
 3940SOL     OW23452   1.010   1.465   1.467 -0.1061  0.7285  0.1958
 3940SOL    HW123453   0.986   1.537   1.407  0.7679  0.5535 -0.3728
 3940SOL    HW223454   1.066   1.503   1.534  0.6609  2.4036 -1.3908
 3941SOL     OW23455   1.371   4.392   1.624 -0.0852  0.1842 -0.3170
 3941SOL    HW123456   1.287   4.409   1.583  0.2487 -0.3139 -1.2253
 3941SOL    HW223457   1.352   4.313   1.674 -1.0096  1.1542  0.8470
 3942SOL     OW23458   0.072   2.484   0.100  0.1030 -0.1730  0.0292
 3942SOL    HW123459   0.168   2.475   0.093  0.1469 -1.7891  2.6766
 3942SOL    HW223460   0.058   2.567   0.144 -1.0670 -0.1193 -0.4672
 3943SOL     OW23461   4.045   1.162   5.899  0.4109 -0.3064 -0.7316
 3943SOL    HW123462   4.092   1.144   5.981  0.9459  1.3514 -0.6745
 3943SOL    HW223463   3.958   1.175   5.937  0.8047  0.1679  0.0099
 3944SOL     OW23464   3.497   0.266   7.071  0.2003  0.5115  0.2655
 3944SOL    HW123465   3.455   0.342   7.032 -0.5517  0.7947  1.6238
 3944SOL    HW223466   3.581   0.310   7.083 -0.7093  2.0178  1.1092
 3945SOL     OW23467   0.049   4.142   2.954 -1.0266 -0.8657  0.6442
 3945SOL    HW123468   0.067   4.154   3.047 -3.2352 -2.5679  1.3002
 3945SOL    HW223469   4.695   4.166   2.936 -1.3501 -2.2646  0.4310
 3946SOL     OW23470   4.231   2.815   7.531  0.4176 -0.8648 -0.2213
 3946SOL    HW123471   4.315   2.805   7.577  1.0835  1.2246 -0.9875
 3946SOL    HW223472   4.166   2.829   7.599  3.0545 -1.2364  2.3954
 3947SOL     OW23473   0.668   3.336   4.172  0.6113 -0.2097 -0.3591
 3947SOL    HW123474   0.673   3.265   4.236 -0.3197 -1.6263 -1.8595
 3947SOL    HW223475   0.578   3.332   4.139  0.1776  1.4281  0.5730
 3948SOL     OW23476   1.745   0.580   2.611 -0.0709  0.5417 -0.3188
 3948SOL    HW123477   1.713   0.501   2.654 -0.0702  0.8101  0.1726
 3948SOL    HW223478   1.670   0.636   2.632 -0.3610  0.0454 -0.0311
 3949SOL     OW23479   3.757   4.331  13.336  0.0794  0.5595 -0.1310
 3949SOL    HW123480   3.701   4.323  13.413  1.3665  0.6667  0.8247
 3949SOL    HW223481   3.752   4.243  13.299  0.6434  0.5969 -0.3020
 3950SOL     OW23482   0.274   3.116   7.922 -0.1103 -0.0200  0.0081
 3950SOL    HW123483   0.306   3.194   7.877  0.6962 -1.1916 -1.4615
 3950SOL    HW223484   0.330   3.116   8.000  0.1400  2.2121 -0.1849
 3951SOL     OW23485   2.630   1.591   9.572  0.2035 -0.2275 -0.8066
 3951SOL    HW123486   2.606   1.639   9.652 -1.1070 -1.5085 -0.4013
 3951SOL    HW223487   2.584   1.508   9.589 -0.3681 -0.1192 -1.8305
 3952SOL     OW23488   1.435   2.955   5.412 -0.3082 -0.1762 -0.2421
 3952SOL    HW123489   1.494   2.984   5.342 -2.5069  0.5310 -1.8120
 3952SOL    HW223490   1.466   2.865   5.417  0.0688 -0.0832 -0.8242
 3953SOL     OW23491   0.706   1.008   3.463 -0.4941 -0.3641  0.4274
 3953SOL    HW123492   0.751   0.965   3.536  1.3732  5.1267  2.5678
 3953SOL    HW223493   0.692   0.936   3.402  0.7779  1.7515 -2.3508
 3954SOL     OW23494   0.846   3.572   5.915  0.3663  0.0504  0.4392
 3954SOL    HW123495   0.915   3.558   5.850  0.3082 -0.2563  0.4466
 3954SOL    HW223496   0.867   3.661   5.943 -2.2231  0.5947  0.6673
 3955SOL     OW23497   1.051   3.790   3.037 -0.3726 -0.0525  0.1292
 3955SOL    HW123498   0.962   3.760   3.018  0.7097 -2.9076 -0.4255
 3955SOL    HW223499   1.042   3.885   3.046  3.6680  0.4353 -0.7219
 3956SOL     OW23500   0.109   0.802   6.344  0.0360  0.5191  0.2294
 3956SOL    HW123501   0.162   0.881   6.359 -0.7110  1.6225 -2.8441
 3956SOL    HW223502   0.047   0.789   6.415  1.1057 -1.5419  0.7915
 3957SOL     OW23503   2.350   4.690  16.264  0.0626 -0.0371  0.4323
 3957SOL    HW123504   2.327   4.717  16.175  0.8789  1.1364  0.5670
 3957SOL    HW223505   2.268   4.694  16.314  0.7250 -1.2576  1.6027
 3958SOL     OW23506   0.928   4.309   7.130  0.4198  0.1588  0.1680
 3958SOL    HW123507   0.938   4.323   7.035 -2.3372 -2.2942 -0.4894
 3958SOL    HW223508   0.951   4.216   7.132 -0.4069 -0.0145  1.9480
 3959SOL     OW23509   0.540   0.343  10.027 -0.2021 -0.2107  0.4205
 3959SOL    HW123510   0.590   0.424  10.024  1.3857 -1.2427 -1.2170
 3959SOL    HW223511   0.586   0.295  10.097 -0.3062  0.4893  0.9689
 3960SOL     OW23512   1.417   4.580   7.531 -0.2899 -0.6263 -0.0368
 3960SOL    HW123513   1.394   4.500   7.484  2.1958 -1.2173 -0.2855
 3960SOL    HW223514   1.476   4.620   7.467  1.0754  0.2896  1.7737
 3961SOL     OW23515   0.809   4.452   2.900  0.4043  0.0873  0.5115
 3961SOL    HW123516   0.900   4.430   2.920  0.8973 -0.3316 -2.1337
 3961SOL    HW223517   0.805   4.531   2.953  0.6929  1.3990 -1.4135
 3962SOL     OW23518   2.953   3.303   5.302  0.0551 -0.0586  0.8581
 3962SOL    HW123519   3.011   3.367   5.343 -1.0391 -0.5152  3.0892
 3962SOL    HW223520   2.874   3.326   5.351  0.2411 -0.3574  1.2961
 3963SOL     OW23521   2.923   1.763   3.405  0.0367  0.2118 -0.0109
 3963SOL    HW123522   3.007   1.782   3.446 -0.0323 -1.4376  0.9126
 3963SOL    HW223523   2.865   1.817   3.458 -0.8415  1.0483 -1.8541
 3964SOL     OW23524   2.376   2.686   2.693  0.0534  0.2631 -0.0261
 3964SOL    HW123525   2.288   2.688   2.730  0.4335  0.8648  0.8442
 3964SOL    HW223526   2.427   2.741   2.754 -2.3179  2.0414  0.3593
 3965SOL     OW23527   2.177   2.439   4.447 -0.6886 -0.4359  0.2158
 3965SOL    HW123528   2.173   2.343   4.449 -2.0085 -0.3841  0.2299
 3965SOL    HW223529   2.207   2.451   4.357 -2.0404  0.7788 -0.0673
 3966SOL     OW23530   0.442   1.341   8.212 -0.3751  0.5968  0.6108
 3966SOL    HW123531   0.463   1.430   8.242 -1.6350  1.5510 -1.3096
 3966SOL    HW223532   0.347   1.349   8.208 -0.4690 -1.7494 -1.9847
 3967SOL     OW23533   3.010   0.051   1.150  0.0015  0.0920 -0.7238
 3967SOL    HW123534   2.923   0.063   1.111 -0.3008 -0.1073 -0.1066
 3967SOL    HW223535   3.036   0.137   1.182  0.3094  0.2545 -1.4031
 3968SOL     OW23536   3.343   4.112   8.082  0.2165  0.2558  0.1542
 3968SOL    HW123537   3.361   4.101   8.175  0.2697  0.2981  0.1487
 3968SOL    HW223538   3.431   4.102   8.045  0.6036  1.2696  0.7929
 3969SOL     OW23539   1.065   2.802   7.711  0.2833  0.0408  0.3006
 3969SOL    HW123540   1.101   2.816   7.624 -0.1850 -1.2847 -0.0931
 3969SOL    HW223541   1.120   2.732   7.746  0.0679 -0.2117  0.1328
 3970SOL     OW23542   4.192   3.874   9.012  0.4736  0.0210 -0.3643
 3970SOL    HW123543   4.207   3.860   9.105  0.1175 -0.0823 -0.3237
 3970SOL    HW223544   4.167   3.966   9.015 -1.2578 -0.4362 -0.8926
 3971SOL     OW23545   0.499   0.722  15.388 -0.0395  0.5938 -0.1563
 3971SOL    HW123546   0.546   0.719  15.472  0.5120  0.9546 -0.4508
 3971SOL    HW223547   0.576   0.736  15.333 -0.6181 -0.1109 -1.1365
 3972SOL     OW23548   2.540   3.256   3.643  0.7137 -0.1859 -0.6493
 3972SOL    HW123549   2.619   3.275   3.592  2.4417 -0.2507  2.0222
 3972SOL    HW223550   2.557   3.312   3.718 -1.6255  1.6691 -1.5167
 3973SOL     OW23551   1.109   3.743  14.611  0.1028 -0.9213 -0.5139
 3973SOL    HW123552   1.124   3.836  14.595 -0.3413 -0.6906  0.4363
 3973SOL    HW223553   1.086   3.745  14.704 -2.7304  0.5460 -1.2369
 3974SOL     OW23554   3.269   4.239   2.933  0.1596  0.4893  0.0664
 3974SOL    HW123555   3.211   4.270   3.002  0.2928 -0.0261  0.4042
 3974SOL    HW223556   3.280   4.147   2.956  2.7765  0.9755  0.8307
 3975SOL     OW23557   4.469   3.937   3.994 -0.0213 -0.2883  0.0887
 3975SOL    HW123558   4.521   3.878   3.940 -1.1167 -0.5803 -0.6432
 3975SOL    HW223559   4.482   3.897   4.080 -0.2080  0.3908  0.4307
 3976SOL     OW23560   4.162   3.121   7.425  0.3579  0.3925 -0.1513
 3976SOL    HW123561   4.142   3.215   7.433  2.3988  0.6706  1.4936
 3976SOL    HW223562   4.155   3.101   7.518 -1.0135  0.3377 -0.2621
 3977SOL     OW23563   0.661   4.346   4.051 -0.1181 -0.0471  0.3550
 3977SOL    HW123564   0.571   4.373   4.033  0.6038 -0.4016 -3.8866
 3977SOL    HW223565   0.676   4.268   3.997  1.7519  0.4031  0.2199
 3978SOL     OW23566   4.312   3.254   2.490  0.0794  0.9197  0.1143
 3978SOL    HW123567   4.371   3.198   2.440 -0.0955  0.0428  0.8875
 3978SOL    HW223568   4.328   3.335   2.440  1.8632 -0.0410 -0.8831
 3979SOL     OW23569   2.157   4.041   6.059 -0.1542  0.2497 -0.0929
 3979SOL    HW123570   2.149   4.125   6.013  2.1502  0.5815  0.0909
 3979SOL    HW223571   2.068   4.006   6.058  0.4684 -1.3325 -0.0815
 3980SOL     OW23572   0.364   3.257   0.734  0.3826 -0.6365  0.0187
 3980SOL    HW123573   0.294   3.322   0.725 -0.2385 -0.6944  4.2091
 3980SOL    HW223574   0.388   3.239   0.643  1.2875 -1.8401  0.5036
 3981SOL     OW23575   2.685   0.148   7.867  0.1423  0.4025 -0.0201
 3981SOL    HW123576   2.754   0.081   7.865 -1.3745 -1.2116  1.7448
 3981SOL    HW223577   2.703   0.181   7.955  0.6163 -2.1639  0.8558
 3982SOL     OW23578   3.322   3.613  17.540  0.4922  0.1719 -0.0835
 3982SOL    HW123579   3.257   3.644  17.478 -0.1919 -0.1595  0.4684
 3982SOL    HW223580   3.327   3.689  17.598  0.6879  0.2962 -0.2638
 3983SOL     OW23581   3.309   2.087   4.188  0.5957  0.1828  0.6807
 3983SOL    HW123582   3.338   2.086   4.279  0.3839 -0.3613  0.7431
 3983SOL    HW223583   3.311   1.997   4.155 -1.1218  0.3444  0.1065
 3984SOL     OW23584   2.327   1.462   9.274 -0.0009 -0.8647 -0.2218
 3984SOL    HW123585   2.404   1.501   9.315 -1.3125 -0.0385  1.4532
 3984SOL    HW223586   2.304   1.398   9.342 -0.1876 -0.2124  0.3270
 3985SOL     OW23587   4.098   1.826  10.065 -0.3740 -0.0928  0.4517
 3985SOL    HW123588   4.161   1.897  10.053 -0.3491  0.0120  1.2126
 3985SOL    HW223589   4.159   1.760  10.099  2.0539  0.8844 -1.9357
 3986SOL     OW23590   1.240   4.001   1.512 -0.0568 -0.0556 -0.2410
 3986SOL    HW123591   1.317   3.973   1.463 -1.1894 -0.5362 -1.7407
 3986SOL    HW223592   1.182   4.026   1.440 -0.4351  0.9401  0.3990
 3987SOL     OW23593   0.600   2.673   5.263 -0.2451 -0.0598 -0.0130
 3987SOL    HW123594   0.583   2.586   5.300  2.3043 -0.6498 -0.2377
 3987SOL    HW223595   0.553   2.727   5.326 -0.8762  0.3908 -0.8656
 3988SOL     OW23596   4.386   1.131   2.069 -0.4912  0.4167  0.3127
 3988SOL    HW123597   4.457   1.068   2.054  0.3354  1.3258  0.4417
 3988SOL    HW223598   4.430   1.209   2.101 -2.0802  0.6356  1.9228
 3989SOL     OW23599   4.275   0.408   9.673  0.3397  0.0287  0.0851
 3989SOL    HW123600   4.303   0.428   9.584  0.5222  0.0124  0.1387
 3989SOL    HW223601   4.354   0.371   9.712 -0.1147 -2.0465 -0.9181
 3990SOL     OW23602   2.932   1.034  13.987  0.5644 -0.6283  0.1740
 3990SOL    HW123603   2.997   1.073  13.929  0.6880  0.1264  0.8248
 3990SOL    HW223604   2.868   1.106  13.986 -0.2048 -1.3345 -2.6158
 3991SOL     OW23605   4.053   3.730   5.760 -0.0937 -0.2014  0.1559
 3991SOL    HW123606   4.140   3.768   5.752 -0.1045 -0.2449 -0.1853
 3991SOL    HW223607   4.074   3.642   5.789 -0.8775 -0.1506  0.8962
 3992SOL     OW23608   1.061   3.246  16.734 -0.1991  0.2808  0.5620
 3992SOL    HW123609   1.090   3.284  16.817 -1.2552 -2.6843  2.2633
 3992SOL    HW223610   0.968   3.266  16.741  0.2500  1.8112  2.2319
 3993SOL     OW23611   3.509   0.595   5.036  0.3255  0.0255 -1.1663
 3993SOL    HW123612   3.420   0.580   5.004  0.1437 -0.0843 -0.6046
 3993SOL    HW223613   3.538   0.676   4.993 -0.4761  0.1388 -1.4947
 3994SOL     OW23614   2.392   0.483   0.825 -0.0983 -0.0541 -0.2972
 3994SOL    HW123615   2.408   0.390   0.841  0.5316 -0.2181 -1.8555
 3994SOL    HW223616   2.324   0.496   0.891 -1.3343  0.0465 -1.5947
 3995SOL     OW23617   0.049   0.076  10.509  0.4282  0.5223  0.4440
 3995SOL    HW123618   0.031   0.170  10.506 -1.7357 -0.0151 -2.3727
 3995SOL    HW223619   0.095   0.063  10.592 -0.5472 -0.3183  0.8539
 3996SOL     OW23620   0.736   2.132  12.357 -1.2207  0.2868 -0.0581
 3996SOL    HW123621   0.663   2.074  12.373 -0.1511 -0.5020  1.9182
 3996SOL    HW223622   0.794   2.065  12.320 -2.1438 -0.3865 -0.2620
 3997SOL     OW23623   3.610   0.567   2.571 -0.4591 -0.2194 -0.4080
 3997SOL    HW123624   3.636   0.641   2.515 -1.0398  1.4636  1.5493
 3997SOL    HW223625   3.575   0.517   2.498  0.0262 -1.0560 -0.0615
 3998SOL     OW23626   0.990   2.211   2.550 -0.0247 -0.1810  0.9503
 3998SOL    HW123627   1.029   2.177   2.630 -1.4166 -0.5318  1.4801
 3998SOL    HW223628   0.899   2.207   2.581 -0.2482 -0.3467  0.2676
 3999SOL     OW23629   0.041   2.361   6.277 -0.3818  0.0347  0.3339
 3999SOL    HW123630   0.027   2.383   6.185  1.5745  0.9140  0.2427
 3999SOL    HW223631   4.719   2.286   6.285 -0.4605  0.1474  0.8011
 4000SOL     OW23632   3.255   4.363  16.829  0.2273 -0.3748 -0.2728
 4000SOL    HW123633   3.217   4.417  16.760  0.0059 -0.4059 -0.1757
 4000SOL    HW223634   3.292   4.295  16.772  1.1367  1.3796 -1.7926
 4001SOL     OW23635   2.278   3.223   9.769 -0.1022 -0.3566 -0.5709
 4001SOL    HW123636   2.300   3.285   9.838 -0.2306 -3.9293  2.7257
 4001SOL    HW223637   2.189   3.196   9.791 -0.0967 -1.3475 -1.6846
 4002SOL     OW23638   2.017   3.453  17.012  0.5232  0.4444 -0.0972
 4002SOL    HW123639   2.079   3.407  16.954  1.6033  0.1180  1.3254
 4002SOL    HW223640   2.070   3.529  17.035  0.0328 -0.1661  3.0126
 4003SOL     OW23641   2.599   3.071   9.461  0.8617 -0.1568 -0.4507
 4003SOL    HW123642   2.674   3.067   9.520 -0.3772  1.2070  1.1983
 4003SOL    HW223643   2.614   3.152   9.413 -0.4488 -0.1051 -0.7891
 4004SOL     OW23644   3.046   3.093   2.557  0.6986 -0.6092 -0.0073
 4004SOL    HW123645   3.083   3.040   2.487  0.4267 -0.9979  0.1437
 4004SOL    HW223646   2.968   3.127   2.512  0.5061  0.7749  1.3532
 4005SOL     OW23647   2.338   3.445  11.234 -0.5516 -0.0502  0.9188
 4005SOL    HW123648   2.265   3.401  11.278 -2.0324  0.6527 -0.8553
 4005SOL    HW223649   2.287   3.514  11.192 -0.2096 -0.3246  0.0485
 4006SOL     OW23650   2.635   1.316   3.518  0.1132  0.3721  0.2547
 4006SOL    HW123651   2.593   1.308   3.603  0.8444 -1.3206  0.4623
 4006SOL    HW223652   2.729   1.312   3.534 -0.0682 -1.5766  0.8444
 4007SOL     OW23653   1.848   4.517   6.538  0.3326  0.4211 -0.6298
 4007SOL    HW123654   1.817   4.432   6.506  1.0703  0.0781 -0.4407
 4007SOL    HW223655   1.822   4.573   6.465  0.2227  0.7934 -0.3063
 4008SOL     OW23656   3.181   3.685   7.458 -0.2229 -0.2432  0.6136
 4008SOL    HW123657   3.170   3.780   7.466  1.8427 -0.0243  0.8454
 4008SOL    HW223658   3.261   3.677   7.406  0.1311  1.0180  0.9782
 4009SOL     OW23659   1.752   0.505   3.429  0.5864  0.1816  0.0793
 4009SOL    HW123660   1.786   0.441   3.367  0.9717  0.2669  0.2056
 4009SOL    HW223661   1.780   0.462   3.510  0.5256  1.5565  0.8402
 4010SOL     OW23662   2.559   1.797   2.510 -0.3151 -0.5275 -0.6336
 4010SOL    HW123663   2.527   1.888   2.511  1.7453  0.1768  0.6753
 4010SOL    HW223664   2.567   1.789   2.605  3.4233  0.9663 -0.8220
 4011SOL     OW23665   0.385   4.446  11.374 -0.0083  0.0009 -0.1177
 4011SOL    HW123666   0.459   4.417  11.319  0.9645  1.5361  0.3584
 4011SOL    HW223667   0.368   4.534  11.339  2.1988  0.4051 -0.1823
 4012SOL     OW23668   0.507   3.362   3.938 -0.0006 -0.1771  0.5550
 4012SOL    HW123669   0.485   3.299   3.870  1.5543 -0.0142 -0.0988
 4012SOL    HW223670   0.539   3.437   3.887 -0.5246  1.5380  2.7158
 4013SOL     OW23671   0.179   2.852   1.243  0.3745 -0.3034 -0.3549
 4013SOL    HW123672   0.157   2.858   1.150  1.1147 -1.1937 -0.5777
 4013SOL    HW223673   0.271   2.827   1.241  0.4381 -0.0254 -0.8969
 4014SOL     OW23674   0.687   1.724   5.331 -0.8207 -0.4206  0.4945
 4014SOL    HW123675   0.754   1.703   5.396  1.1376  1.0901 -1.0222
 4014SOL    HW223676   0.678   1.819   5.327  0.6254 -0.2961  0.1538
 4015SOL     OW23677   1.774   0.117  12.084 -0.7832  0.4395 -0.4640
 4015SOL    HW123678   1.792   0.183  12.151 -0.2386  0.8816 -1.0491
 4015SOL    HW223679   1.825   0.049  12.129 -2.8430  0.1623  1.4829
 4016SOL     OW23680   2.193   4.613   0.469  0.0301 -0.5004  0.2159
 4016SOL    HW123681   2.197   4.702   0.503 -0.7656 -1.2665  2.3382
 4016SOL    HW223682   2.106   4.584   0.497  0.6096  0.4134  2.9244
 4017SOL     OW23683   4.236   4.242   3.992  0.2503  0.6768 -0.4101
 4017SOL    HW123684   4.309   4.215   3.936  1.2775  0.4822  1.0149
 4017SOL    HW223685   4.177   4.283   3.929 -1.2541 -0.1952  0.4091
 4018SOL     OW23686   3.734   1.450   7.266  0.1406  0.2341  0.8322
 4018SOL    HW123687   3.692   1.374   7.227 -2.0649  0.8170  2.1092
 4018SOL    HW223688   3.736   1.504   7.187 -0.9548 -1.4882 -0.3457
 4019SOL     OW23689   1.098   2.878   8.700  0.3565  0.3735 -0.0804
 4019SOL    HW123690   1.020   2.823   8.688  0.4191  0.2337  0.1625
 4019SOL    HW223691   1.145   2.838   8.773  0.6031  0.8346  0.0080
 4020SOL     OW23692   1.151   2.779  15.121  0.0652 -0.4734  0.1001
 4020SOL    HW123693   1.084   2.840  15.091  0.9317  0.7929  0.7140
 4020SOL    HW223694   1.232   2.790  15.071  0.3501  0.2630  0.7322
 4021SOL     OW23695   0.291   2.946  13.881 -0.0139  0.1814  0.2883
 4021SOL    HW123696   0.246   2.863  13.872  1.5012 -0.5802 -0.1848
 4021SOL    HW223697   0.343   2.952  13.801 -2.0750 -1.0418 -1.1404
 4022SOL     OW23698   1.451   0.729   6.327 -0.2624  0.8791  0.0324
 4022SOL    HW123699   1.393   0.688   6.263  0.0132  0.6687 -0.0825
 4022SOL    HW223700   1.539   0.697   6.303 -0.1726  1.8918 -1.0061
 4023SOL     OW23701   0.599   4.483   8.883  0.1660  0.1843 -0.4247
 4023SOL    HW123702   0.631   4.396   8.862 -1.8162 -0.6161 -0.1147
 4023SOL    HW223703   0.626   4.497   8.973 -0.9898 -1.7448  0.2194
 4024SOL     OW23704   1.895   4.327   7.899 -0.0422 -0.9474  0.2248
 4024SOL    HW123705   1.898   4.400   7.962 -2.6528 -0.8071  0.2088
 4024SOL    HW223706   1.936   4.359   7.819 -1.5586 -0.1790 -0.2492
 4025SOL     OW23707   3.464   1.863   9.557 -0.0032  0.0573 -0.0535
 4025SOL    HW123708   3.493   1.794   9.498 -1.2200  0.1315 -0.7322
 4025SOL    HW223709   3.535   1.885   9.617  0.4598  0.9171 -0.9151
 4026SOL     OW23710   4.731   4.308   8.918  0.9546 -0.3443  0.0430
 4026SOL    HW123711   0.010   4.327   8.825 -0.2419  0.6446  0.0315
 4026SOL    HW223712   4.636   4.321   8.919  1.1578  1.3779 -2.6883
 4027SOL     OW23713   4.585   1.385   9.563 -0.9713 -0.7783  0.2866
 4027SOL    HW123714   4.610   1.478   9.561 -1.1038 -0.7407  0.3280
 4027SOL    HW223715   4.571   1.364   9.655  0.3216 -1.4010  0.3248
 4028SOL     OW23716   0.517   3.535   1.782  0.2478 -0.0145 -0.7252
 4028SOL    HW123717   0.479   3.487   1.855  0.7230  2.7723  1.3492
 4028SOL    HW223718   0.562   3.462   1.741  2.1553 -0.2500  1.8051
 4029SOL     OW23719   4.689   2.327   4.127 -0.4348 -0.0008 -0.0779
 4029SOL    HW123720   4.711   2.377   4.206 -1.6191  0.1284  0.1731
 4029SOL    HW223721   4.695   2.398   4.063 -0.5419 -1.5312 -1.7832
 4030SOL     OW23722   3.306   3.399   6.613  1.0755 -0.0165 -0.2364
 4030SOL    HW123723   3.296   3.374   6.705 -0.8954 -1.6239 -0.8952
 4030SOL    HW223724   3.390   3.444   6.610  1.7941 -1.2274  2.3247
 4031SOL     OW23725   3.472   2.881   3.384 -0.3800 -0.2441 -0.6983
 4031SOL    HW123726   3.530   2.833   3.325 -0.4095 -0.4358 -0.5723
 4031SOL    HW223727   3.536   2.911   3.449  0.0671  0.1145 -1.3061
 4032SOL     OW23728   2.892   0.112   3.643  0.7379 -0.3026  0.4637
 4032SOL    HW123729   2.928   0.025   3.664 -0.1473 -0.6869  0.3778
 4032SOL    HW223730   2.940   0.123   3.561 -2.1145  2.9704 -0.7519
 4033SOL     OW23731   2.285   0.303   3.451 -0.0003 -0.0463 -0.0002
 4033SOL    HW123732   2.207   0.294   3.506 -0.0978  1.6694  0.1533
 4033SOL    HW223733   2.323   0.381   3.491 -1.3903  0.2500  0.7484
 4034SOL     OW23734   3.735   2.301   8.980  0.4421  0.2806  0.6569
 4034SOL    HW123735   3.784   2.304   8.898 -0.8920 -0.9935 -0.1841
 4034SOL    HW223736   3.730   2.395   9.000 -1.1088  0.4303 -0.4509
 4035SOL     OW23737   1.225   1.280  14.256 -0.0177 -0.8702 -0.1944
 4035SOL    HW123738   1.143   1.323  14.281 -0.9334 -2.8882  0.3497
 4035SOL    HW223739   1.240   1.291  14.162  0.8649  1.7926  0.2742
 4036SOL     OW23740   4.160   1.534   9.952 -0.3366  0.0915  0.1366
 4036SOL    HW123741   4.243   1.574   9.976 -0.6564 -0.1038  1.5667
 4036SOL    HW223742   4.101   1.553  10.025  1.6600 -0.2815  1.8448
 4037SOL     OW23743   4.075   3.492   4.303 -0.1445  0.4382 -0.4036
 4037SOL    HW123744   4.106   3.579   4.281 -3.6159  1.6158 -0.6502
 4037SOL    HW223745   4.000   3.519   4.356 -0.4391  0.5519 -0.8866
 4038SOL     OW23746   3.851   0.860   7.003  0.8992  0.1791  0.0001
 4038SOL    HW123747   3.881   0.924   7.068  1.0782 -0.6335  0.7159
 4038SOL    HW223748   3.802   0.803   7.063  0.2584  1.0435  0.3014
 4039SOL     OW23749   2.798   0.027   8.576  0.2178 -0.4280  0.2634
 4039SOL    HW123750   2.764   4.676   8.557 -0.0913 -0.1838 -0.3271
 4039SOL    HW223751   2.844   0.042   8.493  0.9896 -0.0380  0.7674
 4040SOL     OW23752   2.327   2.812   8.973 -0.6178 -0.5334 -0.1446
 4040SOL    HW123753   2.409   2.780   9.011 -1.6680  1.1094  3.4843
 4040SOL    HW223754   2.334   2.907   8.972  0.2476 -0.5953  0.2405
 4041SOL     OW23755   4.399   4.265   4.906 -0.0088 -0.4897  0.9930
 4041SOL    HW123756   4.363   4.211   4.977 -0.7147 -0.2954  0.7818
 4041SOL    HW223757   4.477   4.213   4.885  0.8396  1.5870 -0.9981
 4042SOL     OW23758   4.163   2.070   6.459  0.4833  0.0066 -0.2313
 4042SOL    HW123759   4.206   2.091   6.542 -0.5407  0.9713  0.0551
 4042SOL    HW223760   4.190   2.148   6.412  1.4502  0.7774  1.6209
 4043SOL     OW23761   3.071   0.947   3.892 -0.5114 -0.0268  0.0775
 4043SOL    HW123762   3.135   0.942   3.963  0.3415 -1.3571 -0.7621
 4043SOL    HW223763   3.003   0.998   3.935  1.3037  0.7946  1.9357
 4044SOL     OW23764   0.744   0.495   4.663  0.4451 -0.1881 -0.6605
 4044SOL    HW123765   0.668   0.462   4.712 -0.0497  1.4172 -0.3390
 4044SOL    HW223766   0.733   0.588   4.684  1.5921 -0.5181  1.3995
 4045SOL     OW23767   1.795   0.557  12.033  0.4597 -0.6378  0.1435
 4045SOL    HW123768   1.753   0.578  11.950  0.9404 -1.5667 -0.3423
 4045SOL    HW223769   1.731   0.495  12.066 -0.9233 -0.0339 -1.4337
 4046SOL     OW23770   3.958   2.848   2.982  0.0055 -0.5003  0.4547
 4046SOL    HW123771   3.897   2.920   2.963 -0.9813 -0.9877  1.7099
 4046SOL    HW223772   3.994   2.823   2.897  0.2302  1.4529 -0.0328
 4047SOL     OW23773   0.801   2.395   8.475 -0.1536  0.2223 -0.0664
 4047SOL    HW123774   0.734   2.357   8.532  1.2260  1.3246  2.2971
 4047SOL    HW223775   0.742   2.443   8.417 -0.9040 -0.5501  0.0572
 4048SOL     OW23776   0.652   1.585   2.286  0.8071 -0.1927  0.3043
 4048SOL    HW123777   0.722   1.521   2.272 -1.7229 -2.5770 -1.1793
 4048SOL    HW223778   0.677   1.624   2.370  0.2613  1.5383 -0.3329
 4049SOL     OW23779   1.158   4.492  16.545  0.7983 -0.0280 -0.0476
 4049SOL    HW123780   1.097   4.549  16.499  1.5166  0.0093 -0.9673
 4049SOL    HW223781   1.207   4.551  16.602 -1.2463 -0.2069  1.8422
 4050SOL     OW23782   1.094   4.369   1.461 -0.0457 -0.4123 -0.1554
 4050SOL    HW123783   1.088   4.280   1.427  0.4877  0.2048 -1.8539
 4050SOL    HW223784   1.086   4.353   1.555 -0.5074  0.9350  0.0373
 4051SOL     OW23785   0.708   2.704   7.900  0.7296  0.7911  0.1408
 4051SOL    HW123786   0.683   2.791   7.870 -0.2763  0.5058  0.1288
 4051SOL    HW223787   0.766   2.718   7.975 -0.2923 -3.4658  1.7294
 4052SOL     OW23788   0.829   4.086  15.276  0.0741 -0.4080 -0.6988
 4052SOL    HW123789   0.747   4.114  15.235 -1.0536 -1.4808  0.7874
 4052SOL    HW223790   0.893   4.122  15.216 -0.0904 -0.4122 -0.8759
 4053SOL     OW23791   3.115   1.641  17.696 -0.6464  0.3550 -0.6077
 4053SOL    HW123792   3.193   1.649  17.641  0.3971  4.3941  1.4595
 4053SOL    HW223793   3.074   1.724  17.671 -1.5864 -0.1455 -0.7180
 4054SOL     OW23794   0.086   0.444   5.052 -0.1939 -0.0638  0.3997
 4054SOL    HW123795   0.087   0.427   5.146 -2.1333  0.1530  0.4624
 4054SOL    HW223796   0.008   0.395   5.027  0.0937 -0.5846  0.5217
 4055SOL     OW23797   3.139   2.664   3.434  0.4657 -0.5457 -0.0408
 4055SOL    HW123798   3.170   2.589   3.385  3.5115  0.9746 -0.4383
 4055SOL    HW223799   3.215   2.718   3.456  2.4014 -3.2706 -0.1350
 4056SOL     OW23800   3.929   4.074   3.242 -0.3304  0.2498  0.1590
 4056SOL    HW123801   3.940   4.148   3.183 -1.0932 -1.8751 -2.7058
 4056SOL    HW223802   3.996   4.014   3.211  0.3736  1.5766 -0.8566
 4057SOL     OW23803   1.393   3.098   8.385  0.4069 -0.3523  0.5797
 4057SOL    HW123804   1.383   3.067   8.475 -2.3421  1.5461  0.9064
 4057SOL    HW223805   1.480   3.074   8.352 -0.0206 -1.0777 -0.0468
 4058SOL     OW23806   1.880   4.115   1.908  0.0289  0.1464  0.1303
 4058SOL    HW123807   1.905   4.065   1.830  0.6648 -2.9743  2.3238
 4058SOL    HW223808   1.792   4.148   1.889  0.5843  0.8875 -1.1921
 4059SOL     OW23809   4.546   4.387   6.966  0.7078 -0.5590 -0.1317
 4059SOL    HW123810   4.546   4.483   6.964 -1.1681 -0.5471  0.6337
 4059SOL    HW223811   4.454   4.361   6.960  0.9297 -1.6435  1.1965
 4060SOL     OW23812   4.472   2.485   2.920 -0.1113  0.3354 -0.6344
 4060SOL    HW123813   4.425   2.566   2.902  1.0251  0.8376 -1.3303
 4060SOL    HW223814   4.455   2.477   3.014  1.7669  2.7721 -0.1016
 4061SOL     OW23815   2.861   0.667  10.625  0.0959 -0.2097  0.1005
 4061SOL    HW123816   2.917   0.727  10.673 -1.4304  1.4751 -0.2167
 4061SOL    HW223817   2.899   0.582  10.646  0.8222  0.0080 -0.3414
 4062SOL     OW23818   1.114   2.652  12.155  0.4801  0.2170  0.3582
 4062SOL    HW123819   1.056   2.578  12.134  0.4465  0.3342  0.0310
 4062SOL    HW223820   1.095   2.657  12.248  0.3560 -0.2924  0.3620
 4063SOL     OW23821   3.539   4.253   2.731  0.5207  0.2769  0.3617
 4063SOL    HW123822   3.489   4.334   2.722  0.6783  0.7674  3.8176
 4063SOL    HW223823   3.616   4.281   2.681 -0.3668  1.0586 -0.5366
 4064SOL     OW23824   2.980   2.477   4.535  0.5297 -0.4684 -0.0052
 4064SOL    HW123825   2.885   2.487   4.544  0.0556 -3.0194 -2.4174
 4064SOL    HW223826   3.003   2.495   4.627 -1.9362 -0.1925  0.5603
 4065SOL     OW23827   2.679   0.647  10.087  0.4197 -0.5761  0.1795
 4065SOL    HW123828   2.657   0.680  10.174 -1.9739 -0.6648 -0.3849
 4065SOL    HW223829   2.597   0.606  10.061  0.1489  0.0039  0.1195
 4066SOL     OW23830   2.673   0.784   2.927 -0.0374 -0.7234  0.4368
 4066SOL    HW123831   2.652   0.846   2.997 -0.0183 -1.4045  1.0564
 4066SOL    HW223832   2.683   0.698   2.968  0.2848 -1.4004 -1.0908
 4067SOL     OW23833   2.352   2.077   9.437 -0.2559  0.2239  0.0475
 4067SOL    HW123834   2.404   2.090   9.517 -0.0274  1.1216 -0.2411
 4067SOL    HW223835   2.340   2.165   9.401 -0.3660  1.0437  2.0741
 4068SOL     OW23836   3.223   1.767   1.817 -0.0261 -0.0832 -0.1890
 4068SOL    HW123837   3.266   1.832   1.872  2.0244 -0.0182 -1.8810
 4068SOL    HW223838   3.145   1.767   1.872 -0.0655 -3.6221 -0.2528
 4069SOL     OW23839   1.753   2.449  11.841  0.3545 -0.7418 -0.7700
 4069SOL    HW123840   1.846   2.437  11.862 -0.0439 -0.6925  0.9838
 4069SOL    HW223841   1.724   2.491  11.921  2.2248 -0.1846 -0.3902
 4070SOL     OW23842   3.805   2.823   2.251  0.0770  0.2872 -0.3125
 4070SOL    HW123843   3.782   2.750   2.193 -0.6326  0.5685 -0.3884
 4070SOL    HW223844   3.743   2.893   2.233  0.0113  0.0276 -1.0988
 4071SOL     OW23845   2.775   1.742  11.181 -0.4525  0.5426 -0.4603
 4071SOL    HW123846   2.770   1.816  11.241  0.9121 -0.5784  1.0399
 4071SOL    HW223847   2.692   1.755  11.135 -0.2917  2.0191 -0.3103
 4072SOL     OW23848   2.201   4.649  15.977  0.7478 -0.4938  0.7448
 4072SOL    HW123849   2.157   4.649  16.062 -0.2092  0.3743  0.2505
 4072SOL    HW223850   2.135   4.686  15.919  0.3245 -1.6411  0.4869
 4073SOL     OW23851   2.467   4.209   0.091 -0.5135  0.0295  0.3281
 4073SOL    HW123852   2.555   4.174   0.088 -0.0140  1.5446 -3.1582
 4073SOL    HW223853   2.462   4.247   0.179 -1.4470  1.9794 -0.5498
 4074SOL     OW23854   1.005   1.828   2.074 -0.7990 -0.3734  0.0020
 4074SOL    HW123855   0.958   1.889   2.017 -1.4934 -0.2051  0.7468
 4074SOL    HW223856   1.035   1.881   2.148  1.0828 -1.5592  0.0838
 4075SOL     OW23857   4.106   2.000   8.961  0.0941  0.2435  0.5579
 4075SOL    HW123858   4.042   2.056   9.005  1.2305 -0.6872  3.4066
 4075SOL    HW223859   4.079   1.990   8.870  0.8833  0.7522  0.2710
 4076SOL     OW23860   3.687   3.733   7.681 -0.0688  0.0716 -0.2833
 4076SOL    HW123861   3.614   3.783   7.718 -1.2528  0.1298 -2.6838
 4076SOL    HW223862   3.732   3.807   7.640 -0.0443 -0.3797 -1.0727
 4077SOL     OW23863   4.265   4.035  10.770  0.2121 -0.1121  0.0747
 4077SOL    HW123864   4.211   4.111  10.747 -0.7332 -1.0824 -0.9247
 4077SOL    HW223865   4.275   4.051  10.864 -1.9835 -2.7428  0.7321
 4078SOL     OW23866   2.985   3.119   4.819  0.2028 -1.2306 -0.3309
 4078SOL    HW123867   2.984   3.173   4.898  0.6840  0.0026 -1.1756
 4078SOL    HW223868   3.067   3.072   4.835  1.3065  0.7791 -0.0737
 4079SOL     OW23869   1.217   1.753   5.559 -0.2570 -0.1077  0.1279
 4079SOL    HW123870   1.251   1.680   5.508 -2.5741 -1.7553  0.9102
 4079SOL    HW223871   1.196   1.804   5.481  0.0788 -0.6679 -0.3208
 4080SOL     OW23872   3.695   2.923  10.636 -0.4601  0.5353  0.3008
 4080SOL    HW123873   3.686   2.958  10.725 -1.2444 -0.6574  0.7007
 4080SOL    HW223874   3.766   2.970  10.592 -1.7294  0.6719 -1.5765
 4081SOL     OW23875   2.733   2.971   7.344  0.0702 -0.0610  0.4202
 4081SOL    HW123876   2.696   3.001   7.427 -0.0818 -0.4154  0.4815
 4081SOL    HW223877   2.812   2.925   7.372 -0.0455 -0.9823 -0.7959
 4082SOL     OW23878   3.582   3.138   8.137  0.5468  0.0574  0.2010
 4082SOL    HW123879   3.522   3.213   8.140  0.8612  0.1977  3.4245
 4082SOL    HW223880   3.525   3.071   8.098 -0.2995  0.9356 -0.0760
 4083SOL     OW23881   3.745   2.322   1.457  0.0961 -0.5462  0.1098
 4083SOL    HW123882   3.670   2.325   1.397 -1.6437 -2.3983  2.2404
 4083SOL    HW223883   3.725   2.250   1.516 -1.0879 -0.2424  0.0861
 4084SOL     OW23884   3.763   0.344   5.657 -0.3950 -0.8965 -0.0379
 4084SOL    HW123885   3.805   0.277   5.710  1.3819  0.3683  0.1313
 4084SOL    HW223886   3.839   0.402   5.652 -1.6432  0.8192  0.8774
 4085SOL     OW23887   3.955   1.863   6.114 -0.4705 -0.1276 -0.1217
 4085SOL    HW123888   4.038   1.851   6.161  0.5361 -0.2979 -1.9475
 4085SOL    HW223889   3.889   1.821   6.169 -0.0407 -0.0159  0.4842
 4086SOL     OW23890   3.303   0.953  10.362  0.0761 -0.0579  0.3915
 4086SOL    HW123891   3.390   0.912  10.369 -0.1322 -0.5600  0.0427
 4086SOL    HW223892   3.238   0.882  10.361  1.6339 -1.4150 -4.3319
 4087SOL     OW23893   1.698   1.695   5.634 -0.4415  0.8448 -0.0361
 4087SOL    HW123894   1.611   1.680   5.669 -0.2248 -0.6514 -0.1487
 4087SOL    HW223895   1.685   1.758   5.562 -2.7745  1.5303  0.9863
 4088SOL     OW23896   1.566   1.444   7.606  0.4724 -0.3384 -0.6888
 4088SOL    HW123897   1.641   1.504   7.612  0.0665  0.5967 -4.6836
 4088SOL    HW223898   1.590   1.395   7.528 -2.0612  0.8761 -2.2260
 4089SOL     OW23899   3.309   2.956  11.733 -0.7446 -0.8105  0.3962
 4089SOL    HW123900   3.345   2.867  11.727  1.1424 -0.1104  1.3666
 4089SOL    HW223901   3.376   3.000  11.681 -0.9272 -0.1681  0.7100
 4090SOL     OW23902   3.435   4.111   7.577 -0.2283 -0.3321 -0.0072
 4090SOL    HW123903   3.365   4.082   7.636  0.3151  2.5260  2.0529
 4090SOL    HW223904   3.417   4.204   7.568 -1.9899 -0.5266  1.6008
 4091SOL     OW23905   0.146   0.338   0.025  0.7239  0.4606 -0.0596
 4091SOL    HW123906   0.227   0.311  17.730  0.9814  0.2074  0.6067
 4091SOL    HW223907   0.103   0.257   0.050  0.9777 -0.2975 -2.1185
 4092SOL     OW23908   2.322   3.116  15.565 -0.4715 -0.2115  0.4834
 4092SOL    HW123909   2.234   3.139  15.598  0.4897  1.0946  2.1444
 4092SOL    HW223910   2.346   3.208  15.555  0.8306 -0.8897 -2.4848
 4093SOL     OW23911   3.093   1.526   3.629  0.0915  0.0182  0.3939
 4093SOL    HW123912   3.079   1.600   3.688 -0.6677 -0.1478  0.4239
 4093SOL    HW223913   3.165   1.569   3.584  1.2522 -1.2551  1.0380
 4094SOL     OW23914   4.717   4.125   3.481 -0.4971 -0.0169  0.4704
 4094SOL    HW123915   0.044   4.160   3.543  0.8214  0.2563 -1.0781
 4094SOL    HW223916   4.646   4.094   3.537  0.6460 -1.1293  1.3204
 4095SOL     OW23917   4.184   2.563   8.999 -0.6417 -0.0543 -0.3099
 4095SOL    HW123918   4.148   2.555   9.088  1.5593  0.4493  0.6111
 4095SOL    HW223919   4.278   2.548   9.002 -0.8920 -1.6390 -0.3312
 4096SOL     OW23920   2.165   3.880   9.743 -0.2941  0.7979  0.0930
 4096SOL    HW123921   2.084   3.835   9.766  0.9327 -2.1036 -1.2624
 4096SOL    HW223922   2.212   3.879   9.826  0.1854  1.4441 -0.1664
 4097SOL     OW23923   1.274   1.846   2.490 -0.2432 -0.2533 -0.3387
 4097SOL    HW123924   1.231   1.851   2.575  0.7725  0.9318  0.1129
 4097SOL    HW223925   1.281   1.752   2.471 -0.8132 -0.1781 -0.9080
 4098SOL     OW23926   2.650   1.901  12.419 -0.1671 -0.0701 -0.1481
 4098SOL    HW123927   2.658   1.915  12.325  0.8278  0.5385  0.0224
 4098SOL    HW223928   2.590   1.827  12.428 -0.2555  0.0066 -0.1054
 4099SOL     OW23929   4.157   2.049   5.095 -0.1144  0.3074 -0.0213
 4099SOL    HW123930   4.237   2.078   5.138 -0.8112 -1.3874  2.4206
 4099SOL    HW223931   4.099   2.125   5.100  0.6700  1.1319 -3.4555
 4100SOL     OW23932   1.721   0.667  15.401 -0.5986 -0.0904  0.1696
 4100SOL    HW123933   1.720   0.612  15.480 -2.3896  1.8876  1.5364
 4100SOL    HW223934   1.814   0.686  15.386 -0.9871  0.6220 -1.3657
 4101SOL     OW23935   0.242   2.051   2.093 -0.1650 -0.0611  0.2006
 4101SOL    HW123936   0.220   2.069   2.002  2.7790 -1.7649 -0.8420
 4101SOL    HW223937   0.189   2.121   2.132  0.2552 -0.1919  1.0023
 4102SOL     OW23938   0.411   4.216   2.592 -0.1546 -0.0635  0.6311
 4102SOL    HW123939   0.422   4.307   2.563 -0.3618  0.3961  2.0031
 4102SOL    HW223940   0.501   4.194   2.618  0.3731  0.9095 -0.3549
 4103SOL     OW23941   1.320   3.694  16.257 -0.0292  0.2159  0.2707
 4103SOL    HW123942   1.327   3.666  16.349  0.2826  1.0174  0.4902
 4103SOL    HW223943   1.245   3.753  16.267 -0.6979 -0.4312 -0.9934
 4104SOL     OW23944   1.845   1.455   9.334  0.1226 -0.0101 -0.1168
 4104SOL    HW123945   1.813   1.451   9.243 -0.2001 -0.3196  0.0095
 4104SOL    HW223946   1.823   1.367   9.364 -1.1606  0.1352 -0.6137
 4105SOL     OW23947   1.664   1.666   4.003 -0.2966  0.3992  0.0264
 4105SOL    HW123948   1.606   1.742   3.998  2.1191  2.0750 -3.0409
 4105SOL    HW223949   1.668   1.648   4.097 -2.0881  0.5629  0.1364
 4106SOL     OW23950   1.734   1.441   9.073  0.0182  0.4675  0.6916
 4106SOL    HW123951   1.642   1.430   9.097 -0.0878 -0.8748 -0.3670
 4106SOL    HW223952   1.759   1.351   9.054 -2.4393 -0.1175  0.2794
 4107SOL     OW23953   3.647   2.883  14.077 -0.0620 -0.1603  0.3026
 4107SOL    HW123954   3.580   2.930  14.127  2.3556  2.3555  1.1729
 4107SOL    HW223955   3.712   2.951  14.059  1.0252 -0.6835  2.1445
 4108SOL     OW23956   3.123   3.872  16.049 -0.1427  0.2880  0.1825
 4108SOL    HW123957   3.202   3.910  16.089 -0.2127 -1.5642  2.0607
 4108SOL    HW223958   3.068   3.950  16.044  0.6610  0.9091  0.9617
 4109SOL     OW23959   1.604   3.932   0.975 -0.5536  0.0907 -0.6492
 4109SOL    HW123960   1.586   3.923   0.881 -0.8733 -0.0659 -0.5699
 4109SOL    HW223961   1.588   4.026   0.987  1.5089  0.0348  2.4775
 4110SOL     OW23962   4.670   4.181   4.699  0.8974  0.0484 -0.0060
 4110SOL    HW123963   4.665   4.115   4.768  0.2575  2.5301  2.2962
 4110SOL    HW223964   0.009   4.145   4.653  1.6536 -1.1639  2.2053
 4111SOL     OW23965   1.201   1.710   5.973  0.1131  0.1236  0.6099
 4111SOL    HW123966   1.112   1.695   6.004  0.0611  1.3573  1.0484
 4111SOL    HW223967   1.243   1.624   5.984  1.2673  0.6696  0.4815
 4112SOL     OW23968   1.972   0.049   4.406  0.5050 -0.1598  0.0484
 4112SOL    HW123969   1.940   0.072   4.494  1.5056 -0.9218  0.6114
 4112SOL    HW223970   2.045   0.108   4.391 -0.5956  0.7280 -1.8051
 4113SOL     OW23971   3.883   2.996  14.014  0.1711 -0.6158  0.1478
 4113SOL    HW123972   3.906   2.939  14.087 -0.6854  0.0172  0.9002
 4113SOL    HW223973   3.964   3.044  13.999 -1.4453  1.5410 -1.6290
 4114SOL     OW23974   3.121   1.839   7.942  0.3842 -0.0805 -0.0453
 4114SOL    HW123975   3.187   1.788   7.989  0.5150  0.4591  0.3546
 4114SOL    HW223976   3.040   1.803   7.978  0.3366  0.8880  0.8308
 4115SOL     OW23977   0.547   4.714   6.011 -0.1063 -0.3221 -0.2002
 4115SOL    HW123978   0.516   0.052   6.061  1.9731  0.4539 -0.0606
 4115SOL    HW223979   0.473   4.660   5.984  0.3667 -1.8857  1.7210
 4116SOL     OW23980   2.388   2.314   8.430 -0.2970 -0.5482 -0.5469
 4116SOL    HW123981   2.412   2.262   8.507 -0.9525 -0.6240 -0.3936
 4116SOL    HW223982   2.461   2.323   8.369  0.7693  1.4007  1.0140
 4117SOL     OW23983   1.346   4.017   7.700 -0.1763 -0.1390  0.3304
 4117SOL    HW123984   1.351   4.065   7.783 -0.7600 -0.3189  0.4706
 4117SOL    HW223985   1.420   4.047   7.648 -0.4490 -0.3711 -0.1959
 4118SOL     OW23986   0.480   4.113   4.150  0.1685  0.1329 -0.3811
 4118SOL    HW123987   0.384   4.115   4.147  0.1693  1.1930  0.1204
 4118SOL    HW223988   0.493   4.199   4.191 -1.9596 -1.1982  2.9999
 4119SOL     OW23989   4.349   3.115   4.011 -0.2164  0.0255 -0.0930
 4119SOL    HW123990   4.419   3.155   3.959 -1.5185  1.9140 -0.3817
 4119SOL    HW223991   4.388   3.029   4.026  0.9116  0.0256 -3.0186
 4120SOL     OW23992   3.013   1.264   1.513  0.2381 -0.0501  0.4467
 4120SOL    HW123993   2.939   1.312   1.475 -0.4670 -0.4801  1.2757
 4120SOL    HW223994   3.038   1.309   1.594 -0.4655 -1.0556  1.2296
 4121SOL     OW23995   1.409   3.787   3.540  0.1019 -0.2448  0.2768
 4121SOL    HW123996   1.388   3.706   3.493  3.8084 -1.7973  1.1966
 4121SOL    HW223997   1.322   3.815   3.565  0.5549  0.0075  1.5597
 4122SOL     OW23998   2.887   4.418   2.248 -0.4635  0.0902  0.0106
 4122SOL    HW123999   2.902   4.367   2.327  5.5380 -0.9663 -1.8271
 4122SOL    HW224000   2.840   4.354   2.194  0.7679 -0.7717 -0.0324
 4123SOL     OW24001   1.320   1.958   4.026  0.1670  0.3071  0.0701
 4123SOL    HW124002   1.348   1.869   4.008  0.9552  0.3648  0.9916
 4123SOL    HW224003   1.319   1.991   3.936  2.8666 -1.7397 -0.6998
 4124SOL     OW24004   4.229   4.232   6.520  0.7044 -0.7778  0.4176
 4124SOL    HW124005   4.207   4.209   6.430 -2.7011  1.7417  0.5948
 4124SOL    HW224006   4.323   4.215   6.529  1.0134  0.5026 -0.3415
 4125SOL     OW24007   1.319   3.716  14.831 -0.0520 -0.4634  0.0681
 4125SOL    HW124008   1.389   3.700  14.895 -1.1963  1.8490  1.8736
 4125SOL    HW224009   1.237   3.720  14.881 -0.5274  0.9292 -0.8504
 4126SOL     OW24010   1.482   1.553   6.653 -0.3817  0.3893 -0.7106
 4126SOL    HW124011   1.453   1.529   6.565 -1.7850 -2.0888  0.3932
 4126SOL    HW224012   1.457   1.645   6.647  0.8169  0.7548  0.0808
 4127SOL     OW24013   4.405   4.075  12.102 -0.8216 -1.2545  0.3553
 4127SOL    HW124014   4.390   4.170  12.097  0.6924 -1.1591 -2.3313
 4127SOL    HW224015   4.383   4.053  12.193 -2.2633 -1.7522 -0.1193
 4128SOL     OW24016   0.745   0.766   4.729  0.0684 -0.5434  0.5497
 4128SOL    HW124017   0.810   0.781   4.798  0.5732  0.5823 -0.1805
 4128SOL    HW224018   0.662   0.800   4.762  0.3415  1.8184 -1.1422
 4129SOL     OW24019   0.776   1.307   3.684 -0.1162  0.1345 -0.0462
 4129SOL    HW124020   0.838   1.381   3.688 -1.9489  1.7353 -1.5893
 4129SOL    HW224021   0.706   1.345   3.738  0.2069 -2.4049  2.1497
 4130SOL     OW24022   4.104   1.035   4.874 -0.1488  0.8172  0.5302
 4130SOL    HW124023   4.051   1.045   4.953  0.1253  1.6080  0.6125
 4130SOL    HW224024   4.121   0.941   4.868  1.1375  0.9768  1.6372
 4131SOL     OW24025   3.766   3.234   2.313 -0.0703  0.3883 -0.3006
 4131SOL    HW124026   3.729   3.211   2.228 -0.4062  1.0728 -0.3411
 4131SOL    HW224027   3.838   3.293   2.290 -0.3814  1.2881  1.0350
 4132SOL     OW24028   1.770   3.127   3.320  0.0891 -0.2410  0.1539
 4132SOL    HW124029   1.820   3.208   3.311  2.0718 -1.3708  0.7655
 4132SOL    HW224030   1.833   3.078   3.374 -0.5534 -2.9502 -1.5229
 4133SOL     OW24031   3.210   0.729  13.793 -0.2620 -0.2454  0.0597
 4133SOL    HW124032   3.241   0.704  13.706  1.4103 -1.3681  0.9813
 4133SOL    HW224033   3.116   0.746  13.785  0.2595  2.3038 -0.6112
 4134SOL     OW24034   1.398   2.164   7.207 -0.4545  0.2631  0.3108
 4134SOL    HW124035   1.463   2.234   7.218 -1.5542  1.1406  1.2262
 4134SOL    HW224036   1.311   2.204   7.206 -0.0057  1.2426  0.8825
 4135SOL     OW24037   1.236   1.552   1.192  0.3809 -0.5642 -0.1912
 4135SOL    HW124038   1.281   1.584   1.271 -1.0910  0.4567  0.2272
 4135SOL    HW224039   1.173   1.494   1.234  1.7845 -2.3140 -0.4965
 4136SOL     OW24040   2.298   4.540   8.268 -0.1985 -0.3512  0.3071
 4136SOL    HW124041   2.228   4.589   8.312 -0.9818 -2.9350  1.9181
 4136SOL    HW224042   2.279   4.458   8.312 -0.0075 -1.2749 -1.3246
 4137SOL     OW24043   3.716   0.179  11.155  0.7354 -0.4664  0.1704
 4137SOL    HW124044   3.757   0.160  11.071 -0.5680  0.4976 -0.6738
 4137SOL    HW224045   3.626   0.194  11.125  1.0648 -0.4439 -0.8153
 4138SOL     OW24046   2.856   0.561   8.544 -0.2503 -0.1500  0.5136
 4138SOL    HW124047   2.860   0.620   8.468  0.6131  0.0047  0.6788
 4138SOL    HW224048   2.763   0.563   8.563 -0.6560  0.9455 -1.5923
 4139SOL     OW24049   4.681   1.228  17.501  0.0323 -0.1323 -0.1055
 4139SOL    HW124050   4.636   1.309  17.476  0.7805 -0.2444 -1.8079
 4139SOL    HW224051   4.626   1.157  17.466 -1.4226  0.3589  1.1669
 4140SOL     OW24052   2.288   1.607   6.794 -0.5592 -0.0625 -0.2504
 4140SOL    HW124053   2.324   1.690   6.825  1.3983 -0.7143 -0.7656
 4140SOL    HW224054   2.199   1.625   6.825 -0.1435 -0.1989  0.9927
 4141SOL     OW24055   2.197   1.293  13.925  0.1674 -0.1550 -0.0290
 4141SOL    HW124056   2.235   1.250  13.848 -0.1367  1.2972 -0.9851
 4141SOL    HW224057   2.181   1.211  13.971  1.7810  0.6555  1.9622
 4142SOL     OW24058   1.110   3.402  16.975 -0.9493 -0.2093  0.0932
 4142SOL    HW124059   1.186   3.416  17.031 -0.8610  1.4717 -0.4347
 4142SOL    HW224060   1.038   3.398  17.037 -0.5671 -0.8815  0.4919
 4143SOL     OW24061   3.944   1.528  12.181 -0.0726 -0.2314 -0.1420
 4143SOL    HW124062   3.931   1.461  12.114 -0.1108  0.2751 -0.6393
 4143SOL    HW224063   3.881   1.501  12.248 -1.1238  0.2692 -0.9399
 4144SOL     OW24064   0.755   1.526   7.853  0.0685  0.1889 -0.0986
 4144SOL    HW124065   0.729   1.434   7.858  1.1854  0.0487  3.2437
 4144SOL    HW224066   0.676   1.574   7.875 -0.4216 -0.5695 -0.2162
 4145SOL     OW24067   1.678   4.668   1.453 -0.5678  0.0294  0.3984
 4145SOL    HW124068   1.739   4.715   1.396 -1.1642 -0.7262 -0.8897
 4145SOL    HW224069   1.594   4.704   1.426 -1.1321  0.4503  2.8064
 4146SOL     OW24070   1.651   1.158   4.805  0.1939  0.0763 -0.1203
 4146SOL    HW124071   1.717   1.113   4.752 -0.2635 -2.7957  1.7559
 4146SOL    HW224072   1.639   1.227   4.740  0.5104 -0.4110 -0.6892
 4147SOL     OW24073   3.908   1.970   9.928  0.6372 -0.1727  0.8201
 4147SOL    HW124074   3.923   2.046   9.984  0.6270  0.4832 -0.0657
 4147SOL    HW224075   3.972   1.902   9.952 -0.6127 -1.6759 -0.1303
 4148SOL     OW24076   1.409   3.863  14.619  0.1219  0.0518 -0.1406
 4148SOL    HW124077   1.397   3.801  14.691 -0.9288  0.8209  0.3582
 4148SOL    HW224078   1.326   3.909  14.632  0.7407  0.7471  1.2872
 4149SOL     OW24079   1.576   0.587  10.944  0.6322  0.9494  0.3230
 4149SOL    HW124080   1.598   0.611  11.034  0.1006  0.1188  0.6862
 4149SOL    HW224081   1.483   0.563  10.952  0.5686  0.4991 -1.8461
 4150SOL     OW24082   0.849   0.805   6.051  0.5042  0.4956  0.7067
 4150SOL    HW124083   0.833   0.719   6.090  0.8290 -0.1432 -0.5503
 4150SOL    HW224084   0.781   0.851   6.100 -1.2456 -1.1935 -0.1139
 4151SOL     OW24085   1.498   0.730   4.839 -0.0424  0.1471  0.4489
 4151SOL    HW124086   1.544   0.737   4.923  0.7808 -1.9113  0.1552
 4151SOL    HW224087   1.526   0.641   4.819  0.3838  0.0724  1.3724
 4152SOL     OW24088   2.441   3.169   5.321 -0.3202 -0.1436  0.3015
 4152SOL    HW124089   2.444   3.258   5.285 -0.1762 -0.7682 -1.2467
 4152SOL    HW224090   2.398   3.190   5.404  2.3191  0.0053  1.6265
 4153SOL     OW24091   0.615   0.914   9.100 -0.1001  0.5204  0.0622
 4153SOL    HW124092   0.522   0.933   9.087 -0.6843 -2.2768  0.1837
 4153SOL    HW224093   0.642   0.980   9.165 -0.8146  0.8751 -0.0031
 4154SOL     OW24094   3.264   1.099   2.792 -0.1606  0.5799  0.4236
 4154SOL    HW124095   3.298   1.067   2.708 -0.2853 -2.1000  1.3758
 4154SOL    HW224096   3.180   1.053   2.793 -0.4844  1.1181 -1.2652
 4155SOL     OW24097   3.315   4.043  11.767 -0.3484  0.0263 -0.2204
 4155SOL    HW124098   3.256   4.119  11.776  2.3377  1.8948  1.4785
 4155SOL    HW224099   3.381   4.088  11.714  0.9662 -2.5988 -0.8216
 4156SOL     OW24100   4.225   1.141  13.821  0.4259  0.1903 -0.2010
 4156SOL    HW124101   4.286   1.204  13.860 -0.4375  0.9464 -0.0870
 4156SOL    HW224102   4.285   1.089  13.766 -0.4358  0.8399 -1.7480
 4157SOL     OW24103   1.017   3.918   9.612  0.1230 -0.3122  0.2100
 4157SOL    HW124104   1.054   4.002   9.584  2.2867 -0.4844  2.5168
 4157SOL    HW224105   0.923   3.936   9.618  0.2916  1.0556 -1.2812
 4158SOL     OW24106   3.691   3.258   4.770 -0.2162  0.1906 -0.6186
 4158SOL    HW124107   3.671   3.342   4.728 -2.4090  0.2989  0.6625
 4158SOL    HW224108   3.677   3.271   4.864  2.7141 -0.4861 -0.0835
 4159SOL     OW24109   3.936   1.214   6.575 -0.4633  0.2594  0.2857
 4159SOL    HW124110   3.905   1.129   6.607 -1.8597  1.4689  2.1598
 4159SOL    HW224111   3.988   1.245   6.649 -0.7081 -0.5405  0.8071
 4160SOL     OW24112   3.130   2.975  11.947 -0.0297 -0.0010 -0.0941
 4160SOL    HW124113   3.154   2.921  11.872 -0.9584 -1.0219  0.3525
 4160SOL    HW224114   3.196   3.044  11.941  0.9669 -0.9545 -0.1827
 4161SOL     OW24115   3.862   1.225   1.073  0.1462  0.0582  0.0864
 4161SOL    HW124116   3.884   1.132   1.080 -0.1107  0.0687  1.0046
 4161SOL    HW224117   3.885   1.243   0.982 -1.2639 -1.5801 -0.5990
 4162SOL     OW24118   0.111   3.410   0.716 -0.3514  0.0811  0.2212
 4162SOL    HW124119   0.016   3.415   0.717 -0.2772  2.3610 -3.6763
 4162SOL    HW224120   0.112   3.425   0.621  0.3819  0.4664  0.2924
 4163SOL     OW24121   1.623   2.104   4.688 -0.3460  0.3649  0.0758
 4163SOL    HW124122   1.685   2.033   4.671 -2.6781 -1.7468  0.4757
 4163SOL    HW224123   1.669   2.171   4.638 -0.7829  1.0527  0.6050
 4164SOL     OW24124   0.237   3.697   3.410 -0.1876 -0.4274 -0.6847
 4164SOL    HW124125   0.189   3.758   3.354  0.3210 -2.5096 -3.3762
 4164SOL    HW224126   0.265   3.621   3.359  0.5917 -0.1783 -0.6284
 4165SOL     OW24127   2.172   1.783   1.621 -0.0919  0.5371 -0.1009
 4165SOL    HW124128   2.185   1.738   1.537 -1.4775 -1.3911  0.7221
 4165SOL    HW224129   2.256   1.827   1.636 -0.4305  0.7041  1.3300
 4166SOL     OW24130   1.115   4.123   8.530 -0.0234 -0.1626  0.2777
 4166SOL    HW124131   1.058   4.195   8.502  3.1168  1.6640 -1.4038
 4166SOL    HW224132   1.064   4.050   8.496 -1.3138  0.6757  0.3853
 4167SOL     OW24133   4.361   2.704  15.300  0.0476 -0.5579 -0.3383
 4167SOL    HW124134   4.437   2.647  15.312  0.4184 -0.2517 -1.1564
 4167SOL    HW224135   4.404   2.781  15.261 -0.1510  0.1940  0.9310
 4168SOL     OW24136   3.964   0.606   4.326 -0.1554 -0.1467  0.3794
 4168SOL    HW124137   4.041   0.614   4.270  0.3684  1.9936  1.3945
 4168SOL    HW224138   3.906   0.561   4.265 -2.1976 -0.0259  2.1972
 4169SOL     OW24139   1.402   3.996   9.439  0.9416  0.0117 -0.8448
 4169SOL    HW124140   1.414   4.012   9.533  0.4230 -0.8170 -0.6420
 4169SOL    HW224141   1.485   4.039   9.417  2.6338 -1.7484  2.0132
 4170SOL     OW24142   1.422   1.157   2.982 -0.3781 -0.4209 -0.2576
 4170SOL    HW124143   1.477   1.208   2.922  0.1514  2.5755  2.8171
 4170SOL    HW224144   1.479   1.145   3.058 -0.2507 -1.8883 -0.5709
 4171SOL     OW24145   1.702   1.718  11.608  0.1038 -0.4076 -0.1194
 4171SOL    HW124146   1.724   1.628  11.630  0.4818 -1.0300 -3.0688
 4171SOL    HW224147   1.640   1.726  11.680  1.5135  3.5471  0.6535
 4172SOL     OW24148   1.629   1.474   1.534  0.5525 -0.2419 -0.3940
 4172SOL    HW124149   1.575   1.399   1.511 -0.3938  0.7418 -1.4041
 4172SOL    HW224150   1.679   1.499   1.456  0.9213  0.8445  0.1905
 4173SOL     OW24151   0.761   1.408   5.713 -0.4014 -0.5019  0.6697
 4173SOL    HW124152   0.839   1.448   5.675 -1.8935  2.1550  0.3605
 4173SOL    HW224153   0.691   1.453   5.665  2.5549  1.3718 -1.7949
 4174SOL     OW24154   1.801   3.936  11.962  0.4568 -0.0416  0.2200
 4174SOL    HW124155   1.722   3.886  11.945  2.3174 -3.9353  2.8138
 4174SOL    HW224156   1.787   4.010  11.903 -0.7374  2.3702  3.4901
 4175SOL     OW24157   1.119   2.182  16.336  0.9709  0.2245  0.4617
 4175SOL    HW124158   1.185   2.237  16.292  1.4286 -0.7357 -0.0454
 4175SOL    HW224159   1.117   2.231  16.419 -0.3297  0.8738  0.0434
 4176SOL     OW24160   2.821   2.789   4.162 -0.3280  0.3865 -0.1016
 4176SOL    HW124161   2.881   2.859   4.135  1.7649 -0.1375  3.1813
 4176SOL    HW224162   2.773   2.796   4.080 -1.6194 -0.2751  0.5975
 4177SOL     OW24163   1.318   2.893   0.960  0.1077  0.4486  0.2243
 4177SOL    HW124164   1.239   2.898   0.905 -0.8406  2.7078  1.7587
 4177SOL    HW224165   1.336   2.985   0.979  0.4357  0.1838  1.1561
 4178SOL     OW24166   3.676   2.599  17.420 -0.4821  1.0341  0.0886
 4178SOL    HW124167   3.623   2.634  17.491 -0.8863 -0.2491  0.4198
 4178SOL    HW224168   3.744   2.666  17.414  2.6300 -1.8193  3.7165
 4179SOL     OW24169   0.108   1.051   3.277  0.5499  0.8471  0.1736
 4179SOL    HW124170   0.152   0.969   3.252  1.2166  0.4897  2.5940
 4179SOL    HW224171   0.175   1.089   3.332 -0.6853  2.0337  0.8670
 4180SOL     OW24172   1.701   3.558   6.626  0.0726  0.1785 -0.0027
 4180SOL    HW124173   1.623   3.610   6.646  0.8671  0.4456  2.4243
 4180SOL    HW224174   1.729   3.617   6.556  1.2426  1.1822  1.2943
 4181SOL     OW24175   4.705   1.397   7.046 -0.0554 -0.2985 -0.3320
 4181SOL    HW124176   0.050   1.348   7.038 -0.0782 -0.2118 -1.1049
 4181SOL    HW224177   4.734   1.471   6.992  2.1708 -0.5595  0.4751
 4182SOL     OW24178   1.809   4.721   9.026  0.2478 -0.3461  0.7693
 4182SOL    HW124179   1.890   0.030   9.049 -0.1039  2.6544 -4.1402
 4182SOL    HW224180   1.843   4.638   8.991 -0.2687 -1.0442  1.9224
 4183SOL     OW24181   1.676   2.862   2.653 -0.0922  0.5260 -0.4588
 4183SOL    HW124182   1.613   2.811   2.705  0.7624  0.7110  0.7743
 4183SOL    HW224183   1.672   2.947   2.697 -0.4898 -0.3343  1.1936
 4184SOL     OW24184   3.612   2.199   6.510  0.0088  0.4576  0.1190
 4184SOL    HW124185   3.702   2.233   6.507 -0.1133  0.6342 -1.4500
 4184SOL    HW224186   3.612   2.131   6.577  1.5413  1.4366  1.1311
 4185SOL     OW24187   1.380   0.930   3.675  0.1436  0.6717  0.6331
 4185SOL    HW124188   1.388   0.847   3.628 -1.2597  1.0028 -0.1900
 4185SOL    HW224189   1.321   0.984   3.622 -1.0119 -0.3781  0.8458
 4186SOL     OW24190   3.710   0.929   7.541 -0.8773  0.6301  0.0002
 4186SOL    HW124191   3.687   0.841   7.572  1.1191  0.7361  1.7652
 4186SOL    HW224192   3.774   0.879   7.490  1.7331  1.9379  2.0144
 4187SOL     OW24193   2.512   0.112   1.087  0.4393 -0.2226  0.5237
 4187SOL    HW124194   2.529   0.029   1.041  1.4195 -0.1479  0.7393
 4187SOL    HW224195   2.424   0.133   1.057  1.0696 -0.0004 -1.1976
 4188SOL     OW24196   3.904   0.138   8.529 -1.1044  0.6116  0.2497
 4188SOL    HW124197   3.814   0.106   8.537 -0.6265 -0.8649 -0.2897
 4188SOL    HW224198   3.945   0.111   8.611  0.9007 -0.5875 -1.1495
 4189SOL     OW24199   0.428   3.400   2.020  0.2473 -0.2276 -0.0704
 4189SOL    HW124200   0.382   3.321   2.049  0.0543  0.0114  0.2693
 4189SOL    HW224201   0.383   3.471   2.065  1.1971  0.7703 -0.6787
 4190SOL     OW24202   2.329   4.657   7.485 -0.9636  0.3167 -0.2329
 4190SOL    HW124203   2.412   4.705   7.488 -0.5200 -0.5342  1.3484
 4190SOL    HW224204   2.360   4.574   7.448 -1.9563  0.1105 -0.6048
 4191SOL     OW24205   2.313   4.272  11.021  0.0987 -0.0535 -0.3805
 4191SOL    HW124206   2.317   4.222  10.940 -2.2517 -1.0210  0.0807
 4191SOL    HW224207   2.294   4.353  10.973 -0.8805 -1.0305 -1.6444
 4192SOL     OW24208   3.846   2.460   9.372  0.1083  0.0074 -0.5002
 4192SOL    HW124209   3.773   2.477   9.312  0.5290  3.2470 -0.0892
 4192SOL    HW224210   3.821   2.506   9.452 -1.1348 -1.3321 -0.1136
 4193SOL     OW24211   3.484   4.514   8.939 -0.6154  0.1320 -0.1939
 4193SOL    HW124212   3.537   4.531   8.861  3.4195 -1.6899  2.1340
 4193SOL    HW224213   3.476   4.600   8.980 -2.1490 -1.0671  1.9821
 4194SOL     OW24214   3.234   0.966   2.189  0.3546  0.5259 -0.2330
 4194SOL    HW124215   3.265   1.042   2.139 -2.6557  0.8187 -1.7253
 4194SOL    HW224216   3.189   1.008   2.262 -1.3853 -0.5680 -0.6755
 4195SOL     OW24217   2.974   3.326  10.571  0.1038 -0.0206  0.0591
 4195SOL    HW124218   3.048   3.355  10.518  0.2372 -1.2787 -0.4415
 4195SOL    HW224219   2.998   3.364  10.656 -1.3531  0.6876  0.1443
 4196SOL     OW24220   2.390   2.674   5.325 -0.0127 -0.2696  0.2409
 4196SOL    HW124221   2.478   2.675   5.362  0.0006  2.9599  0.1601
 4196SOL    HW224222   2.368   2.581   5.321 -0.2846 -0.2177  0.5731
 4197SOL     OW24223   1.709   2.914   7.442 -0.4175  0.2979 -0.0514
 4197SOL    HW124224   1.706   2.883   7.351  0.1546  2.4200 -0.7976
 4197SOL    HW224225   1.785   2.972   7.445 -1.3350  1.5494 -0.5736
 4198SOL     OW24226   0.948   3.805   5.303  0.7655 -0.3441  0.1229
 4198SOL    HW124227   0.886   3.801   5.230 -0.2387 -0.0828  0.9622
 4198SOL    HW224228   1.025   3.781   5.251 -0.6035 -0.6602 -1.7593
 4199SOL     OW24229   1.214   4.643   9.091  0.0271  0.8374  0.8602
 4199SOL    HW124230   1.199   4.702   9.164 -1.0919  1.1917  0.3358
 4199SOL    HW224231   1.306   4.616   9.100 -0.8410 -2.1273  0.8272
 4200SOL     OW24232   3.611   3.236   5.526  0.1666 -0.2826 -0.0170
 4200SOL    HW124233   3.623   3.234   5.621 -0.5649  0.7025  0.0977
 4200SOL    HW224234   3.527   3.190   5.518 -1.2214  1.7477  2.6845
 4201SOL     OW24235   3.183   2.811   9.417  0.1103 -0.4169  0.0480
 4201SOL    HW124236   3.107   2.864   9.395  2.2283  3.3836  1.9484
 4201SOL    HW224237   3.185   2.748   9.345 -0.3475  0.0896 -0.4062
 4202SOL     OW24238   0.238   2.802  11.436  0.2747  0.0244 -0.0878
 4202SOL    HW124239   0.264   2.713  11.459 -0.1833  0.0613  0.5754
 4202SOL    HW224240   0.269   2.841  11.517  1.1284  1.0213 -0.8967
 4203SOL     OW24241   2.131   1.258   1.916  0.1922  0.4053 -0.1574
 4203SOL    HW124242   2.133   1.250   2.012  0.8848  1.4798 -0.0856
 4203SOL    HW224243   2.112   1.349   1.896  1.1103  0.3416 -1.3393
 4204SOL     OW24244   1.736   2.955   3.105  0.2992  0.0369  0.1409
 4204SOL    HW124245   1.733   3.020   3.175 -2.6712  0.7333 -0.6238
 4204SOL    HW224246   1.653   2.972   3.060  1.0592  2.4728 -0.3606
 4205SOL     OW24247   0.070   4.088  14.657  0.1449 -0.1793  0.5237
 4205SOL    HW124248   0.069   4.051  14.569 -0.9074 -1.1600  0.9444
 4205SOL    HW224249   0.002   4.155  14.648 -0.0753 -0.3597  0.8597
 4206SOL     OW24250   0.155   3.256   3.842 -0.1511  0.1635  0.2897
 4206SOL    HW124251   0.161   3.240   3.936 -1.1567 -0.6362  0.2172
 4206SOL    HW224252   0.104   3.182   3.808 -1.0581  1.0908 -0.3822
 4207SOL     OW24253   0.638   3.008  10.184  0.5136  0.0897  0.0958
 4207SOL    HW124254   0.706   2.963  10.234  1.4601 -0.9519 -2.1336
 4207SOL    HW224255   0.662   3.100  10.170  1.8161  0.0034  1.7682
 4208SOL     OW24256   0.219   3.369   7.342  0.1766  0.1282 -0.3098
 4208SOL    HW124257   0.252   3.300   7.400  0.0438 -0.4267 -0.8907
 4208SOL    HW224258   0.181   3.437   7.397 -0.4637  0.4976 -1.2251
 4209SOL     OW24259   3.509   0.928   4.942 -0.0054 -0.0315 -0.0527
 4209SOL    HW124260   3.539   0.935   5.032  0.8083  1.1601 -0.4145
 4209SOL    HW224261   3.590   0.902   4.899  0.0830 -1.2833  0.8855
 4210SOL     OW24262   3.090   2.140  14.648 -0.2647 -0.3935 -0.2209
 4210SOL    HW124263   3.140   2.123  14.568  0.9181  2.4616 -0.0861
 4210SOL    HW224264   3.066   2.232  14.638 -2.5609 -0.7026  2.5140
 4211SOL     OW24265   1.827   2.537   6.895  0.2485 -0.0631  0.1931
 4211SOL    HW124266   1.807   2.501   6.809  1.1167 -2.0866  0.8211
 4211SOL    HW224267   1.888   2.477   6.938 -1.7023 -2.4381 -0.3729
 4212SOL     OW24268   3.759   3.449  11.605  0.1324  0.5157 -0.6562
 4212SOL    HW124269   3.783   3.480  11.693  0.8958 -1.8619 -0.0280
 4212SOL    HW224270   3.706   3.523  11.576  1.2558  1.1977 -0.9764
 4213SOL     OW24271   1.964   1.505   3.837 -0.0064 -0.0181  0.6145
 4213SOL    HW124272   1.934   1.592   3.865 -0.5155  0.1845 -0.5338
 4213SOL    HW224273   1.946   1.511   3.743  2.0621  1.2981  0.3022
 4214SOL     OW24274   4.562   2.170   0.624 -0.0154 -0.0880 -0.4656
 4214SOL    HW124275   4.512   2.235   0.574 -2.0589 -2.1609 -1.0783
 4214SOL    HW224276   4.652   2.193   0.599 -0.1817  0.1364 -0.8634
 4215SOL     OW24277   2.312   2.691   4.021 -0.2873  0.2763 -0.8008
 4215SOL    HW124278   2.252   2.742   4.076  0.8759 -1.7383  2.3521
 4215SOL    HW224279   2.350   2.645   4.095 -2.2156 -1.4847 -0.8903
 4216SOL     OW24280   4.275   4.348  11.661  0.2553 -0.1367  0.1690
 4216SOL    HW124281   4.218   4.359  11.737  0.6796  0.8085  0.3434
 4216SOL    HW224282   4.352   4.394  11.694  1.7561 -1.1970 -1.8338
 4217SOL     OW24283   4.080   2.398  11.372  0.0838 -0.4131 -0.1557
 4217SOL    HW124284   4.085   2.306  11.346  0.0468 -1.1293  2.3596
 4217SOL    HW224285   4.086   2.389  11.467 -2.8800  0.0566  0.0876
 4218SOL     OW24286   3.510   1.586   2.446 -0.5729  0.1992 -0.0274
 4218SOL    HW124287   3.468   1.503   2.470  0.3624 -0.2750 -0.0358
 4218SOL    HW224288   3.430   1.624   2.409 -1.1250 -1.6145 -0.7236
 4219SOL     OW24289   3.218   4.217  10.715 -0.2571 -0.0963 -0.2600
 4219SOL    HW124290   3.223   4.125  10.688 -2.4949 -1.1828  2.9784
 4219SOL    HW224291   3.183   4.204  10.803 -0.3871 -2.9716 -0.7232
 4220SOL     OW24292   1.763   2.022   9.397  0.9854 -0.0213 -0.0509
 4220SOL    HW124293   1.796   1.968   9.469  0.0211 -1.6221 -0.8127
 4220SOL    HW224294   1.791   2.107   9.428  2.7063 -1.3547  2.0507
 4221SOL     OW24295   3.460   0.025  14.024 -0.0418 -0.4786  0.4517
 4221SOL    HW124296   3.461   4.674  14.063 -1.1045 -1.1768 -1.0901
 4221SOL    HW224297   3.375   0.068  14.030 -0.6769 -1.4506 -1.5683
 4222SOL     OW24298   2.494   2.410   7.296 -0.2596 -0.0738  0.0829
 4222SOL    HW124299   2.434   2.453   7.234  0.4297  0.4542 -0.2170
 4222SOL    HW224300   2.440   2.374   7.367 -0.1963  2.8751  1.6265
 4223SOL     OW24301   3.389   2.237   6.368 -0.1003  0.4289  0.0987
 4223SOL    HW124302   3.388   2.166   6.305  0.6490  0.5575 -0.0543
 4223SOL    HW224303   3.473   2.229   6.413 -0.1094  0.6699  0.1589
 4224SOL     OW24304   2.049   0.359   2.401 -0.5325  0.2372  0.6684
 4224SOL    HW124305   2.000   0.437   2.429  0.4300  0.8069  0.7742
 4224SOL    HW224306   2.138   0.393   2.395 -0.8051  1.0880  1.3673
 4225SOL     OW24307   2.647   1.609   6.289 -0.2711 -0.4304 -0.8470
 4225SOL    HW124308   2.575   1.552   6.263 -0.1741 -1.1027  0.3953
 4225SOL    HW224309   2.594   1.685   6.314 -0.9456 -1.4221  0.6967
 4226SOL     OW24310   1.022   2.635  12.953  0.3092 -0.4577 -0.3798
 4226SOL    HW124311   1.036   2.716  12.903 -1.0709 -0.9461 -1.5347
 4226SOL    HW224312   1.024   2.574  12.879  1.4262 -1.3812  0.4212
 4227SOL     OW24313   1.907   2.729   3.269 -0.2311  0.0778 -0.3663
 4227SOL    HW124314   1.972   2.766   3.328  0.9868 -0.5843 -1.2792
 4227SOL    HW224315   1.888   2.803   3.211  0.0947 -1.3603 -2.3229
 4228SOL     OW24316   2.943   3.579   3.918 -0.6871 -0.2469 -0.1095
 4228SOL    HW124317   2.997   3.525   3.860 -0.5571 -2.0601  1.7093
 4228SOL    HW224318   2.934   3.654   3.859 -2.5365  1.0210  1.7890
 4229SOL     OW24319   2.834   1.361   9.145  0.6609 -0.0154 -0.0780
 4229SOL    HW124320   2.805   1.421   9.214  2.3038  0.4470  0.2232
 4229SOL    HW224321   2.764   1.364   9.080  2.0187 -2.6086 -1.6132
 4230SOL     OW24322   0.812   3.639   2.993 -0.1088  0.9508  0.1642
 4230SOL    HW124323   0.833   3.558   3.040  0.6165  0.7789 -0.4732
 4230SOL    HW224324   0.728   3.667   3.029  0.4365  1.0043  1.4096
 4231SOL     OW24325   4.103   2.586   2.816 -0.2597  0.4153  0.0848
 4231SOL    HW124326   4.129   2.513   2.759 -4.5798 -0.9796 -0.0671
 4231SOL    HW224327   4.183   2.638   2.815 -1.0234  1.5579 -1.4297
 4232SOL     OW24328   3.962   4.511  11.446 -0.5917 -0.2296 -0.1974
 4232SOL    HW124329   3.892   4.495  11.383 -2.3608 -1.9825  2.2465
 4232SOL    HW224330   3.914   4.526  11.528  0.3071  0.2631  0.2484
 4233SOL     OW24331   3.520   2.117   4.518 -0.7451 -0.0252  0.1352
 4233SOL    HW124332   3.603   2.150   4.552 -0.5819 -1.3564  1.0175
 4233SOL    HW224333   3.550   2.067   4.442 -1.2929 -0.4685  0.2120
 4234SOL     OW24334   2.183   0.760   5.159  0.6353 -0.4335 -0.5858
 4234SOL    HW124335   2.113   0.823   5.175  1.6264  0.5553 -0.1804
 4234SOL    HW224336   2.217   0.745   5.247  1.3540  2.0364 -0.4447
 4235SOL     OW24337   2.666   4.468   0.221 -0.2958  0.0870  0.5046
 4235SOL    HW124338   2.691   4.404   0.288 -2.2831  0.9890  2.1128
 4235SOL    HW224339   2.584   4.509   0.249 -0.2511 -0.7912  1.9113
 4236SOL     OW24340   0.251   0.793   2.569  0.1809 -0.0874 -0.2195
 4236SOL    HW124341   0.171   0.760   2.610 -0.5697  0.3285 -1.3408
 4236SOL    HW224342   0.209   0.868   2.528 -1.8252 -0.8703  0.4155
 4237SOL     OW24343   3.719   4.170  15.386  0.0791 -0.6115  0.3698
 4237SOL    HW124344   3.718   4.175  15.482  3.5164 -1.8882  0.4594
 4237SOL    HW224345   3.647   4.228  15.361  1.4781  1.0858  0.2717
 4238SOL     OW24346   2.542   0.892  15.500 -0.2416 -0.4499  0.0135
 4238SOL    HW124347   2.614   0.948  15.471 -1.3565  0.6567 -0.6204
 4238SOL    HW224348   2.498   0.871  15.418  2.5061  0.2884 -1.6707
 4239SOL     OW24349   1.971   1.368   7.700 -0.2657 -0.0586 -0.7676
 4239SOL    HW124350   2.041   1.431   7.716 -1.3211  0.9839 -0.2655
 4239SOL    HW224351   1.914   1.428   7.652 -0.8885 -2.3052 -2.8344
 4240SOL     OW24352   4.526   2.203   9.580 -0.0102 -0.3131  0.5044
 4240SOL    HW124353   4.437   2.228   9.604 -0.8590 -2.5436 -0.3663
 4240SOL    HW224354   4.566   2.290   9.592 -0.4333 -0.0412 -0.0655
 4241SOL     OW24355   1.044   4.469   0.422  0.3635 -0.3674  0.5983
 4241SOL    HW124356   0.950   4.483   0.431  0.0427 -2.1101 -0.1535
 4241SOL    HW224357   1.043   4.442   0.331 -5.1712  0.1201  0.5035
 4242SOL     OW24358   1.817   1.551   7.945 -0.0806  0.6938 -0.5827
 4242SOL    HW124359   1.908   1.549   7.914 -0.4326  0.1871 -1.5890
 4242SOL    HW224360   1.785   1.461   7.943  0.5726  0.4467  0.6135
 4243SOL     OW24361   1.326   2.172   0.016  0.0669 -0.3415 -0.4438
 4243SOL    HW124362   1.262   2.228  17.719  0.5158  0.5613  0.0691
 4243SOL    HW224363   1.257   2.108   0.038 -1.5819  0.4425 -3.3525
 4244SOL     OW24364   3.561   3.954   9.938 -0.0951 -0.1495 -0.0423
 4244SOL    HW124365   3.550   3.899   9.860 -0.5022 -0.3259  0.1413
 4244SOL    HW224366   3.489   4.015   9.920 -0.3025 -0.5496 -0.5884
 4245SOL     OW24367   0.880   3.558  14.527  0.1653  0.5272 -0.2186
 4245SOL    HW124368   0.869   3.639  14.477  0.4117  0.6817 -0.0208
 4245SOL    HW224369   0.875   3.590  14.617 -0.2858  0.9940 -0.4090
 4246SOL     OW24370   4.404   2.102   9.352  0.4060  0.1397 -0.2709
 4246SOL    HW124371   4.338   2.150   9.302 -0.3612 -0.3035  0.3245
 4246SOL    HW224372   4.445   2.168   9.408 -0.6307  1.1537 -0.7080
 4247SOL     OW24373   4.631   2.746   2.730 -0.0817 -0.5108  0.4774
 4247SOL    HW124374   4.624   2.750   2.826  1.4793  1.2639  0.5247
 4247SOL    HW224375   4.610   2.655   2.710 -1.1020  0.0916 -1.1915
 4248SOL     OW24376   2.937   2.186   4.697 -0.0996 -0.5515 -0.1649
 4248SOL    HW124377   3.018   2.227   4.667 -0.4401  0.3678  0.1624
 4248SOL    HW224378   2.933   2.203   4.791  2.3104  0.7104 -0.3005
 4249SOL     OW24379   4.385   3.823   1.937  0.1368  0.2560 -0.0686
 4249SOL    HW124380   4.390   3.918   1.943 -1.9576  0.2958  0.9394
 4249SOL    HW224381   4.474   3.806   1.907  0.6620  0.0896  1.5773
 4250SOL     OW24382   2.782   3.556   9.293 -0.4609 -0.1635 -0.0616
 4250SOL    HW124383   2.851   3.567   9.359 -0.3058  1.0785 -0.4210
 4250SOL    HW224384   2.813   3.611   9.221  1.9094 -2.1915 -0.5798
 4251SOL     OW24385   2.730   0.777   4.438  0.2441  0.4282 -0.2567
 4251SOL    HW124386   2.686   0.776   4.353  3.7649 -0.7322 -2.0605
 4251SOL    HW224387   2.736   0.683   4.454  1.4515  0.3107 -1.4588
 4252SOL     OW24388   2.042   0.596   6.998  0.0341  0.5510 -0.1678
 4252SOL    HW124389   1.998   0.519   6.963 -0.6951 -0.2843  2.5627
 4252SOL    HW224390   1.975   0.637   7.053 -0.0542  1.1081 -0.6994
 4253SOL     OW24391   0.780   0.932   8.091 -0.4044  0.2440 -0.5234
 4253SOL    HW124392   0.775   1.012   8.143 -2.8087 -0.4895  0.3675
 4253SOL    HW224393   0.829   0.869   8.145 -0.3746  0.9510  0.2695
 4254SOL     OW24394   3.935   4.517   7.261 -0.2629  0.1749  0.3713
 4254SOL    HW124395   3.957   4.535   7.170 -0.7913 -0.6955  0.0643
 4254SOL    HW224396   3.978   4.590   7.305 -1.1462 -0.5282  2.4197
 4255SOL     OW24397   4.376   4.335  12.089  0.4019  0.0922  0.6640
 4255SOL    HW124398   4.388   4.400  12.020  0.9931 -0.2722  0.4300
 4255SOL    HW224399   4.380   4.402  12.158  2.5035 -0.4539  1.0521
 4256SOL     OW24400   3.715   1.453  12.343  0.4428 -0.2825  0.8691
 4256SOL    HW124401   3.661   1.439  12.421 -0.4533  1.0737  0.5004
 4256SOL    HW224402   3.653   1.479  12.274  1.9215  2.1951  0.4568
 4257SOL     OW24403   3.516   1.879  17.066 -0.2509 -0.3645  0.9154
 4257SOL    HW124404   3.480   1.848  16.983 -0.2870  1.0646  0.4020
 4257SOL    HW224405   3.601   1.909  17.034  0.4268 -1.4326  1.7027
 4258SOL     OW24406   0.471   4.111  11.716  0.2866  0.2329 -0.4074
 4258SOL    HW124407   0.487   4.081  11.626 -1.7268 -2.6118  0.1756
 4258SOL    HW224408   0.465   4.204  11.693  0.1481 -0.2487 -2.3694
 4259SOL     OW24409   0.203   3.502   1.491  0.2551 -0.1688 -0.2060
 4259SOL    HW124410   0.185   3.537   1.578 -0.2163 -0.9014 -0.0117
 4259SOL    HW224411   0.231   3.587   1.457  1.5011 -0.4932  0.0240
 4260SOL     OW24412   3.836   1.116   8.289  0.2906 -0.1534 -0.2923
 4260SOL    HW124413   3.903   1.131   8.355  2.2795 -1.2115 -2.0549
 4260SOL    HW224414   3.872   1.174   8.221  1.2202  1.4137  1.5443
 4261SOL     OW24415   3.831   3.934  16.644  0.2822 -0.7655  0.2417
 4261SOL    HW124416   3.738   3.923  16.626 -0.1920  1.1764  1.4259
 4261SOL    HW224417   3.873   3.874  16.582 -0.9926 -1.2842 -0.1244
 4262SOL     OW24418   0.870   2.519   7.099  0.4910 -1.1549  0.3257
 4262SOL    HW124419   0.786   2.473   7.098 -0.4770  0.6588 -1.9754
 4262SOL    HW224420   0.898   2.510   7.008  0.8519  0.4545  0.2860
 4263SOL     OW24421   2.055   4.325   8.176  0.3416  0.6179 -0.4079
 4263SOL    HW124422   2.085   4.374   8.100  0.9692 -2.2068 -1.9803
 4263SOL    HW224423   2.042   4.244   8.127  0.8114  0.9992 -1.1575
 4264SOL     OW24424   4.170   1.933   1.473  0.2432 -0.0495 -0.0743
 4264SOL    HW124425   4.251   1.903   1.431 -1.1177 -3.9285  0.0450
 4264SOL    HW224426   4.195   1.918   1.565  0.7444  4.1531  0.4538
 4265SOL     OW24427   3.425   2.883   8.033  0.2084  0.6505 -0.3706
 4265SOL    HW124428   3.332   2.904   8.037 -0.3022 -1.5878 -0.9199
 4265SOL    HW224429   3.443   2.883   7.939 -1.1850 -0.6400 -0.6371
 4266SOL     OW24430   3.075   4.058   5.091 -0.2898 -0.1589  0.2630
 4266SOL    HW124431   3.146   3.997   5.110  0.5472  0.5506 -0.5835
 4266SOL    HW224432   2.993   4.019   5.123 -1.0118  0.3012 -1.0214
 4267SOL     OW24433   3.249   3.526   8.886  0.0856  0.7656 -0.1561
 4267SOL    HW124434   3.249   3.533   8.791 -0.0495 -2.1169 -0.3907
 4267SOL    HW224435   3.342   3.505   8.896 -0.2141 -0.2861  0.4460
 4268SOL     OW24436   3.765   0.475   0.491  0.2580  0.4787  0.1610
 4268SOL    HW124437   3.772   0.391   0.536 -3.3310  1.1693  1.9960
 4268SOL    HW224438   3.692   0.513   0.540  0.4415  0.2092  0.6392
 4269SOL     OW24439   4.614   3.203   5.078  0.0408 -0.2505 -0.7357
 4269SOL    HW124440   4.690   3.157   5.042  0.2181 -2.0511  1.9143
 4269SOL    HW224441   4.604   3.268   5.008 -0.6576  2.3584  1.8189
 4270SOL     OW24442   3.625   2.536   1.566  0.1907  0.4687  0.3059
 4270SOL    HW124443   3.673   2.482   1.504  0.5125  0.6914  0.3559
 4270SOL    HW224444   3.535   2.523   1.538 -0.0423  0.1435  1.1975
 4271SOL     OW24445   0.324   3.374   7.873  0.1459  0.2176  0.8210
 4271SOL    HW124446   0.413   3.407   7.885 -0.1160  0.8089  1.1421
 4271SOL    HW224447   0.275   3.455   7.891 -2.4836 -0.9246 -1.0650
 4272SOL     OW24448   3.413   1.157   3.017 -0.4563  0.4241 -0.0523
 4272SOL    HW124449   3.416   1.248   2.989 -0.0297  0.6843  0.8510
 4272SOL    HW224450   3.347   1.119   2.959 -0.9336  0.1842  0.6362
 4273SOL     OW24451   4.355   1.367  17.338 -0.1820 -0.0359 -0.1492
 4273SOL    HW124452   4.390   1.279  17.348  0.8594  0.4201  0.1903
 4273SOL    HW224453   4.437   1.416  17.338  0.7359 -1.5785  1.7456
 4274SOL     OW24454   3.218   0.669   9.911 -0.2697 -0.2175  0.1817
 4274SOL    HW124455   3.221   0.582   9.873  0.2380  0.0080 -0.2786
 4274SOL    HW224456   3.284   0.667   9.980 -0.6018 -2.2820  0.4317
 4275SOL     OW24457   2.201   0.506   7.209 -0.2782 -0.4200 -0.1118
 4275SOL    HW124458   2.279   0.553   7.179 -1.5437  0.4370 -2.0273
 4275SOL    HW224459   2.141   0.540   7.142  2.1352  0.8009 -1.6572
 4276SOL     OW24460   4.527   0.046  10.187 -0.4871  0.3881  0.2191
 4276SOL    HW124461   4.502   0.138  10.179 -1.2511  0.4667  3.3335
 4276SOL    HW224462   4.507   0.031  10.279 -0.0528 -0.4009  0.1930
 4277SOL     OW24463   2.392   1.369   0.348 -1.1724  0.1753  0.7325
 4277SOL    HW124464   2.427   1.289   0.307  0.8762  2.1295 -1.3480
 4277SOL    HW224465   2.368   1.426   0.275  2.0509  0.8713  0.2187
 4278SOL     OW24466   1.450   2.749  16.302  0.1983  0.2302  0.2233
 4278SOL    HW124467   1.535   2.760  16.260 -0.0660 -0.5403 -0.5123
 4278SOL    HW224468   1.439   2.842  16.320 -3.1373 -0.1357  0.0681
 4279SOL     OW24469   1.896   4.222  15.279 -0.9009 -0.7375 -0.3438
 4279SOL    HW124470   1.853   4.194  15.198 -1.1517  1.0288 -0.8348
 4279SOL    HW224471   1.934   4.306  15.252 -0.5789 -0.9388 -0.5304
 4280SOL     OW24472   2.723   1.726   5.234 -0.0561  0.1929 -0.4496
 4280SOL    HW124473   2.812   1.719   5.198  0.2233 -1.1414  0.5031
 4280SOL    HW224474   2.694   1.639   5.206  0.8031  0.2437 -1.5002
 4281SOL     OW24475   4.201   3.868   1.635 -0.1081 -0.1934 -0.0598
 4281SOL    HW124476   4.180   3.917   1.715  1.0259  1.6099 -0.8694
 4281SOL    HW224477   4.111   3.841   1.618 -0.8729  0.9603  2.0482
 4282SOL     OW24478   4.079   2.497   5.083  0.5071  0.3540 -0.2644
 4282SOL    HW124479   4.056   2.582   5.044 -0.7634  0.4010  0.5756
 4282SOL    HW224480   4.074   2.522   5.176 -1.6594  0.6993 -0.4630
 4283SOL     OW24481   1.851   3.158   2.409 -0.0800  0.4146 -0.1916
 4283SOL    HW124482   1.788   3.089   2.429  0.7914 -0.0745  0.8549
 4283SOL    HW224483   1.849   3.153   2.313  2.8760  2.7370 -0.3721
 4284SOL     OW24484   1.386   0.996   4.104  0.2598  0.4078 -0.0703
 4284SOL    HW124485   1.385   1.040   4.189 -0.4646 -1.9569  1.1720
 4284SOL    HW224486   1.323   0.924   4.118  1.0884  0.0022  1.6055
 4285SOL     OW24487   4.166   4.290   2.485  0.1731 -0.0314 -0.3327
 4285SOL    HW124488   4.139   4.232   2.557  2.0711  1.7695  1.8351
 4285SOL    HW224489   4.174   4.220   2.420  1.2531  0.8848 -1.1759
 4286SOL     OW24490   3.264   3.894   9.691  0.1913  0.3319 -0.3018
 4286SOL    HW124491   3.216   3.880   9.772  0.5608 -0.0516 -0.1479
 4286SOL    HW224492   3.221   3.836   9.628  0.4241  0.2379 -0.3744
 4287SOL     OW24493   1.196   1.406   7.699 -0.4490  0.4287  0.1020
 4287SOL    HW124494   1.231   1.321   7.672  0.9221  0.4613  1.7328
 4287SOL    HW224495   1.216   1.421   7.792  0.4522  2.5098 -0.4328
 4288SOL     OW24496   3.537   4.606   7.004  0.2388 -0.3415 -0.2815
 4288SOL    HW124497   3.514   4.547   7.076  1.7974 -0.4631  0.1242
 4288SOL    HW224498   3.450   4.625   6.969 -0.3302 -3.0235 -0.3078
 4289SOL     OW24499   0.214   1.647   3.360  0.1788  0.2203 -0.5676
 4289SOL    HW124500   0.177   1.565   3.392  2.8238 -0.0197  1.7616
 4289SOL    HW224501   0.172   1.708   3.421  2.4036 -0.0284  1.2006
 4290SOL     OW24502   4.206   4.085   9.396 -0.2452 -0.1188  0.0544
 4290SOL    HW124503   4.207   4.090   9.492  0.1640  1.3048 -0.0153
 4290SOL    HW224504   4.138   4.148   9.374 -0.8108 -1.0672 -0.8998
 4291SOL     OW24505   1.400   2.478   9.223 -0.6211 -0.0838  0.4981
 4291SOL    HW124506   1.412   2.568   9.252  1.7378 -0.6410  1.2049
 4291SOL    HW224507   1.373   2.481   9.132 -0.0282  0.7585  0.3586
 4292SOL     OW24508   1.959   3.763   9.917  0.4463 -0.1726 -0.6238
 4292SOL    HW124509   2.034   3.762   9.975 -0.9821 -0.2092  1.2287
 4292SOL    HW224510   1.931   3.673   9.933 -1.4038  0.4362 -0.4054
 4293SOL     OW24511   0.962   3.951   2.448 -0.1327 -0.2792  0.6982
 4293SOL    HW124512   0.932   3.875   2.399  1.9535  1.5641 -3.4855
 4293SOL    HW224513   0.913   4.018   2.400  0.1277  0.6888  1.7645
 4294SOL     OW24514   2.434   1.626  13.291 -0.1136  0.3148  0.6669
 4294SOL    HW124515   2.426   1.538  13.328 -0.0048 -0.9030 -2.2871
 4294SOL    HW224516   2.454   1.602  13.201 -2.6478 -1.2894  0.5364
 4295SOL     OW24517   2.605   3.948   7.840 -0.3784 -0.0105  0.3124
 4295SOL    HW124518   2.627   3.865   7.798 -1.4713 -0.7006  1.0963
 4295SOL    HW224519   2.687   3.990   7.813 -0.6598 -1.4110 -2.6823
 4296SOL     OW24520   3.656   4.261  16.801  0.3840  0.6609  0.2010
 4296SOL    HW124521   3.650   4.316  16.879  1.6924  2.7540 -1.1762
 4296SOL    HW224522   3.576   4.212  16.785 -0.4310  2.3895 -1.0259
 4297SOL     OW24523   2.642   3.058   7.578 -0.4099  0.7277  0.4816
 4297SOL    HW124524   2.560   3.020   7.610 -0.5333  0.7157  0.1458
 4297SOL    HW224525   2.634   3.146   7.614 -2.3381  1.8416 -2.7359
 4298SOL     OW24526   4.060   3.379   7.473  0.1622  0.4551  0.2693
 4298SOL    HW124527   4.131   3.433   7.438 -1.3362  1.9773 -0.4027
 4298SOL    HW224528   3.984   3.397   7.418  0.9658 -0.6109 -1.2034
 4299SOL     OW24529   3.920   2.837   4.026  0.2726 -0.3612 -0.1368
 4299SOL    HW124530   3.999   2.892   4.025  0.4140 -0.5740 -0.4856
 4299SOL    HW224531   3.961   2.752   4.041  1.3352 -0.0249 -1.1588
 4300SOL     OW24532   4.412   3.850   9.688  0.7853 -0.1085  0.4816
 4300SOL    HW124533   4.466   3.928   9.705 -0.5350  1.0905 -0.8106
 4300SOL    HW224534   4.465   3.811   9.618  0.4876 -1.7034  1.1650
 4301SOL     OW24535   2.384   1.525   6.254  0.0545 -0.1787 -0.6731
 4301SOL    HW124536   2.362   1.521   6.347  1.4871 -1.9995 -0.4080
 4301SOL    HW224537   2.329   1.596   6.219 -0.9493  0.1191  1.4774
 4302SOL     OW24538   2.072   0.968  13.598 -0.1580 -0.4722 -0.4177
 4302SOL    HW124539   2.163   0.943  13.611 -0.7844 -1.0023  3.2372
 4302SOL    HW224540   2.037   0.913  13.669 -0.9615 -0.7822 -1.0531
 4303SOL     OW24541   2.109   2.387   2.367 -0.0122  0.8617  0.3665
 4303SOL    HW124542   2.082   2.295   2.374  1.1405  0.5387  0.4626
 4303SOL    HW224543   2.078   2.393   2.276  1.4299 -0.8869 -0.2328
 4304SOL     OW24544   4.698   2.564  16.413  0.0141 -0.2618 -0.2673
 4304SOL    HW124545   4.609   2.530  16.400  0.1909 -0.1388 -1.8909
 4304SOL    HW224546   4.693   2.602  16.500 -0.3880 -0.2513 -0.2932
 4305SOL     OW24547   1.429   4.493   0.334 -0.0200 -0.0859  0.4879
 4305SOL    HW124548   1.347   4.541   0.323  0.1474 -0.3940 -2.0598
 4305SOL    HW224549   1.402   4.401   0.324  0.9663  0.0758 -3.4743
 4306SOL     OW24550   4.318   2.503   8.673  0.2942  0.4781 -0.4388
 4306SOL    HW124551   4.310   2.482   8.580  0.6729 -1.7247  0.0273
 4306SOL    HW224552   4.261   2.580   8.680 -0.5384 -0.3770  2.2374
 4307SOL     OW24553   4.573   1.395  13.847  0.3680 -0.0451 -0.1364
 4307SOL    HW124554   4.629   1.353  13.912 -0.7697  2.3104  2.3796
 4307SOL    HW224555   4.522   1.454  13.902  1.4543  0.3640  0.4151
 4308SOL     OW24556   2.514   0.114  16.461  0.0704 -0.3833  0.1041
 4308SOL    HW124557   2.450   0.081  16.399  0.5382 -1.2332  0.0779
 4308SOL    HW224558   2.542   0.192  16.411  1.4440 -1.1832 -0.3899
 4309SOL     OW24559   1.250   1.273   9.401  1.0219 -0.0077 -0.1689
 4309SOL    HW124560   1.267   1.356   9.446  0.6614 -0.3903  0.6818
 4309SOL    HW224561   1.209   1.300   9.319 -0.6708  0.3006  0.7794
 4310SOL     OW24562   4.565   3.663  15.699  0.5832  0.5107 -1.0308
 4310SOL    HW124563   4.551   3.627  15.611 -1.9183 -1.0543  0.0124
 4310SOL    HW224564   4.589   3.753  15.675  0.4153  0.8313 -0.0122
 4311SOL     OW24565   2.716   2.940   8.526  0.4182 -0.2876 -0.0559
 4311SOL    HW124566   2.674   2.867   8.481  1.1806 -0.4305 -0.5351
 4311SOL    HW224567   2.807   2.908   8.532  0.7968  0.4901 -1.5114
 4312SOL     OW24568   1.449   3.771   1.424 -0.2861 -0.1194  0.0119
 4312SOL    HW124569   1.536   3.805   1.406 -0.7308 -0.0386 -2.0161
 4312SOL    HW224570   1.426   3.773   1.331 -1.5502  2.9881  0.4145
 4313SOL     OW24571   2.476   2.325   5.495 -0.2081 -0.3270 -0.6529
 4313SOL    HW124572   2.502   2.314   5.403  1.3756  0.2759 -0.2857
 4313SOL    HW224573   2.510   2.246   5.535  2.8040  1.4432  0.2887
 4314SOL     OW24574   4.415   3.057   2.319 -0.0239 -0.6023  0.1227
 4314SOL    HW124575   4.337   3.042   2.265  0.4228 -3.0068  0.1108
 4314SOL    HW224576   4.418   2.971   2.360 -0.4236 -2.1933 -3.1225
 4315SOL     OW24577   0.314   2.867   4.417 -0.3625 -0.6987 -1.0526
 4315SOL    HW124578   0.387   2.844   4.474 -1.7863  0.2098  1.1134
 4315SOL    HW224579   0.350   2.944   4.372 -0.0826  1.9741  3.8261
 4316SOL     OW24580   1.651   2.820   1.560  0.5297  0.6681  0.0487
 4316SOL    HW124581   1.582   2.773   1.608  1.7879 -0.0251  1.1908
 4316SOL    HW224582   1.707   2.857   1.628  1.0299 -0.7310  0.4010
 4317SOL     OW24583   2.281   0.553  17.589  0.4603  0.7501 -0.0638
 4317SOL    HW124584   2.199   0.519  17.623 -0.1346  0.3202 -1.9554
 4317SOL    HW224585   2.251   0.615  17.523 -0.9150  0.2597  0.1146
 4318SOL     OW24586   2.944   2.316   3.063  0.4325  0.2559 -0.4558
 4318SOL    HW124587   2.886   2.344   3.134  2.1348  0.1228  0.9813
 4318SOL    HW224588   2.964   2.404   3.031  0.8482  0.0129 -0.8614
 4319SOL     OW24589   2.629   3.779   2.578 -0.7596 -0.7200  0.2996
 4319SOL    HW124590   2.663   3.830   2.651  1.2845 -1.6174 -0.0192
 4319SOL    HW224591   2.536   3.792   2.594 -0.8862 -2.3015  0.8532
 4320SOL     OW24592   0.366   0.977  12.663 -0.0962  0.1247  0.0292
 4320SOL    HW124593   0.389   0.992  12.755 -0.5187 -1.2870  0.3566
 4320SOL    HW224594   0.377   0.883  12.652  2.0782  0.5223 -1.1616
 4321SOL     OW24595   0.902   4.496  10.614 -0.2284 -0.1442 -0.0264
 4321SOL    HW124596   0.992   4.519  10.634 -0.9352  1.7759  0.9602
 4321SOL    HW224597   0.885   4.584  10.579  0.5082  0.5281  1.3308
 4322SOL     OW24598   0.093   4.148   1.589 -0.1912  0.2458  0.1266
 4322SOL    HW124599   0.125   4.089   1.521 -1.9599 -2.2589  1.4615
 4322SOL    HW224600   0.005   4.116   1.607 -0.3177  0.0100 -0.8931
 4323SOL     OW24601   3.929   2.006   1.998  0.4887  0.6939  0.2152
 4323SOL    HW124602   3.944   1.949   2.074  1.6755 -0.5762 -0.9845
 4323SOL    HW224603   3.923   1.935   1.935 -2.4936  1.7971 -0.7352
 4324SOL     OW24604   4.531   4.290  14.472 -0.1847  0.3904 -0.0182
 4324SOL    HW124605   4.471   4.328  14.536 -0.0196 -1.6483  1.3346
 4324SOL    HW224606   4.477   4.283  14.393 -3.2396  0.1109  2.1208
 4325SOL     OW24607   1.662   2.761   3.503  0.8704  0.0051  0.0923
 4325SOL    HW124608   1.718   2.755   3.580 -0.0149 -2.3118  0.5409
 4325SOL    HW224609   1.727   2.741   3.435 -0.0802 -0.2920 -0.7319
 4326SOL     OW24610   3.508   2.019  14.318 -0.1607  0.0462  0.1772
 4326SOL    HW124611   3.575   1.956  14.292  1.0173  0.9228  1.0536
 4326SOL    HW224612   3.564   2.097  14.314  1.4256 -1.1511 -0.8258
 4327SOL     OW24613   4.541   1.313  10.176  0.4367  0.1597 -0.6386
 4327SOL    HW124614   4.514   1.228  10.212  1.7795  0.6948  1.6371
 4327SOL    HW224615   4.466   1.362  10.208  1.3845  0.3619  1.2908
 4328SOL     OW24616   0.931   3.426  16.451 -0.3096 -0.8315  0.2217
 4328SOL    HW124617   0.886   3.381  16.523  1.3528 -1.3578  0.9406
 4328SOL    HW224618   0.856   3.453  16.398 -0.7191 -1.4447  0.4819
 4329SOL     OW24619   3.302   3.349   3.094  0.3838  0.1580 -0.0385
 4329SOL    HW124620   3.327   3.392   3.176 -2.6429  0.7719  0.5626
 4329SOL    HW224621   3.240   3.414   3.060 -2.0310 -0.1140  3.8955
 4330SOL     OW24622   1.819   4.283   1.081 -0.1297 -0.1405 -0.0549
 4330SOL    HW124623   1.734   4.238   1.081  0.6286 -1.6048  1.3068
 4330SOL    HW224624   1.852   4.253   0.997 -2.4516  1.8259 -1.6398
 4331SOL     OW24625   4.676   0.947   4.654 -0.1086  0.3270 -0.1670
 4331SOL    HW124626   4.608   0.930   4.589 -0.0518 -1.3803  0.2210
 4331SOL    HW224627   4.624   0.923   4.730  1.8684 -0.8332  0.8345
 4332SOL     OW24628   1.703   3.190   3.903 -0.2005  0.5767  0.0038
 4332SOL    HW124629   1.657   3.117   3.861 -0.1844 -0.0372  1.0511
 4332SOL    HW224630   1.635   3.239   3.949 -0.5997 -0.5821  0.6748
 4333SOL     OW24631   0.345   0.661  17.481  0.3391 -0.2494 -0.0359
 4333SOL    HW124632   0.427   0.642  17.436  1.0128 -0.0083  1.0930
 4333SOL    HW224633   0.355   0.755  17.492 -0.0807 -0.1886 -0.1557
 4334SOL     OW24634   4.539   3.889  12.833  0.1015 -0.4263  0.1148
 4334SOL    HW124635   4.602   3.951  12.869 -0.5651  0.2845  0.0732
 4334SOL    HW224636   4.571   3.807  12.869 -2.0352 -1.1678  0.3599
 4335SOL     OW24637   3.756   2.503   8.117  0.1274 -0.1531  0.3047
 4335SOL    HW124638   3.680   2.447   8.101  0.5923 -0.3839 -1.0957
 4335SOL    HW224639   3.825   2.439   8.128  0.6884  0.1526 -1.3872
 4336SOL     OW24640   1.472   2.665   1.708  0.3335 -0.0606  0.4943
 4336SOL    HW124641   1.466   2.580   1.665 -0.8411  0.4113 -0.2632
 4336SOL    HW224642   1.484   2.652   1.802 -1.5342 -1.8020  0.5053
 4337SOL     OW24643   4.566   2.439   8.225 -0.1055 -0.7965  0.0946
 4337SOL    HW124644   4.550   2.360   8.276  2.4957 -1.6539 -0.4155
 4337SOL    HW224645   4.542   2.409   8.137  0.5264  0.7625 -0.5944
 4338SOL     OW24646   1.919   1.279   1.511 -0.0705  0.3131  0.1956
 4338SOL    HW124647   1.933   1.231   1.593 -2.6737 -2.0344 -0.7473
 4338SOL    HW224648   1.945   1.369   1.530  0.4311  0.0047  0.9800
 4339SOL     OW24649   4.301   2.529   3.857  0.2243 -0.6675 -0.1186
 4339SOL    HW124650   4.254   2.576   3.789  2.9095  0.5279 -1.1162
 4339SOL    HW224651   4.362   2.479   3.803  0.3390  0.9815 -1.5101
 4340SOL     OW24652   0.696   2.016  13.498  0.0622  0.3124  0.5001
 4340SOL    HW124653   0.774   2.039  13.449 -0.7327  1.1476 -0.3622
 4340SOL    HW224654   0.639   2.093  13.498 -1.3007 -0.6789  0.5981
 4341SOL     OW24655   2.318   3.683   5.733  0.2195 -0.1081 -0.0413
 4341SOL    HW124656   2.314   3.757   5.673 -0.7455 -2.2087 -2.5365
 4341SOL    HW224657   2.381   3.720   5.796  1.1589 -2.0986  0.1768
 4342SOL     OW24658   0.622   2.786  11.610 -0.2012  0.1043 -0.2279
 4342SOL    HW124659   0.668   2.820  11.686  0.2974 -3.5392  1.1080
 4342SOL    HW224660   0.530   2.804  11.630  0.1778  0.5218  1.1236
 4343SOL     OW24661   1.473   1.454  16.715  0.6892  0.3865  0.2448
 4343SOL    HW124662   1.434   1.467  16.629 -1.1320 -2.0455  0.7022
 4343SOL    HW224663   1.528   1.532  16.724  0.7929  0.1649  1.5413
 4344SOL     OW24664   1.385   2.868   4.754 -0.5419  0.4003 -0.5554
 4344SOL    HW124665   1.439   2.943   4.779  0.9355 -0.4172 -1.2951
 4344SOL    HW224666   1.293   2.888   4.773 -0.0564  2.5645 -0.5534
 4345SOL     OW24667   4.375   3.674   2.810 -0.4361  0.7531 -0.2168
 4345SOL    HW124668   4.286   3.681   2.776 -1.2335  0.3770  1.8359
 4345SOL    HW224669   4.368   3.607   2.877  1.1900  0.4592 -0.3259
 4346SOL     OW24670   1.857   1.870   5.070  0.0378  0.3133 -0.3006
 4346SOL    HW124671   1.881   1.777   5.066 -0.3938  0.1351  1.3166
 4346SOL    HW224672   1.918   1.904   5.135  0.3457  1.8193 -1.3937
 4347SOL     OW24673   0.239   1.760   9.794 -0.2397 -0.1366  0.2062
 4347SOL    HW124674   0.150   1.790   9.777 -0.6227 -1.8551 -0.8589
 4347SOL    HW224675   0.227   1.730   9.884  0.4267  1.2374  0.7544
 4348SOL     OW24676   2.885   1.322   7.264  0.2044  0.4998 -0.0192
 4348SOL    HW124677   2.946   1.302   7.335 -3.2681 -1.1155  2.5130
 4348SOL    HW224678   2.893   1.246   7.205  1.5570 -1.3180  2.4753
 4349SOL     OW24679   2.151   3.032   5.077 -0.4157  0.0488  0.3833
 4349SOL    HW124680   2.139   3.124   5.101  0.2404  0.6900 -1.8125
 4349SOL    HW224681   2.206   3.001   5.149  0.7004  0.5782 -0.2427
 4350SOL     OW24682   3.711   4.659   8.501 -0.1756 -0.5853  0.0726
 4350SOL    HW124683   3.780   4.594   8.489  0.0659  0.0298 -1.7497
 4350SOL    HW224684   3.691   4.679   8.410 -1.1090 -0.4799  0.3026
 4351SOL     OW24685   0.922   4.045   0.921  0.3688 -0.4473 -0.0275
 4351SOL    HW124686   0.894   4.104   0.991  1.9631  0.3956 -0.0814
 4351SOL    HW224687   0.888   4.098   0.848  0.1794 -2.6161 -1.5131
 4352SOL     OW24688   2.940   2.794   8.713  0.3963 -0.4359 -0.0674
 4352SOL    HW124689   2.917   2.713   8.668 -1.3767  1.7553 -3.1470
 4352SOL    HW224690   2.904   2.778   8.800  1.9549 -1.3125  0.4207
 4353SOL     OW24691   3.311   4.652   7.502  0.6331  0.6206 -0.4113
 4353SOL    HW124692   3.328   4.666   7.595  0.6522 -1.2812 -0.1352
 4353SOL    HW224693   3.381   4.704   7.463  0.3640  0.1477 -1.5416
 4354SOL     OW24694   4.221   1.929   7.792 -0.2525 -0.0613 -0.4252
 4354SOL    HW124695   4.252   1.915   7.881  0.1449  1.3891 -0.3266
 4354SOL    HW224696   4.291   1.990   7.768 -0.3069  0.1909  0.0548
 4355SOL     OW24697   0.193   4.568   0.865 -0.6360  0.0444  0.0898
 4355SOL    HW124698   0.210   4.660   0.886 -0.3546  0.2833 -1.2334
 4355SOL    HW224699   0.254   4.529   0.928 -1.2680  0.5782  1.0463
 4356SOL     OW24700   0.149   1.859   4.574  0.3447  0.3674 -0.0617
 4356SOL    HW124701   0.179   1.947   4.594  1.2601  0.0491 -0.0520
 4356SOL    HW224702   0.074   1.877   4.517  0.5976 -1.0586 -0.8616
 4357SOL     OW24703   1.588   1.361   0.874  0.4032 -0.5378 -0.2508
 4357SOL    HW124704   1.682   1.366   0.853  0.3917  2.5876  0.4716
 4357SOL    HW224705   1.569   1.421   0.946  0.1802 -1.3828  0.3880
 4358SOL     OW24706   3.464   3.815   9.333 -0.4643 -0.1349 -0.3351
 4358SOL    HW124707   3.378   3.777   9.349  0.5708 -2.0217  0.6972
 4358SOL    HW224708   3.445   3.903   9.299  1.7466  0.3265 -0.3529
 4359SOL     OW24709   4.480   4.093   2.917  0.0007 -0.2900  0.1290
 4359SOL    HW124710   4.426   4.164   2.881  0.8977  0.2078 -0.2472
 4359SOL    HW224711   4.416   4.052   2.975 -0.4716 -0.0559 -0.2298
 4360SOL     OW24712   1.009   2.455  12.725  0.2829  0.6513  0.4333
 4360SOL    HW124713   1.075   2.447  12.657 -1.0230  0.4946 -0.8311
 4360SOL    HW224714   0.928   2.463  12.674  0.3195 -1.7419 -0.0168
 4361SOL     OW24715   0.853   0.579   8.801  0.2692 -0.0989 -0.1111
 4361SOL    HW124716   0.793   0.529   8.747 -0.4584 -0.0403  0.6465
 4361SOL    HW224717   0.795   0.650   8.830  0.4259  0.0046 -0.0433
 4362SOL     OW24718   2.261   1.386   1.654 -0.8386  0.1979  0.1198
 4362SOL    HW124719   2.230   1.442   1.725 -1.7745 -0.1708 -0.0051
 4362SOL    HW224720   2.176   1.354   1.624 -0.5168 -1.0452  0.5286
 4363SOL     OW24721   3.712   1.675   7.533  0.4359 -0.3181  0.6949
 4363SOL    HW124722   3.625   1.670   7.493  1.1780 -3.2335 -0.5930
 4363SOL    HW224723   3.730   1.768   7.520 -0.1152 -0.7823 -3.3247
 4364SOL     OW24724   3.189   2.947   4.806 -0.1754 -0.4000  0.2350
 4364SOL    HW124725   3.209   2.890   4.732  1.0932  0.7614 -0.3073
 4364SOL    HW224726   3.273   2.956   4.850  0.1928  0.5823 -0.6699
 4365SOL     OW24727   1.740   1.799  14.374 -0.1062 -0.3480 -0.4317
 4365SOL    HW124728   1.666   1.746  14.402 -2.4097  1.7403 -2.5567
 4365SOL    HW224729   1.708   1.820  14.287  0.1444  1.3104 -0.1320
 4366SOL     OW24730   1.019   2.611   2.353 -0.4220 -0.4289 -0.0621
 4366SOL    HW124731   1.081   2.570   2.413  0.8612 -1.1113 -1.8348
 4366SOL    HW224732   1.075   2.677   2.311  0.4855 -0.7856  0.5939
 4367SOL     OW24733   0.191   1.729   5.655  0.7964  0.4149  0.1990
 4367SOL    HW124734   0.134   1.766   5.587 -1.8634 -0.5836  1.8716
 4367SOL    HW224735   0.158   1.773   5.733  2.7370  1.4871  0.4252
 4368SOL     OW24736   2.658   3.493   7.206 -0.4167 -0.1528 -0.6411
 4368SOL    HW124737   2.594   3.469   7.273  0.7012  0.0398  0.4869
 4368SOL    HW224738   2.610   3.558   7.154 -2.5116 -1.9250 -0.9372
 4369SOL     OW24739   3.658   0.179   3.217 -0.1412  0.5402 -1.0030
 4369SOL    HW124740   3.583   0.205   3.270 -0.3582 -1.3966 -0.3572
 4369SOL    HW224741   3.692   0.105   3.268 -3.7965 -0.4505  0.0082
 4370SOL     OW24742   3.415   2.386   0.386 -0.2343 -0.0643 -0.2720
 4370SOL    HW124743   3.351   2.376   0.457  0.6943  2.1079  0.8755
 4370SOL    HW224744   3.378   2.456   0.332 -1.9566 -0.5745  0.2319
 4371SOL     OW24745   1.293   4.135   0.996 -0.6405 -0.0823  0.3230
 4371SOL    HW124746   1.384   4.162   1.008 -0.3139 -1.1087  0.2205
 4371SOL    HW224747   1.245   4.199   1.048  1.4387 -0.0452  2.1953
 4372SOL     OW24748   4.257   2.827   2.037  0.4357  0.0163 -0.0025
 4372SOL    HW124749   4.337   2.857   1.993 -0.3706  0.8141 -0.9383
 4372SOL    HW224750   4.262   2.734   2.015  2.7130 -0.2528  1.6275
 4373SOL     OW24751   2.324   2.155   3.884 -0.0518  0.0910  0.1921
 4373SOL    HW124752   2.288   2.242   3.868 -1.0545 -0.8048 -2.3315
 4373SOL    HW224753   2.312   2.136   3.977 -0.0511 -1.3638 -0.1068
 4374SOL     OW24754   3.975   0.077  16.092 -0.4565  0.3110 -0.4437
 4374SOL    HW124755   4.017   0.162  16.101 -1.6677  0.7192  1.1783
 4374SOL    HW224756   3.885   0.102  16.071  0.0296  2.0973 -0.4288
 4375SOL     OW24757   1.648   2.086   8.639 -0.2531 -0.0050 -0.2777
 4375SOL    HW124758   1.603   2.007   8.609  0.3792 -0.6709  0.5350
 4375SOL    HW224759   1.694   2.051   8.715 -0.3353 -2.9788 -1.5946
 4376SOL     OW24760   4.342   2.558  14.595  0.2942  0.1841  0.4625
 4376SOL    HW124761   4.358   2.465  14.580 -2.1559 -0.2636  0.5866
 4376SOL    HW224762   4.419   2.569  14.650 -1.2065 -0.6763  2.7471
 4377SOL     OW24763   4.466   0.147   4.112  0.1321  0.1183 -0.1789
 4377SOL    HW124764   4.508   0.159   4.198 -0.5426 -0.8880  0.3021
 4377SOL    HW224765   4.437   0.062   4.145  0.0981  0.5400  0.8857
 4378SOL     OW24766   3.109   2.384   6.754  0.3226  0.2914  0.1308
 4378SOL    HW124767   3.014   2.372   6.752  0.3469  0.4997 -2.1969
 4378SOL    HW224768   3.129   2.314   6.816 -0.8558  0.8392  1.1166
 4379SOL     OW24769   0.203   4.400   2.373  0.3756 -0.0821 -0.1512
 4379SOL    HW124770   0.110   4.408   2.354 -0.1479 -1.5639  1.7683
 4379SOL    HW224771   0.205   4.314   2.416 -0.6201 -0.4274 -0.7960
 4380SOL     OW24772   2.103   2.237   5.070 -0.0870 -0.0832 -0.1453
 4380SOL    HW124773   2.180   2.214   5.018  0.3365 -1.4624  1.1037
 4380SOL    HW224774   2.070   2.154   5.104  1.8507  0.6485  3.4799
 4381SOL     OW24775   3.095   2.359   8.394 -0.1790  0.5561 -0.5000
 4381SOL    HW124776   3.184   2.392   8.402 -0.2004  0.2760  0.8072
 4381SOL    HW224777   3.086   2.351   8.299  0.1864  3.3491 -0.7710
 4382SOL     OW24778   0.519   4.066  12.293 -0.6202 -0.1123 -0.5532
 4382SOL    HW124779   0.543   4.151  12.329 -0.0304 -1.0174  1.2183
 4382SOL    HW224780   0.552   4.078  12.204  2.8116 -2.6639  0.3747
 4383SOL     OW24781   1.661   3.562  11.902 -0.2655  0.4476 -0.5481
 4383SOL    HW124782   1.663   3.572  11.806 -1.4607  1.0632 -0.5060
 4383SOL    HW224783   1.613   3.642  11.924 -0.1106  0.0920  1.0278
 4384SOL     OW24784   4.393   4.681  11.621  0.1913  0.2111  0.6532
 4384SOL    HW124785   4.467   4.684  11.561  0.6458 -0.5484  1.1789
 4384SOL    HW224786   4.328   4.629  11.573  1.8142 -1.7734  0.6354
 4385SOL     OW24787   4.470   1.108  17.338  0.2935 -0.4505 -0.0453
 4385SOL    HW124788   4.395   1.048  17.340 -0.4835  0.5291  0.3914
 4385SOL    HW224789   4.515   1.076  17.260  1.9662  1.4714  0.1143
 4386SOL     OW24790   3.820   2.424   5.989 -0.1595  0.0284  0.2545
 4386SOL    HW124791   3.865   2.421   6.073  0.1126 -0.0586  0.1084
 4386SOL    HW224792   3.797   2.333   5.969  0.9738  0.2904 -2.2971
 4387SOL     OW24793   2.831   1.105   5.918  0.1138  0.4164  0.2536
 4387SOL    HW124794   2.857   1.197   5.907  2.0877 -0.2418 -0.7398
 4387SOL    HW224795   2.913   1.077   5.959  0.0618 -1.6902 -1.0683
 4388SOL     OW24796   1.023   1.240   9.765 -0.5325 -0.3323  0.8332
 4388SOL    HW124797   1.022   1.335   9.777 -0.9497 -0.0761 -1.2942
 4388SOL    HW224798   0.932   1.218   9.784 -1.0869  1.2797  0.1014
 4389SOL     OW24799   4.152   0.615   5.825  0.2026 -0.5764 -0.4993
 4389SOL    HW124800   4.151   0.580   5.914 -0.6651  2.3249  0.6140
 4389SOL    HW224801   4.074   0.670   5.822  1.2981  1.0204  0.3683
 4390SOL     OW24802   1.153   2.516   6.735  0.0354  0.5818  0.0277
 4390SOL    HW124803   1.152   2.423   6.757  2.0417  0.4947 -0.2093
 4390SOL    HW224804   1.246   2.536   6.740  0.5865 -1.9925  0.3032
 4391SOL     OW24805   0.645   1.039   4.390 -0.3425  0.0860 -0.1107
 4391SOL    HW124806   0.712   1.055   4.324  0.7162 -3.4246  0.0958
 4391SOL    HW224807   0.636   1.124   4.434 -0.5552 -0.3626  0.7251
 4392SOL     OW24808   3.601   3.857  16.531 -0.0817  0.2091  0.4934
 4392SOL    HW124809   3.600   3.819  16.443  0.4365 -1.9921  1.4559
 4392SOL    HW224810   3.509   3.878  16.546 -0.8677 -2.3705 -0.7081
 4393SOL     OW24811   3.773   3.830  10.062  0.2782 -0.2415 -0.3128
 4393SOL    HW124812   3.856   3.857  10.022  0.5414  0.1600  0.4974
 4393SOL    HW224813   3.711   3.866  10.000 -0.8125  1.4977  1.8024
 4394SOL     OW24814   2.036   0.201   9.064 -0.0789  0.0165 -0.2447
 4394SOL    HW124815   2.059   0.178   9.154  0.2646 -0.1054 -0.3644
 4394SOL    HW224816   1.967   0.265   9.083 -0.3533 -0.4111  0.2099
 4395SOL     OW24817   1.577   0.991  16.032 -0.4086 -0.2275 -0.1316
 4395SOL    HW124818   1.529   1.031  16.105 -1.6858 -0.0887 -1.0520
 4395SOL    HW224819   1.595   1.064  15.974 -4.3575  1.8172  1.2607
 4396SOL     OW24820   0.412   0.458  16.201 -0.5451 -0.3301  0.8284
 4396SOL    HW124821   0.427   0.475  16.294  0.2576  2.7981  0.1313
 4396SOL    HW224822   0.377   0.543  16.173  0.5890 -0.1546 -0.0868
 4397SOL     OW24823   2.642   2.655   5.453  0.0835 -0.1029 -0.7763
 4397SOL    HW124824   2.718   2.598   5.441 -0.1828  0.0211 -3.0079
 4397SOL    HW224825   2.667   2.660   5.545 -0.4848 -1.3210 -0.5635
 4398SOL     OW24826   1.582   2.717  14.316  0.3644  0.0631 -0.0673
 4398SOL    HW124827   1.556   2.716  14.224 -1.6970 -0.7725  0.5337
 4398SOL    HW224828   1.657   2.658  14.301  0.1470 -0.5635  1.3395
 4399SOL     OW24829   0.471   3.974  14.803  0.1496 -0.1665  0.4701
 4399SOL    HW124830   0.497   3.914  14.733  0.5500 -0.8808  1.2355
 4399SOL    HW224831   0.535   3.946  14.868 -1.2244 -0.6078  1.6227
 4400SOL     OW24832   2.213   4.092   0.190 -0.4945  0.0946 -0.2021
 4400SOL    HW124833   2.158   4.148   0.245 -1.0129 -0.2949 -0.3210
 4400SOL    HW224834   2.290   4.147   0.177 -1.3843  0.8535 -2.2303
 4401SOL     OW24835   1.225   4.347   0.618  0.1155 -0.2968 -0.2069
 4401SOL    HW124836   1.203   4.256   0.639  1.1408 -0.6586 -0.6843
 4401SOL    HW224837   1.167   4.355   0.542 -1.3943  1.1821  1.1072
 4402SOL     OW24838   2.628   3.916   3.972 -0.1117  0.2205 -0.4514
 4402SOL    HW124839   2.627   3.946   3.881  0.0416  1.3811 -0.0710
 4402SOL    HW224840   2.548   3.965   3.994  0.4683  0.2949  1.4893
 4403SOL     OW24841   0.659   3.134   7.651 -0.2376 -0.4250 -0.2916
 4403SOL    HW124842   0.639   3.216   7.696  1.1426 -0.5559  0.5464
 4403SOL    HW224843   0.729   3.093   7.702 -0.9732 -0.4182  0.7076
 4404SOL     OW24844   4.737   2.045   6.992 -0.5575  0.1798 -0.0150
 4404SOL    HW124845   4.645   2.034   6.968 -0.2047  0.8238 -1.6664
 4404SOL    HW224846   0.040   2.050   6.906 -0.9600  0.7010 -0.1746
 4405SOL     OW24847   4.257   0.067   3.321 -0.3766 -0.1615  0.0780
 4405SOL    HW124848   4.186   0.081   3.383  0.5328 -2.6116  1.6390
 4405SOL    HW224849   4.223   0.021   3.244  2.5165 -1.6745 -0.2865
 4406SOL     OW24850   3.890   3.039   6.823 -0.2929  0.3702  0.4639
 4406SOL    HW124851   3.878   2.946   6.806 -0.7028  0.4469  0.3444
 4406SOL    HW224852   3.954   3.030   6.895 -0.5741  0.8862  0.7758
 4407SOL     OW24853   2.428   0.389  17.385  0.4014  0.2105 -0.0068
 4407SOL    HW124854   2.431   0.412  17.478 -1.9710  0.7005 -0.0529
 4407SOL    HW224855   2.388   0.465  17.342 -2.0436 -1.4684 -0.6922
 4408SOL     OW24856   2.195   1.988   6.383 -0.2491 -0.1557  0.0882
 4408SOL    HW124857   2.196   1.921   6.452 -1.1901  1.7383  1.9202
 4408SOL    HW224858   2.210   2.055   6.449  0.1617  1.6773 -1.8842
 4409SOL     OW24859   4.475   0.007   1.866 -0.5174 -0.2558 -0.3093
 4409SOL    HW124860   4.448   4.722   1.777 -0.6099 -0.8542 -0.1376
 4409SOL    HW224861   4.476   0.102   1.870 -3.2037 -0.2500  0.2203
 4410SOL     OW24862   2.279   3.612   7.442 -0.2181 -0.5540  0.3113
 4410SOL    HW124863   2.235   3.682   7.393  2.5058  1.9185  1.3881
 4410SOL    HW224864   2.235   3.541   7.396 -0.8024 -0.1998  0.3147
 4411SOL     OW24865   4.289   3.027   4.934  0.0303 -0.2940  0.2697
 4411SOL    HW124866   4.230   3.067   4.870  0.1438 -0.1866  0.2320
 4411SOL    HW224867   4.356   3.094   4.946 -1.5883  1.1991  0.9016
 4412SOL     OW24868   0.948   0.866   7.311 -0.0034 -0.4626  0.0275
 4412SOL    HW124869   0.880   0.838   7.372 -0.5236 -0.6413 -0.6480
 4412SOL    HW224870   0.952   0.799   7.243 -2.7449  0.7830 -1.3479
 4413SOL     OW24871   3.503   2.840  10.479 -0.2083  0.1298  0.5670
 4413SOL    HW124872   3.568   2.860  10.547  0.5185 -0.0685 -0.0669
 4413SOL    HW224873   3.569   2.826  10.410 -0.3818 -1.9442  0.8132
 4414SOL     OW24874   3.373   4.039   2.757 -0.2961  0.0688  0.4228
 4414SOL    HW124875   3.425   4.117   2.743  0.2664 -0.0390  1.9380
 4414SOL    HW224876   3.428   3.996   2.823 -1.1074  0.3647  1.2959
 4415SOL     OW24877   3.432   0.501   6.944 -0.0516  0.3345 -0.0905
 4415SOL    HW124878   3.339   0.515   6.924  0.2804  0.0372 -1.8417
 4415SOL    HW224879   3.471   0.582   6.909 -1.0419  1.0766  0.5138
 4416SOL     OW24880   2.556   0.261   3.102 -0.2456  0.5145  0.1265
 4416SOL    HW124881   2.490   0.224   3.043 -0.5272  3.1541 -1.2048
 4416SOL    HW224882   2.629   0.283   3.043  0.0924 -0.5812  0.1294
 4417SOL     OW24883   1.158   2.553  10.675  0.0681  0.6202 -0.0927
 4417SOL    HW124884   1.130   2.645  10.672 -1.4019  0.2308  1.7533
 4417SOL    HW224885   1.234   2.552  10.733  0.2901 -1.4222 -0.4302
 4418SOL     OW24886   1.314   1.105   0.622  0.0704  0.0324 -0.4965
 4418SOL    HW124887   1.391   1.114   0.677 -0.3085 -2.0210  0.3703
 4418SOL    HW224888   1.277   1.192   0.636 -2.9086 -1.5271  1.3222
 4419SOL     OW24889   4.712   3.013   2.562 -0.0748  0.0821  0.3802
 4419SOL    HW124890   0.058   2.970   2.583 -0.0028  0.9004  1.7821
 4419SOL    HW224891   4.685   2.971   2.480  0.4985 -0.7072  0.5975
 4420SOL     OW24892   2.012   2.761   1.853  0.4497  0.4921 -1.1476
 4420SOL    HW124893   2.031   2.850   1.883  1.3421 -0.9380  2.5424
 4420SOL    HW224894   2.069   2.711   1.912 -0.6875  0.0664 -0.3893
 4421SOL     OW24895   4.399   0.806   3.927  0.0784 -0.0134 -0.1681
 4421SOL    HW124896   4.423   0.786   4.018 -1.3271 -0.6268  0.0595
 4421SOL    HW224897   4.334   0.874   3.940 -0.7427 -0.3470 -2.5083
 4422SOL     OW24898   2.159   3.707   3.664  0.2656  0.0511  0.0641
 4422SOL    HW124899   2.157   3.615   3.637  0.1372 -0.1909  0.8975
 4422SOL    HW224900   2.138   3.689   3.756 -2.0699 -3.1438 -1.0791
 4423SOL     OW24901   1.412   4.047   1.308 -0.2363  0.0345 -0.2879
 4423SOL    HW124902   1.476   4.113   1.334  1.5147 -1.6063 -0.4615
 4423SOL    HW224903   1.346   4.109   1.277 -0.1980 -0.3721 -1.1841
 4424SOL     OW24904   3.272   2.366   4.235  0.0124 -0.6246  0.2347
 4424SOL    HW124905   3.253   2.275   4.212  1.5237 -1.5125  2.4650
 4424SOL    HW224906   3.276   2.359   4.331 -0.2678  0.9194  0.3610
 4425SOL     OW24907   0.518   2.507   8.018 -0.1212 -0.4386 -0.0512
 4425SOL    HW124908   0.529   2.449   7.942 -1.2660  0.3764 -0.8337
 4425SOL    HW224909   0.562   2.588   7.993  0.1614 -0.4321  0.4579
 4426SOL     OW24910   1.424   1.394  15.706 -0.5057  0.2950  0.0068
 4426SOL    HW124911   1.434   1.489  15.719  0.7148  0.0333  1.0042
 4426SOL    HW224912   1.441   1.361  15.794 -1.1167  2.2050  0.8401
 4427SOL     OW24913   3.594   3.284  10.926  0.2594 -0.0652 -0.3622
 4427SOL    HW124914   3.610   3.241  11.010 -1.5115 -0.4225 -0.2082
 4427SOL    HW224915   3.596   3.377  10.952  2.4095  0.3511 -1.9939
 4428SOL     OW24916   0.804   2.222   5.327 -0.0407 -0.7917  0.1499
 4428SOL    HW124917   0.786   2.129   5.310  0.0599 -0.2857 -2.6231
 4428SOL    HW224918   0.805   2.212   5.423  0.8104 -0.9152  0.1239
 4429SOL     OW24919   4.118   0.934   8.762 -0.0005 -0.5912 -0.7235
 4429SOL    HW124920   4.045   0.964   8.708 -1.1913  0.2128  1.3442
 4429SOL    HW224921   4.071   0.876   8.823 -0.0338  0.2697  0.0618
 4430SOL     OW24922   3.750   4.410   6.072 -0.4641  0.4081  0.0905
 4430SOL    HW124923   3.818   4.417   6.139 -0.2740 -1.2377  0.0808
 4430SOL    HW224924   3.673   4.396   6.128 -1.0277  1.4281 -0.4237
 4431SOL     OW24925   2.090   3.248   8.447  0.6329 -0.4213  0.0439
 4431SOL    HW124926   2.147   3.173   8.429  0.4018 -0.8043  0.9083
 4431SOL    HW224927   2.110   3.265   8.539  0.1603  0.1322  0.0453
 4432SOL     OW24928   2.118   3.138   9.138 -0.0284 -0.4079  0.0337
 4432SOL    HW124929   2.144   3.093   9.218 -1.9009 -0.5541  0.5639
 4432SOL    HW224930   2.096   3.223   9.176 -2.5718 -1.0544  0.0354
 4433SOL     OW24931   2.916   2.113  15.794 -0.1565 -0.4309 -0.0390
 4433SOL    HW124932   2.985   2.179  15.805  0.1601 -0.8921  0.7797
 4433SOL    HW224933   2.882   2.132  15.706  3.0821  2.3302 -0.7050
 4434SOL     OW24934   4.207   1.667   1.848  0.5073  0.3217 -0.2393
 4434SOL    HW124935   4.238   1.590   1.801  2.1608  0.1757  1.1014
 4434SOL    HW224936   4.249   1.664   1.934 -1.6836 -2.5032  0.6987
 4435SOL     OW24937   1.205   3.639   6.472  0.5985  0.4434  0.4583
 4435SOL    HW124938   1.187   3.562   6.526 -2.1276  0.4075 -0.5458
 4435SOL    HW224939   1.205   3.610   6.381 -3.8515 -0.7960  0.8610
 4436SOL     OW24940   4.163   1.491   5.052  0.8804 -0.0599  0.1571
 4436SOL    HW124941   4.229   1.472   4.985  1.4327 -0.0860  0.7018
 4436SOL    HW224942   4.162   1.587   5.048  0.0893 -0.1759 -2.4691
 4437SOL     OW24943   2.914   4.536   1.487  0.3747 -0.0122 -0.5187
 4437SOL    HW124944   2.907   4.542   1.582  1.8922 -1.5854 -0.3217
 4437SOL    HW224945   2.876   4.453   1.459  1.2093 -0.9844  1.2028
 4438SOL     OW24946   0.974   1.238   5.181 -0.4811 -0.4141  0.5094
 4438SOL    HW124947   0.960   1.321   5.136 -1.5206 -0.9881 -0.1928
 4438SOL    HW224948   0.933   1.247   5.267  0.5339  0.3318  0.9248
 4439SOL     OW24949   2.723   0.748  16.208 -0.7637 -0.2090  0.3765
 4439SOL    HW124950   2.752   0.833  16.173 -0.7074  0.0104  0.9498
 4439SOL    HW224951   2.672   0.703  16.141  0.9652 -0.6833 -0.6346
 4440SOL     OW24952   0.944   3.237   5.845  0.2067 -0.6155 -0.1395
 4440SOL    HW124953   1.032   3.212   5.815  0.6279  0.0361  0.5380
 4440SOL    HW224954   0.959   3.280   5.930 -2.5282 -0.6051  0.3218
 4441SOL     OW24955   1.799   0.393  13.278 -0.3391 -0.0339  0.0022
 4441SOL    HW124956   1.835   0.304  13.278 -0.1305  0.0575 -0.9841
 4441SOL    HW224957   1.870   0.428  13.331 -1.8474 -0.6865  2.5039
 4442SOL     OW24958   4.046   1.455  14.977 -0.0294 -0.1562 -0.2842
 4442SOL    HW124959   3.981   1.490  15.038  3.0856  1.7679  1.9586
 4442SOL    HW224960   4.037   1.525  14.912  3.5019 -0.9280 -1.6324
 4443SOL     OW24961   4.657   0.511   5.546 -0.0454 -0.2291 -0.1248
 4443SOL    HW124962   4.599   0.472   5.611  1.1078  0.1925  1.1530
 4443SOL    HW224963   4.687   0.587   5.597 -0.4768 -0.4832  0.5093
 4444SOL     OW24964   1.428   3.371  15.058 -0.0172  0.6367  0.1515
 4444SOL    HW124965   1.352   3.317  15.080  0.6096 -0.0529  0.6046
 4444SOL    HW224966   1.498   3.306  15.051 -0.2283  0.3988  0.2715
 4445SOL     OW24967   4.003   4.222  17.416  0.1675 -0.0045 -0.2872
 4445SOL    HW124968   4.067   4.245  17.484  0.7533  0.3052 -0.9494
 4445SOL    HW224969   3.989   4.135  17.454 -2.8491  0.1422 -1.0655
 4446SOL     OW24970   3.067   2.641  14.491 -0.1891  0.2868  0.2544
 4446SOL    HW124971   2.986   2.660  14.444 -0.7546 -0.9529  0.7208
 4446SOL    HW224972   3.052   2.701  14.564  1.0633  0.3670  0.4348
 4447SOL     OW24973   1.726   1.426  11.161  0.5025 -0.2653  0.3403
 4447SOL    HW124974   1.761   1.506  11.124  0.9688  0.5415  2.5026
 4447SOL    HW224975   1.638   1.454  11.189  0.5896 -0.6487  1.0096
 4448SOL     OW24976   0.795   2.955  11.025 -0.1854  0.3373 -0.2835
 4448SOL    HW124977   0.711   3.000  11.011 -2.1606 -2.1602  3.4696
 4448SOL    HW224978   0.766   2.867  11.047 -0.7402  0.6607  0.2940
 4449SOL     OW24979   4.469   2.070  13.307  0.0058 -0.2496  0.3202
 4449SOL    HW124980   4.538   2.036  13.364 -0.3201  1.1993  1.5622
 4449SOL    HW224981   4.518   2.078  13.225 -2.8192 -0.3808 -1.4013
 4450SOL     OW24982   3.779   4.423   3.857 -0.6856 -0.1735 -0.2167
 4450SOL    HW124983   3.779   4.331   3.886  2.5064  0.5022  1.9703
 4450SOL    HW224984   3.708   4.425   3.794  0.2175  0.2994 -1.2266
 4451SOL     OW24985   2.545   0.915   6.147 -0.3559 -0.5705  0.4085
 4451SOL    HW124986   2.489   0.856   6.097 -0.8931  0.8927 -0.7034
 4451SOL    HW224987   2.512   0.996   6.111 -0.5376 -0.8793 -0.1130
 4452SOL     OW24988   1.146   1.327  13.669  0.0926 -0.4542 -0.5334
 4452SOL    HW124989   1.164   1.233  13.663 -0.6734 -0.6676  0.5093
 4452SOL    HW224990   1.063   1.317  13.716  0.5099  2.7026  0.9004
 4453SOL     OW24991   1.272   2.670   2.952 -0.4648 -0.5701 -0.6316
 4453SOL    HW124992   1.229   2.587   2.929  0.4474 -1.3616  0.5373
 4453SOL    HW224993   1.290   2.651   3.044 -0.6650  1.4184 -0.1968
 4454SOL     OW24994   1.877   2.897   8.188  0.0429 -0.0949 -0.2936
 4454SOL    HW124995   1.854   2.866   8.100 -1.4039  1.5476 -0.4975
 4454SOL    HW224996   1.911   2.821   8.235 -0.4886  0.0548  0.3211
 4455SOL     OW24997   3.693   0.576   6.107 -0.0285  0.5836  0.1459
 4455SOL    HW124998   3.660   0.487   6.117 -1.3944  0.7810 -2.4983
 4455SOL    HW224999   3.683   0.586   6.012 -4.2206  0.1163  0.5572
 4456SOL     OW25000   4.151   0.832  13.181  0.6739  0.0865 -0.1597
 4456SOL    HW125001   4.244   0.851  13.177  0.5138  0.9033 -0.0617
 4456SOL    HW225002   4.149   0.753  13.127  1.9888  0.9087 -1.3810
 4457SOL     OW25003   4.141   2.988   1.480 -0.0233 -0.1258  0.9662
 4457SOL    HW125004   4.053   2.952   1.476 -0.1864  0.4917 -1.2990
 4457SOL    HW225005   4.150   2.998   1.385  0.4154  2.0385  1.2344
 4458SOL     OW25006   1.727   4.606  12.442 -0.0855 -0.1640  0.1993
 4458SOL    HW125007   1.662   4.577  12.506  0.0469  0.3196  0.5465
 4458SOL    HW225008   1.755   4.691  12.474 -1.6607  0.4720 -0.1307
 4459SOL     OW25009   1.778   1.600   1.748  0.7520 -0.0031 -0.6333
 4459SOL    HW125010   1.741   1.565   1.667  3.5345  1.4749 -2.5060
 4459SOL    HW225011   1.728   1.545   1.809  1.1888  0.1797 -0.1086
 4460SOL     OW25012   3.748   0.362  16.693 -0.2167 -0.1367  0.5395
 4460SOL    HW125013   3.719   0.426  16.758 -1.2486  0.3143 -0.3766
 4460SOL    HW225014   3.704   0.278  16.706 -0.8972 -0.1045 -1.5706
 4461SOL     OW25015   0.844   3.561   7.138 -0.3840  0.0883 -0.8153
 4461SOL    HW125016   0.802   3.568   7.053  2.3272 -1.8129 -2.2834
 4461SOL    HW225017   0.837   3.468   7.158 -1.0188  0.2718 -0.1763
 4462SOL     OW25018   3.380   3.218   9.714  0.1012  0.0176  0.3517
 4462SOL    HW125019   3.383   3.281   9.786 -1.4438  0.6463 -0.1273
 4462SOL    HW225020   3.374   3.136   9.762 -0.2150  1.1071  2.1933
 4463SOL     OW25021   3.759   4.371   2.604 -0.0748 -0.4830  0.1102
 4463SOL    HW125022   3.824   4.420   2.654  0.4374  0.2145 -1.2405
 4463SOL    HW225023   3.717   4.443   2.556 -0.7761  0.2391  1.7848
 4464SOL     OW25024   4.516   4.535   7.308 -0.1950  0.1564 -0.2655
 4464SOL    HW125025   4.522   4.609   7.248  1.5504  0.2415  0.0277
 4464SOL    HW225026   4.424   4.509   7.297  0.2873 -2.3021  1.4904
 4465SOL     OW25027   4.348   4.620  11.166  0.3655  0.2763  0.0685
 4465SOL    HW125028   4.306   4.660  11.242  2.8913  0.6629  1.2365
 4465SOL    HW225029   4.295   4.540  11.171  1.6813 -0.5239  0.9725
 4466SOL     OW25030   0.611   0.499  16.431  0.4002 -0.5242 -0.6553
 4466SOL    HW125031   0.673   0.560  16.391  1.6402 -1.3169  0.0337
 4466SOL    HW225032   0.605   0.543  16.516 -2.1193 -3.1847  0.5696
 4467SOL     OW25033   3.765   1.789   7.963  0.0347  0.5108 -0.3696
 4467SOL    HW125034   3.675   1.789   7.997 -0.0840  1.0645 -0.6796
 4467SOL    HW225035   3.762   1.720   7.896 -1.3211 -0.0581  0.2708
 4468SOL     OW25036   1.871   1.828   3.641  0.4274 -0.6998  0.1564
 4468SOL    HW125037   1.891   1.841   3.548  0.3017 -0.3810  0.1729
 4468SOL    HW225038   1.807   1.899   3.649 -0.7286 -1.6900 -0.3473
 4469SOL     OW25039   1.604   2.550   3.040  0.2114  0.5499 -0.4435
 4469SOL    HW125040   1.583   2.526   3.130  1.5450  0.2496 -0.2081
 4469SOL    HW225041   1.552   2.489   2.988 -1.3784  1.5057  0.0428
 4470SOL     OW25042   0.768   2.597   0.033  0.0971 -0.3323  0.1826
 4470SOL    HW125043   0.751   2.552   0.116  0.3447  0.5701  0.7242
 4470SOL    HW225044   0.756   2.520  17.725 -0.9574 -0.5868  0.7552
 4471SOL     OW25045   0.880   2.882   4.266 -0.0359  0.0059  0.0353
 4471SOL    HW125046   0.877   2.963   4.317  1.8390 -0.3215  0.6589
 4471SOL    HW225047   0.789   2.871   4.240 -0.1054 -1.2126  0.7850
 4472SOL     OW25048   4.182   0.569   3.367 -0.2678  0.3981 -0.0915
 4472SOL    HW125049   4.091   0.598   3.366 -0.8496 -1.2318  3.5750
 4472SOL    HW225050   4.180   0.504   3.297 -0.2569 -0.4609  0.7024
 4473SOL     OW25051   2.891   4.315   3.871  0.2233  0.5793 -0.1050
 4473SOL    HW125052   2.898   4.288   3.780 -1.5563 -1.3693  0.3278
 4473SOL    HW225053   2.799   4.294   3.884  1.0681 -1.0657  3.3399
 4474SOL     OW25054   2.668   2.359  10.826  0.2981 -0.3471 -0.3336
 4474SOL    HW125055   2.760   2.346  10.803  0.6899  0.5535  0.7190
 4474SOL    HW225056   2.637   2.347  10.736  1.7323  0.4691 -0.9430
 4475SOL     OW25057   3.168   2.703   4.008  0.1696  0.4692 -0.0463
 4475SOL    HW125058   3.118   2.762   3.950  0.4366 -1.4559 -2.2545
 4475SOL    HW225059   3.106   2.636   4.037 -1.5248  2.3763  0.7883
 4476SOL     OW25060   2.205   4.112   7.594  0.7711 -0.2434  0.8387
 4476SOL    HW125061   2.256   4.162   7.658 -0.1634 -0.3779  1.6920
 4476SOL    HW225062   2.213   4.025   7.633  0.6680 -1.1688 -1.2298
 4477SOL     OW25063   4.277   4.138   1.423 -0.2410 -0.3076  0.3337
 4477SOL    HW125064   4.291   4.224   1.462  0.8842  0.6327 -2.1629
 4477SOL    HW225065   4.195   4.126   1.471 -1.1335  0.2264 -1.0584
 4478SOL     OW25066   1.323   0.810   5.438 -0.2187 -0.3347  0.2253
 4478SOL    HW125067   1.380   0.853   5.374  0.1028  0.7467  1.2218
 4478SOL    HW225068   1.385   0.804   5.511  0.0987  1.3492  0.1079
 4479SOL     OW25069   1.330   0.436   7.854  0.8646 -0.5141  0.4804
 4479SOL    HW125070   1.348   0.440   7.760  1.0117  0.5508  0.5575
 4479SOL    HW225071   1.361   0.346   7.871 -1.4003 -1.6000 -1.1505
 4480SOL     OW25072   2.194   3.760  15.757  0.4924 -0.0948  0.4082
 4480SOL    HW125073   2.273   3.813  15.747 -0.5530  1.4520  0.4112
 4480SOL    HW225074   2.164   3.803  15.837 -2.6073 -0.6817 -0.4427
 4481SOL     OW25075   3.898   1.008   6.746 -0.1143 -0.4528  0.4397
 4481SOL    HW125076   3.962   0.986   6.814  1.3004 -0.1594 -0.7955
 4481SOL    HW225077   3.860   0.922   6.725  0.5834 -0.7820  0.5218
 4482SOL     OW25078   0.574   2.378   5.300 -0.5317  0.2118 -0.7608
 4482SOL    HW125079   0.663   2.360   5.271 -1.1249 -1.0467 -1.7908
 4482SOL    HW225080   0.539   2.295   5.267 -0.1713 -0.4035  0.3966
 4483SOL     OW25081   2.705   3.916   4.658 -0.3839 -0.8738 -0.2216
 4483SOL    HW125082   2.693   3.823   4.638  1.1583 -1.1851  0.3073
 4483SOL    HW225083   2.731   3.897   4.748  2.6860  1.0560 -0.6969
 4484SOL     OW25084   0.322   2.524   8.537 -0.7553 -0.1725  0.3404
 4484SOL    HW125085   0.255   2.456   8.525 -3.0337  2.0958  0.4013
 4484SOL    HW225086   0.284   2.579   8.606 -0.3583 -1.6178  1.7394
 4485SOL     OW25087   3.029   1.905   7.306  0.6606  0.4133  0.4611
 4485SOL    HW125088   2.969   1.874   7.373  0.9052 -0.8286  0.0929
 4485SOL    HW225089   3.065   1.984   7.346  1.2589 -0.1677  1.0486
 4486SOL     OW25090   1.921   1.346   4.034 -0.2301  0.3226  0.1812
 4486SOL    HW125091   1.856   1.312   3.973 -1.6030 -0.3201  2.0135
 4486SOL    HW225092   1.963   1.413   3.980  0.1264  0.6925  0.9254
 4487SOL     OW25093   0.699   4.320   2.155 -0.1809 -0.4638  0.1195
 4487SOL    HW125094   0.639   4.289   2.087 -1.2128  0.6981  0.5012
 4487SOL    HW225095   0.662   4.407   2.167 -0.3594 -0.8179  2.1140
 4488SOL     OW25096   1.503   0.299   3.570 -1.1081  0.0115  0.4383
 4488SOL    HW125097   1.532   0.243   3.498  0.7961  0.4708  0.8369
 4488SOL    HW225098   1.474   0.373   3.517 -4.3506  0.4959  2.8792
 4489SOL     OW25099   1.458   3.876   7.098  0.4263 -0.4472 -0.3601
 4489SOL    HW125100   1.491   3.909   7.181  2.0653 -1.4562 -0.6090
 4489SOL    HW225101   1.529   3.914   7.046  1.5425 -0.3037  1.2568
 4490SOL     OW25102   3.629   4.622  15.672  0.2209 -0.1168 -0.2181
 4490SOL    HW125103   3.689   4.573  15.728  1.6288  0.9424 -0.8084
 4490SOL    HW225104   3.555   4.563  15.685 -0.0580 -0.0678 -1.5866
 4491SOL     OW25105   4.513   0.359   7.594  0.1772 -0.3003 -0.2194
 4491SOL    HW125106   4.546   0.272   7.616 -1.3951 -0.4827  1.4118
 4491SOL    HW225107   4.552   0.421   7.655 -2.3984  0.9815  0.1635
 4492SOL     OW25108   0.276   3.928   3.232  0.0051  0.4892 -0.4480
 4492SOL    HW125109   0.351   3.978   3.264 -0.5221  0.6158  0.5866
 4492SOL    HW225110   0.316   3.876   3.162  1.0734  1.2576 -0.4030
 4493SOL     OW25111   0.547   4.350  13.555  0.5717  0.0533  0.5998
 4493SOL    HW125112   0.566   4.256  13.557  2.4815  0.5103  2.9983
 4493SOL    HW225113   0.555   4.378  13.646 -1.5985 -0.0492  0.8245
 4494SOL     OW25114   3.490   0.408   6.459  0.0814  0.2925 -0.4791
 4494SOL    HW125115   3.469   0.361   6.539  1.2990  1.7728  0.7199
 4494SOL    HW225116   3.410   0.407   6.407 -1.5028 -1.0820  2.0295
 4495SOL     OW25117   2.346   2.709   8.701  0.4835  0.6262 -0.3259
 4495SOL    HW125118   2.323   2.742   8.788 -0.9677  0.4502 -0.6456
 4495SOL    HW225119   2.428   2.665   8.721  0.6265  0.4533 -1.2922
 4496SOL     OW25120   0.704   4.646   2.002 -0.0608  0.5056 -0.0155
 4496SOL    HW125121   0.628   4.592   2.026  0.0243  1.2298  1.9416
 4496SOL    HW225122   0.666   4.725   2.041 -0.5115  1.2333 -1.9254
 4497SOL     OW25123   3.072   2.684   9.985 -0.0662 -0.3176  0.3838
 4497SOL    HW125124   3.027   2.749  10.040 -3.5545 -4.3819  2.2546
 4497SOL    HW225125   3.045   2.701   9.895 -1.1776  2.7282  1.2947
 4498SOL     OW25126   2.613   0.642   5.660 -0.5436 -0.0534 -0.6033
 4498SOL    HW125127   2.608   0.600   5.575  1.1801 -0.3175 -0.5668
 4498SOL    HW225128   2.546   0.597   5.712 -0.5737  0.4366 -0.2208
 4499SOL     OW25129   2.195   0.991  15.808 -0.1904 -0.2948  0.2822
 4499SOL    HW125130   2.206   1.066  15.866 -1.9183  0.6142 -0.5837
 4499SOL    HW225131   2.101   0.978  15.810 -0.1480 -0.7330 -1.1642
 4500SOL     OW25132   4.444   4.344   3.498  0.0560  0.4275 -0.4481
 4500SOL    HW125133   4.420   4.433   3.472  0.8725  0.6290 -0.5016
 4500SOL    HW225134   4.490   4.315   3.419 -1.2531 -0.9707 -0.7015
 4501SOL     OW25135   4.016   4.648   8.376 -0.2206  0.0024  0.1871
 4501SOL    HW125136   3.985   4.736   8.397 -0.7531 -0.8386  2.9434
 4501SOL    HW225137   4.090   4.657   8.436  0.4221  1.3826 -0.8190
 4502SOL     OW25138   0.274   1.782   2.052  0.2327 -0.0788  0.1373
 4502SOL    HW125139   0.316   1.762   2.136  2.8181 -0.3044 -1.2002
 4502SOL    HW225140   0.261   1.876   2.062 -1.2146 -0.3298  0.6452
 4503SOL     OW25141   3.473   2.616   8.119 -0.5363 -0.4951 -0.3874
 4503SOL    HW125142   3.435   2.704   8.123 -1.2740 -0.9315  2.7051
 4503SOL    HW225143   3.452   2.580   8.033  2.5716  3.6629 -2.9253
 4504SOL     OW25144   3.324   0.680   0.147 -0.4920 -0.0020 -0.1406
 4504SOL    HW125145   3.287   0.605   0.100 -0.3786 -0.1837  0.0603
 4504SOL    HW225146   3.285   0.762   0.117 -2.0871 -0.6774  0.0819
 4505SOL     OW25147   2.824   4.573   8.157 -0.2029 -0.1681  0.5696
 4505SOL    HW125148   2.733   4.576   8.187 -0.9178  0.6617 -1.7059
 4505SOL    HW225149   2.862   4.497   8.201 -2.1064  0.1571  2.7715
 4506SOL     OW25150   0.682   0.534   7.709  0.1087 -0.0810  0.5021
 4506SOL    HW125151   0.680   0.585   7.790  0.9425 -0.1843  0.5863
 4506SOL    HW225152   0.773   0.507   7.708 -0.2677 -1.3077 -1.1672
 4507SOL     OW25153   3.737   2.233   1.783 -0.3591  0.4872  0.8560
 4507SOL    HW125154   3.757   2.204   1.872 -1.8449  0.1506  1.0850
 4507SOL    HW225155   3.670   2.166   1.765  1.0583 -0.5069 -0.7412
 4508SOL     OW25156   1.247   3.651   9.252 -0.0309 -0.3839 -0.1936
 4508SOL    HW125157   1.339   3.675   9.249 -0.1519  0.0807 -0.2201
 4508SOL    HW225158   1.206   3.732   9.280  1.9516  0.1231  1.1961
 4509SOL     OW25159   2.580   4.576   7.816  0.0443 -0.2602  0.0018
 4509SOL    HW125160   2.550   4.667   7.817  1.1330  0.0512  3.4837
 4509SOL    HW225161   2.674   4.589   7.819 -0.1307  0.9686  0.1342
 4510SOL     OW25162   3.438   0.714   9.288  0.1011 -0.1998  0.2212
 4510SOL    HW125163   3.442   0.798   9.335 -1.3287  0.0528 -0.1085
 4510SOL    HW225164   3.532   0.711   9.272  0.1957  3.1331  0.0332
 4511SOL     OW25165   3.859   0.759   8.837  0.6912 -0.5425 -0.4721
 4511SOL    HW125166   3.786   0.714   8.878 -1.1134  3.0609  0.2457
 4511SOL    HW225167   3.912   0.780   8.915 -1.0602  1.0309  0.2807
 4512SOL     OW25168   2.733   2.513   1.485 -0.1155 -0.4185 -0.0420
 4512SOL    HW125169   2.804   2.486   1.542 -0.1285 -0.2232  0.0684
 4512SOL    HW225170   2.657   2.469   1.522  1.4336 -1.4709  1.8510
 4513SOL     OW25171   0.286   0.681   9.254  0.4697  0.4402  0.4660
 4513SOL    HW125172   0.203   0.636   9.266  0.4696 -0.1204 -1.6713
 4513SOL    HW225173   0.279   0.748   9.323  3.1532  1.7001 -0.4575
 4514SOL     OW25174   0.543   1.105   5.976 -0.1684  0.1926 -1.0049
 4514SOL    HW125175   0.542   1.201   5.983 -2.5873  0.1592 -0.8047
 4514SOL    HW225176   0.580   1.089   5.890 -0.0832  1.7081 -1.2497
 4515SOL     OW25177   1.905   1.129   8.393 -0.1834 -0.2984  0.1336
 4515SOL    HW125178   1.878   1.040   8.414  0.0610 -0.5839 -0.7492
 4515SOL    HW225179   1.824   1.180   8.394  0.3543  0.5715 -0.1039
 4516SOL     OW25180   3.075   4.731  13.122 -0.0479 -0.3536 -0.0340
 4516SOL    HW125181   3.147   0.024  13.066  1.4830 -0.2519  1.9967
 4516SOL    HW225182   3.006   4.711  13.059 -1.8870  1.6982  1.2897
 4517SOL     OW25183   0.519   0.195   9.029 -0.0780 -0.1292 -0.3834
 4517SOL    HW125184   0.566   0.223   9.108 -1.6820 -0.0499  0.5379
 4517SOL    HW225185   0.516   0.101   9.047 -0.4276 -0.0902 -0.2358
 4518SOL     OW25186   4.100   0.587   2.458  0.1443  0.3401 -0.0789
 4518SOL    HW125187   4.139   0.557   2.540  0.0758  1.5825  0.4044
 4518SOL    HW225188   4.066   0.670   2.490 -0.2504 -0.2936  1.1452
 4519SOL     OW25189   2.769   0.297   0.417  0.0766  0.3948  0.3763
 4519SOL    HW125190   2.751   0.331   0.329 -1.0807 -0.6179  0.2153
 4519SOL    HW225191   2.722   0.214   0.407 -1.2552  1.2028 -0.2145
 4520SOL     OW25192   3.801   4.162   3.943  0.4472  0.4959 -0.1851
 4520SOL    HW125193   3.746   4.088   3.918 -1.4009  3.1118 -3.9039
 4520SOL    HW225194   3.882   4.152   3.893 -0.5284 -1.9514 -1.2693
 4521SOL     OW25195   2.296   3.909   7.781 -0.4034 -0.0926 -0.1203
 4521SOL    HW125196   2.367   3.889   7.721 -1.7267 -1.2877 -1.2848
 4521SOL    HW225197   2.326   3.994   7.814 -0.4474 -0.0174 -0.2764
 4522SOL     OW25198   0.941   1.588  16.778  0.1088  0.5150  0.0642
 4522SOL    HW125199   0.918   1.606  16.686  2.2553  2.1716 -0.1448
 4522SOL    HW225200   1.014   1.527  16.765 -0.3538 -0.0367  0.0596
 4523SOL     OW25201   0.625   1.715   8.870 -0.2861  0.3709 -0.1745
 4523SOL    HW125202   0.565   1.646   8.897  0.7979 -1.0439 -1.3399
 4523SOL    HW225203   0.562   1.786   8.868 -0.4194  0.2320 -0.9066
 4524SOL     OW25204   1.888   1.074   8.051 -0.1481  0.0957 -0.3986
 4524SOL    HW125205   1.974   1.085   8.092 -0.9946 -2.0475  1.8803
 4524SOL    HW225206   1.925   1.090   7.964 -1.1708  4.2157 -0.0949
 4525SOL     OW25207   4.106   0.358   7.998  0.4295  0.2281  0.5837
 4525SOL    HW125208   4.083   0.412   8.073  0.9953  1.3681 -0.0441
 4525SOL    HW225209   4.125   0.273   8.036 -0.6092 -1.1342 -1.9504
 4526SOL     OW25210   1.640   1.703   7.281  0.2280 -0.1132  0.1505
 4526SOL    HW125211   1.730   1.702   7.314 -0.0403 -0.3487  0.8687
 4526SOL    HW225212   1.661   1.753   7.202  0.0816 -2.2090 -1.2435
 4527SOL     OW25213   4.151   2.938   2.666 -0.1133  0.2579 -0.0683
 4527SOL    HW125214   4.210   3.013   2.674  0.4004 -0.2991  1.3129
 4527SOL    HW225215   4.091   2.978   2.603 -2.8206  0.2021  2.4454
 4528SOL     OW25216   2.632   1.763   4.497  0.3288  0.0499 -0.2328
 4528SOL    HW125217   2.677   1.812   4.567 -0.8607 -1.0202  1.2712
 4528SOL    HW225218   2.704   1.771   4.434 -0.1109  1.5214 -0.5486
 4529SOL     OW25219   2.587   2.138  13.687  0.1098 -0.5451  0.8845
 4529SOL    HW125220   2.597   2.067  13.623  2.8824 -0.3224  1.0791
 4529SOL    HW225221   2.527   2.197  13.641 -1.7674 -1.7393  1.7834
 4530SOL     OW25222   1.066   2.619   2.644 -0.1924 -0.2917 -0.3988
 4530SOL    HW125223   0.986   2.569   2.658 -0.2213 -0.3425 -0.7579
 4530SOL    HW225224   1.112   2.554   2.592  0.1782  1.0980 -1.8036
 4531SOL     OW25225   0.635   1.343   6.362 -0.5452  0.0761  0.5690
 4531SOL    HW125226   0.670   1.426   6.392 -1.9500  0.8664  0.0624
 4531SOL    HW225227   0.543   1.367   6.375 -0.9357 -1.7467  1.1475
 4532SOL     OW25228   4.353   2.672   7.169  0.5214  0.8522 -0.2634
 4532SOL    HW125229   4.326   2.759   7.140  1.8554  0.4167 -2.8449
 4532SOL    HW225230   4.379   2.638   7.083 -1.4007 -0.0401 -0.4876
 4533SOL     OW25231   0.142   0.846   8.909  0.9422 -0.1119 -0.7462
 4533SOL    HW125232   0.186   0.920   8.867  0.6614  0.7709  0.4892
 4533SOL    HW225233   0.096   0.819   8.831 -2.1439 -0.5442  1.2221
 4534SOL     OW25234   3.990   3.281   9.857 -0.3589  0.0676 -0.9450
 4534SOL    HW125235   4.003   3.254   9.948  0.1474 -1.0350 -1.3443
 4534SOL    HW225236   3.996   3.201   9.804 -1.2731  0.0804 -1.0640
 4535SOL     OW25237   0.290   2.276  17.163 -0.2933 -0.0082 -0.2363
 4535SOL    HW125238   0.242   2.280  17.080  0.8350  1.1022 -0.8324
 4535SOL    HW225239   0.267   2.363  17.196  1.5416 -0.0513  1.1631
 4536SOL     OW25240   0.428   3.803   3.608 -0.0520 -0.1593 -0.2007
 4536SOL    HW125241   0.449   3.889   3.572  0.5565 -1.0888 -2.0765
 4536SOL    HW225242   0.362   3.768   3.547 -1.1167 -0.3466  1.0633
 4537SOL     OW25243   0.095   0.389   5.327 -0.9535 -0.0127 -0.2204
 4537SOL    HW125244   0.154   0.390   5.402 -2.8819 -1.0254  1.3085
 4537SOL    HW225245   0.062   0.300   5.316 -1.5697 -0.1862  3.0046
 4538SOL     OW25246   0.747   4.537   5.874 -0.1100 -0.6207 -0.4395
 4538SOL    HW125247   0.675   4.582   5.918  1.2921 -1.2072  2.4673
 4538SOL    HW225248   0.750   4.574   5.786  0.0713  2.2975  0.7829
 4539SOL     OW25249   3.074   0.631   3.317  0.5374 -0.0761 -0.2552
 4539SOL    HW125250   3.169   0.631   3.327  0.3818 -1.1134  1.2532
 4539SOL    HW225251   3.078   0.580   3.237 -2.0172  0.8797 -1.0057
 4540SOL     OW25252   1.393   4.562   7.970  0.5709  0.2706  0.2980
 4540SOL    HW125253   1.338   4.627   8.014  1.0296  0.5591  0.4529
 4540SOL    HW225254   1.329   4.494   7.948  0.6412 -0.2179  1.5982
 4541SOL     OW25255   0.830   4.006   6.692 -0.2036 -0.4439 -0.3118
 4541SOL    HW125256   0.879   4.085   6.717 -2.2151  0.7319 -0.1342
 4541SOL    HW225257   0.755   4.047   6.650  0.0671  0.3673 -0.0048
 4542SOL     OW25258   4.344   3.916   1.187  0.1306  0.5544  0.0251
 4542SOL    HW125259   4.255   3.946   1.205  0.8917  0.9731  3.0182
 4542SOL    HW225260   4.318   3.870   1.107 -0.0961  2.3038 -0.9002
 4543SOL     OW25261   2.834   3.269   7.784  0.3656 -0.4328  0.2683
 4543SOL    HW125262   2.749   3.225   7.782  0.4585 -0.5829 -0.2730
 4543SOL    HW225263   2.818   3.333   7.714  0.1721  1.4931  2.0793
 4544SOL     OW25264   0.484   4.720   6.369  0.4451 -0.1416  0.7214
 4544SOL    HW125265   0.519   0.067   6.341 -0.1670 -0.2323 -0.3488
 4544SOL    HW225266   0.389   4.734   6.377  0.2891 -1.8023  1.7858
 4545SOL     OW25267   0.758   2.278  12.605 -0.0506 -0.3588  0.1371
 4545SOL    HW125268   0.802   2.243  12.528  1.1349  0.4325  0.4670
 4545SOL    HW225269   0.705   2.202  12.630 -3.6605  2.4596  1.0369
 4546SOL     OW25270   0.580   4.343   7.027 -0.0254  0.0317  0.2827
 4546SOL    HW125271   0.657   4.287   7.021  0.4935  0.6657  1.0160
 4546SOL    HW225272   0.523   4.298   7.088 -0.9542 -3.0112 -2.8348
 4547SOL     OW25273   0.810   4.086   8.311  0.0728 -0.7352 -0.1872
 4547SOL    HW125274   0.860   4.018   8.357  2.3529  0.4568 -0.9130
 4547SOL    HW225275   0.838   4.063   8.222 -0.8325  2.5662 -1.3357
 4548SOL     OW25276   0.525   2.816  13.124 -0.2143  1.0800 -0.1439
 4548SOL    HW125277   0.457   2.752  13.145  3.3874 -2.2651  1.4844
 4548SOL    HW225278   0.595   2.753  13.106 -0.8577  0.5097 -0.6503
 4549SOL     OW25279   4.713   4.146   2.248 -0.1342  0.4369 -0.6913
 4549SOL    HW125280   0.044   4.135   2.314 -0.8590 -0.9282 -0.1717
 4549SOL    HW225281   4.653   4.205   2.294  0.9956  0.7435  0.3846
 4550SOL     OW25282   3.768   3.721   7.056 -0.2473 -0.7288  0.2248
 4550SOL    HW125283   3.806   3.767   7.131 -1.7456 -0.2605  0.6827
 4550SOL    HW225284   3.683   3.763   7.062 -0.0375 -0.5695  2.0243
 4551SOL     OW25285   0.784   3.514  10.716 -0.3182  0.2613 -0.2267
 4551SOL    HW125286   0.795   3.471  10.801 -1.4759  2.2176  0.9069
 4551SOL    HW225287   0.699   3.556  10.730  0.2970  1.2222  0.6265
 4552SOL     OW25288   2.928   1.033   4.258  0.3168 -0.0163  0.1042
 4552SOL    HW125289   2.990   1.096   4.295  0.1022  0.9682 -1.2064
 4552SOL    HW225290   2.893   1.009   4.344 -0.8661  0.5009 -0.2281
 4553SOL     OW25291   2.771   0.813   7.554 -0.6677  0.2796  0.4684
 4553SOL    HW125292   2.834   0.884   7.566  0.2039 -0.3731 -0.2630
 4553SOL    HW225293   2.757   0.817   7.459 -1.5998  1.4111  0.6475
 4554SOL     OW25294   2.944   0.212  12.475  0.3946  0.2176  0.5046
 4554SOL    HW125295   2.910   0.222  12.387 -0.0610  0.1610  0.6751
 4554SOL    HW225296   2.879   0.237  12.540  0.4322  1.0022  0.2338
 4555SOL     OW25297   4.558   2.947   7.288  0.3738  0.1983  0.0655
 4555SOL    HW125298   4.485   2.935   7.227 -0.1727 -1.4817  1.0758
 4555SOL    HW225299   4.517   2.996   7.359 -0.8472  1.2552 -1.3607
 4556SOL     OW25300   3.672   2.071   8.741  0.1905  0.0442 -0.5223
 4556SOL    HW125301   3.722   2.040   8.816  2.7945 -0.0430 -2.3160
 4556SOL    HW225302   3.671   2.166   8.755  0.0400 -0.2122  1.1938
 4557SOL     OW25303   1.425   3.758   7.778  0.4055 -0.0684 -0.0115
 4557SOL    HW125304   1.415   3.791   7.868  0.4584 -1.0040  0.3357
 4557SOL    HW225305   1.386   3.836   7.737 -0.1576 -0.6762 -0.6146
 4558SOL     OW25306   0.208   1.817   9.035  0.4015  0.3372  0.6117
 4558SOL    HW125307   0.153   1.869   9.093  1.6470  1.1357  1.0678
 4558SOL    HW225308   0.137   1.798   8.973  1.8627 -1.3573 -0.5598
 4559SOL     OW25309   4.589   2.335   4.888  0.8120  0.6491 -0.1961
 4559SOL    HW125310   4.502   2.372   4.876  0.6346 -0.8189 -3.4379
 4559SOL    HW225311   4.626   2.407   4.940 -2.5878  1.6958  0.7374
 4560SOL     OW25312   4.295   0.451   2.282  0.0209 -0.2662  0.3512
 4560SOL    HW125313   4.344   0.378   2.322 -0.3514 -0.7091  0.0000
 4560SOL    HW225314   4.251   0.499   2.352  2.2472  2.2587  0.0275
 4561SOL     OW25315   3.189   0.551   2.391  0.2094 -0.5967 -0.2615
 4561SOL    HW125316   3.103   0.539   2.350 -0.0194  0.3792 -0.0753
 4561SOL    HW225317   3.248   0.545   2.316 -0.6132 -1.0330 -0.8724
 4562SOL     OW25318   1.780   3.135   1.232 -0.5785 -0.0761 -0.0435
 4562SOL    HW125319   1.847   3.135   1.163  0.0399 -0.6052  0.5538
 4562SOL    HW225320   1.769   3.041   1.248  0.0679 -0.0372  0.6316
 4563SOL     OW25321   4.472   2.050  14.239 -0.8277 -0.2427 -0.4170
 4563SOL    HW125322   4.430   2.105  14.173 -1.7197 -0.3490  0.0557
 4563SOL    HW225323   4.557   2.051  14.196 -1.4102  1.2464 -1.5274
 4564SOL     OW25324   3.453   2.221   8.954 -0.0712  0.7579 -0.5923
 4564SOL    HW125325   3.471   2.263   8.870  1.4620  0.6671 -0.3001
 4564SOL    HW225326   3.539   2.238   8.991  0.4922  0.2902 -1.6742
 4565SOL     OW25327   3.444   0.654   5.788 -0.2185  0.0289 -0.9158
 4565SOL    HW125328   3.540   0.654   5.779 -0.1019  0.7686  0.3074
 4565SOL    HW225329   3.409   0.698   5.711  2.1143  0.3469 -1.7999
 4566SOL     OW25330   4.496   3.652   8.534 -0.1839  0.1848 -0.7024
 4566SOL    HW125331   4.586   3.620   8.548 -0.3939  0.7074  1.8714
 4566SOL    HW225332   4.473   3.680   8.623  0.9397 -1.1016  0.0084
 4567SOL     OW25333   2.964   2.577   2.825 -0.0443 -0.6845 -0.0139
 4567SOL    HW125334   2.881   2.624   2.828  0.4205  0.1128  0.5734
 4567SOL    HW225335   3.003   2.624   2.751 -0.4718 -3.0592 -1.7237
 4568SOL     OW25336   1.021   3.177   2.061 -0.2464 -0.1950  0.3320
 4568SOL    HW125337   1.114   3.198   2.065 -0.0897 -0.9164  0.4830
 4568SOL    HW225338   0.975   3.252   2.024 -1.2548 -1.3352 -0.7434
 4569SOL     OW25339   4.371   4.404   5.706 -0.3512 -0.0640 -0.3064
 4569SOL    HW125340   4.444   4.448   5.661  0.3078 -1.7287 -0.8859
 4569SOL    HW225341   4.415   4.379   5.787  1.6353  1.8649 -0.7969
 4570SOL     OW25342   0.619   3.381   8.511 -0.5842  0.1173 -0.4831
 4570SOL    HW125343   0.563   3.336   8.574 -1.7193  2.8133  0.4378
 4570SOL    HW225344   0.592   3.472   8.523 -0.3078  0.0776  0.4382
 4571SOL     OW25345   1.458   1.162   0.033 -0.1582  0.1733 -0.5962
 4571SOL    HW125346   1.386   1.117   0.076  1.5109 -0.3752  1.6188
 4571SOL    HW225347   1.426   1.252   0.042 -1.6226 -0.2745 -1.3494
 4572SOL     OW25348   4.328   3.563   5.488  0.4321  0.4679 -0.9198
 4572SOL    HW125349   4.252   3.509   5.467  0.9295 -0.6113  0.0044
 4572SOL    HW225350   4.406   3.517   5.456 -0.2764 -0.9977 -0.5471
 4573SOL     OW25351   2.663   0.276   0.669  0.3296 -0.3762 -0.0454
 4573SOL    HW125352   2.718   0.304   0.596  0.4524  2.2139  1.0223
 4573SOL    HW225353   2.703   0.321   0.743  0.3478 -2.5599  1.2657
 4574SOL     OW25354   2.732   4.479  10.290 -0.4471 -0.7195  0.3831
 4574SOL    HW125355   2.684   4.557  10.320 -1.0126 -0.2254 -1.7953
 4574SOL    HW225356   2.666   4.411  10.275  0.7159 -2.1309  1.7113
 4575SOL     OW25357   3.598   2.667   9.797 -0.2998  0.0397 -0.1998
 4575SOL    HW125358   3.662   2.647   9.866  0.6706  1.1551 -0.7800
 4575SOL    HW225359   3.520   2.669   9.853 -0.3687 -1.6018 -0.2585
 4576SOL     OW25360   1.758   2.112  11.312  0.0743 -0.0805  0.1518
 4576SOL    HW125361   1.703   2.050  11.360 -1.7848 -0.3650 -2.3360
 4576SOL    HW225362   1.699   2.187  11.303 -1.3594 -1.2772 -0.4716
 4577SOL     OW25363   1.802   3.431   6.851  0.2717  0.2103 -0.4828
 4577SOL    HW125364   1.713   3.415   6.883  1.0788  0.3836  1.8535
 4577SOL    HW225365   1.771   3.469   6.769  1.0940 -0.0296 -0.9091
 4578SOL     OW25366   4.681   0.452   4.497 -0.3139  0.3782  0.7491
 4578SOL    HW125367   0.005   0.525   4.486  1.1671 -1.1244 -1.1372
 4578SOL    HW225368   4.719   0.409   4.574  1.3746  0.6701  0.0835
 4579SOL     OW25369   1.296   3.478   5.196 -0.0103  0.1017 -0.0784
 4579SOL    HW125370   1.234   3.417   5.236  0.5387 -0.6481 -0.3687
 4579SOL    HW225371   1.325   3.415   5.131  0.2413  1.1694 -0.9911
 4580SOL     OW25372   1.087   2.432   4.508  0.7455  0.1552  0.5283
 4580SOL    HW125373   1.101   2.456   4.416 -0.1155 -1.4718 -0.0202
 4580SOL    HW225374   1.153   2.365   4.523  0.2079 -0.4466  0.2174
 4581SOL     OW25375   2.054   2.234   3.730 -0.5082  0.2943 -0.5580
 4581SOL    HW125376   2.023   2.179   3.801  0.3587 -0.7895 -1.0254
 4581SOL    HW225377   2.054   2.167   3.662 -0.8193 -0.7191  0.4509
 4582SOL     OW25378   0.336   2.538   5.293 -0.3535 -0.1061 -0.8760
 4582SOL    HW125379   0.340   2.595   5.370  0.2675  0.9505 -1.6844
 4582SOL    HW225380   0.420   2.494   5.304 -0.2242  0.4732  0.5656
 4583SOL     OW25381   0.723   2.618   5.960  0.3668 -0.3619 -0.1092
 4583SOL    HW125382   0.724   2.702   5.915  1.7672 -0.6134 -0.5577
 4583SOL    HW225383   0.756   2.653   6.043  0.8453 -1.4517  0.1605
 4584SOL     OW25384   3.208   2.124   6.537 -0.4982 -0.2352  0.0927
 4584SOL    HW125385   3.252   2.184   6.477 -1.3858  1.2797  0.9514
 4584SOL    HW225386   3.244   2.037   6.521 -0.0916  0.2103 -1.3442
 4585SOL     OW25387   0.550   2.247   9.543  0.0229  0.0619  0.1357
 4585SOL    HW125388   0.498   2.232   9.622  1.1455  4.7577  1.7429
 4585SOL    HW225389   0.636   2.253   9.584 -0.4006 -1.9955  1.3229
 4586SOL     OW25390   3.083   3.365   7.111 -0.0525 -0.2812 -0.0543
 4586SOL    HW125391   3.027   3.294   7.143  2.5124 -1.6912  1.2548
 4586SOL    HW225392   3.020   3.421   7.065 -0.2838 -1.0834 -0.7191
 4587SOL     OW25393   2.337   0.138   8.821  0.3338 -0.0031  0.0462
 4587SOL    HW125394   2.406   0.100   8.766  0.8658  2.0405 -0.7064
 4587SOL    HW225395   2.394   0.187   8.881  0.8970  0.5865 -0.9780
 4588SOL     OW25396   4.466   1.887   2.879 -0.2018 -0.3187 -0.1054
 4588SOL    HW125397   4.372   1.894   2.895  0.0029  0.6085  0.7712
 4588SOL    HW225398   4.478   1.796   2.906  3.2267  0.0463 -0.3943
 4589SOL     OW25399   2.359   4.055   2.127 -0.6341 -0.2210 -0.0675
 4589SOL    HW125400   2.371   4.083   2.218 -1.5832 -2.4081  0.7262
 4589SOL    HW225401   2.409   3.974   2.131  0.0035  0.1058 -1.5717
 4590SOL     OW25402   3.536   0.464  16.096 -0.3884  0.2012 -0.2711
 4590SOL    HW125403   3.440   0.474  16.099 -0.3753  0.9083 -2.2231
 4590SOL    HW225404   3.527   0.431  16.006 -1.8916 -1.7779  0.5839
 4591SOL     OW25405   0.811   3.246   2.478  0.1782 -0.3757 -0.2686
 4591SOL    HW125406   0.883   3.210   2.427 -1.1702  1.8804 -3.7696
 4591SOL    HW225407   0.863   3.298   2.540  1.7869 -1.4325 -0.7294
 4592SOL     OW25408   0.824   3.861  14.481  0.0012 -0.1299 -0.1418
 4592SOL    HW125409   0.760   3.859  14.552  1.9174  1.8710  1.6231
 4592SOL    HW225410   0.893   3.917  14.517  0.3156 -0.1014 -0.7806
 4593SOL     OW25411   0.539   0.865   6.794 -0.3085  0.5927 -0.1136
 4593SOL    HW125412   0.628   0.893   6.813  0.5719  0.3698 -3.9383
 4593SOL    HW225413   0.551   0.777   6.757 -2.0860  0.1444  0.3840
 4594SOL     OW25414   2.089   3.743   6.644  0.3388  0.4079  0.3560
 4594SOL    HW125415   2.079   3.837   6.657 -0.5921  0.5303 -1.2441
 4594SOL    HW225416   2.040   3.727   6.564 -1.5262  3.0736  0.9492
 4595SOL     OW25417   1.498   0.891   2.505 -0.2334  0.1053  0.3657
 4595SOL    HW125418   1.504   0.987   2.500 -0.4061  0.0413 -0.9758
 4595SOL    HW225419   1.590   0.863   2.501  0.2345  1.3951  2.0083
 4596SOL     OW25420   4.173   1.789   5.403 -0.6677  0.5758 -0.5298
 4596SOL    HW125421   4.178   1.720   5.468  0.5958  1.7884  0.6675
 4596SOL    HW225422   4.091   1.828   5.432 -0.1212 -0.5270  2.4818
 4597SOL     OW25423   2.059   1.769   2.831  0.0559 -0.1284  0.1800
 4597SOL    HW125424   2.139   1.728   2.798 -0.8583 -1.4257 -0.4503
 4597SOL    HW225425   1.995   1.712   2.788 -0.7499  0.4984  0.5567
 4598SOL     OW25426   2.869   0.919   9.176  0.2706  0.2456 -0.0059
 4598SOL    HW125427   2.902   1.007   9.193 -0.7791  0.6088  0.1396
 4598SOL    HW225428   2.823   0.928   9.092 -1.4406  0.9035  1.0147
 4599SOL     OW25429   3.983   1.504  10.184 -0.3305 -0.2334  0.2087
 4599SOL    HW125430   3.901   1.470  10.148  0.4587 -1.5434 -0.3398
 4599SOL    HW225431   3.976   1.512  10.279 -0.5454 -2.6644  0.4021
 4600SOL     OW25432   1.577   3.594   4.926 -0.3017 -0.1425 -0.0122
 4600SOL    HW125433   1.548   3.610   4.836 -1.1274 -0.6759  0.1589
 4600SOL    HW225434   1.665   3.559   4.907 -0.2305  0.4593 -0.8407
 4601SOL     OW25435   3.190   1.587   5.806  0.1171 -0.0674 -0.3102
 4601SOL    HW125436   3.126   1.529   5.764  0.3692  0.2503 -1.1220
 4601SOL    HW225437   3.273   1.547   5.780 -0.0086 -1.4324  1.3528
 4602SOL     OW25438   3.012   2.011   1.121  0.1323  0.2259 -0.6343
 4602SOL    HW125439   3.044   1.923   1.141  0.9842  1.0859  1.8154
 4602SOL    HW225440   3.079   2.058   1.170 -2.2691 -0.8247  3.7079
 4603SOL     OW25441   3.305   3.674   6.968 -0.4243 -0.3898 -0.2715
 4603SOL    HW125442   3.348   3.758   6.983 -1.7021  0.2048  0.1113
 4603SOL    HW225443   3.366   3.631   6.908  0.0040 -0.2316  0.0524
 4604SOL     OW25444   3.254   3.588   9.266 -0.8873 -0.4078 -0.6906
 4604SOL    HW125445   3.312   3.538   9.208 -0.7569  0.5719 -1.4042
 4604SOL    HW225446   3.171   3.558   9.230 -1.7768 -0.4053  1.3834
 4605SOL     OW25447   3.234   2.414   4.501 -0.4106  0.1272  0.1284
 4605SOL    HW125448   3.144   2.445   4.499  0.2900  1.9457 -2.7425
 4605SOL    HW225449   3.235   2.342   4.564 -0.5997 -1.6220 -1.9054
 4606SOL     OW25450   1.381   4.419  16.406  0.1153 -0.6228  0.1809
 4606SOL    HW125451   1.428   4.502  16.418  1.0772 -0.8177 -2.1667
 4606SOL    HW225452   1.294   4.437  16.442  0.1643  0.8963 -0.4680
 4607SOL     OW25453   3.851   2.728   8.962 -0.8357 -1.1094  0.1736
 4607SOL    HW125454   3.896   2.798   8.915 -2.9700 -1.2995 -2.1916
 4607SOL    HW225455   3.882   2.743   9.051  0.1184  1.8749 -0.6620
 4608SOL     OW25456   2.348   1.390   8.905 -0.5562  0.5044  0.0062
 4608SOL    HW125457   2.313   1.474   8.935 -2.6806  0.5102 -2.4602
 4608SOL    HW225458   2.278   1.329   8.928 -0.0991  0.0570  0.2031
 4609SOL     OW25459   1.533   4.219   1.062  0.5451 -0.9101 -0.3994
 4609SOL    HW125460   1.565   4.206   1.152  2.8763 -0.7407 -1.2106
 4609SOL    HW225461   1.491   4.305   1.067  1.8383 -0.3246  0.4722
 4610SOL     OW25462   2.131   0.998   6.673 -0.9623 -0.3058  0.6787
 4610SOL    HW125463   2.135   1.064   6.605  1.1455  0.7622  1.8287
 4610SOL    HW225464   2.037   0.982   6.679 -1.2818  1.1058 -0.5818
 4611SOL     OW25465   0.203   4.094   5.242 -0.0388  0.1031  0.1354
 4611SOL    HW125466   0.265   4.145   5.190  1.1878 -0.8274  0.7066
 4611SOL    HW225467   0.208   4.136   5.328 -1.5083 -0.1828  0.3553
 4612SOL     OW25468   2.099   0.815   8.976 -0.2475  0.8271 -0.0655
 4612SOL    HW125469   2.121   0.792   9.066 -0.3919  1.1056  0.0421
 4612SOL    HW225470   2.115   0.735   8.926  1.2180  1.0040  0.1041
 4613SOL     OW25471   2.400   1.508   5.687 -0.7989  1.0258 -0.5418
 4613SOL    HW125472   2.335   1.518   5.618 -1.8023  2.9699  0.6904
 4613SOL    HW225473   2.385   1.595   5.724  0.0867  1.6324 -1.6038
 4614SOL     OW25474   3.828   1.279   8.939  0.2056 -0.0648  0.1351
 4614SOL    HW125475   3.921   1.290   8.959  0.4495 -1.6487 -0.1731
 4614SOL    HW225476   3.792   1.368   8.937 -0.7990 -0.4711 -0.1592
 4615SOL     OW25477   2.604   2.604   8.770  0.2224 -0.4196  0.0787
 4615SOL    HW125478   2.557   2.522   8.786  0.4665 -0.2838  1.4346
 4615SOL    HW225479   2.689   2.595   8.812  0.0130 -0.4559  0.4906
 4616SOL     OW25480   4.212   0.946   5.151 -0.2790 -0.2204  0.0635
 4616SOL    HW125481   4.186   0.929   5.241  0.8403  1.7844  0.7576
 4616SOL    HW225482   4.153   0.882   5.111 -2.7327  1.2995  1.3176
 4617SOL     OW25483   2.566   4.261   1.484 -0.1051  0.9619 -0.5097
 4617SOL    HW125484   2.537   4.322   1.553 -3.2324  0.3663 -1.2708
 4617SOL    HW225485   2.509   4.189   1.511  2.4019 -1.0307 -0.6577
 4618SOL     OW25486   4.126   4.497   8.811  0.0845 -0.2388 -0.0543
 4618SOL    HW125487   4.142   4.584   8.773  0.5148  0.2750  1.3125
 4618SOL    HW225488   4.101   4.511   8.902 -0.3444 -1.0240 -0.0538
 4619SOL     OW25489   3.184   2.045   4.957 -0.0449  0.2503 -0.2498
 4619SOL    HW125490   3.223   2.122   4.917 -0.5798  0.1095 -1.0433
 4619SOL    HW225491   3.257   2.020   5.014  0.6048 -0.4921 -1.3893
 4620SOL     OW25492   1.481   1.904   3.714  0.3573  0.4670  0.1447
 4620SOL    HW125493   1.514   1.815   3.722 -0.7843  0.0282  0.0289
 4620SOL    HW225494   1.559   1.955   3.691  1.1210 -0.5831  0.4080
 4621SOL     OW25495   3.695   1.647  13.558  0.1226  0.3861  0.5181
 4621SOL    HW125496   3.691   1.719  13.494 -0.2750 -0.4008 -0.3351
 4621SOL    HW225497   3.677   1.702  13.634  0.3084 -0.5828  1.2601
 4622SOL     OW25498   2.265   1.479   0.110 -0.3103  0.2904 -0.2410
 4622SOL    HW125499   2.267   1.522   0.024 -0.1422  1.3255  0.2820
 4622SOL    HW225500   2.185   1.519   0.143 -0.0165  0.6038  0.1001
 4623SOL     OW25501   0.148   1.451   4.594  0.2390  0.1296  0.4314
 4623SOL    HW125502   0.148   1.357   4.611  1.2052 -0.1252 -0.9950
 4623SOL    HW225503   0.243   1.458   4.605  0.0790  2.3619  0.3420
 4624SOL     OW25504   4.188   4.320   0.957 -0.2593 -0.1954  0.1943
 4624SOL    HW125505   4.201   4.411   0.929 -1.7535 -0.2258 -0.5618
 4624SOL    HW225506   4.230   4.269   0.887  1.6226  0.4027  0.8646
 4625SOL     OW25507   3.341   1.969   6.301  0.1212  0.3658  0.2605
 4625SOL    HW125508   3.321   1.893   6.356  2.6859 -0.9345 -0.5868
 4625SOL    HW225509   3.257   1.992   6.261  0.8690  0.9288 -1.0037
 4626SOL     OW25510   3.395   0.124   2.262  0.3203 -0.7231 -0.4423
 4626SOL    HW125511   3.311   0.132   2.217 -0.1432  1.0835  0.7390
 4626SOL    HW225512   3.394   0.205   2.313  0.7378 -1.4905  0.8047
 4627SOL     OW25513   3.968   0.150  11.343  0.2696 -0.2131  0.5019
 4627SOL    HW125514   3.935   0.239  11.328  0.7301  0.1649  1.7468
 4627SOL    HW225515   3.890   0.107  11.308  0.2942  2.6246 -3.0244
 4628SOL     OW25516   3.021   3.656   2.525 -0.0121 -0.0303 -0.1129
 4628SOL    HW125517   3.054   3.622   2.442  1.4723  1.4193 -0.1004
 4628SOL    HW225518   3.068   3.738   2.533 -0.2375  0.0903 -0.0387
 4629SOL     OW25519   4.105   0.678   2.960 -0.4852  0.6955  0.1736
 4629SOL    HW125520   4.115   0.583   2.966  1.4424  0.8997  0.3244
 4629SOL    HW225521   4.020   0.685   3.003 -1.0087  1.5366 -1.0177
 4630SOL     OW25522   4.546   1.878   0.734 -0.5206  0.2672 -0.0847
 4630SOL    HW125523   4.569   1.964   0.769  1.0779 -0.5862  0.9689
 4630SOL    HW225524   4.591   1.881   0.649 -1.9921  2.0923 -0.8099
 4631SOL     OW25525   1.341   1.667   3.992 -0.1298  0.1918  0.1309
 4631SOL    HW125526   1.380   1.588   3.955  1.2009  0.9872 -0.1483
 4631SOL    HW225527   1.361   1.658   4.085 -0.9539  2.4686  0.5271
 4632SOL     OW25528   2.742   1.904   5.450 -0.0638 -0.3549  0.7994
 4632SOL    HW125529   2.738   1.875   5.360  3.3262 -0.7565  0.7717
 4632SOL    HW225530   2.773   1.994   5.438  0.2749 -0.5232  0.4208
 4633SOL     OW25531   3.131   2.406   6.477  0.2354  0.2691  0.2847
 4633SOL    HW125532   3.126   2.370   6.565 -0.6916 -0.5463 -0.1006
 4633SOL    HW225533   3.086   2.343   6.420 -0.1035  0.4640  0.3354
 4634SOL     OW25534   0.365   4.012   2.119 -0.1794 -0.3217  0.6493
 4634SOL    HW125535   0.437   3.980   2.173 -1.6120  0.1454  2.8402
 4634SOL    HW225536   0.398   4.098   2.093  1.7812 -1.8674 -1.9342
 4635SOL     OW25537   2.620   3.577   4.303 -0.1722 -0.5999 -0.2660
 4635SOL    HW125538   2.594   3.613   4.218  0.1128  1.7500  0.6351
 4635SOL    HW225539   2.703   3.539   4.276  1.3736  2.7547 -0.2138
 4636SOL     OW25540   4.547   4.014   3.289  0.0983  0.0102 -0.5448
 4636SOL    HW125541   4.590   4.070   3.354 -1.8039  0.4226  0.3861
 4636SOL    HW225542   4.456   4.003   3.316  1.2508 -1.7714  2.6947
 4637SOL     OW25543   0.485   3.308   4.652  0.0565 -0.9888 -0.6253
 4637SOL    HW125544   0.569   3.263   4.659  0.0602 -1.1008 -1.3735
 4637SOL    HW225545   0.504   3.386   4.704 -0.5070  0.3352 -2.4053
 4638SOL     OW25546   0.980   4.702   0.796 -0.2248 -0.1542  0.4236
 4638SOL    HW125547   1.065   0.001   0.821 -0.1601 -0.6917  0.9728
 4638SOL    HW225548   0.990   4.661   0.710  0.8503 -1.8358  1.3623
 4639SOL     OW25549   3.216   3.162   6.218  0.0224 -0.8903  0.0576
 4639SOL    HW125550   3.296   3.188   6.262  0.1252  0.0216 -0.6807
 4639SOL    HW225551   3.204   3.079   6.264  1.4063 -0.5959  0.9358
 4640SOL     OW25552   2.345   0.165   2.903 -0.3380  0.2245  0.4164
 4640SOL    HW125553   2.375   0.202   2.819 -2.4895 -1.2818 -1.0175
 4640SOL    HW225554   2.250   0.162   2.890 -0.0155 -0.5660 -1.7328
 4641SOL     OW25555   2.449   2.391   8.786 -0.0155 -0.4089 -0.3636
 4641SOL    HW125556   2.483   2.369   8.873  1.2882 -2.6033 -1.4391
 4641SOL    HW225557   2.468   2.311   8.738 -1.7861 -0.3317 -1.2119
 4642SOL     OW25558   3.824   2.435   0.645  0.7221  0.7850 -0.2744
 4642SOL    HW125559   3.729   2.432   0.647  0.8011 -1.4003 -0.1997
 4642SOL    HW225560   3.842   2.458   0.554  1.7950 -0.4815 -0.3856
 4643SOL     OW25561   0.048   1.595   8.148  0.6083 -0.1515 -0.0040
 4643SOL    HW125562   0.084   1.683   8.150  1.2709 -0.4196 -0.0209
 4643SOL    HW225563   0.115   1.539   8.187 -0.1720 -0.8172  0.3963
 4644SOL     OW25564   0.380   2.682   5.940  0.1618  0.0275  0.1847
 4644SOL    HW125565   0.305   2.697   5.997 -0.7192 -2.0882 -0.4099
 4644SOL    HW225566   0.421   2.767   5.923 -0.1480  0.2138  0.3514
 4645SOL     OW25567   0.188   1.141   2.668 -0.0953  0.2891 -0.7547
 4645SOL    HW125568   0.263   1.195   2.642  0.1738 -0.1880 -0.9797
 4645SOL    HW225569   0.223   1.080   2.732  1.7057 -0.2543 -2.2394
 4646SOL     OW25570   2.598   2.812  11.048 -0.3811 -0.1092  0.8816
 4646SOL    HW125571   2.607   2.889  10.992 -1.5431  0.3671  1.3520
 4646SOL    HW225572   2.689   2.783  11.047 -1.4330 -3.3288 -1.1077
 4647SOL     OW25573   2.905   4.405   9.097  0.8793  0.1973 -0.5233
 4647SOL    HW125574   2.936   4.495   9.093  0.6992  0.2772 -0.0995
 4647SOL    HW225575   2.987   4.366   9.127  0.5869 -1.1147 -1.4283
 4648SOL     OW25576   4.413   2.258   8.431  0.6596 -0.1934 -0.1801
 4648SOL    HW125577   4.476   2.300   8.489  0.3487  0.4006 -0.2703
 4648SOL    HW225578   4.333   2.311   8.433  1.4355  1.0725 -2.7250
 4649SOL     OW25579   2.830   1.177   7.651 -0.5574 -0.2820 -0.4947
 4649SOL    HW125580   2.834   1.171   7.747  0.9263 -0.3470 -0.5747
 4649SOL    HW225581   2.735   1.170   7.637 -0.6653 -0.2885  0.2396
 4650SOL     OW25582   1.877   3.927   6.037  0.4070  0.1219  0.4732
 4650SOL    HW125583   1.868   3.914   5.943 -1.7049  0.0511  0.6971
 4650SOL    HW225584   1.836   3.849   6.073 -0.8308 -0.7018 -2.7503
 4651SOL     OW25585   4.663   0.897   4.167 -0.1638 -0.7649  0.5825
 4651SOL    HW125586   4.707   0.837   4.107  0.9221 -0.5308  1.1419
 4651SOL    HW225587   4.733   0.956   4.195 -1.3102  0.0276  1.7659
 4652SOL     OW25588   1.190   1.999  13.330  0.1094 -0.1849  0.3188
 4652SOL    HW125589   1.199   1.996  13.235 -0.9343  1.1807  0.1853
 4652SOL    HW225590   1.220   2.090  13.333  4.8324 -1.7559  2.1252
 4653SOL     OW25591   4.515   0.413   7.976  0.2919  0.0779 -0.1556
 4653SOL    HW125592   4.521   0.336   8.033 -1.7236 -0.2002 -0.3146
 4653SOL    HW225593   4.589   0.406   7.916 -1.3960 -1.6894 -2.0127
 4654SOL     OW25594   2.502   4.360   9.204 -0.1268 -0.0747 -0.9132
 4654SOL    HW125595   2.418   4.320   9.227 -0.2453  1.4226  1.2216
 4654SOL    HW225596   2.487   4.451   9.180  0.7012  0.1634 -0.5401
 4655SOL     OW25597   2.118   4.659  14.229  0.0559  0.4851  0.3411
 4655SOL    HW125598   2.106   4.628  14.139  0.0301 -1.3134  0.9728
 4655SOL    HW225599   2.146   4.575  14.266  2.0923  0.7410 -0.6072
 4656SOL     OW25600   0.231   3.568  10.919 -0.1159  0.6419  0.5315
 4656SOL    HW125601   0.220   3.648  10.867  1.4979 -0.0309 -0.8454
 4656SOL    HW225602   0.200   3.506  10.854  0.5204 -0.9491  1.7564
 4657SOL     OW25603   1.947   0.019   2.705  0.5001 -0.3720 -0.0377
 4657SOL    HW125604   2.001   4.677   2.707  1.7247  0.3767 -3.7650
 4657SOL    HW225605   1.942   0.036   2.610 -0.8572  1.6505  0.3960
 4658SOL     OW25606   3.953   3.461   2.787 -0.1695 -0.2143 -0.2246
 4658SOL    HW125607   3.996   3.413   2.716  4.3063  2.0373  0.9595
 4658SOL    HW225608   4.016   3.443   2.857  0.2152  0.5257 -0.3770
 4659SOL     OW25609   3.551   0.749   6.850  0.0166  0.0397  0.4992
 4659SOL    HW125610   3.500   0.821   6.815  0.2612 -1.5001 -2.9768
 4659SOL    HW225611   3.549   0.769   6.944  1.1185 -2.0750  0.9839
 4660SOL     OW25612   2.611   1.315   8.949  0.8072 -0.5044 -0.1891
 4660SOL    HW125613   2.585   1.223   8.950  1.1585 -0.5927  0.6702
 4660SOL    HW225614   2.521   1.347   8.945  0.5206 -1.3468 -0.5699
 4661SOL     OW25615   3.811   2.744  13.219 -0.1571  0.0335  0.1842
 4661SOL    HW125616   3.858   2.666  13.245 -0.1636  0.3184  1.0395
 4661SOL    HW225617   3.836   2.763  13.128  0.5420 -3.5136 -0.3457
 4662SOL     OW25618   4.478   1.774   8.828  0.4814 -0.0319 -0.1091
 4662SOL    HW125619   4.560   1.823   8.818  0.5529  0.3836  2.6988
 4662SOL    HW225620   4.448   1.820   8.906 -0.9471  0.8332 -1.1834
 4663SOL     OW25621   0.563   1.744  13.533 -0.1680  0.7352 -0.1250
 4663SOL    HW125622   0.604   1.661  13.512 -1.9607 -0.2791  0.4110
 4663SOL    HW225623   0.633   1.810  13.530  2.4123 -2.1798 -2.5115
 4664SOL     OW25624   4.703   4.272   9.201 -0.6712  0.2408 -0.0422
 4664SOL    HW125625   4.716   4.323   9.121 -1.1582  1.2313  0.5077
 4664SOL    HW225626   4.612   4.243   9.195  0.0772 -1.4949 -2.9841
 4665SOL     OW25627   4.574   3.720   5.409 -0.3269 -0.1825 -0.5056
 4665SOL    HW125628   4.609   3.802   5.373 -0.9789  0.3966  0.1636
 4665SOL    HW225629   4.610   3.647   5.358  0.0268 -1.0005  0.9257
 4666SOL     OW25630   2.569   3.225   7.771  0.5795  0.4121 -0.4280
 4666SOL    HW125631   2.504   3.294   7.765 -0.9190 -0.7548  2.2730
 4666SOL    HW225632   2.548   3.176   7.851  0.6798  0.5087 -0.3430
 4667SOL     OW25633   1.156   1.695   8.257 -0.2265  0.2747 -0.3733
 4667SOL    HW125634   1.184   1.707   8.166 -0.6471  1.2483 -0.3831
 4667SOL    HW225635   1.138   1.785   8.284 -1.4029  0.7340 -2.6995
 4668SOL     OW25636   3.440   3.211   6.408  0.4157  0.4800  0.2888
 4668SOL    HW125637   3.424   3.284   6.467  0.7368  0.6517  0.1631
 4668SOL    HW225638   3.457   3.139   6.469 -1.0944  0.8623  1.1607
 4669SOL     OW25639   4.068   2.775   4.972 -0.8702  0.6091  0.4270
 4669SOL    HW125640   4.132   2.742   4.909 -0.8185  0.3478  0.6165
 4669SOL    HW225641   4.117   2.789   5.054 -0.4600  0.6630  0.1741
 4670SOL     OW25642   3.343   3.209  14.531 -0.5899 -0.2055 -0.0412
 4670SOL    HW125643   3.315   3.268  14.461  0.9612 -0.2431 -0.6823
 4670SOL    HW225644   3.311   3.129  14.488 -0.3431  0.6278 -1.7860
 4671SOL     OW25645   3.153   2.166   6.928 -0.2345  0.0084  0.2143
 4671SOL    HW125646   3.069   2.132   6.958 -0.2759  0.6324  0.7950
 4671SOL    HW225647   3.184   2.089   6.879 -1.3111 -0.7336  0.7021
 4672SOL     OW25648   3.721   0.941   3.036  0.6183 -0.5801  0.6174
 4672SOL    HW125649   3.775   0.951   2.957  0.3604  0.2508  0.5425
 4672SOL    HW225650   3.653   1.002   3.007 -0.3767 -0.7586  2.5813
 4673SOL     OW25651   4.231   0.456   6.328  0.1053 -0.1712  0.2239
 4673SOL    HW125652   4.286   0.531   6.351 -1.3213  0.9820 -0.0420
 4673SOL    HW225653   4.265   0.395   6.393  0.7082  0.4059  0.4589
 4674SOL     OW25654   4.560   3.309  16.623 -0.1802 -0.1173  0.2452
 4674SOL    HW125655   4.493   3.285  16.686  0.5034 -3.4546 -0.3111
 4674SOL    HW225656   4.523   3.389  16.584 -3.8132 -2.2687 -0.6657
 4675SOL     OW25657   1.936   4.561   9.400  0.5216  0.2052  0.0172
 4675SOL    HW125658   1.859   4.505   9.394  1.8319 -1.2616 -3.1246
 4675SOL    HW225659   1.950   4.563   9.495 -1.4252 -1.8984  0.3327
 4676SOL     OW25660   0.834   0.644   1.877  0.1405 -0.3726  0.4576
 4676SOL    HW125661   0.788   0.722   1.910 -0.1799 -0.4758  0.2539
 4676SOL    HW225662   0.821   0.586   1.952  2.2383 -0.9971  0.3118
 4677SOL     OW25663   4.271   4.562   3.980  0.2450  0.3058  0.0866
 4677SOL    HW125664   4.232   4.474   3.989 -0.6579  0.7549  0.5736
 4677SOL    HW225665   4.362   4.548   3.956  0.3040 -1.2107  1.1553
 4678SOL     OW25666   0.657   1.088   6.476 -0.6242  0.2996 -0.0934
 4678SOL    HW125667   0.562   1.085   6.479 -0.5554 -1.2306  0.7166
 4678SOL    HW225668   0.668   1.176   6.440  0.2266  0.9555  1.7637
 4679SOL     OW25669   2.571   2.860   4.633 -0.3728  0.7833 -0.5472
 4679SOL    HW125670   2.640   2.852   4.699 -1.0176  0.4972  0.0879
 4679SOL    HW225671   2.621   2.864   4.551 -0.3748 -0.5030 -0.6011
 4680SOL     OW25672   2.207   1.469   4.832 -0.3471  0.1761  0.1437
 4680SOL    HW125673   2.194   1.463   4.737  0.7416  0.1954 -0.0077
 4680SOL    HW225674   2.146   1.400   4.855  0.2705 -0.1376  0.8410
 4681SOL     OW25675   3.274   3.480   8.595 -0.2381  0.0759 -0.3063
 4681SOL    HW125676   3.262   3.483   8.500  0.0841 -2.5202 -0.4479
 4681SOL    HW225677   3.323   3.398   8.601  1.8719  1.4165  0.3669
 4682SOL     OW25678   2.505   3.418  12.540  0.2237 -0.0822  0.4374
 4682SOL    HW125679   2.596   3.402  12.514  0.5785  1.5879  0.6974
 4682SOL    HW225680   2.454   3.409  12.460 -0.4254 -1.1279  0.9529
 4683SOL     OW25681   0.388   0.348  10.558 -0.0907 -0.3578 -0.3753
 4683SOL    HW125682   0.298   0.341  10.587 -0.3167 -2.2355 -1.5401
 4683SOL    HW225683   0.427   0.420  10.609 -0.3135 -1.0498  0.7502
 4684SOL     OW25684   2.114   1.906   8.231  0.3872 -0.4789 -0.0948
 4684SOL    HW125685   2.122   1.994   8.268 -2.4206  0.6738 -2.1557
 4684SOL    HW225686   2.020   1.905   8.210  0.4269 -0.3238 -0.2780
 4685SOL     OW25687   3.200   1.134  10.581 -0.7763  0.0834  0.8272
 4685SOL    HW125688   3.247   1.124  10.498 -0.9256  0.9344  0.6427
 4685SOL    HW225689   3.261   1.193  10.624  0.1670 -1.3458  1.4486
 4686SOL     OW25690   2.957   3.511  11.546 -0.0258  0.3390 -0.5482
 4686SOL    HW125691   3.032   3.550  11.502  0.7902 -0.2524  0.3268
 4686SOL    HW225692   2.879   3.540  11.498  0.1086 -0.2824 -1.1529
 4687SOL     OW25693   4.683   3.894   6.379  0.0051 -0.3649  0.3806
 4687SOL    HW125694   4.614   3.897   6.312  0.0043  1.2723  0.4494
 4687SOL    HW225695   4.636   3.898   6.463 -0.5809  1.1462 -0.0189
 4688SOL     OW25696   0.236   3.544  16.423  0.2716  0.1147  0.3160
 4688SOL    HW125697   0.315   3.491  16.409  0.1351 -0.1710  0.6293
 4688SOL    HW225698   0.173   3.521  16.355 -0.3415  1.0078  0.5902
 4689SOL     OW25699   1.732   3.746   9.044  0.9315 -0.0988 -0.0889
 4689SOL    HW125700   1.816   3.707   9.017 -0.3344 -2.7488 -0.1663
 4689SOL    HW225701   1.740   3.733   9.139 -1.0646  4.2052  0.6773
 4690SOL     OW25702   0.534   3.372  11.468 -0.2450 -0.0110 -0.2484
 4690SOL    HW125703   0.466   3.412  11.522 -2.3295 -1.3420 -1.8861
 4690SOL    HW225704   0.614   3.411  11.503  0.3463  2.0976 -3.9006
 4691SOL     OW25705   2.659   2.003   6.440  0.1619  0.9269  0.1138
 4691SOL    HW125706   2.753   2.019   6.450  0.3212  0.0507  0.0128
 4691SOL    HW225707   2.626   2.089   6.469 -0.7972  1.9897 -4.1243
 4692SOL     OW25708   1.615   3.338   1.339 -0.4074 -0.0560  0.0884
 4692SOL    HW125709   1.532   3.320   1.294 -0.1349 -0.1855 -0.3625
 4692SOL    HW225710   1.668   3.266   1.304 -1.1324  0.1478 -1.4730
 4693SOL     OW25711   0.631   4.210   3.690 -0.6910 -0.2850  0.2515
 4693SOL    HW125712   0.682   4.129   3.683 -2.9630 -1.5833 -1.1031
 4693SOL    HW225713   0.550   4.180   3.731  0.5014 -2.3114  1.1160
 4694SOL     OW25714   3.423   0.052  13.270  0.3170  0.0242 -0.1375
 4694SOL    HW125715   3.459   4.713  13.315 -0.6206 -1.3382 -1.6906
 4694SOL    HW225716   3.384   0.015  13.191  2.2839  0.4888 -1.3221
 4695SOL     OW25717   3.295   3.195   5.480 -0.0844 -0.4870  0.0563
 4695SOL    HW125718   3.248   3.165   5.558  2.1123  2.8311  2.7159
 4695SOL    HW225719   3.283   3.130   5.411  1.4089  1.0440 -1.6461
 4696SOL     OW25720   2.671   1.564  16.187  0.1644  0.5572 -0.0835
 4696SOL    HW125721   2.704   1.547  16.275  1.1446  1.9874 -0.1646
 4696SOL    HW225722   2.737   1.522  16.131 -0.4757 -0.5622  0.0150
 4697SOL     OW25723   2.988   0.249   4.841 -0.1321  0.0468 -0.4889
 4697SOL    HW125724   2.923   0.308   4.802  1.0247  1.3096 -0.4859
 4697SOL    HW225725   2.981   0.179   4.776  1.6641  0.1376 -0.7651
 4698SOL     OW25726   2.073   3.613  16.667  0.0450  0.5678 -0.1440
 4698SOL    HW125727   2.122   3.540  16.705 -1.7622 -0.4388  0.2870
 4698SOL    HW225728   2.015   3.633  16.740 -0.6047 -1.5174 -0.0787
 4699SOL     OW25729   3.747   0.474   7.939 -0.4981 -0.5379  0.4429
 4699SOL    HW125730   3.794   0.517   7.868 -2.0566  0.0628 -0.2263
 4699SOL    HW225731   3.760   0.546   8.000 -0.4731 -1.2570  1.2918
 4700SOL     OW25732   4.303   2.919   8.582  0.1638 -0.1513  0.4371
 4700SOL    HW125733   4.315   2.897   8.674 -0.2242 -2.2004  0.0084
 4700SOL    HW225734   4.385   2.965   8.564  0.6914 -0.9479  0.7854
 4701SOL     OW25735   2.072   2.783   2.497 -0.7804  0.0676  0.1451
 4701SOL    HW125736   2.117   2.753   2.576 -1.2470 -0.8267  0.0728
 4701SOL    HW225737   2.036   2.866   2.527  0.5872  1.0593 -0.9911
 4702SOL     OW25738   2.876   0.236   5.598  0.3626  0.2584 -0.4279
 4702SOL    HW125739   2.893   0.311   5.655  0.0753  0.3707 -0.4941
 4702SOL    HW225740   2.782   0.250   5.595  0.0178 -1.8402  0.9034
 4703SOL     OW25741   0.869   1.009   5.369  0.4716 -0.1876  0.0116
 4703SOL    HW125742   0.948   1.020   5.421  1.2473  1.2655 -1.4648
 4703SOL    HW225743   0.900   0.991   5.280 -2.1834 -1.1819 -0.7139
 4704SOL     OW25744   4.367   2.813   6.652  0.1933  0.7222  0.3333
 4704SOL    HW125745   4.324   2.741   6.606  3.0927 -0.5829 -0.3585
 4704SOL    HW225746   4.380   2.868   6.575  0.4251  0.8736  0.4801
 4705SOL     OW25747   0.955   1.151   3.408 -0.1713  0.4646 -0.0317
 4705SOL    HW125748   0.910   1.082   3.360  2.8200  0.1855 -2.4234
 4705SOL    HW225749   0.996   1.107   3.482 -0.6400 -1.0682 -0.6826
 4706SOL     OW25750   4.458   0.451   2.805  0.0994 -0.1493 -0.2043
 4706SOL    HW125751   4.393   0.467   2.736  0.6322  0.8281 -0.4928
 4706SOL    HW225752   4.541   0.449   2.757 -0.5618  0.4802 -1.3675
 4707SOL     OW25753   3.711   2.815   7.034  0.3345  0.1058 -0.1864
 4707SOL    HW125754   3.742   2.813   6.943  3.5007 -2.5232  0.9328
 4707SOL    HW225755   3.743   2.728   7.058  0.4497  0.3506  0.5378
 4708SOL     OW25756   0.116   0.679   7.179 -0.3412 -0.8902  0.0866
 4708SOL    HW125757   0.052   0.678   7.250  0.7615  0.1407  1.0851
 4708SOL    HW225758   0.055   0.684   7.105 -0.4517  1.5889  0.3344
 4709SOL     OW25759   2.552   0.073   2.061 -0.4959  0.2030  0.0176
 4709SOL    HW125760   2.501   4.729   2.068 -0.3482  0.1710  0.7277
 4709SOL    HW225761   2.527   0.098   1.972 -0.8850  1.7199  0.5672
 4710SOL     OW25762   2.588   0.777   4.217  0.3731  0.5039 -0.0219
 4710SOL    HW125763   2.574   0.793   4.124  0.6771  1.0404  0.0231
 4710SOL    HW225764   2.518   0.830   4.255 -0.5119 -2.1852  2.1271
 4711SOL     OW25765   4.269   0.781   0.166  0.0090 -0.2829  0.3310
 4711SOL    HW125766   4.285   0.869   0.198  0.7422 -0.6724  1.0636
 4711SOL    HW225767   4.174   0.782   0.155  0.0654 -1.7136 -0.3957
 4712SOL     OW25768   3.806   4.655  15.170  0.0929  0.6417 -0.1147
 4712SOL    HW125769   3.816   4.639  15.264 -0.3100  1.7327  0.1119
 4712SOL    HW225770   3.739   4.723  15.176  1.5502  1.9704  1.2182
 4713SOL     OW25771   0.629   1.298   7.985  0.2203 -0.1835 -0.1303
 4713SOL    HW125772   0.547   1.327   8.026  0.2583 -0.5719  0.2241
 4713SOL    HW225773   0.680   1.248   8.049 -1.1461 -1.0580  0.2785
 4714SOL     OW25774   0.239   4.006   7.248  0.3613 -0.2557  0.1705
 4714SOL    HW125775   0.222   3.911   7.251  0.6545 -0.3816 -2.4767
 4714SOL    HW225776   0.163   4.030   7.196  1.7591 -1.3151 -2.3923
 4715SOL     OW25777   3.971   2.313   8.161  0.1565 -0.1088 -0.1254
 4715SOL    HW125778   4.045   2.364   8.126  0.0721  0.5955  0.7398
 4715SOL    HW225779   4.024   2.247   8.205 -1.3257 -1.0056  0.3030
 4716SOL     OW25780   2.890   0.547   5.694  0.2933  0.0477 -0.7634
 4716SOL    HW125781   2.806   0.590   5.710  2.5308  4.1634 -0.0051
 4716SOL    HW225782   2.918   0.600   5.620 -0.4237  0.3972 -0.7809
 4717SOL     OW25783   4.718   0.275   4.782  0.2099  0.3143 -0.0639
 4717SOL    HW125784   4.683   0.214   4.717  1.9204 -1.4769  0.7201
 4717SOL    HW225785   4.713   0.220   4.860  0.0796 -0.5043 -0.6449
 4718SOL     OW25786   2.349   3.090   3.571  0.4220 -0.0274  0.0733
 4718SOL    HW125787   2.373   3.018   3.629  1.6799  0.1180 -0.2666
 4718SOL    HW225788   2.413   3.158   3.592  1.6067  0.4737 -5.0714
 4719SOL     OW25789   3.445   0.774  15.281 -0.1355 -0.0005 -0.1875
 4719SOL    HW125790   3.397   0.795  15.201 -0.3366  3.6587  0.9144
 4719SOL    HW225791   3.417   0.845  15.338  0.1720 -0.1110  0.0989
 4720SOL     OW25792   2.492   2.397  14.677 -0.0973  0.5952  0.0583
 4720SOL    HW125793   2.444   2.321  14.645  0.4819  0.4522 -0.4833
 4720SOL    HW225794   2.493   2.377  14.771  1.6921 -0.7269 -0.2487
 4721SOL     OW25795   3.483   4.512   3.825  0.0860  0.9747  0.3164
 4721SOL    HW125796   3.392   4.532   3.804  0.0836  0.1699 -0.4022
 4721SOL    HW225797   3.479   4.419   3.849 -2.6259  0.7957 -0.8895
 4722SOL     OW25798   0.886   3.810  14.773  0.6199  0.1048 -0.7797
 4722SOL    HW125799   0.905   3.876  14.706 -0.7188  1.8377  0.5684
 4722SOL    HW225800   0.835   3.859  14.837  0.9604 -0.2586 -0.2228
 4723SOL     OW25801   0.527   4.606  15.653  0.6038  0.2755 -0.1609
 4723SOL    HW125802   0.531   4.701  15.638 -1.7454  0.2946 -0.6927
 4723SOL    HW225803   0.593   4.566  15.596 -0.3151  0.2985 -1.2501
 4724SOL     OW25804   1.361   2.224   5.942  0.6647 -0.0426  0.3414
 4724SOL    HW125805   1.407   2.140   5.933  0.5728 -0.0403 -0.1338
 4724SOL    HW225806   1.429   2.287   5.919  0.6772  0.0839  0.7205
 4725SOL     OW25807   2.743   0.425   7.502 -0.2761 -0.0087  0.2262
 4725SOL    HW125808   2.831   0.417   7.540 -0.0568  1.8763  0.1430
 4725SOL    HW225809   2.705   0.500   7.549  0.0325  1.9907 -2.7599
 4726SOL     OW25810   0.043   1.717   6.484  0.6572 -0.5751 -0.3221
 4726SOL    HW125811   0.127   1.690   6.521  1.7083  1.1021 -1.4498
 4726SOL    HW225812   0.051   1.676   6.397 -0.0857  1.5426 -1.4019
 4727SOL     OW25813   3.319   3.645  16.486 -0.4609  0.4084 -0.1929
 4727SOL    HW125814   3.228   3.620  16.470 -1.0185  2.0739  0.3679
 4727SOL    HW225815   3.352   3.661  16.397  0.1085 -1.5882 -0.3426
 4728SOL     OW25816   2.655   1.428   9.880 -0.4109 -0.2268  0.0156
 4728SOL    HW125817   2.744   1.416   9.847 -0.1661 -1.6731  1.1935
 4728SOL    HW225818   2.656   1.367   9.954 -2.4685  1.5592  1.5287
 4729SOL     OW25819   3.726   4.067   4.203  0.7094  0.1081  0.1785
 4729SOL    HW125820   3.646   4.048   4.154 -0.1217  0.2936  1.4866
 4729SOL    HW225821   3.771   4.133   4.150 -0.4917 -0.6309 -1.7501
 4730SOL     OW25822   2.644   3.138   6.829  0.1335 -0.1864  0.0235
 4730SOL    HW125823   2.698   3.159   6.753  1.1424  1.3756  1.1857
 4730SOL    HW225824   2.716   3.107   6.883 -0.6154 -3.2537 -0.7634
 4731SOL     OW25825   1.881   1.353   5.886  0.0667  0.5995 -0.1037
 4731SOL    HW125826   1.903   1.358   5.793 -1.5114 -1.9700 -0.6228
 4731SOL    HW225827   1.902   1.445   5.903 -0.0662  0.5350  0.4331
 4732SOL     OW25828   0.019   0.602   9.283  0.6494 -0.0643  0.1748
 4732SOL    HW125829   4.689   0.657   9.243 -0.3955 -0.2839  1.6147
 4732SOL    HW225830   4.719   0.559   9.361  3.2579 -1.3581  0.7247
 4733SOL     OW25831   1.254   1.843   6.361  0.0661  0.2967 -0.6461
 4733SOL    HW125832   1.311   1.833   6.437 -0.5501  1.3990 -0.0362
 4733SOL    HW225833   1.196   1.913   6.391  3.2328  2.3383  0.7022
 4734SOL     OW25834   2.209   3.513   5.915 -0.0527 -0.1162  0.1472
 4734SOL    HW125835   2.256   3.451   5.972  3.2216  0.3987 -1.9711
 4734SOL    HW225836   2.278   3.560   5.869  0.3803 -0.4866  0.4095
 4735SOL     OW25837   0.685   3.331   9.282  0.2663  0.4998 -0.4898
 4735SOL    HW125838   0.614   3.355   9.223  0.1114 -1.8994 -1.2761
 4735SOL    HW225839   0.652   3.358   9.367  1.9298 -0.1633  0.3752
 4736SOL     OW25840   1.895   2.452   3.691 -0.4455  0.5574  0.0765
 4736SOL    HW125841   1.918   2.360   3.704  2.4987  1.2075 -0.6811
 4736SOL    HW225842   1.987   2.475   3.679 -0.1577 -1.4510 -1.5966
 4737SOL     OW25843   2.722   2.745   1.942 -0.2059  0.4461  1.2368
 4737SOL    HW125844   2.716   2.837   1.968  3.3826  0.4036  2.3104
 4737SOL    HW225845   2.704   2.688   2.016 -2.5846  0.1916  0.4402
 4738SOL     OW25846   3.737   3.088   7.648 -0.4961 -0.5033 -1.0160
 4738SOL    HW125847   3.718   3.174   7.685 -0.7726 -0.3070 -1.6144
 4738SOL    HW225848   3.786   3.061   7.726  1.1955 -0.2518 -1.9922
 4739SOL     OW25849   4.120   3.374   3.746  0.0050 -0.0690  0.7393
 4739SOL    HW125850   4.103   3.281   3.756 -0.1860  0.1318  2.4102
 4739SOL    HW225851   4.099   3.413   3.831 -0.3601 -0.6159  0.8975
 4740SOL     OW25852   2.465   0.462   7.953  0.1212  0.3297  0.5289
 4740SOL    HW125853   2.440   0.532   7.893  0.8128 -0.7993 -1.0932
 4740SOL    HW225854   2.397   0.400   7.925 -1.0693  2.3665 -1.0765
 4741SOL     OW25855   0.289   1.298   6.140 -0.6473 -0.1846  0.2588
 4741SOL    HW125856   0.290   1.352   6.219 -0.0182  0.7801 -0.4153
 4741SOL    HW225857   0.368   1.325   6.094 -0.6015 -0.3483  0.2413
 4742SOL     OW25858   0.860   1.083   4.701 -0.4104 -0.0302 -0.4173
 4742SOL    HW125859   0.873   1.027   4.625 -0.6112 -1.1422  0.3610
 4742SOL    HW225860   0.813   1.023   4.759  1.4648 -2.0003 -0.9223
 4743SOL     OW25861   4.009   1.159   7.389  0.2650 -0.6890  0.0835
 4743SOL    HW125862   4.087   1.212   7.377 -0.3450 -0.6737 -3.8048
 4743SOL    HW225863   4.046   1.089   7.442  1.9771 -1.5188 -2.2272
 4744SOL     OW25864   3.896   3.923   5.619 -0.0505 -0.0342  0.1041
 4744SOL    HW125865   3.945   3.848   5.653  1.0425  1.0579  0.9535
 4744SOL    HW225866   3.809   3.897   5.649  0.1431  1.2764  1.7812
 4745SOL     OW25867   2.169   0.353   3.185 -0.2855  0.4713 -0.3953
 4745SOL    HW125868   2.118   0.273   3.168  0.8335 -0.1402 -0.8504
 4745SOL    HW225869   2.200   0.338   3.274  0.3739 -2.7563 -1.1587
 4746SOL     OW25870   2.720   3.932   5.466  0.2262 -0.2570  0.1067
 4746SOL    HW125871   2.718   3.883   5.548 -0.1863 -0.9859 -0.3283
 4746SOL    HW225872   2.686   4.016   5.495  3.2286  1.6517 -1.9496
 4747SOL     OW25873   1.583   1.878   8.336  0.5230 -0.1484 -0.3404
 4747SOL    HW125874   1.541   1.921   8.262 -2.0203 -1.2798  0.4456
 4747SOL    HW225875   1.612   1.796   8.295  1.2908 -0.3336  0.5489
 4748SOL     OW25876   2.640   4.546  16.431  0.1120  0.2017  0.2185
 4748SOL    HW125877   2.711   4.597  16.471 -0.4015 -0.7727  2.3417
 4748SOL    HW225878   2.583   4.618  16.402 -0.0180  0.0157  0.0171
 4749SOL     OW25879   0.975   3.736   4.864 -0.1221  0.1600 -0.2153
 4749SOL    HW125880   1.015   3.649   4.860  0.6978  0.3804  2.7655
 4749SOL    HW225881   0.982   3.735   4.769 -1.2897 -0.0068 -0.3090
 4750SOL     OW25882   0.558   2.473   6.207 -0.2252 -0.1890  0.8271
 4750SOL    HW125883   0.553   2.456   6.113  0.0902  1.7047  0.4698
 4750SOL    HW225884   0.485   2.417   6.234  0.1039 -0.0588  2.0095
 4751SOL     OW25885   2.933   2.302   6.332 -0.3608 -0.1180  0.8701
 4751SOL    HW125886   2.934   2.304   6.236  6.1123  1.5750  0.9805
 4751SOL    HW225887   2.917   2.210   6.355  2.4202 -0.2889  2.1525
 4752SOL     OW25888   3.122   2.169   9.528  0.3415  0.1032 -0.5993
 4752SOL    HW125889   3.096   2.261   9.525  3.9417  1.1909  0.9452
 4752SOL    HW225890   3.065   2.127   9.463 -1.0512 -1.5253  1.7010
 4753SOL     OW25891   3.919   1.418   9.294  0.0157 -0.4059  0.0344
 4753SOL    HW125892   4.014   1.419   9.279  0.0749 -1.7670  0.3698
 4753SOL    HW225893   3.891   1.492   9.240  0.2109  0.9028  1.7176
 4754SOL     OW25894   3.773   1.149   4.357  0.1887 -0.1874 -0.2183
 4754SOL    HW125895   3.738   1.178   4.442  0.9272 -2.9575  1.0205
 4754SOL    HW225896   3.796   1.057   4.366 -0.6430 -0.4107 -0.4364
 4755SOL     OW25897   4.499   3.597   6.344 -0.1836  0.5372 -0.7166
 4755SOL    HW125898   4.560   3.570   6.412 -2.2240  2.2896  1.8119
 4755SOL    HW225899   4.555   3.609   6.267  1.3619 -0.1101  0.3316
 4756SOL     OW25900   4.031   2.920   3.506  0.2949  1.0845 -0.6198
 4756SOL    HW125901   4.079   3.002   3.506 -1.0278  1.8449  0.1435
 4756SOL    HW225902   3.993   2.928   3.419 -0.2969 -0.5423 -0.5088
 4757SOL     OW25903   2.824   2.728  14.705 -0.1364 -0.3630 -0.2494
 4757SOL    HW125904   2.777   2.809  14.722 -0.7606 -1.0394  1.2392
 4757SOL    HW225905   2.771   2.682  14.640  0.8452  0.1365 -1.4172
 4758SOL     OW25906   1.383   4.125   8.818 -0.6304 -0.2504 -0.4551
 4758SOL    HW125907   1.341   4.048   8.854 -1.6275  0.9077  0.8687
 4758SOL    HW225908   1.477   4.116   8.835 -0.2571  1.7196 -1.4046
 4759SOL     OW25909   0.888   1.710   3.533  0.2484 -0.0845  0.3387
 4759SOL    HW125910   0.822   1.748   3.590  0.4389  0.0140  0.4952
 4759SOL    HW225911   0.922   1.637   3.585 -1.4699 -2.0825 -1.3221
 4760SOL     OW25912   4.673   1.848   2.181 -0.0783  0.7089  0.1821
 4760SOL    HW125913   0.001   1.780   2.199  0.2899  1.3921  1.4769
 4760SOL    HW225914   4.684   1.859   2.087  0.4759  0.3807  0.2060
 4761SOL     OW25915   0.466   1.928   1.847  0.6467 -0.3120 -0.1966
 4761SOL    HW125916   0.486   1.834   1.853 -0.0828 -0.5586 -1.6185
 4761SOL    HW225917   0.458   1.949   1.754  0.9007  0.6187 -0.0017
 4762SOL     OW25918   3.290   2.664  10.432 -0.4290 -0.6813 -0.6418
 4762SOL    HW125919   3.357   2.733  10.433 -0.0382 -1.0456 -1.1026
 4762SOL    HW225920   3.280   2.640  10.524  1.5728 -1.7585 -0.6827
 4763SOL     OW25921   0.557   1.551   3.189 -0.2501  0.3587 -0.0888
 4763SOL    HW125922   0.516   1.634   3.214 -1.5505 -0.6967  1.3006
 4763SOL    HW225923   0.518   1.537   3.103 -2.5481 -0.3065  1.0425
 4764SOL     OW25924   4.642   3.435   4.457  0.1462 -0.0470  0.0578
 4764SOL    HW125925   4.550   3.406   4.459  0.4531 -1.0806 -0.7692
 4764SOL    HW225926   4.633   3.508   4.518 -1.0087  1.3906 -1.8436
 4765SOL     OW25927   2.810   1.757  17.671  0.2833 -0.0378 -0.3490
 4765SOL    HW125928   2.723   1.716  17.670  2.3989 -4.6199  1.2622
 4765SOL    HW225929   2.821   1.759  17.576  1.5290 -1.1551 -0.2235
 4766SOL     OW25930   0.586   1.534   7.102  0.3695 -0.8352 -0.9468
 4766SOL    HW125931   0.624   1.519   7.189  1.0271 -0.3349 -1.1551
 4766SOL    HW225932   0.660   1.581   7.066 -1.2507  3.3944  1.2984
 4767SOL     OW25933   0.248   4.693   4.032  0.8060  0.3156  0.1231
 4767SOL    HW125934   0.343   4.694   4.021  0.9317 -2.7171  1.0471
 4767SOL    HW225935   0.225   0.049   4.038  1.8341  0.4209  2.2704
 4768SOL     OW25936   0.143   3.138  11.649 -0.5378  0.6265 -0.1246
 4768SOL    HW125937   0.114   3.111  11.562  0.2687 -1.3963  0.2221
 4768SOL    HW225938   0.056   3.142  11.690 -0.7820  0.4242 -0.6310
 4769SOL     OW25939   1.138   3.323  13.204 -0.3847  0.3926 -0.2018
 4769SOL    HW125940   1.229   3.305  13.227 -0.5449 -0.3185 -0.1256
 4769SOL    HW225941   1.127   3.403  13.254 -1.5422 -1.3234  2.2867
 4770SOL     OW25942   4.233   3.669   1.107  0.1985 -0.2088  0.0188
 4770SOL    HW125943   4.232   3.575   1.090  2.3696 -0.1374 -0.5687
 4770SOL    HW225944   4.248   3.663   1.202  1.6760 -1.4591 -0.2869
 4771SOL     OW25945   1.156   0.588   5.442 -0.3934  0.1543 -0.0726
 4771SOL    HW125946   1.163   0.551   5.354 -0.6314 -1.8113  0.7485
 4771SOL    HW225947   1.221   0.658   5.434  2.0823 -2.0408  0.9210
 4772SOL     OW25948   0.999   3.443   1.594  0.3683 -0.1432  0.0156
 4772SOL    HW125949   1.065   3.457   1.526 -0.8713 -1.1628 -1.3839
 4772SOL    HW225950   1.049   3.421   1.673  0.4896 -0.4597 -0.1479
 4773SOL     OW25951   2.064   0.370   3.604  0.4093  0.3392  0.1197
 4773SOL    HW125952   2.014   0.339   3.680  0.3183 -0.6096 -0.3235
 4773SOL    HW225953   2.097   0.453   3.638 -0.8740  0.3724  1.2975
 4774SOL     OW25954   3.446   1.049   6.754 -0.2515  0.1304 -0.6138
 4774SOL    HW125955   3.373   1.107   6.776  1.5881  1.7007  1.3609
 4774SOL    HW225956   3.517   1.084   6.808 -0.2422  0.4158 -0.8152
 4775SOL     OW25957   3.700   3.604   5.468  0.3321 -0.0133  0.0941
 4775SOL    HW125958   3.618   3.555   5.477  0.4793 -0.2338  0.2386
 4775SOL    HW225959   3.699   3.625   5.561 -1.8027 -0.2444  0.1043
 4776SOL     OW25960   4.684   0.809  11.127 -0.0743 -0.0407 -0.0649
 4776SOL    HW125961   4.700   0.724  11.168  0.0575  0.1714  0.3175
 4776SOL    HW225962   0.028   0.856  11.145  1.0612 -2.0899  0.1472
 4777SOL     OW25963   2.405   0.734   7.480 -0.1955  0.3056  0.3312
 4777SOL    HW125964   2.383   0.651   7.436  0.8880 -1.6495  3.4894
 4777SOL    HW225965   2.398   0.802   7.413 -0.4895  0.7724  0.8309
 4778SOL     OW25966   4.361   3.289   5.822  0.0795  0.7245  0.2920
 4778SOL    HW125967   4.427   3.338   5.774  0.3191  1.8027  1.7077
 4778SOL    HW225968   4.427   3.251   5.881  2.4258 -0.9708 -3.3919
 4779SOL     OW25969   3.330   3.913  17.393  0.0334 -0.0094 -0.0034
 4779SOL    HW125970   3.250   3.949  17.356 -0.0361  1.2294  1.3386
 4779SOL    HW225971   3.375   3.998  17.398  1.6190 -0.7699 -1.1782
 4780SOL     OW25972   3.838   3.286   6.051 -0.0190 -0.0614  0.4370
 4780SOL    HW125973   3.890   3.342   6.108  1.8237 -0.8279 -0.4812
 4780SOL    HW225974   3.778   3.247   6.115 -1.1159  1.6436  0.4425
 4781SOL     OW25975   0.384   2.626   6.481  0.0710 -0.1479  0.1508
 4781SOL    HW125976   0.357   2.665   6.398  1.3483  1.6302  0.5650
 4781SOL    HW225977   0.453   2.689   6.502  0.5078 -0.8126  0.7183
 4782SOL     OW25978   1.901   1.218   3.308  0.3617 -0.1243 -0.1640
 4782SOL    HW125979   1.978   1.275   3.310  1.7429 -1.9451 -1.1366
 4782SOL    HW225980   1.919   1.140   3.256  1.0039  1.3160 -2.1120
 4783SOL     OW25981   1.131   3.599   3.198 -0.0928 -0.1458 -0.0774
 4783SOL    HW125982   1.133   3.674   3.138  2.8293  0.1198  0.3831
 4783SOL    HW225983   1.041   3.566   3.193 -0.4203  0.5895  0.8437
 4784SOL     OW25984   4.043   2.001   3.334 -0.3632 -0.6290 -0.0429
 4784SOL    HW125985   4.015   1.910   3.326  2.0825 -1.1600 -2.2627
 4784SOL    HW225986   4.124   1.991   3.284 -0.4805  0.2613 -0.4112
 4785SOL     OW25987   2.539   2.178   1.950 -0.3640  0.0011  0.2274
 4785SOL    HW125988   2.481   2.141   1.884  0.2919  0.1571 -0.4406
 4785SOL    HW225989   2.616   2.197   1.896  0.7124 -1.8062  1.1513
 4786SOL     OW25990   0.317   3.900  11.854  0.4192  0.0689 -0.3268
 4786SOL    HW125991   0.392   3.953  11.825 -1.2184  1.6444 -1.6479
 4786SOL    HW225992   0.268   3.959  11.911  0.0234 -1.8606  1.3261
 4787SOL     OW25993   0.146   2.183   7.564 -0.2319 -0.2858 -0.1623
 4787SOL    HW125994   0.077   2.124   7.535  2.1397 -2.9743 -0.3630
 4787SOL    HW225995   0.099   2.256   7.604 -1.6386 -1.1502 -0.2508
 4788SOL     OW25996   3.223   2.339   1.740  0.4008  0.2068  0.2498
 4788SOL    HW125997   3.238   2.253   1.701  2.1777  0.6058  0.0702
 4788SOL    HW225998   3.239   2.323   1.832 -2.2532  1.5761  0.9673
 4789SOL     OW25999   2.627   1.425   7.957  0.1502 -0.3228 -0.5931
 4789SOL    HW126000   2.548   1.372   7.951  0.0464 -0.3698  1.2476
 4789SOL    HW226001   2.593   1.507   7.992  0.4053  0.8430 -3.0913
 4790SOL     OW26002   2.503   3.065   3.293 -0.3458  0.0845 -0.2870
 4790SOL    HW126003   2.574   3.053   3.356 -0.9526  0.8457  0.5375
 4790SOL    HW226004   2.499   3.160   3.278 -0.2223 -0.2234 -2.3705
 4791SOL     OW26005   0.187   1.092   5.770 -0.1144 -0.5864  0.2586
 4791SOL    HW126006   0.157   1.177   5.800  1.5726  0.3199 -0.6308
 4791SOL    HW226007   0.246   1.070   5.842  1.7259  1.0048 -0.7674
 4792SOL     OW26008   2.934   2.826  15.379 -0.0627 -0.2845  0.4494
 4792SOL    HW126009   2.966   2.863  15.296 -0.9322 -0.1418  0.1854
 4792SOL    HW226010   2.895   2.907  15.411  0.0658 -0.1356  0.2334
 4793SOL     OW26011   4.597   2.466   7.935 -0.2548  0.1431 -0.5077
 4793SOL    HW126012   4.521   2.411   7.915 -1.9319  3.3398 -2.8013
 4793SOL    HW226013   4.570   2.557   7.939  0.1302  0.1803  1.2798
 4794SOL     OW26014   2.845   0.935   3.660  0.2882  0.6293  0.1078
 4794SOL    HW126015   2.774   0.965   3.603 -0.7444 -0.1931  0.9558
 4794SOL    HW226016   2.903   1.011   3.648  0.2620  0.6194 -0.0763
 4795SOL     OW26017   1.057   4.250   6.898 -0.0623  0.7735 -0.0119
 4795SOL    HW126018   1.013   4.221   6.818 -0.9687 -0.7720  1.0503
 4795SOL    HW226019   1.087   4.162   6.918 -1.1263 -0.1096 -2.2882
 4796SOL     OW26020   4.705   0.184  12.971 -0.3126 -0.2795  0.2351
 4796SOL    HW126021   0.059   0.186  12.944 -0.4966  0.5168 -0.3501
 4796SOL    HW226022   4.664   0.143  12.894  1.5661 -1.7227  0.0102
 4797SOL     OW26023   3.629   2.544   9.235 -0.1152  0.2069  0.3575
 4797SOL    HW126024   3.558   2.602   9.206  0.0884  0.1399 -0.2695
 4797SOL    HW226025   3.587   2.512   9.315  1.4622 -0.8007  0.7906
 4798SOL     OW26026   3.515   3.481  13.750  0.1717  0.1925  0.2082
 4798SOL    HW126027   3.595   3.533  13.747 -0.2084  0.8348  1.3002
 4798SOL    HW226028   3.531   3.419  13.821  1.5789  1.3824  0.9368
 4799SOL     OW26029   0.763   4.379   2.439 -0.2831 -0.1660 -0.3571
 4799SOL    HW126030   0.757   4.389   2.344  0.7575 -1.3486 -0.5589
 4799SOL    HW226031   0.680   4.419   2.466  0.8421  1.9277 -0.0261
 4800SOL     OW26032   0.967   2.106   9.293  0.0015  0.4491  0.2665
 4800SOL    HW126033   1.058   2.123   9.270 -0.5585  0.1265 -2.2535
 4800SOL    HW226034   0.980   2.032   9.352 -0.6929  0.3092  0.2523
 4801SOL     OW26035   3.743   4.616  10.338  0.0347 -0.2453  0.1016
 4801SOL    HW126036   3.728   4.522  10.332  1.4391 -0.3761 -1.3830
 4801SOL    HW226037   3.723   4.633  10.246  0.2950  0.1415  0.1172
 4802SOL     OW26038   1.817   4.462   4.417  0.1844 -0.2879 -0.4093
 4802SOL    HW126039   1.873   4.384   4.417  1.5767  0.7111  1.2521
 4802SOL    HW226040   1.876   4.528   4.381  2.1014 -1.3712  0.7273
 4803SOL     OW26041   2.805   2.174   5.678  0.3591 -0.6333  0.3540
 4803SOL    HW126042   2.872   2.174   5.746 -0.8901  0.4223  1.5905
 4803SOL    HW226043   2.794   2.268   5.696  1.3099 -0.9030  2.3793
 4804SOL     OW26044   1.536   2.692   8.694 -0.6469 -0.1379 -0.8344
 4804SOL    HW126045   1.623   2.666   8.665  0.1512  0.8807  0.6634
 4804SOL    HW226046   1.550   2.772   8.745 -0.4984  0.8576 -2.4422
 4805SOL     OW26047   1.904   0.169   2.099 -0.1177  0.4542 -0.2828
 4805SOL    HW126048   1.842   0.215   2.155 -0.7439 -0.5183 -0.1649
 4805SOL    HW226049   1.885   0.081   2.132 -0.6688  0.0004 -1.8055
 4806SOL     OW26050   3.782   0.470  12.755  0.3701  0.5921 -0.6716
 4806SOL    HW126051   3.762   0.514  12.672  0.4842 -0.2475 -1.1478
 4806SOL    HW226052   3.873   0.443  12.743  0.9430  3.0167 -1.9405
 4807SOL     OW26053   0.872   4.229   4.624  0.5089 -0.0544 -0.5483
 4807SOL    HW126054   0.851   4.158   4.685  0.6060  1.2235  0.9986
 4807SOL    HW226055   0.852   4.188   4.541  1.4623 -1.1566 -0.2322
 4808SOL     OW26056   2.875   0.720   8.309  0.0278 -0.4218  0.1711
 4808SOL    HW126057   2.851   0.698   8.220  1.0430  0.6048 -0.3568
 4808SOL    HW226058   2.944   0.786   8.298 -0.6807  0.1311 -0.8824
 4809SOL     OW26059   1.581   3.268   8.021 -0.3550 -0.3924  0.1242
 4809SOL    HW126060   1.640   3.327   8.067  0.1456  1.0438 -2.3776
 4809SOL    HW226061   1.500   3.294   8.065 -0.1092 -1.1267  1.0022
 4810SOL     OW26062   4.505   3.116   3.206  1.0075  0.2769 -0.1861
 4810SOL    HW126063   4.489   3.123   3.301 -2.1499 -0.4563 -0.6469
 4810SOL    HW226064   4.593   3.082   3.192  0.9423 -0.0285  0.1306
 4811SOL     OW26065   1.548   3.970   9.687  0.0316 -0.1962  0.1010
 4811SOL    HW126066   1.532   3.909   9.760  0.5542 -1.3134 -0.7245
 4811SOL    HW226067   1.606   3.914   9.636 -0.3028 -0.7402  0.3125
 4812SOL     OW26068   0.440   1.179  14.334  0.4163  0.0725 -0.2989
 4812SOL    HW126069   0.384   1.126  14.277  0.2070  2.6454 -2.4578
 4812SOL    HW226070   0.419   1.140  14.419 -1.0751  1.5033 -0.0105
 4813SOL     OW26071   1.404   1.922  13.503 -0.2507  0.1453  0.6376
 4813SOL    HW126072   1.323   1.955  13.465 -0.0413  0.1721  0.2091
 4813SOL    HW226073   1.439   1.867  13.433  1.8193  0.4946  1.3943
 4814SOL     OW26074   1.529   4.630   9.224 -0.4150  0.2174 -0.7569
 4814SOL    HW126075   1.590   4.565   9.259  0.2649  1.1385 -0.2448
 4814SOL    HW226076   1.582   4.652   9.148  3.7679 -1.5594  1.6583
 4815SOL     OW26077   3.553   4.683  17.343 -0.0874 -0.1245  0.1328
 4815SOL    HW126078   3.488   4.679  17.413 -1.3224  4.1082 -0.7926
 4815SOL    HW226079   3.564   4.588  17.347 -0.3630 -0.3304 -3.7978
 4816SOL     OW26080   2.442   0.830  15.235  0.0804 -0.3434  0.5123
 4816SOL    HW126081   2.476   0.764  15.175 -1.9750 -0.8324 -0.1327
 4816SOL    HW226082   2.442   0.909  15.181  0.5600  0.6547  1.9803
 4817SOL     OW26083   0.171   3.798  13.974 -0.8914 -0.2943  0.1442
 4817SOL    HW126084   0.166   3.861  13.903 -1.8056 -0.1928  0.2978
 4817SOL    HW226085   0.201   3.852  14.047 -0.4165  0.6328 -0.7388
 4818SOL     OW26086   2.367   3.211   4.298 -0.1403 -0.3380 -0.3162
 4818SOL    HW126087   2.418   3.134   4.275 -0.6260  0.1611 -3.0633
 4818SOL    HW226088   2.408   3.251   4.375 -0.6379  1.5102 -1.0126
 4819SOL     OW26089   3.768   2.702   3.739  0.3390  0.9126  0.3562
 4819SOL    HW126090   3.759   2.670   3.829  2.1811  0.0978  0.2487
 4819SOL    HW226091   3.851   2.658   3.722  0.1237 -0.0623  1.8190
 4820SOL     OW26092   1.665   3.794   7.363 -0.0166  0.4184  0.0958
 4820SOL    HW126093   1.662   3.703   7.334  2.4501  0.0177  1.1121
 4820SOL    HW226094   1.745   3.790   7.414 -0.0706 -1.3682  0.0404
 4821SOL     OW26095   0.614   1.939   6.072  0.7904  0.7593 -0.4766
 4821SOL    HW126096   0.690   1.996   6.060  2.5522 -1.5120 -0.1772
 4821SOL    HW226097   0.536   1.993   6.080  1.5518  1.7726  0.1810
 4822SOL     OW26098   1.852   4.315   4.161  0.1169 -0.3805 -0.0237
 4822SOL    HW126099   1.884   4.404   4.149  1.9048 -1.4218 -2.9839
 4822SOL    HW226100   1.919   4.282   4.222 -0.5512 -0.7472  0.5053
 4823SOL     OW26101   2.557   0.107   4.807  0.2040  0.3928  0.4738
 4823SOL    HW126102   2.534   0.186   4.758  1.1082  0.6303  0.4334
 4823SOL    HW226103   2.526   0.045   4.741 -0.0901  0.5663  0.4513
 4824SOL     OW26104   3.247   4.021   3.112 -0.2135 -0.2299  0.2311
 4824SOL    HW126105   3.174   3.964   3.138 -0.0819 -0.5198 -0.0393
 4824SOL    HW226106   3.214   4.108   3.132  1.7666  0.0073  2.4932
 4825SOL     OW26107   2.731   0.956   8.943  0.5366  0.0366 -0.0003
 4825SOL    HW126108   2.717   1.034   8.890 -0.9417 -0.9502 -1.0585
 4825SOL    HW226109   2.800   0.905   8.900  1.6094  2.0873 -0.7141
 4826SOL     OW26110   4.246   0.360   8.591 -0.2604  0.2512  0.0268
 4826SOL    HW126111   4.331   0.345   8.551  0.6324 -2.6930  3.0448
 4826SOL    HW226112   4.193   0.373   8.512  1.8722  1.9437 -1.1005
 4827SOL     OW26113   2.936   2.043   6.442  0.2629 -0.2991 -0.5855
 4827SOL    HW126114   3.004   2.083   6.496 -0.6308 -1.1558  1.1470
 4827SOL    HW226115   2.987   2.009   6.368  0.8326 -0.9818  0.1129
 4828SOL     OW26116   1.952   0.513  10.961 -0.1995  0.0903 -0.5444
 4828SOL    HW126117   1.959   0.596  10.914  0.2955  0.8664  0.8815
 4828SOL    HW226118   1.952   0.539  11.054 -1.7897 -0.3385 -0.4144
 4829SOL     OW26119   2.399   2.688  10.283  0.2444 -0.3647  0.4848
 4829SOL    HW126120   2.407   2.679  10.188 -0.6755 -0.5275  0.4280
 4829SOL    HW226121   2.468   2.637  10.326  1.7006  0.0439 -1.3758
 4830SOL     OW26122   2.591   4.158   5.557 -0.0765 -0.0868 -0.6174
 4830SOL    HW126123   2.527   4.228   5.573 -1.7256 -1.7727  0.2092
 4830SOL    HW226124   2.635   4.170   5.641  4.6024  3.3882 -3.6357
 4831SOL     OW26125   2.957   3.558   4.503 -0.2365 -0.5941 -0.4889
 4831SOL    HW126126   3.009   3.586   4.578 -0.4416  0.7714 -0.8536
 4831SOL    HW226127   2.914   3.482   4.541  0.1828 -1.8982 -2.6221
 4832SOL     OW26128   2.162   0.925   7.931  0.2903  0.2346  0.2204
 4832SOL    HW126129   2.169   0.967   8.016  0.2030 -1.4480  1.0552
 4832SOL    HW226130   2.148   0.996   7.869  3.5586 -1.3532 -2.3822
 4833SOL     OW26131   2.772   2.124   8.047  0.2755  0.2120 -0.1603
 4833SOL    HW126132   2.825   2.193   8.006  1.5125 -1.5234 -1.5059
 4833SOL    HW226133   2.738   2.170   8.123 -1.4510  0.0409 -0.8142
 4834SOL     OW26134   2.774   0.068  16.843  0.4077  0.1789  0.3053
 4834SOL    HW126135   2.824   0.082  16.924  1.1212 -1.2829  0.1038
 4834SOL    HW226136   2.837   0.067  16.771 -0.4455 -0.8597 -0.4128
 4835SOL     OW26137   0.697   2.881   5.461 -0.4925 -0.1282 -0.7944
 4835SOL    HW126138   0.684   2.966   5.502 -1.5468 -0.8613  0.3851
 4835SOL    HW226139   0.726   2.908   5.374 -2.6373  0.3964 -1.3421
 4836SOL     OW26140   1.055   2.987   9.066 -0.0697 -0.2843 -0.0524
 4836SOL    HW126141   1.075   3.080   9.060  0.6360 -0.5577 -1.8094
 4836SOL    HW226142   1.031   2.985   9.159 -0.0631  0.7076 -0.0350
 4837SOL     OW26143   2.255   3.220   7.148 -0.1551 -0.0579  0.1956
 4837SOL    HW126144   2.281   3.303   7.108 -0.5822  0.7319  1.5430
 4837SOL    HW226145   2.180   3.194   7.095 -0.2954 -0.9367  0.8251
 4838SOL     OW26146   0.266   2.197  11.508  0.2910  0.4622 -0.1135
 4838SOL    HW126147   0.223   2.203  11.593  0.1827  3.0666 -0.3569
 4838SOL    HW226148   0.247   2.289  11.487 -0.1687 -0.0586 -1.9751
 4839SOL     OW26149   1.297   0.090  16.477 -0.4238 -0.4961  0.5012
 4839SOL    HW126150   1.327   0.150  16.545 -3.7180 -0.4241  1.8780
 4839SOL    HW226151   1.270   0.139  16.399  2.9090 -0.8797 -0.9019
 4840SOL     OW26152   0.664   1.988   5.414  0.0859 -0.2264 -0.4369
 4840SOL    HW126153   0.712   1.965   5.494  0.0538 -0.9768 -0.6401
 4840SOL    HW226154   0.600   2.051   5.448  2.1459  0.6096  1.8939
 4841SOL     OW26155   2.387   3.006  11.035  0.3540  0.0833 -0.3129
 4841SOL    HW126156   2.445   3.081  11.048  1.1147 -0.7595  1.1980
 4841SOL    HW226157   2.397   2.958  11.118  0.1699  0.1498 -0.2523
 4842SOL     OW26158   1.050   1.448   8.156  0.2499 -0.3353  0.8005
 4842SOL    HW126159   1.093   1.525   8.192  0.0826 -0.2516  0.8206
 4842SOL    HW226160   1.121   1.423   8.096  0.6995 -1.3551  1.7610
 4843SOL     OW26161   0.383   4.488  12.279 -0.0187  0.6152  0.7547
 4843SOL    HW126162   0.455   4.467  12.221 -2.1238 -1.9409 -0.9169
 4843SOL    HW226163   0.424   4.502  12.365  0.2854 -1.4491  0.9394
 4844SOL     OW26164   3.542   1.618   8.403  0.2513  0.2762  0.6720
 4844SOL    HW126165   3.462   1.647   8.447  0.1763  1.6291 -0.3508
 4844SOL    HW226166   3.598   1.633   8.479 -1.4702 -0.1420  2.0352
 4845SOL     OW26167   4.447   2.406   4.458 -0.1013 -0.5153 -0.6224
 4845SOL    HW126168   4.397   2.325   4.473 -0.5390 -0.0599  0.3454
 4845SOL    HW226169   4.424   2.425   4.367 -1.0863  0.8151 -0.1004
 4846SOL     OW26170   4.708   3.129   7.481  0.1202 -0.0911  0.1995
 4846SOL    HW126171   0.028   3.110   7.407 -2.8403  0.9779 -2.3604
 4846SOL    HW226172   4.622   3.102   7.449 -0.1656 -1.7362  2.3363
 4847SOL     OW26173   0.821   2.499   3.004 -0.8192 -0.0714  0.0885
 4847SOL    HW126174   0.756   2.440   3.042  0.0733 -1.6533 -0.8538
 4847SOL    HW226175   0.882   2.499   3.077  1.3695 -0.5888 -1.7588
 4848SOL     OW26176   1.077   0.319   8.251  0.1500 -0.3433  0.2054
 4848SOL    HW126177   1.087   0.401   8.203 -0.3759  0.0027  0.6857
 4848SOL    HW226178   1.017   0.341   8.322  0.2739 -0.9275  0.4924
 4849SOL     OW26179   2.392   4.321  17.597 -0.8176 -0.0118  0.2019
 4849SOL    HW126180   2.386   4.301  17.691 -1.4202 -0.6363  0.0279
 4849SOL    HW226181   2.437   4.404  17.610  0.0282 -0.3212 -0.7573
 4850SOL     OW26182   0.763   4.232   7.877 -0.2763 -0.2925 -0.2216
 4850SOL    HW126183   0.790   4.322   7.895 -0.0082 -0.6010  0.9241
 4850SOL    HW226184   0.807   4.212   7.795 -0.5924  1.1331 -0.7307
 4851SOL     OW26185   3.870   4.711   9.338 -0.2066  0.0371  0.2703
 4851SOL    HW126186   3.781   4.737   9.362 -0.0158 -0.1015  1.1592
 4851SOL    HW226187   3.901   0.060   9.312 -1.2362 -0.0871 -1.3763
 4852SOL     OW26188   2.705   2.977   9.714 -0.3679  0.2703 -0.2457
 4852SOL    HW126189   2.723   2.925   9.792  1.3077 -0.6517 -1.2652
 4852SOL    HW226190   2.773   3.044   9.718  0.7820 -0.8148 -1.6140
 4853SOL     OW26191   3.620   3.919   1.787 -0.3707 -0.3922 -0.3703
 4853SOL    HW126192   3.628   3.922   1.883 -0.0543 -0.7462 -0.3857
 4853SOL    HW226193   3.536   3.874   1.791 -0.7571  0.3732 -0.0149
 4854SOL     OW26194   4.286   3.210  12.173  0.0858  0.0482 -0.7930
 4854SOL    HW126195   4.274   3.305  12.182 -0.1710 -0.0097 -0.5492
 4854SOL    HW226196   4.255   3.183  12.259  1.5581 -0.1912 -0.3431
 4855SOL     OW26197   1.815   2.393   7.441 -0.2048  0.3912  0.3856
 4855SOL    HW126198   1.729   2.365   7.408  1.8887 -2.8326 -2.2976
 4855SOL    HW226199   1.791   2.398   7.533 -1.6332  1.4981 -0.0440
 4856SOL     OW26200   3.046   2.153   7.872  0.0569 -0.1955  0.3840
 4856SOL    HW126201   3.111   2.121   7.935 -0.6626 -0.5447  0.9343
 4856SOL    HW226202   3.000   2.070   7.863  2.3264 -1.4389 -0.0022
 4857SOL     OW26203   4.532   4.186   3.917  0.3649  0.2301 -0.1663
 4857SOL    HW126204   4.500   4.101   3.949 -0.7816  1.0122  0.7668
 4857SOL    HW226205   4.597   4.201   3.985 -1.1222  1.5331  0.9505
 4858SOL     OW26206   1.909   2.246  16.779 -0.4024 -0.1471 -0.1267
 4858SOL    HW126207   1.824   2.255  16.736  0.3176  2.0801 -1.0995
 4858SOL    HW226208   1.960   2.273  16.702  2.3885 -0.8087  1.4679
 4859SOL     OW26209   2.732   3.924  13.482  0.1688  0.8091  0.1333
 4859SOL    HW126210   2.666   3.969  13.534 -0.2026  0.3225  0.0775
 4859SOL    HW226211   2.720   3.947  13.389 -1.5298 -2.5739 -0.4631
 4860SOL     OW26212   3.194   3.677  10.038 -0.3660 -0.8287 -0.3051
 4860SOL    HW126213   3.152   3.752   9.996 -0.7975 -0.3434  0.9877
 4860SOL    HW226214   3.288   3.688  10.025 -0.5102  1.0917  0.2534
 4861SOL     OW26215   3.666   4.199   7.967  0.0842  0.9858  0.3929
 4861SOL    HW126216   3.717   4.263   7.917  0.7937  2.6916  3.2941
 4861SOL    HW226217   3.679   4.221   8.060 -1.2632  2.3080  0.2792
 4862SOL     OW26218   3.759   4.700   7.097 -0.2960 -0.0038  0.1070
 4862SOL    HW126219   3.778   4.647   7.175  1.4386 -1.6092 -1.4027
 4862SOL    HW226220   3.670   4.675   7.073 -0.6324 -0.5823  1.9718
 4863SOL     OW26221   2.399   1.025   0.147 -0.5975 -0.0499 -0.0941
 4863SOL    HW126222   2.424   1.000   0.236 -0.3662 -0.9525 -0.4143
 4863SOL    HW226223   2.469   0.991   0.092 -0.3582 -1.6939  1.2345
 4864SOL     OW26224   0.226   4.094   1.829  0.5692 -0.2736  0.0644
 4864SOL    HW126225   0.196   4.161   1.890 -1.1539 -0.9204 -0.0804
 4864SOL    HW226226   0.181   4.121   1.749 -1.6453  0.7177  1.6568
 4865SOL     OW26227   0.527   0.482   4.820  0.7784  0.4931  0.4698
 4865SOL    HW126228   0.548   0.574   4.833  1.5667  0.4142 -0.2483
 4865SOL    HW226229   0.461   0.470   4.889 -1.4995 -2.1397 -2.1921
 4866SOL     OW26230   0.059   1.309   8.493  0.3701  0.0389  0.4023
 4866SOL    HW126231   0.011   1.385   8.460 -2.2064 -1.6613  0.2423
 4866SOL    HW226232   0.096   1.334   8.578  0.4612  1.8461 -0.1738
 4867SOL     OW26233   1.849   1.966  14.028 -0.5959  0.2112  0.0712
 4867SOL    HW126234   1.778   1.922  14.073 -0.4555 -0.4807 -0.3898
 4867SOL    HW226235   1.899   1.887  14.010  0.6323  0.5314  2.1033
 4868SOL     OW26236   3.901   4.110   9.207 -0.5117 -0.5345 -0.3193
 4868SOL    HW126237   3.873   4.068   9.288 -0.4265 -0.3060 -0.1726
 4868SOL    HW226238   3.840   4.064   9.148 -0.7982  0.2534 -0.6360
 4869SOL     OW26239   2.121   2.873  11.929 -0.5675  0.1332  0.5723
 4869SOL    HW126240   2.055   2.903  11.866  0.2965 -1.7212 -1.2269
 4869SOL    HW226241   2.093   2.926  12.003  0.9555  0.4222  0.9370
 4870SOL     OW26242   2.988   3.148   6.411 -0.1055 -0.2798 -0.4626
 4870SOL    HW126243   2.997   3.178   6.321 -0.7813 -0.2348 -0.5144
 4870SOL    HW226244   3.023   3.059   6.414  0.2387 -0.0996  1.3970
 4871SOL     OW26245   0.423   1.000   4.200  0.1648 -0.1318 -0.2326
 4871SOL    HW126246   0.483   1.055   4.152 -2.1427  1.9566 -0.7345
 4871SOL    HW226247   0.482   0.934   4.235  1.4249  1.9852  1.6217
 4872SOL     OW26248   3.768   3.563   4.021 -0.0966 -0.1463 -0.8931
 4872SOL    HW126249   3.730   3.649   4.039  2.1731  0.7135 -0.2446
 4872SOL    HW226250   3.689   3.508   4.025 -1.2704  1.5020 -1.3613
 4873SOL     OW26251   3.839   0.645   3.058 -0.2477  0.0026 -0.0543
 4873SOL    HW126252   3.808   0.559   3.031  0.7961  0.4960 -2.8011
 4873SOL    HW226253   3.846   0.677   2.969  2.0409 -1.8422 -0.5399
 4874SOL     OW26254   1.735   0.933   7.657 -0.0890 -0.3417 -0.1655
 4874SOL    HW126255   1.727   0.861   7.595  1.0748 -0.2966 -0.3634
 4874SOL    HW226256   1.804   0.897   7.712 -1.5320 -1.3642  0.9855
 4875SOL     OW26257   1.272   2.010  11.187 -0.0151  0.0918 -0.6743
 4875SOL    HW126258   1.211   2.077  11.156 -0.7994 -0.3322 -0.0296
 4875SOL    HW226259   1.278   2.044  11.276 -0.3130  0.2172 -0.7020
 4876SOL     OW26260   1.541   4.375   5.935  0.4965  0.1237 -0.4777
 4876SOL    HW126261   1.506   4.460   5.962  0.1964 -0.7158  1.7229
 4876SOL    HW226262   1.460   4.335   5.905  0.8908 -0.8820 -0.2044
 4877SOL     OW26263   4.479   1.255   5.020  0.2010  0.5970 -0.0029
 4877SOL    HW126264   4.445   1.286   5.103 -0.6021  0.5207 -0.3033
 4877SOL    HW226265   4.462   1.162   5.037  1.0159  0.0979 -1.9114
 4878SOL     OW26266   3.385   3.314   3.829 -0.1267  0.6499  0.6516
 4878SOL    HW126267   3.384   3.250   3.758  0.9825  0.1608  1.0838
 4878SOL    HW226268   3.299   3.291   3.864 -1.0631  1.6014 -1.0490
 4879SOL     OW26269   4.331   0.521  10.957 -0.2640 -0.5388 -0.0066
 4879SOL    HW126270   4.415   0.514  11.002 -0.1672 -0.6760 -0.2121
 4879SOL    HW226271   4.273   0.537  11.032  1.0276  0.3739  0.8063
 4880SOL     OW26272   3.145   3.505   0.209  0.2663  0.2866 -0.2208
 4880SOL    HW126273   3.054   3.504   0.180  0.0720  3.2314  0.2770
 4880SOL    HW226274   3.144   3.591   0.252  0.9735 -0.4342  1.2420
 4881SOL     OW26275   0.933   1.665   6.619 -0.3763 -0.0827  0.3648
 4881SOL    HW126276   0.977   1.675   6.535  0.6129 -0.8598  0.8043
 4881SOL    HW226277   0.910   1.572   6.621  0.9747 -0.4642 -2.0089
 4882SOL     OW26278   2.096   1.806   0.372  0.3540  0.1109  0.1799
 4882SOL    HW126279   2.117   1.828   0.282 -1.0435  0.4365 -0.0751
 4882SOL    HW226280   2.171   1.753   0.399  2.3212  1.3949 -2.8325
 4883SOL     OW26281   1.241   2.937   5.039  0.1671  0.2650  0.1176
 4883SOL    HW126282   1.178   3.009   5.030 -1.5452 -1.1541  0.6682
 4883SOL    HW226283   1.323   2.969   5.003  0.5954 -1.3996 -0.3765
 4884SOL     OW26284   1.039   2.976  13.987 -0.5446 -0.0473  0.7640
 4884SOL    HW126285   1.044   3.051  13.928  0.5958 -0.5286  0.2431
 4884SOL    HW226286   0.978   2.921  13.937 -1.0644 -1.8351  3.3889
 4885SOL     OW26287   0.324   1.024   0.812 -0.3757  0.0788 -0.0493
 4885SOL    HW126288   0.258   0.955   0.804 -0.3571 -0.0391  0.7896
 4885SOL    HW226289   0.273   1.078   0.872  1.2186  0.4464  0.9926
 4886SOL     OW26290   1.589   0.449   4.747  0.3659 -0.4994  0.0757
 4886SOL    HW126291   1.582   0.422   4.839 -0.0691  0.5238  0.3469
 4886SOL    HW226292   1.630   0.372   4.708 -0.5609 -0.5472 -0.7922
 4887SOL     OW26293   2.187   2.827   6.654  0.5141  0.5358  0.6893
 4887SOL    HW126294   2.193   2.849   6.747 -1.3356 -0.4784  1.0386
 4887SOL    HW226295   2.098   2.861   6.639  0.0029 -0.3034  1.8950
 4888SOL     OW26296   1.978   0.109   2.445  0.0193  0.0393  0.2095
 4888SOL    HW126297   2.016   0.189   2.481  0.6846  0.3874 -1.2882
 4888SOL    HW226298   2.018   0.115   2.359  1.3724 -1.0378  0.7469
 4889SOL     OW26299   1.741   3.514   1.742 -0.7067  0.3215  0.5516
 4889SOL    HW126300   1.672   3.539   1.681 -0.0059  0.7937 -0.0360
 4889SOL    HW226301   1.762   3.428   1.706  0.8167  1.0177 -0.2299
 4890SOL     OW26302   3.116   1.581   7.010  0.0985 -0.5816 -0.3434
 4890SOL    HW126303   3.053   1.601   7.079  1.2013  1.4881  0.0882
 4890SOL    HW226304   3.059   1.541   6.945 -0.1425 -0.9137  0.0765
 4891SOL     OW26305   0.850   3.719   2.372 -0.2524 -0.7286  0.7095
 4891SOL    HW126306   0.873   3.669   2.294  0.8726  0.8871  0.0248
 4891SOL    HW226307   0.781   3.663   2.409  0.2444 -0.7808  1.5620
 4892SOL     OW26308   1.433   0.433  11.833  0.6201  0.4151  0.3898
 4892SOL    HW126309   1.431   0.358  11.892  1.3862 -0.7067 -1.0238
 4892SOL    HW226310   1.348   0.477  11.842  0.4850 -0.1023  1.5986
 4893SOL     OW26311   1.675   4.556   3.973 -0.1943  0.5052  0.0872
 4893SOL    HW126312   1.591   4.597   3.994  0.7197  0.9153  3.0142
 4893SOL    HW226313   1.738   4.625   3.995 -0.3541  0.5436  0.4334
 4894SOL     OW26314   2.521   1.859   3.359 -0.3780  0.4650 -0.2673
 4894SOL    HW126315   2.532   1.782   3.302 -1.4354 -0.5760  0.9535
 4894SOL    HW226316   2.604   1.848   3.406 -0.2731  1.8785 -0.1149
 4895SOL     OW26317   4.454   1.966   7.454 -0.2793 -0.6035  0.7754
 4895SOL    HW126318   4.518   1.896   7.468  2.5900  1.7147 -0.6538
 4895SOL    HW226319   4.417   1.972   7.542 -0.4732 -2.3214  0.7993
 4896SOL     OW26320   3.484   3.362   2.051 -0.0764  0.2984  0.5674
 4896SOL    HW126321   3.443   3.285   2.013 -0.0891  1.2005 -1.2553
 4896SOL    HW226322   3.570   3.322   2.042 -0.0057  0.3725  0.9131
 4897SOL     OW26323   2.807   3.408  11.857 -0.0170 -0.9170 -0.4997
 4897SOL    HW126324   2.851   3.446  11.780 -0.1710 -0.4629 -0.3610
 4897SOL    HW226325   2.860   3.330  11.875  0.4906 -0.9918 -2.2887
 4898SOL     OW26326   0.409   1.053  14.554 -0.4225 -0.3222 -0.4313
 4898SOL    HW126327   0.488   1.034  14.604  0.1107  1.3266 -0.6484
 4898SOL    HW226328   0.346   1.005  14.608 -0.2070  1.1254  1.0814
 4899SOL     OW26329   2.038   2.488   6.214 -0.0119  0.2706 -0.3674
 4899SOL    HW126330   2.014   2.580   6.203  3.1083  1.1168  0.0374
 4899SOL    HW226331   2.133   2.494   6.215  0.0547 -0.8411 -0.5255
 4900SOL     OW26332   1.778   3.350   7.605  0.1138  0.5430 -0.3947
 4900SOL    HW126333   1.728   3.325   7.528  1.5868 -1.4273 -0.7301
 4900SOL    HW226334   1.704   3.351   7.665  2.0274 -1.8402  2.0467
 4901SOL     OW26335   2.826   4.261   8.476  0.8021 -0.4725  0.3596
 4901SOL    HW126336   2.753   4.226   8.424 -0.0215 -0.1870  1.3164
 4901SOL    HW226337   2.884   4.293   8.407  1.3425  1.9180  1.9390
 4902SOL     OW26338   0.215   3.923   1.469 -0.1462 -0.0770  0.1211
 4902SOL    HW126339   0.166   3.864   1.412  1.4585 -0.5048 -0.8208
 4902SOL    HW226340   0.249   3.857   1.529  1.8602  1.5729  0.8217
 4903SOL     OW26341   2.334   2.331   1.343 -0.4620  0.1911 -0.1282
 4903SOL    HW126342   2.325   2.333   1.248 -0.4120 -0.7342 -0.1560
 4903SOL    HW226343   2.370   2.418   1.364  2.0822 -0.2785 -2.5081
 4904SOL     OW26344   0.955   0.970   8.725  0.1957 -0.1104  0.2173
 4904SOL    HW126345   1.032   0.939   8.678  0.9592  3.3256 -0.7709
 4904SOL    HW226346   0.880   0.924   8.687  0.8114 -1.9186  1.1666
 4905SOL     OW26347   0.160   4.498   1.249  0.0421 -0.4460 -0.3597
 4905SOL    HW126348   0.238   4.512   1.194  0.4618 -1.5652 -0.0517
 4905SOL    HW226349   0.190   4.497   1.340 -2.6531  1.4714  0.5306
 4906SOL     OW26350   1.327   0.306   5.781 -0.4030  0.0901  0.5123
 4906SOL    HW126351   1.244   0.349   5.764 -0.0190  0.4391 -0.4822
 4906SOL    HW226352   1.307   0.219   5.745 -1.4646 -0.0022  1.3315
 4907SOL     OW26353   3.162   2.415   4.847  0.0245  1.0107  0.4164
 4907SOL    HW126354   3.203   2.495   4.878  1.4462 -0.1330  1.5277
 4907SOL    HW226355   3.241   2.365   4.829 -0.1068  0.9922 -0.1089
 4908SOL     OW26356   1.201   0.701  12.262 -0.7559 -0.1074 -0.0273
 4908SOL    HW126357   1.273   0.643  12.285 -0.3376  0.3140 -0.2937
 4908SOL    HW226358   1.135   0.632  12.249  1.2106 -1.6767 -1.5385
 4909SOL     OW26359   1.768   0.517   5.191 -0.1978 -0.2547  0.4760
 4909SOL    HW126360   1.731   0.566   5.265  0.3214  0.6535  0.1334
 4909SOL    HW226361   1.839   0.472   5.237  0.1747  0.6743  0.8156
 4910SOL     OW26362   1.216   0.677   7.883  0.7095 -0.1984  0.1459
 4910SOL    HW126363   1.219   0.700   7.790  1.5853 -1.1025 -0.0430
 4910SOL    HW226364   1.254   0.589   7.887 -1.1656 -1.1106 -1.9521
 4911SOL     OW26365   2.102   2.790   6.294  0.2841  0.1187 -0.2032
 4911SOL    HW126366   2.172   2.827   6.240 -1.3804 -1.0747 -3.1968
 4911SOL    HW226367   2.044   2.866   6.298 -0.3999 -0.3920 -0.3847
 4912SOL     OW26368   0.398   1.105   7.362  0.9492 -0.5900  0.1582
 4912SOL    HW126369   0.362   1.034   7.309  0.9918 -0.4046 -0.1221
 4912SOL    HW226370   0.395   1.175   7.296  2.1461  1.7022  2.5284
 4913SOL     OW26371   4.197   3.060   6.566  0.7135  0.0035  0.6531
 4913SOL    HW126372   4.254   3.082   6.639  2.3562 -0.5073 -0.4509
 4913SOL    HW226373   4.250   3.090   6.492  0.3798 -1.0433 -0.0103
 4914SOL     OW26374   0.523   1.435   2.907 -0.3319 -0.2909 -0.0238
 4914SOL    HW126375   0.431   1.419   2.927 -0.6414  1.0907 -0.4015
 4914SOL    HW226376   0.559   1.349   2.930  1.7651  0.3837 -0.7989
 4915SOL     OW26377   1.252   3.360   1.418  0.0301  0.1671  0.1007
 4915SOL    HW126378   1.248   3.454   1.432  0.4139  0.3916 -1.3151
 4915SOL    HW226379   1.267   3.367   1.324  0.0137  0.5558  0.1282
 4916SOL     OW26380   1.174   4.573   5.459  0.1704 -0.0856  0.2116
 4916SOL    HW126381   1.192   4.659   5.420  1.1821  0.2057  1.3192
 4916SOL    HW226382   1.247   4.566   5.520  1.0041 -1.0824 -0.9085
 4917SOL     OW26383   3.789   0.776   6.689 -0.2666  0.3766 -0.2187
 4917SOL    HW126384   3.742   0.737   6.616 -1.3786 -0.4940  0.9665
 4917SOL    HW226385   3.728   0.748   6.757 -1.7083 -2.3642 -2.6673
 4918SOL     OW26386   2.113   2.056   8.576 -0.1999  0.3498 -0.4703
 4918SOL    HW126387   2.174   1.987   8.547  1.4890  1.4145  0.5305
 4918SOL    HW226388   2.112   2.104   8.493 -2.4023  2.3933  0.7627
 4919SOL     OW26389   0.738   4.428   5.179  0.4770  0.0041  0.0885
 4919SOL    HW126390   0.730   4.380   5.097 -1.1462  2.0954 -0.9975
 4919SOL    HW226391   0.818   4.396   5.221  0.3864  2.6563  2.3728
 4920SOL     OW26392   1.498   0.572  14.983 -0.0610  0.3312 -0.8172
 4920SOL    HW126393   1.577   0.625  14.984  0.7007 -0.8237  2.3431
 4920SOL    HW226394   1.432   0.628  15.025  1.0634  3.0633 -2.7581
 4921SOL     OW26395   2.167   2.426  17.031  0.4086 -0.4220  0.4890
 4921SOL    HW126396   2.163   2.445  16.937  1.7088  0.6714  0.6649
 4921SOL    HW226397   2.084   2.378  17.030 -0.3763  0.9051  1.8690
 4922SOL     OW26398   1.420   1.054   9.796 -0.2089 -0.4481  0.2361
 4922SOL    HW126399   1.428   1.090   9.884  3.1391 -1.4399  0.3634
 4922SOL    HW226400   1.333   1.015   9.807  0.0206  0.0304  3.5382
 4923SOL     OW26401   0.432   1.449   3.539 -0.8793  0.0283  0.3918
 4923SOL    HW126402   0.463   1.528   3.496 -0.3085 -0.0752  0.5995
 4923SOL    HW226403   0.498   1.385   3.510 -1.0135  0.5695 -1.0802
 4924SOL     OW26404   3.941   3.189   6.625  0.3277 -0.6307 -0.0521
 4924SOL    HW126405   4.027   3.149   6.611  0.7745 -0.5252  2.2948
 4924SOL    HW226406   3.912   3.155   6.710 -1.0677  2.7058  0.8394
 4925SOL     OW26407   1.773   0.924   2.016  0.1073 -0.5827  0.5429
 4925SOL    HW126408   1.770   0.854   2.082  2.2087  0.4348  1.7051
 4925SOL    HW226409   1.704   0.893   1.958 -1.0437  3.0890 -0.0361
 4926SOL     OW26410   0.945   2.994   2.803 -0.3089  0.3549  0.0779
 4926SOL    HW126411   0.900   2.949   2.731  2.1903 -0.9367 -0.6788
 4926SOL    HW226412   0.881   2.986   2.874 -0.7085  0.2574 -0.2925
 4927SOL     OW26413   3.285   0.423   5.941  0.3066 -0.1306 -0.1193
 4927SOL    HW126414   3.299   0.508   5.982  0.2774  0.4730 -1.3871
 4927SOL    HW226415   3.262   0.460   5.856 -1.5772  0.2438  0.5426
 4928SOL     OW26416   1.549   1.665   5.344 -0.3652  0.1145 -0.0657
 4928SOL    HW126417   1.591   1.749   5.363 -0.3173  0.5466 -2.0955
 4928SOL    HW226418   1.470   1.713   5.320 -1.8593 -1.1560  2.3288
 4929SOL     OW26419   2.172   0.443   6.016 -0.2834  0.1329 -0.0353
 4929SOL    HW126420   2.217   0.361   6.038 -1.2419 -0.7478 -1.3520
 4929SOL    HW226421   2.248   0.484   5.976  0.2882  0.7550  1.7012
 4930SOL     OW26422   0.981   0.936   4.047 -0.5218 -0.2171  0.2650
 4930SOL    HW126423   0.984   0.841   4.035 -1.3452 -0.3396  1.0276
 4930SOL    HW226424   1.049   0.962   3.985 -0.0653 -1.5664  0.1919
 4931SOL     OW26425   0.828   4.676  12.342  0.0163  0.0251  0.7694
 4931SOL    HW126426   0.887   4.609  12.308  0.7916  0.8523  0.4778
 4931SOL    HW226427   0.825   4.654  12.435 -1.2862  2.8743  1.4053
 4932SOL     OW26428   3.116   2.544   3.060 -0.6144 -0.7783 -0.4326
 4932SOL    HW126429   3.053   2.590   3.115  1.3286  1.0021  0.2771
 4932SOL    HW226430   3.078   2.564   2.975  0.5807 -0.7808 -0.9636
 4933SOL     OW26431   3.505   4.279   5.724 -0.1559  0.1549 -0.1722
 4933SOL    HW126432   3.483   4.187   5.705 -0.8273 -0.0269  1.5514
 4933SOL    HW226433   3.537   4.312   5.640  0.0216  0.3070 -0.0448
 4934SOL     OW26434   2.094   1.575  17.597  0.0264 -0.4387  0.0439
 4934SOL    HW126435   2.184   1.594  17.570 -0.3116 -0.2994 -0.9693
 4934SOL    HW226436   2.074   1.510  17.530  2.0722 -0.8539 -0.1645
 4935SOL     OW26437   0.692   4.180   2.695  0.2953 -0.2423  0.8178
 4935SOL    HW126438   0.748   4.245   2.653  2.0596 -0.7571  2.3402
 4935SOL    HW226439   0.751   4.104   2.700  0.7931  0.1322  0.5396
 4936SOL     OW26440   4.321   1.935   8.331 -0.6011  0.3540  0.2608
 4936SOL    HW126441   4.317   1.950   8.425  2.2731 -0.2438  0.4842
 4936SOL    HW226442   4.320   1.839   8.340  2.3692  0.3577  0.4938
 4937SOL     OW26443   3.153   1.468  11.689  0.3568  0.3942  0.1368
 4937SOL    HW126444   3.106   1.416  11.753  0.4783  0.5629  0.3617
 4937SOL    HW226445   3.236   1.485  11.734 -0.5921 -2.1481  2.8317
 4938SOL     OW26446   2.193   1.239   5.829 -0.0877  0.0456 -0.2643
 4938SOL    HW126447   2.136   1.312   5.803 -1.2383 -1.6007 -2.3602
 4938SOL    HW226448   2.226   1.276   5.911  1.3465 -3.2883  0.6407
 4939SOL     OW26449   4.568   4.049   1.597  0.7038  0.4728 -0.8588
 4939SOL    HW126450   4.520   3.988   1.541 -0.0126  1.3521 -1.1830
 4939SOL    HW226451   4.501   4.076   1.660  1.0093  0.3924 -0.5000
 4940SOL     OW26452   1.957   4.258  17.481 -0.1377 -0.1082  0.1177
 4940SOL    HW126453   1.945   4.180  17.427 -2.6055 -0.3960  1.0584
 4940SOL    HW226454   1.921   4.331  17.430  0.7391 -1.1492 -1.9996
 4941SOL     OW26455   3.376   4.508   6.653  0.2077 -0.2686 -0.5672
 4941SOL    HW126456   3.307   4.508   6.587  2.0346  0.8150 -2.4722
 4941SOL    HW226457   3.360   4.591   6.700  0.9736  0.4094 -1.5094
 4942SOL     OW26458   0.245   3.360   8.533  0.0734 -0.3213 -0.6160
 4942SOL    HW126459   0.308   3.377   8.603 -0.9453  1.5913 -0.1726
 4942SOL    HW226460   0.176   3.328   8.591 -0.1014  1.2292  0.0291
 4943SOL     OW26461   2.908   0.370   8.338 -0.2549  0.1756 -0.3007
 4943SOL    HW126462   2.952   0.339   8.417  0.4894 -0.8807 -1.1159
 4943SOL    HW226463   2.881   0.455   8.371  2.4981  0.9748 -0.1190
 4944SOL     OW26464   4.703   2.113   5.265 -0.0164  0.3099 -0.2566
 4944SOL    HW126465   4.726   2.046   5.329  1.4859 -0.3426 -1.4832
 4944SOL    HW226466   0.047   2.163   5.266  0.4468 -0.4503 -0.2381
 4945SOL     OW26467   3.640   1.174   4.068  0.1063 -0.3325  0.1089
 4945SOL    HW126468   3.711   1.233   4.091  0.3770  0.1337 -1.8664
 4945SOL    HW226469   3.680   1.096   4.105 -2.2601 -0.3328  2.6427
 4946SOL     OW26470   1.854   4.540  17.374  0.7411  0.4661  0.4691
 4946SOL    HW126471   1.829   4.623  17.335  1.6211  0.0966 -0.8602
 4946SOL    HW226472   1.771   4.536  17.420 -1.1479 -1.7156 -3.1841
 4947SOL     OW26473   0.073   2.040   6.682 -0.3738 -0.2401 -0.1486
 4947SOL    HW126474   0.153   2.007   6.642 -1.1226 -3.0450  0.6434
 4947SOL    HW226475   0.095   2.131   6.703  0.5279 -0.4201 -0.3474
 4948SOL     OW26476   4.386   4.178   8.694 -0.2591 -0.1797 -0.1008
 4948SOL    HW126477   4.459   4.118   8.708  0.3406  0.8461  1.0944
 4948SOL    HW226478   4.418   4.252   8.744 -0.3393 -0.4458  0.3512
 4949SOL     OW26479   3.310   4.050   8.364  0.4325  0.2182 -0.2173
 4949SOL    HW126480   3.391   4.035   8.412  0.3820 -0.6918 -0.4223
 4949SOL    HW226481   3.290   4.139   8.394 -2.4899 -0.5224  0.0960
 4950SOL     OW26482   2.821   1.108  12.552 -0.1300 -0.1994  0.1258
 4950SOL    HW126483   2.769   1.180  12.588 -1.2983 -0.3418 -1.2622
 4950SOL    HW226484   2.748   1.047  12.538  0.9041 -0.4904 -3.9095
 4951SOL     OW26485   3.156   4.577   7.832  0.7043 -0.7156  0.0812
 4951SOL    HW126486   3.182   4.593   7.923  1.7433 -1.5862 -0.0712
 4951SOL    HW226487   3.128   4.486   7.839 -0.9154 -0.3667 -1.7759
 4952SOL     OW26488   0.087   2.150   3.325  0.2517  0.3611  0.5463
 4952SOL    HW126489   0.108   2.060   3.302 -1.4919  0.5361 -1.7076
 4952SOL    HW226490   0.162   2.158   3.384  0.6916 -2.0430  0.2839
 4953SOL     OW26491   0.948   3.449   6.161  0.1987  0.2241  0.1520
 4953SOL    HW126492   0.931   3.514   6.093 -1.6038 -2.0438 -1.5699
 4953SOL    HW226493   1.027   3.494   6.191  1.5514 -2.5885  0.8499
 4954SOL     OW26494   1.293   4.372   3.098  0.2112 -0.1604 -0.0476
 4954SOL    HW126495   1.342   4.314   3.040 -1.6006  0.0174 -1.7300
 4954SOL    HW226496   1.362   4.436   3.114 -0.1252  0.0640  0.5191
 4955SOL     OW26497   0.833   4.389   7.393  0.1965  0.2939  0.1052
 4955SOL    HW126498   0.827   4.462   7.331 -0.2958  0.4847  0.3781
 4955SOL    HW226499   0.858   4.319   7.332 -1.6033 -0.8875  0.7034
 4956SOL     OW26500   1.771   0.165   4.646 -0.8669 -0.2143 -0.0711
 4956SOL    HW126501   1.762   0.154   4.740 -2.1824 -0.8791 -0.2754
 4956SOL    HW226502   1.838   0.234   4.645  0.2025 -1.3031 -4.3293
 4957SOL     OW26503   3.882   1.716   3.267  0.7788 -0.7912 -0.1039
 4957SOL    HW126504   3.884   1.642   3.328  0.5085 -3.8511 -3.8354
 4957SOL    HW226505   3.790   1.723   3.241  0.8710 -3.1035 -1.0522
 4958SOL     OW26506   0.664   4.637   5.629 -0.3820 -0.1218 -0.5371
 4958SOL    HW126507   0.744   4.681   5.602 -0.2950  0.7417  1.0967
 4958SOL    HW226508   0.651   4.565   5.568 -0.0588  0.6095 -1.4493
 4959SOL     OW26509   3.101   4.264  13.009  0.5817  0.2231 -0.9731
 4959SOL    HW126510   3.179   4.213  13.031  1.0256  0.5210 -1.8440
 4959SOL    HW226511   3.138   4.351  13.023  1.6636 -0.3817 -0.1018
 4960SOL     OW26512   3.394   4.580  17.542 -0.4589 -0.4301 -0.3237
 4960SOL    HW126513   3.331   4.618  17.604 -0.3055 -0.9122  0.1267
 4960SOL    HW226514   3.459   4.533  17.594 -0.3946 -0.8694 -0.7980
 4961SOL     OW26515   0.634   0.496   7.106 -0.0281  0.2333 -0.0575
 4961SOL    HW126516   0.652   0.586   7.131 -1.2028  0.5645 -0.4049
 4961SOL    HW226517   0.542   0.508   7.084 -0.3162 -0.2661  0.8694
 4962SOL     OW26518   2.006   3.515   2.335  0.1148  0.5423  0.9685
 4962SOL    HW126519   1.945   3.467   2.390  0.4619  0.8443  1.6125
 4962SOL    HW226520   2.002   3.469   2.251  0.0652 -0.9514  1.7841
 4963SOL     OW26521   1.789   2.649  13.891  0.0736  0.1870 -0.3153
 4963SOL    HW126522   1.779   2.567  13.940 -0.1124  0.5457  0.2412
 4963SOL    HW226523   1.706   2.646  13.843  1.5626 -1.6308 -2.7848
 4964SOL     OW26524   3.329   4.102   0.851 -0.3988  0.6562 -0.1622
 4964SOL    HW126525   3.247   4.099   0.800 -0.4518 -0.5320 -0.0191
 4964SOL    HW226526   3.322   4.183   0.902  0.0422  0.6387 -0.0795
 4965SOL     OW26527   0.026   1.531   4.354 -0.7622 -0.5371 -0.2804
 4965SOL    HW126528   0.070   1.452   4.323 -0.5502 -0.3442 -0.4742
 4965SOL    HW226529   0.068   1.524   4.439  0.3733 -0.6890 -0.8550
 4966SOL     OW26530   1.295   1.442   5.980  0.0695  0.2833  0.4686
 4966SOL    HW126531   1.259   1.447   6.068  1.1492 -2.5541  1.0766
 4966SOL    HW226532   1.259   1.359   5.948  1.7643 -0.0175 -0.6664
 4967SOL     OW26533   3.300   1.218   9.129 -0.1000  0.1010 -0.0785
 4967SOL    HW126534   3.282   1.198   9.037 -3.2680  2.3003  0.0697
 4967SOL    HW226535   3.223   1.262   9.166 -0.8082 -2.5725  1.6462
 4968SOL     OW26536   0.372   1.478   5.728 -0.3731  0.5084  0.3316
 4968SOL    HW126537   0.323   1.543   5.678  0.5328  1.6450  0.9147
 4968SOL    HW226538   0.384   1.405   5.668 -3.7994  1.8464 -1.9706
 4969SOL     OW26539   0.408   1.698   1.541 -0.0577 -0.4080  0.2336
 4969SOL    HW126540   0.438   1.628   1.599  0.1011 -2.3343 -2.1751
 4969SOL    HW226541   0.353   1.651   1.478 -0.6805 -1.7979  1.8403
 4970SOL     OW26542   1.148   0.251  14.850  0.0418  0.2461 -0.3067
 4970SOL    HW126543   1.206   0.327  14.861 -2.6120  2.3453 -0.8744
 4970SOL    HW226544   1.125   0.257  14.757 -1.5894 -2.5787 -0.0600
 4971SOL     OW26545   2.202   3.268  17.356 -0.4145  0.2680 -0.2925
 4971SOL    HW126546   2.210   3.213  17.278 -0.3701  0.5862 -0.5114
 4971SOL    HW226547   2.222   3.203  17.424  3.7581 -0.1295 -1.8951
 4972SOL     OW26548   0.628   4.062  13.550  0.1245  0.4965 -0.5290
 4972SOL    HW126549   0.656   3.972  13.565  0.6858  1.0880  1.9437
 4972SOL    HW226550   0.633   4.066  13.455 -0.4453 -0.4233 -0.5911
 4973SOL     OW26551   4.040   1.309   3.041  0.2746 -0.3716  0.1655
 4973SOL    HW126552   4.125   1.348   3.062 -0.8117  1.9108  0.2878
 4973SOL    HW226553   4.072   1.218   3.040  0.3404 -0.3480 -0.2732
 4974SOL     OW26554   1.406   4.112   3.266  0.1937 -0.4772 -0.4167
 4974SOL    HW126555   1.316   4.098   3.234  0.3399 -0.4064 -0.8634
 4974SOL    HW226556   1.440   4.188   3.219 -0.0046 -0.7257 -0.9621
 4975SOL     OW26557   0.442   1.743   5.560  0.3153 -0.2469  0.0542
 4975SOL    HW126558   0.475   1.798   5.630  2.5511 -0.2066 -1.0530
 4975SOL    HW226559   0.359   1.713   5.597 -0.5161  1.4979 -0.3835
 4976SOL     OW26560   2.857   4.468  13.237  0.1291  0.3724  0.8576
 4976SOL    HW126561   2.839   4.478  13.144 -0.2990 -1.9482  0.6891
 4976SOL    HW226562   2.867   4.562  13.255 -0.7178  0.5475  0.3658
 4977SOL     OW26563   1.676   1.223  14.616 -0.2451  0.0844 -0.1480
 4977SOL    HW126564   1.653   1.132  14.631 -1.4118  0.4299  0.1313
 4977SOL    HW226565   1.666   1.262  14.703  1.2417 -0.8542  0.4432
 4978SOL     OW26566   0.638   1.490   7.383 -0.0882  0.1180  0.4230
 4978SOL    HW126567   0.550   1.472   7.415  0.3074 -0.8616  0.9710
 4978SOL    HW226568   0.683   1.457   7.460  0.0175  0.3317  0.4540
 4979SOL     OW26569   1.437   1.494   5.759 -0.3374 -0.3570 -0.0491
 4979SOL    HW126570   1.444   1.408   5.717  0.3290  0.3705 -1.4194
 4979SOL    HW226571   1.387   1.470   5.837  2.9542 -0.7979  1.9044
 4980SOL     OW26572   3.822   3.498   9.512 -0.3721 -0.2524 -0.3009
 4980SOL    HW126573   3.899   3.542   9.548  0.4017 -0.1445 -2.0900
 4980SOL    HW226574   3.816   3.422   9.569 -2.0867  0.8000  0.9472
 4981SOL     OW26575   4.220   4.158   5.882  0.1091  0.0996 -0.0123
 4981SOL    HW126576   4.210   4.185   5.973  1.3463  2.6465 -0.6376
 4981SOL    HW226577   4.149   4.207   5.842 -0.9067 -0.5682  0.9653
 4982SOL     OW26578   2.814   3.440   4.187 -0.0326  0.0031  0.2394
 4982SOL    HW126579   2.900   3.432   4.230  0.8472 -0.7810 -1.6662
 4982SOL    HW226580   2.782   3.350   4.191 -0.9497  0.4213  2.3472
 4983SOL     OW26581   0.824   0.314  12.622  0.4228  0.3814  0.2539
 4983SOL    HW126582   0.799   0.287  12.533 -1.1601 -1.0624  1.1480
 4983SOL    HW226583   0.827   0.410  12.621 -1.1756  0.4502  1.7981
 4984SOL     OW26584   1.178   1.848   9.269 -0.2440  0.4082  0.2438
 4984SOL    HW126585   1.194   1.942   9.279  0.7623  0.0608  1.9633
 4984SOL    HW226586   1.268   1.824   9.287 -0.3581  1.5955  2.4099
 4985SOL     OW26587   4.684   1.872   1.901  0.3562 -0.1820  0.8279
 4985SOL    HW126588   4.658   1.963   1.888  1.9028  0.0901 -0.3728
 4985SOL    HW226589   0.040   1.877   1.881  0.5113 -1.2120  1.2741
 4986SOL     OW26590   4.309   0.641  16.267 -0.0756  0.2587  0.4052
 4986SOL    HW126591   4.242   0.618  16.331 -2.9065 -1.8919 -3.2833
 4986SOL    HW226592   4.319   0.558  16.220 -1.0385 -1.0716  2.5665
 4987SOL     OW26593   0.671   3.004   1.944  0.4112  0.4098 -0.4515
 4987SOL    HW126594   0.722   3.057   1.883 -1.7697  2.0620 -0.8147
 4987SOL    HW226595   0.662   3.060   2.021  0.8465  1.0214 -0.8527
 4988SOL     OW26596   0.734   2.535   2.389 -0.1709  0.1700 -0.6583
 4988SOL    HW126597   0.822   2.554   2.356  0.2269 -0.3076  0.1099
 4988SOL    HW226598   0.679   2.567   2.318  0.1205  0.0539 -0.9370
 4989SOL     OW26599   3.635   2.539  11.707 -0.5879  0.2654 -0.0193
 4989SOL    HW126600   3.613   2.581  11.624  0.5206 -2.0762 -1.4969
 4989SOL    HW226601   3.590   2.603  11.763  0.8360  2.0040 -0.8668
 4990SOL     OW26602   0.298   2.338   3.352 -0.5452 -0.1145 -0.5799
 4990SOL    HW126603   0.295   2.280   3.427  0.8917 -0.5338 -0.8505
 4990SOL    HW226604   0.359   2.288   3.298  0.0406 -0.8705  0.8042
 4991SOL     OW26605   1.524   3.784  13.803  0.5180 -0.3389 -0.2749
 4991SOL    HW126606   1.519   3.844  13.729  0.5249 -0.4746 -0.3843
 4991SOL    HW226607   1.574   3.836  13.866  2.9581 -3.7685  0.6407
 4992SOL     OW26608   3.943   4.580   5.865  0.1311  0.0044  0.5316
 4992SOL    HW126609   3.895   4.618   5.790 -0.3210  0.2598  0.9480
 4992SOL    HW226610   3.878   4.529   5.913 -1.2061  1.9536  0.8045
 4993SOL     OW26611   1.038   4.610   1.343 -0.6341 -0.6530  0.6508
 4993SOL    HW126612   1.123   4.620   1.387  0.7501 -1.9817 -1.7303
 4993SOL    HW226613   1.023   4.524   1.381 -0.6852 -0.2697  1.4987
 4994SOL     OW26614   1.754   0.637   5.443 -0.0868  0.1232 -0.7336
 4994SOL    HW126615   1.820   0.663   5.508 -1.1220 -2.1597  1.2599
 4994SOL    HW226616   1.697   0.575   5.489  0.7988 -1.3246 -1.5722
 4995SOL     OW26617   2.874   3.779  17.250 -0.3477 -0.9309 -0.5339
 4995SOL    HW126618   2.926   3.850  17.214 -2.1629  1.6863  2.0073
 4995SOL    HW226619   2.794   3.786  17.198  1.3769 -0.4817 -3.1403
 4996SOL     OW26620   2.257   2.928   8.588 -0.4400 -0.4949  0.5729
 4996SOL    HW126621   2.285   2.837   8.595 -0.1807 -0.5788 -1.5832
 4996SOL    HW226622   2.187   2.924   8.653  0.7705 -0.2059  1.8934
 4997SOL     OW26623   1.801   2.796   4.225  0.4749 -0.0960 -0.7734
 4997SOL    HW126624   1.883   2.844   4.211  0.2311  0.1968 -1.1935
 4997SOL    HW226625   1.812   2.731   4.156 -0.0846 -1.0078 -0.0148
 4998SOL     OW26626   2.945   3.452   2.721  0.2402  0.4841 -0.3976
 4998SOL    HW126627   3.021   3.394   2.725  1.8473  2.5888 -0.2713
 4998SOL    HW226628   2.977   3.523   2.665 -1.5996  1.0770 -0.7122
 4999SOL     OW26629   3.559   2.157   9.504 -0.1304 -0.4882  0.3861
 4999SOL    HW126630   3.497   2.221   9.469 -0.1047 -0.7984 -0.2249
 4999SOL    HW226631   3.497   2.108   9.558  1.5023 -1.1333  1.6436
 5000SOL     OW26632   0.305   4.313   5.306  0.0643  0.7672  0.2081
 5000SOL    HW126633   0.309   4.399   5.263  5.0705  0.9653  1.0952
 5000SOL    HW226634   0.372   4.318   5.375  0.1747 -1.1188  0.2448
 5001SOL     OW26635   2.735   1.408   8.343  0.0860 -0.5196  0.7181
 5001SOL    HW126636   2.711   1.322   8.377  1.7439 -1.1603  0.2467
 5001SOL    HW226637   2.817   1.385   8.299  0.4426  0.6394  0.7789
 5002SOL     OW26638   1.868   4.601  14.475 -0.1371 -0.4371  1.2051
 5002SOL    HW126639   1.868   4.517  14.428  1.6507  0.1893  0.0787
 5002SOL    HW226640   1.776   4.594  14.502 -0.4966  2.0116  0.6031
 5003SOL     OW26641   4.594   0.840   9.799  0.8732 -0.1797  0.3873
 5003SOL    HW126642   4.651   0.911   9.771  1.8251 -0.5805  1.2966
 5003SOL    HW226643   4.576   0.860   9.891 -1.7179  1.1588 -0.4179
 5004SOL     OW26644   1.084   2.982   6.921 -0.4599  0.0716  0.2565
 5004SOL    HW126645   1.153   3.037   6.885 -0.0666 -1.3287 -1.1222
 5004SOL    HW226646   1.052   2.945   6.839  1.3417 -2.3337  0.5982
 5005SOL     OW26647   1.958   0.575  11.233 -0.6153 -0.2222  0.4919
 5005SOL    HW126648   1.965   0.662  11.273 -0.4287  0.4717 -1.0424
 5005SOL    HW226649   2.050   0.550  11.240 -0.9209 -1.4621  0.0202
 5006SOL     OW26650   0.506   4.149   6.387 -0.0575  0.0072  0.0203
 5006SOL    HW126651   0.521   4.243   6.391  0.1740 -0.0554  0.7023
 5006SOL    HW226652   0.453   4.139   6.466  0.7240 -0.1548  0.5330
 5007SOL     OW26653   0.151   3.807   3.872  0.2039  0.0403 -0.1156
 5007SOL    HW126654   0.246   3.804   3.883  0.5474 -2.7186 -3.8661
 5007SOL    HW226655   0.130   3.733   3.929  1.6493 -0.6703 -0.4863
 5008SOL     OW26656   4.006   1.140  14.027 -0.1168  0.1244  0.6566
 5008SOL    HW126657   4.096   1.123  13.998 -0.5916 -0.4341 -0.5076
 5008SOL    HW226658   3.978   1.058  14.068 -2.0862  1.0961  1.2727
 5009SOL     OW26659   2.918   1.354   3.546 -0.5352  0.2315 -0.1405
 5009SOL    HW126660   2.985   1.414   3.578 -0.0085  0.5640 -1.8402
 5009SOL    HW226661   2.959   1.276   3.581  0.0670  0.4248 -0.4279
 5010SOL     OW26662   0.106   4.220   1.243 -0.0673  0.3021  0.0759
 5010SOL    HW126663   0.026   4.206   1.294 -0.4977 -2.0369 -1.2064
 5010SOL    HW226664   0.121   4.313   1.258 -1.4091  0.3069  1.3569
 5011SOL     OW26665   2.943   0.413   7.194  0.2910  0.1254  0.3927
 5011SOL    HW126666   2.915   0.470   7.265 -0.0961  1.3570 -0.7400
 5011SOL    HW226667   2.924   0.464   7.115  0.0961  1.8114  1.5435
 5012SOL     OW26668   2.335   3.133   0.003 -0.1766 -0.0632 -0.3747
 5012SOL    HW126669   2.401   3.064  17.741 -1.5095 -1.2863 -0.7841
 5012SOL    HW226670   2.257   3.094  17.709  0.3345 -1.3267 -0.1280
 5013SOL     OW26671   0.816   1.987   5.649  0.5293  0.3602  0.2179
 5013SOL    HW126672   0.803   2.081   5.664  0.9218  0.5486 -0.6051
 5013SOL    HW226673   0.911   1.977   5.661  0.3141 -0.3665  1.3036
 5014SOL     OW26674   0.498   0.233   8.303  0.2551  0.5712 -0.4553
 5014SOL    HW126675   0.428   0.258   8.242  1.3674  0.1557 -1.8953
 5014SOL    HW226676   0.574   0.281   8.271  0.7813 -0.0867 -0.1947
 5015SOL     OW26677   1.686   4.200   8.540 -0.3440 -0.0631 -0.0122
 5015SOL    HW126678   1.643   4.119   8.515  0.2497 -1.5398  3.7208
 5015SOL    HW226679   1.769   4.168   8.577  0.4373  1.7617 -0.1661
 5016SOL     OW26680   3.966   3.197  14.327  0.1883 -0.2331 -0.2495
 5016SOL    HW126681   3.984   3.137  14.400  1.9015 -0.8752 -1.2084
 5016SOL    HW226682   3.955   3.134  14.256 -0.0101  1.7445 -1.9633
 5017SOL     OW26683   2.767   3.477   4.936  0.3044  0.4334 -0.6903
 5017SOL    HW126684   2.776   3.560   4.984  0.5783  0.5034 -0.8587
 5017SOL    HW226685   2.845   3.430   4.966  2.1015  2.4054 -2.2715
 5018SOL     OW26686   1.780   3.227   7.061  0.3187  0.4609  0.2516
 5018SOL    HW126687   1.736   3.257   7.141 -1.7719 -2.0647  0.0223
 5018SOL    HW226688   1.792   3.313   7.021 -0.2758  0.5726  0.3101
 5019SOL     OW26689   1.599   0.853  16.386 -0.4386  0.4558  0.3449
 5019SOL    HW126690   1.539   0.924  16.363  1.3485  2.0436  0.6300
 5019SOL    HW226691   1.572   0.833  16.476 -2.2014  2.0229  0.1742
 5020SOL     OW26692   1.518   1.418   3.881 -0.1911  0.0392 -0.2999
 5020SOL    HW126693   1.580   1.345   3.879  0.3642  0.5185 -0.3997
 5020SOL    HW226694   1.583   1.488   3.883 -1.0150  0.8144 -0.3563
 5021SOL     OW26695   2.457   0.533   2.852  0.1219  0.7204  0.1118
 5021SOL    HW126696   2.543   0.503   2.883 -1.2462 -0.3730  2.8251
 5021SOL    HW226697   2.427   0.457   2.804  2.4718  0.2572 -0.6456
 5022SOL     OW26698   1.972   2.295   9.275 -0.4970  0.2259  0.5103
 5022SOL    HW126699   2.017   2.211   9.269 -0.8612  0.0757 -0.1526
 5022SOL    HW226700   1.935   2.310   9.188 -0.3530  0.3099  0.4629
 5023SOL     OW26701   3.391   0.536  16.833  0.3644  0.1743 -0.1386
 5023SOL    HW126702   3.386   0.591  16.911 -1.0928  0.7644 -0.6462
 5023SOL    HW226703   3.423   0.452  16.866  0.2554  0.2908  0.2652
 5024SOL     OW26704   1.154   3.598   8.990 -0.2037  0.3423 -0.1617
 5024SOL    HW126705   1.121   3.605   9.080  3.3718  1.1881  1.1079
 5024SOL    HW226706   1.250   3.588   8.991 -0.1500  0.8240 -1.0649
 5025SOL     OW26707   4.055   0.527   6.127 -0.5006 -0.2406 -0.2450
 5025SOL    HW126708   3.987   0.473   6.168 -0.6800  0.1521 -0.0208
 5025SOL    HW226709   4.123   0.515   6.193 -0.2596 -0.2120 -0.4870
 5026SOL     OW26710   0.609   3.677   3.162 -0.3426 -0.4157 -0.3451
 5026SOL    HW126711   0.645   3.697   3.248 -0.5988  4.0682 -1.2549
 5026SOL    HW226712   0.541   3.745   3.157 -0.0560  0.0973  3.2291
 5027SOL     OW26713   3.798   0.178   0.567 -0.0201 -0.1470 -0.4980
 5027SOL    HW126714   3.829   0.113   0.630  0.9766 -0.1821 -1.0265
 5027SOL    HW226715   3.843   0.153   0.486  4.1380  2.6760  0.9626
 5028SOL     OW26716   2.720   3.799   5.697 -0.3097 -0.2258 -0.5583
 5028SOL    HW126717   2.776   3.765   5.767 -2.7772 -0.8934  1.0818
 5028SOL    HW226718   2.642   3.834   5.739  1.0861  0.4602  1.4612
 5029SOL     OW26719   2.283   4.218   3.518 -0.3649  0.3415 -0.0417
 5029SOL    HW126720   2.246   4.143   3.563  0.1153  0.7350  1.0040
 5029SOL    HW226721   2.264   4.293   3.574 -1.1464  0.4469 -0.4382
 5030SOL     OW26722   3.523   4.380   3.002 -0.4254  0.3357 -0.0413
 5030SOL    HW126723   3.465   4.330   2.945  2.3228 -1.8421 -0.9335
 5030SOL    HW226724   3.607   4.380   2.957 -0.3306  2.7898  0.1615
 5031SOL     OW26725   1.511   3.569  15.218  0.3183  0.3590  0.2530
 5031SOL    HW126726   1.515   3.504  15.288  1.2221 -0.2363 -0.3436
 5031SOL    HW226727   1.479   3.516  15.144 -1.5992  1.1188  0.5512
 5032SOL     OW26728   3.558   3.611  11.585 -0.0490 -0.4068  0.1968
 5032SOL    HW126729   3.564   3.619  11.681 -0.0281  2.4949 -0.0561
 5032SOL    HW226730   3.512   3.689  11.555  0.8971 -0.9687 -2.6404
 5033SOL     OW26731   0.258   0.654   4.293  0.4419 -0.1229  0.0020
 5033SOL    HW126732   0.328   0.716   4.274 -1.0943  1.4117 -0.6346
 5033SOL    HW226733   0.215   0.697   4.366 -1.5265 -1.8080 -0.1749
 5034SOL     OW26734   3.997   3.948   7.312 -0.0485  0.0853  0.1170
 5034SOL    HW126735   3.916   3.999   7.306 -0.7380 -1.3781 -3.5352
 5034SOL    HW226736   4.059   4.015   7.284 -0.3496  0.1168 -0.4877
 5035SOL     OW26737   1.690   0.608   6.269  0.2387 -0.1319  0.2264
 5035SOL    HW126738   1.746   0.669   6.317  3.0125 -1.2828 -1.5775
 5035SOL    HW226739   1.744   0.532   6.249 -0.0772  0.1027 -1.5586
 5036SOL     OW26740   2.588   1.507  14.529  0.3340 -0.1996 -0.3790
 5036SOL    HW126741   2.645   1.446  14.482  0.5429  0.6079 -1.1838
 5036SOL    HW226742   2.513   1.522  14.471  0.3302  0.8809 -0.0915
 5037SOL     OW26743   0.463   1.350   1.508  0.1462 -0.4707 -0.0205
 5037SOL    HW126744   0.384   1.296   1.504 -0.1526  0.0917 -1.4787
 5037SOL    HW226745   0.527   1.278   1.508 -0.3575 -0.9137  0.3233
 5038SOL     OW26746   3.786   0.088  10.501 -0.0096 -0.4430 -0.3261
 5038SOL    HW126747   3.727   0.155  10.468 -0.8599 -1.9434 -1.8947
 5038SOL    HW226748   3.773   0.024  10.431 -0.3120  1.3514 -1.8701
 5039SOL     OW26749   2.394   3.520   4.986  0.2302 -0.6568  0.1189
 5039SOL    HW126750   2.330   3.588   5.007  0.4336 -0.5619  0.4371
 5039SOL    HW226751   2.347   3.453   4.937 -0.5430 -0.9593  1.2651
 5040SOL     OW26752   1.064   1.536   5.161  0.2281  0.1226  0.9352
 5040SOL    HW126753   1.068   1.615   5.107  1.3506  0.1996  1.1357
 5040SOL    HW226754   1.139   1.549   5.218 -0.6433 -1.3362  2.4449
 5041SOL     OW26755   2.981   2.909   3.967  0.3190 -0.3114 -0.3064
 5041SOL    HW126756   3.022   2.952   4.042 -2.0385 -1.0452  1.3803
 5041SOL    HW226757   2.926   2.978   3.930 -1.6999 -0.9581  1.4929
 5042SOL     OW26758   3.887   0.199   2.673  0.1216 -0.1287 -0.3485
 5042SOL    HW126759   3.810   0.255   2.682  0.3706 -0.2821  2.7981
 5042SOL    HW226760   3.900   0.208   2.579 -2.5162  1.9183 -0.4945
 5043SOL     OW26761   4.377   1.331  12.045 -0.3657  0.1964 -0.2286
 5043SOL    HW126762   4.444   1.338  11.977 -2.4418  4.1852 -1.8643
 5043SOL    HW226763   4.434   1.298  12.115 -1.4787  2.1808  1.6402
 5044SOL     OW26764   2.103   1.580   7.917 -0.1775  1.0389 -0.0270
 5044SOL    HW126765   2.153   1.549   7.994 -0.0117 -0.9108 -0.9080
 5044SOL    HW226766   2.169   1.571   7.848  1.6477 -1.8660  2.0669
 5045SOL     OW26767   1.106   0.122   4.250 -0.3801  0.1096 -0.3784
 5045SOL    HW126768   1.135   0.046   4.199  0.1815  0.6622 -0.8781
 5045SOL    HW226769   1.156   0.095   4.328 -1.3668  1.1052  0.5969
 5046SOL     OW26770   3.570   4.647   9.392  0.4428  0.3649 -0.0311
 5046SOL    HW126771   3.601   4.602   9.471 -1.2368 -0.8255 -0.0630
 5046SOL    HW226772   3.475   4.633   9.392  0.7040 -1.4435  0.5734
 5047SOL     OW26773   3.919   0.776  14.717  0.0980 -0.3243  0.0128
 5047SOL    HW126774   3.924   0.840  14.647  1.9665  0.8641  1.2358
 5047SOL    HW226775   3.837   0.815  14.747  0.3279  0.5768 -0.5323
 5048SOL     OW26776   0.918   1.382   3.068  0.3112  0.4552  0.4871
 5048SOL    HW126777   0.881   1.374   3.155  0.2498 -0.8710  0.3278
 5048SOL    HW226778   0.856   1.333   3.015  1.3833 -0.2408 -0.1311
 5049SOL     OW26779   1.374   4.737  10.984 -0.1038  0.3531  0.4992
 5049SOL    HW126780   1.412   0.044  10.908 -0.2582 -0.3549  0.0026
 5049SOL    HW226781   1.332   0.074  11.027  0.3065 -0.0843  1.6548
 5050SOL     OW26782   2.194   0.238   8.028 -0.0738 -0.1912  0.4764
 5050SOL    HW126783   2.250   0.162   8.044  0.1422 -0.2198 -0.3867
 5050SOL    HW226784   2.175   0.269   8.116  0.9536  0.3515  0.5074
 5051SOL     OW26785   0.303   2.233  10.619 -0.0203 -0.1911 -0.4197
 5051SOL    HW126786   0.353   2.256  10.697 -0.5527  1.6179 -0.6023
 5051SOL    HW226787   0.378   2.207  10.565 -0.5886  0.2156 -1.3942
 5052SOL     OW26788   3.666   1.933   5.149  0.4155 -0.8119  0.3870
 5052SOL    HW126789   3.740   1.937   5.089 -0.8448  2.5923 -0.9795
 5052SOL    HW226790   3.698   1.964   5.233  1.2304  0.9071 -0.5596
 5053SOL     OW26791   1.294   4.088  17.164 -0.0223 -0.0195 -0.3156
 5053SOL    HW126792   1.209   4.044  17.158  1.3479 -2.4383 -1.9458
 5053SOL    HW226793   1.350   4.031  17.111 -1.1020 -0.9359 -0.4898
 5054SOL     OW26794   3.884   1.026   7.922  0.0751 -0.0686 -0.6118
 5054SOL    HW126795   3.806   1.051   7.872  1.8874 -1.3956 -4.1192
 5054SOL    HW226796   3.947   1.097   7.907 -0.3385  0.3803 -0.2390
 5055SOL     OW26797   4.550   2.604   2.056  0.2344 -0.0778  1.1856
 5055SOL    HW126798   4.566   2.679   2.114  0.5103 -0.0011  1.0124
 5055SOL    HW226799   4.626   2.619   2.000 -0.6391  0.8483  0.2392
 5056SOL     OW26800   1.148   1.275   6.443  0.3889  0.0891  0.5061
 5056SOL    HW126801   1.080   1.304   6.503 -0.1054 -0.5648  0.2574
 5056SOL    HW226802   1.110   1.187   6.446 -0.4357  0.3904 -0.9234
 5057SOL     OW26803   4.688   1.556   8.882  0.5422 -0.4459  0.2779
 5057SOL    HW126804   0.019   1.584   8.820 -0.9367  0.2009 -1.0426
 5057SOL    HW226805   4.610   1.605   8.858  1.0950 -0.3681 -1.3822
 5058SOL     OW26806   2.043   1.849   5.611 -0.4409 -0.1989  0.4541
 5058SOL    HW126807   2.000   1.841   5.696  0.8200 -0.4189  1.0588
 5058SOL    HW226808   2.132   1.831   5.641  0.6586 -0.2621 -2.8113
 5059SOL     OW26809   0.026   1.805  16.220 -0.5767  0.4263  0.3974
 5059SOL    HW126810   0.114   1.791  16.184 -0.5472  1.8454 -0.0831
 5059SOL    HW226811   4.718   1.838  16.142  0.4583 -1.2960 -0.9161
 5060SOL     OW26812   2.157   2.969   9.349 -0.1895  0.4266  0.2040
 5060SOL    HW126813   2.223   2.986   9.416  0.8211  0.2891 -0.7729
 5060SOL    HW226814   2.139   2.875   9.351  1.1820  0.1687  0.0514
 5061SOL     OW26815   1.899   2.725   7.745 -0.9326 -0.3888  0.1758
 5061SOL    HW126816   1.830   2.757   7.686 -2.0474 -1.9050  0.6565
 5061SOL    HW226817   1.849   2.715   7.826 -0.3940 -1.7384  0.3571
 5062SOL     OW26818   2.088   2.040   3.559 -0.2869  0.2027 -0.2914
 5062SOL    HW126819   2.087   1.951   3.524  2.3951  0.8438 -1.9631
 5062SOL    HW226820   2.180   2.051   3.534 -0.0013 -3.6752 -0.9197
 5063SOL     OW26821   3.426   0.731  11.455  0.4453 -0.2861  0.0916
 5063SOL    HW126822   3.449   0.667  11.522 -0.6338 -0.8865 -0.1017
 5063SOL    HW226823   3.410   0.804  11.516 -2.1894  0.8437 -1.9450
 5064SOL     OW26824   1.919   4.434   9.053  0.1142 -0.1481 -0.1746
 5064SOL    HW126825   1.938   4.431   9.147 -1.5162  2.4485  0.2403
 5064SOL    HW226826   2.000   4.460   9.009  0.5625  0.6738  1.1369
 5065SOL     OW26827   3.182   2.463  14.327 -0.2990  0.1697  0.7021
 5065SOL    HW126828   3.106   2.478  14.270  0.2117 -0.9520 -0.2492
 5065SOL    HW226829   3.154   2.527  14.393  0.0070 -1.0242  2.0000
 5066SOL     OW26830   1.092   3.943   4.238  0.1553 -0.5123  0.6229
 5066SOL    HW126831   1.174   3.904   4.209  0.2100  0.3952 -0.4410
 5066SOL    HW226832   1.047   3.864   4.267 -1.2256 -1.4760 -4.2801
 5067SOL     OW26833   1.205   1.485   8.432 -0.3450 -0.0638 -0.5003
 5067SOL    HW126834   1.212   1.560   8.373  3.0615 -0.5069 -0.6612
 5067SOL    HW226835   1.117   1.499   8.468 -0.8862 -1.6006 -1.2314
 5068SOL     OW26836   1.328   2.677   5.045  0.1659  0.3083 -0.6903
 5068SOL    HW126837   1.412   2.711   5.016  0.7474  0.0682  0.6940
 5068SOL    HW226838   1.287   2.764   5.045  0.4832  0.4626  0.1900
 5069SOL     OW26839   4.368   4.560  13.426 -0.4021  0.5869 -0.1126
 5069SOL    HW126840   4.411   4.522  13.350  0.6365 -1.0599  1.2942
 5069SOL    HW226841   4.347   4.644  13.386 -1.0049  0.8775  0.8175
 5070SOL     OW26842   2.253   2.139   6.608  0.3361 -0.3062 -0.2029
 5070SOL    HW126843   2.276   2.097   6.691  0.7665 -0.1544 -0.2432
 5070SOL    HW226844   2.196   2.207   6.644  0.2558 -0.2293 -0.4782
 5071SOL     OW26845   3.806   2.785   7.529 -0.4001 -0.1584  0.8456
 5071SOL    HW126846   3.749   2.783   7.606 -1.0241  0.8536  0.4075
 5071SOL    HW226847   3.788   2.873   7.496  0.7351  0.0856  0.9016
 5072SOL     OW26848   3.332   3.593   2.486 -0.1047  0.1131  0.2478
 5072SOL    HW126849   3.401   3.529   2.472 -1.0613 -0.7231 -0.7085
 5072SOL    HW226850   3.338   3.599   2.581  1.4450  2.0270  0.0303
 5073SOL     OW26851   4.514   0.079   2.788 -0.2824  0.1224 -0.2498
 5073SOL    HW126852   4.447   0.012   2.806  1.3134 -1.2865  0.4244
 5073SOL    HW226853   4.516   0.135   2.866  1.1318  1.7232 -1.4453
 5074SOL     OW26854   1.028   4.214   8.788 -0.1692  0.0792  0.3878
 5074SOL    HW126855   0.963   4.144   8.797 -1.3755  0.9603 -1.4670
 5074SOL    HW226856   1.063   4.192   8.701  1.1799  0.5022  0.8242
 5075SOL     OW26857   4.320   3.612   3.972 -0.3404 -0.4039 -0.0986
 5075SOL    HW126858   4.279   3.617   4.058  0.3691  0.9940  0.1565
 5075SOL    HW226859   4.241   3.595   3.920 -0.7476  0.7919  0.1298
 5076SOL     OW26860   4.171   4.388   7.412  0.0735  0.2922  0.7394
 5076SOL    HW126861   4.152   4.302   7.375  2.1157  0.2787 -0.2990
 5076SOL    HW226862   4.186   4.433   7.329 -1.0039 -1.6506 -0.5232
 5077SOL     OW26863   0.008   0.663   5.735  0.1746 -0.1204  0.3380
 5077SOL    HW126864   4.735   0.612   5.815  0.2233 -1.0144 -0.2246
 5077SOL    HW226865   0.083   0.712   5.769  0.1305  0.5002 -0.4741
 5078SOL     OW26866   1.910   0.523   6.432  0.3858  0.1975  0.0853
 5078SOL    HW126867   1.981   0.528   6.368  0.9868  1.2636  0.8243
 5078SOL    HW226868   1.944   0.467   6.502  0.0568  1.4048  1.2075
 5079SOL     OW26869   0.470   1.326   3.791  0.0765  0.1390  0.0486
 5079SOL    HW126870   0.438   1.402   3.841 -1.4858  1.0136 -2.2602
 5079SOL    HW226871   0.454   1.363   3.704  1.3749  0.9639  0.1579
 5080SOL     OW26872   4.588   0.894   6.046 -0.2814  0.2366  0.0313
 5080SOL    HW126873   4.498   0.920   6.029 -0.4426  0.9624  1.9026
 5080SOL    HW226874   4.635   0.969   6.084  0.1236  0.2429 -0.4843
 5081SOL     OW26875   0.226   2.842   9.243 -0.2339  0.5140 -0.1821
 5081SOL    HW126876   0.298   2.810   9.297 -1.6841  1.8670  2.5629
 5081SOL    HW226877   0.263   2.912   9.190 -1.9061  1.0908 -0.5992
 5082SOL     OW26878   3.523   3.413  12.340  0.2438 -0.2623  0.1141
 5082SOL    HW126879   3.516   3.506  12.362 -3.0176 -0.6512  0.5729
 5082SOL    HW226880   3.434   3.391  12.314  0.8989 -1.0907 -1.4787
 5083SOL     OW26881   2.521   1.871  12.884  0.1031  0.4108 -0.1224
 5083SOL    HW126882   2.467   1.878  12.962  0.9311 -0.1482  0.5028
 5083SOL    HW226883   2.505   1.955  12.843 -0.7941  0.1550 -0.2827
 5084SOL     OW26884   0.438   4.259   7.785  0.2259  0.3173  0.9409
 5084SOL    HW126885   0.518   4.218   7.751  0.4282  0.6003  1.0804
 5084SOL    HW226886   0.428   4.335   7.728  0.4711 -0.0823  0.3540
 5085SOL     OW26887   1.916   4.459  10.335  0.0703  0.6576  0.1470
 5085SOL    HW126888   1.910   4.478  10.428 -1.3366 -1.7653  0.5314
 5085SOL    HW226889   1.838   4.406  10.319 -0.1088  1.2196 -0.8573
 5086SOL     OW26890   0.408   1.343   2.657  0.3316 -0.3489 -0.4612
 5086SOL    HW126891   0.452   1.393   2.726 -1.9535  0.1510  0.6283
 5086SOL    HW226892   0.488   1.325   2.606  1.0037 -0.9137  0.8109
 5087SOL     OW26893   2.379   3.820   1.974 -0.2630  0.1408 -0.8223
 5087SOL    HW126894   2.385   3.743   1.917 -0.8406  0.8275 -1.8235
 5087SOL    HW226895   2.298   3.855   1.935 -1.1588  0.4934  1.3353
 5088SOL     OW26896   3.082   2.113   2.934 -0.0988  0.0793 -0.5232
 5088SOL    HW126897   3.029   2.171   2.989 -0.6948 -1.4129  0.4621
 5088SOL    HW226898   3.163   2.163   2.924  0.6143 -0.8560  0.6768
 5089SOL     OW26899   1.633   2.992   8.283 -0.1135  0.1376 -0.0896
 5089SOL    HW126900   1.708   2.987   8.223 -1.5617 -0.8899 -1.8115
 5089SOL    HW226901   1.677   2.984   8.368  0.1981  4.7974  0.1716
 5090SOL     OW26902   0.823   4.105   6.069 -0.1163  0.1567 -0.2340
 5090SOL    HW126903   0.792   4.158   5.995  0.0324  0.6014  0.0223
 5090SOL    HW226904   0.743   4.102   6.121 -0.9542 -2.0537 -1.6661
 5091SOL     OW26905   2.179   3.910   4.694 -0.5326 -0.0330 -0.0923
 5091SOL    HW126906   2.229   3.985   4.726  1.3373 -1.8474  1.2633
 5091SOL    HW226907   2.233   3.831   4.706 -0.0855  0.2697 -0.1045
 5092SOL     OW26908   3.791   3.702   4.530  0.1534 -0.1576  0.6826
 5092SOL    HW126909   3.884   3.703   4.507  0.2818 -1.8554  1.1881
 5092SOL    HW226910   3.764   3.780   4.480  0.7452  1.4451  2.8583
 5093SOL     OW26911   1.048   1.865   5.723 -0.1938 -0.5710  0.3441
 5093SOL    HW126912   1.118   1.810   5.687  0.0372  0.7164 -1.1801
 5093SOL    HW226913   1.098   1.902   5.796 -0.6580  0.7667 -0.0232
 5094SOL     OW26914   0.678   3.019   5.064 -0.1066  0.3943  0.5055
 5094SOL    HW126915   0.693   3.113   5.072  0.2372  0.3067  0.8645
 5094SOL    HW226916   0.592   3.004   5.104  0.2426 -1.0334  0.6909
 5095SOL     OW26917   4.448   2.874   4.037 -0.0208 -0.0834 -0.0448
 5095SOL    HW126918   4.541   2.883   4.017  0.6488 -3.0020  1.7894
 5095SOL    HW226919   4.426   2.784   4.013  1.1105 -0.6508  1.0381
 5096SOL     OW26920   0.184   2.654   2.754  0.6933  0.5233 -0.5911
 5096SOL    HW126921   0.126   2.730   2.750  3.0064  2.2978 -0.8749
 5096SOL    HW226922   0.151   2.598   2.684  0.9511 -3.2104  2.3267
 5097SOL     OW26923   2.825   1.734  15.167  0.1105 -0.4411 -0.4173
 5097SOL    HW126924   2.906   1.766  15.127 -0.4413  2.2904  0.6870
 5097SOL    HW226925   2.857   1.712  15.255 -2.2803 -0.0552  0.5518
 5098SOL     OW26926   3.826   4.381   7.804  0.2520 -0.2856  0.6189
 5098SOL    HW126927   3.900   4.441   7.799 -1.5074  1.8690  0.8900
 5098SOL    HW226928   3.839   4.330   7.724  0.5974 -0.0198  0.5085
 5099SOL     OW26929   4.363   4.566  16.183  0.3185 -0.3328 -0.3724
 5099SOL    HW126930   4.389   4.517  16.105  1.7473 -0.7722  0.3739
 5099SOL    HW226931   4.274   4.590  16.158 -0.0453 -1.5974 -0.2786
 5100SOL     OW26932   0.188   1.183   7.584 -0.0069  0.8763  0.8389
 5100SOL    HW126933   0.232   1.163   7.501 -1.0265  1.2763  0.1982
 5100SOL    HW226934   0.235   1.260   7.614  1.6174  1.2192 -2.5779
 5101SOL     OW26935   0.468   2.432   6.862  0.1191  0.4238 -0.3090
 5101SOL    HW126936   0.491   2.495   6.930 -0.7811  1.8509 -1.3002
 5101SOL    HW226937   0.406   2.482   6.808  2.0470  3.9017  0.6772
 5102SOL     OW26938   2.010   0.319  15.074 -0.1827 -0.1128  0.1379
 5102SOL    HW126939   2.051   0.329  15.160  1.0959 -0.2686 -0.4500
 5102SOL    HW226940   1.937   0.381  15.078  0.2678  0.5461 -1.6723
 5103SOL     OW26941   0.212   1.334   1.206 -0.1780  0.4224 -0.2755
 5103SOL    HW126942   0.267   1.325   1.128  0.9733  0.9718  0.4766
 5103SOL    HW226943   0.127   1.326   1.163  0.4313 -1.4736 -1.1544
 5104SOL     OW26944   0.584   4.200   8.398 -0.4673 -0.3536 -0.0131
 5104SOL    HW126945   0.664   4.147   8.391 -0.3789 -0.4248  1.6528
 5104SOL    HW226946   0.576   4.252   8.318  0.2121  0.0075  0.1569
 5105SOL     OW26947   1.701   3.690   4.484 -0.0552  0.0534  0.2311
 5105SOL    HW126948   1.685   3.596   4.493  1.4417 -0.2259 -0.0694
 5105SOL    HW226949   1.775   3.695   4.424  0.3543 -0.0665  0.7164
 5106SOL     OW26950   3.916   1.989  15.592 -0.2656  0.1295 -0.9199
 5106SOL    HW126951   3.977   2.023  15.658 -1.3508  0.2702  0.0214
 5106SOL    HW226952   3.979   1.943  15.538  1.2269 -0.1915  1.1049
 5107SOL     OW26953   0.826   0.503   5.760  0.1219 -0.9090 -0.1904
 5107SOL    HW126954   0.756   0.556   5.797 -0.7725 -1.0354 -1.6680
 5107SOL    HW226955   0.773   0.459   5.693 -2.8518 -0.8882  2.1578
 5108SOL     OW26956   1.231   1.967   7.671  0.0382 -0.0770  0.3469
 5108SOL    HW126957   1.193   1.929   7.592 -1.0163  0.7769  0.4392
 5108SOL    HW226958   1.291   2.033   7.636 -1.2204  0.4016 -0.9124
 5109SOL     OW26959   0.218   1.227   1.463 -0.2324  0.1703 -0.0686
 5109SOL    HW126960   0.130   1.192   1.455 -1.1926  2.8511 -1.2227
 5109SOL    HW226961   0.219   1.295   1.395  0.1149  0.2339 -0.0042
 5110SOL     OW26962   0.623   0.097  17.627  0.3701 -0.0135 -0.2210
 5110SOL    HW126963   0.636   0.177  17.576  3.8308 -0.4208  0.0318
 5110SOL    HW226964   0.693   0.043  17.590  0.7047 -0.2249  0.7234
 5111SOL     OW26965   2.750   0.315   6.598  0.1513 -0.5361  0.0286
 5111SOL    HW126966   2.773   0.311   6.690 -1.8850  0.8702  0.6087
 5111SOL    HW226967   2.656   0.337   6.599  0.1201 -0.6832  0.2387
 5112SOL     OW26968   2.118   1.982   6.122 -0.1813 -0.3103  0.0358
 5112SOL    HW126969   2.129   1.974   6.217 -0.0921  0.1406  0.0623
 5112SOL    HW226970   2.064   2.060   6.111  0.5378  0.2325  0.3994
 5113SOL     OW26971   0.762   1.896   1.723  0.2957 -0.0437 -0.0173
 5113SOL    HW126972   0.756   1.944   1.806  0.6613  1.5582 -0.9466
 5113SOL    HW226973   0.742   1.809   1.759 -0.3642  0.3360  0.5405
 5114SOL     OW26974   0.023   4.177   6.395 -0.3363  0.4062  0.2564
 5114SOL    HW126975   0.041   4.084   6.382 -0.6727  0.3106  0.4961
 5114SOL    HW226976   0.092   4.196   6.458  0.7045 -2.6267  0.0138
 5115SOL     OW26977   4.606   0.484   3.188  0.6667 -0.2657 -0.1095
 5115SOL    HW126978   4.576   0.496   3.278  0.7035  1.7481 -0.3548
 5115SOL    HW226979   4.564   0.556   3.140  2.8715  0.3635 -1.1142
 5116SOL     OW26980   1.240   0.594   2.627 -0.1655  0.7804 -0.4171
 5116SOL    HW126981   1.269   0.519   2.576  0.6430  0.2075  0.8665
 5116SOL    HW226982   1.153   0.610   2.591 -0.4048 -1.1877 -0.7327
 5117SOL     OW26983   4.169   4.557   3.017  0.0419 -0.1111  0.0397
 5117SOL    HW126984   4.198   4.487   3.076 -0.6442 -0.6629 -0.2842
 5117SOL    HW226985   4.080   4.586   3.039  0.9928  1.0439  2.3829
 5118SOL     OW26986   4.218   1.418   9.283 -0.2078 -0.3578  0.0671
 5118SOL    HW126987   4.257   1.505   9.286 -1.7450  0.3650 -1.2696
 5118SOL    HW226988   4.297   1.366   9.297 -0.9329 -0.5831  3.5514
 5119SOL     OW26989   4.292   3.223   7.167  0.1931 -0.2757 -0.5819
 5119SOL    HW126990   4.197   3.211   7.170  0.3964 -2.3532 -2.2579
 5119SOL    HW226991   4.319   3.239   7.257 -2.3833  0.3178  0.0779
 5120SOL     OW26992   4.588   1.964   4.638 -0.2409  0.0606  0.2926
 5120SOL    HW126993   4.615   2.053   4.615 -0.8139 -0.3707 -2.0880
 5120SOL    HW226994   4.598   1.919   4.554 -1.8714  0.3486 -0.0709
 5121SOL     OW26995   0.590   0.069   3.424  0.2837 -0.7119  0.0943
 5121SOL    HW126996   0.509   0.112   3.453  0.2702  1.4188 -2.9847
 5121SOL    HW226997   0.621   0.025   3.503 -0.4550  1.2948  1.4971
 5122SOL     OW26998   4.635   4.135  12.936 -0.2079  0.2215  1.1348
 5122SOL    HW126999   4.565   4.192  12.904 -0.1477 -1.1560 -1.4518
 5122SOL    HW227000   4.709   4.195  12.930  0.3122 -0.4014  1.2729
 5123SOL     OW27001   1.473   1.630  17.300 -0.1185 -0.0441  0.0749
 5123SOL    HW127002   1.419   1.659  17.227  1.9260  1.2852 -0.8868
 5123SOL    HW227003   1.407   1.651  17.365 -0.3364 -0.5990  0.0386
 5124SOL     OW27004   0.075   1.604   2.169  0.1562  0.1328 -0.1879
 5124SOL    HW127005   0.105   1.522   2.130 -1.2546 -0.9751  1.0517
 5124SOL    HW227006   0.129   1.661   2.116  1.1452  0.0094  0.6844
 5125SOL     OW27007   2.435   0.177   0.820 -0.3339 -0.4729 -0.0344
 5125SOL    HW127008   2.510   0.200   0.765 -1.1179  1.2501 -0.3816
 5125SOL    HW227009   2.452   0.083   0.835 -2.0179 -0.4802  1.8766
 5126SOL     OW27010   1.890   2.007   5.471 -0.2513  0.6083  0.2539
 5126SOL    HW127011   1.894   2.074   5.540 -0.7354  0.9415 -0.0408
 5126SOL    HW227012   1.961   1.955   5.509 -0.9852 -0.2026  0.5033
 5127SOL     OW27013   2.838   3.485  14.900 -0.9711  0.3430  0.1947
 5127SOL    HW127014   2.852   3.552  14.834  1.8730  0.1860  0.6575
 5127SOL    HW227015   2.862   3.537  14.977 -2.1048  0.4445  0.4951
 5128SOL     OW27016   4.078   4.716   7.083  0.1144 -0.1855 -0.6974
 5128SOL    HW127017   4.060   0.052   7.025  0.1486  0.1993 -0.2178
 5128SOL    HW227018   4.016   0.001   7.151  2.2953  0.2940  1.1431
 5129SOL     OW27019   0.983   1.327   4.195 -0.1646  0.1970 -0.3767
 5129SOL    HW127020   1.060   1.353   4.146 -0.6564 -0.4731 -1.5243
 5129SOL    HW227021   1.016   1.243   4.227 -2.8900 -1.7631 -2.6321
 5130SOL     OW27022   4.481   4.620   7.582 -0.2179 -0.2334 -0.1116
 5130SOL    HW127023   4.564   4.667   7.588  0.5228 -1.7194  1.6387
 5130SOL    HW227024   4.475   4.613   7.487  1.1542 -0.1650 -0.2005
 5131SOL     OW27025   3.686   3.392   5.000 -0.2905  0.3374  0.1205
 5131SOL    HW127026   3.671   3.472   4.950  1.0012 -0.3146 -1.3253
 5131SOL    HW227027   3.735   3.434   5.071 -1.5465 -0.6221  1.5491
 5132SOL     OW27028   0.578   1.161   5.512  0.1537 -0.0267 -0.0520
 5132SOL    HW127029   0.515   1.232   5.506  1.0481  0.7304 -0.5645
 5132SOL    HW227030   0.546   1.103   5.443 -0.0668  0.8603 -0.6966
 5133SOL     OW27031   3.892   1.829   5.505  0.0038  0.1427  0.0235
 5133SOL    HW127032   3.844   1.746   5.511  1.3937 -0.9850 -4.7154
 5133SOL    HW227033   3.844   1.883   5.443 -0.2715 -1.2436 -0.9692
 5134SOL     OW27034   1.930   1.814   2.291 -0.2886 -0.3396  0.1873
 5134SOL    HW127035   1.967   1.799   2.204  0.1423 -2.8045  0.7826
 5134SOL    HW227036   1.889   1.900   2.282 -0.7605 -0.4223  1.5377
 5135SOL     OW27037   2.370   1.702   5.866 -0.0245 -0.3671  0.4202
 5135SOL    HW127038   2.290   1.650   5.860 -0.0511 -0.0923 -1.7573
 5135SOL    HW227039   2.374   1.728   5.958  1.7973  1.0548 -0.0552
 5136SOL     OW27040   0.885   2.278   7.553 -0.2106  0.6598 -0.6961
 5136SOL    HW127041   0.978   2.300   7.558  0.0240  0.0717 -2.3365
 5136SOL    HW227042   0.873   2.232   7.636  1.0658 -1.7199 -1.8292
 5137SOL     OW27043   3.586   2.179  16.250  0.5322 -0.2813 -0.6797
 5137SOL    HW127044   3.588   2.268  16.215  0.9422 -0.1248 -0.2527
 5137SOL    HW227045   3.522   2.146  16.187 -0.7137 -0.3484  0.6363
 5138SOL     OW27046   3.972   3.352   9.318 -0.4483  0.3659 -0.3969
 5138SOL    HW127047   4.024   3.429   9.296  1.7904 -0.6665  1.1911
 5138SOL    HW227048   3.889   3.386   9.352 -1.2232 -3.8498  1.9438
 5139SOL     OW27049   1.268   1.532   7.483  0.0040  0.4202 -0.6442
 5139SOL    HW127050   1.361   1.513   7.475 -0.0626 -0.2872  0.2332
 5139SOL    HW227051   1.249   1.498   7.570  3.4106  1.1273  0.3596
 5140SOL     OW27052   3.829   3.386   1.808 -0.3028  0.1296 -0.2422
 5140SOL    HW127053   3.833   3.362   1.716 -0.9768  0.3452 -0.3276
 5140SOL    HW227054   3.782   3.469   1.811 -2.4929 -1.1122  0.3012
 5141SOL     OW27055   2.453   1.280   4.731  0.6003 -0.1666 -0.2660
 5141SOL    HW127056   2.503   1.311   4.806 -0.9596  0.9546  0.3223
 5141SOL    HW227057   2.385   1.347   4.734 -0.6992 -1.5625  2.3891
 5142SOL     OW27058   3.900   0.205   4.835 -0.1523 -0.2370  0.6231
 5142SOL    HW127059   3.836   0.135   4.852 -1.3968  0.8223  0.2858
 5142SOL    HW227060   3.870   0.272   4.896  1.3100  0.3981  0.6468
 5143SOL     OW27061   0.498   2.802   3.583 -0.0112 -0.2390 -0.3685
 5143SOL    HW127062   0.559   2.872   3.607  1.3878 -1.6210  0.0760
 5143SOL    HW227063   0.497   2.825   3.490 -0.0666 -0.3658 -0.3983
 5144SOL     OW27064   1.510   2.644   4.698  0.0403 -0.1452  0.0156
 5144SOL    HW127065   1.582   2.672   4.641  0.7671 -2.0854 -0.0250
 5144SOL    HW227066   1.471   2.729   4.717 -0.3502 -0.1459 -0.7663
 5145SOL     OW27067   1.995   3.222   1.820 -0.2908 -0.3636 -0.2738
 5145SOL    HW127068   2.049   3.283   1.769 -0.1394  1.5856  2.2732
 5145SOL    HW227069   1.914   3.229   1.770 -1.6129  1.7047  2.2195
 5146SOL     OW27070   3.076   1.440   5.556  0.3430  0.1344  0.7971
 5146SOL    HW127071   3.016   1.485   5.616  0.2585  1.2759 -0.1444
 5146SOL    HW227072   3.015   1.412   5.487  0.1071 -0.2670  1.1696
 5147SOL     OW27073   2.545   1.025   4.796  0.0634 -0.7060  0.3463
 5147SOL    HW127074   2.462   0.999   4.835 -1.9485  2.0580 -2.0286
 5147SOL    HW227075   2.518   1.105   4.751 -0.4899 -1.3714 -0.5248
 5148SOL     OW27076   1.175   1.118   1.960 -0.0022 -0.4003 -0.3273
 5148SOL    HW127077   1.230   1.174   2.015  2.1171 -0.2538 -2.5891
 5148SOL    HW227078   1.148   1.190   1.904 -0.3626 -1.3729 -1.3918
 5149SOL     OW27079   0.411   0.132   5.580 -0.0565  0.1233  0.2751
 5149SOL    HW127080   0.404   0.182   5.661  0.6705  0.6654  0.0061
 5149SOL    HW227081   0.451   0.049   5.604  1.7379  0.8402 -0.2343
 5150SOL     OW27082   3.767   3.500  16.010  0.0124 -0.0260  0.0931
 5150SOL    HW127083   3.802   3.516  16.098 -0.6687  1.6434  0.0398
 5150SOL    HW227084   3.674   3.492  16.031  0.3249  1.3789  1.9917
 5151SOL     OW27085   2.993   4.083   5.729 -0.9805  0.0049  0.1681
 5151SOL    HW127086   3.067   4.059   5.674  0.1334 -0.3401  1.8107
 5151SOL    HW227087   3.027   4.060   5.816 -0.6475 -2.3461 -0.5946
 5152SOL     OW27088   2.919   2.491  14.873 -0.2303 -0.6049  0.4868
 5152SOL    HW127089   2.870   2.467  14.951  0.4223 -0.3642  0.9650
 5152SOL    HW227090   2.857   2.559  14.846  2.0634  1.2648  0.0281
 5153SOL     OW27091   3.465   1.352   6.351 -0.6535 -0.0292 -0.1269
 5153SOL    HW127092   3.404   1.344   6.424 -2.1678 -1.4904 -1.5580
 5153SOL    HW227093   3.544   1.376   6.399 -0.7388  0.9546 -0.4848
 5154SOL     OW27094   4.534   2.132   2.946  0.0246  0.3079  0.3411
 5154SOL    HW127095   4.444   2.166   2.941 -0.0565  0.2005  1.0161
 5154SOL    HW227096   4.522   2.041   2.921  0.2299  0.9498 -2.1077
 5155SOL     OW27097   2.903   0.031   8.337 -0.0124  0.0481 -0.2750
 5155SOL    HW127098   2.870   4.705   8.273  2.9146 -2.9342  1.2207
 5155SOL    HW227099   2.996   0.010   8.335  0.1390  0.7333 -0.6702
 5156SOL     OW27100   3.136   3.733   1.205 -0.3339  0.5651  0.6117
 5156SOL    HW127101   3.090   3.814   1.181 -1.7350 -0.4657 -0.1419
 5156SOL    HW227102   3.106   3.674   1.136  0.6267 -0.7313  1.3023
 5157SOL     OW27103   1.116   3.320  16.293 -0.3766 -0.5253  0.0705
 5157SOL    HW127104   1.067   3.375  16.354 -0.2553 -1.2931  0.8513
 5157SOL    HW227105   1.101   3.234  16.333 -4.2731  0.1747  0.1748
 5158SOL     OW27106   4.563   2.333   5.360  0.3735  0.1294  0.3845
 5158SOL    HW127107   4.580   2.240   5.343  2.4442  0.6771 -0.5099
 5158SOL    HW227108   4.648   2.373   5.341 -0.2726  2.2207  2.0009
 5159SOL     OW27109   1.249   3.838   7.400 -0.2453 -0.2540  0.4135
 5159SOL    HW127110   1.277   3.748   7.382 -1.3390 -0.4006 -0.6009
 5159SOL    HW227111   1.329   3.887   7.385  0.7980 -1.8410  0.7873
 5160SOL     OW27112   1.955   3.873  14.098  0.2884 -0.1575  0.0460
 5160SOL    HW127113   2.004   3.850  14.178  1.5303 -2.0396 -1.2449
 5160SOL    HW227114   1.946   3.967  14.112 -0.8693 -0.2386 -0.1158
 5161SOL     OW27115   2.208   0.429  14.917  0.0185  0.0040 -0.7741
 5161SOL    HW127116   2.138   0.383  14.963  1.4281 -1.6026 -0.2090
 5161SOL    HW227117   2.160   0.459  14.840 -1.5855  0.5046  0.4403
 5162SOL     OW27118   0.453   2.002   3.827  0.2956  0.3047 -0.3074
 5162SOL    HW127119   0.361   2.028   3.829 -0.1079 -1.2003  1.9323
 5162SOL    HW227120   0.499   2.076   3.788  2.0839 -1.6345 -1.8773
 5163SOL     OW27121   0.212   3.050   1.019 -0.1794 -0.4493 -0.5382
 5163SOL    HW127122   0.204   2.971   0.966 -2.8681  1.5413 -3.1048
 5163SOL    HW227123   0.301   3.077   0.997  0.8102 -2.0835  1.5012
 5164SOL     OW27124   1.442   0.266  17.570 -0.2045 -0.0082 -0.2621
 5164SOL    HW127125   1.464   0.354  17.599  2.2028 -0.8973  0.5996
 5164SOL    HW227126   1.347   0.271  17.559 -0.2156 -3.9368 -1.9168
 5165SOL     OW27127   1.222   0.403   3.553  0.6467  0.1650 -0.0063
 5165SOL    HW127128   1.246   0.321   3.509 -4.3220 -0.5831 -1.3563
 5165SOL    HW227129   1.215   0.374   3.644 -1.0325  0.1880 -0.1223
 5166SOL     OW27130   0.279   4.191  11.167  0.4351  0.0654 -0.2968
 5166SOL    HW127131   0.243   4.106  11.141 -0.9416 -0.0185  1.9111
 5166SOL    HW227132   0.338   4.173  11.240  2.0511 -2.1876 -2.1593
 5167SOL     OW27133   3.337   1.257   9.542 -0.3314 -0.0148  0.1269
 5167SOL    HW127134   3.430   1.263   9.563 -0.0374 -0.2132 -1.1144
 5167SOL    HW227135   3.330   1.173   9.496  0.4034 -0.3513  0.6216
 5168SOL     OW27136   1.654   3.196   4.269  0.0568  0.1676 -0.0410
 5168SOL    HW127137   1.740   3.168   4.239 -0.4707  2.2005 -3.4359
 5168SOL    HW227138   1.670   3.274   4.322  0.9354 -0.8568  1.2002
 5169SOL     OW27139   3.122   2.906   6.333  0.3648 -0.0714  0.3354
 5169SOL    HW127140   3.214   2.886   6.349  0.0943 -0.8196  1.0044
 5169SOL    HW227141   3.087   2.817   6.329 -0.7404  0.4607 -1.5329
 5170SOL     OW27142   1.778   0.548   2.250 -0.0626 -0.6552  0.5040
 5170SOL    HW127143   1.867   0.583   2.250 -0.5688  0.6268 -0.1054
 5170SOL    HW227144   1.739   0.598   2.178 -1.1216 -2.9282 -0.4978
 5171SOL     OW27145   2.425   1.432  10.863  0.4675  0.4561 -0.1266
 5171SOL    HW127146   2.340   1.450  10.822  0.6682 -1.1870 -1.2725
 5171SOL    HW227147   2.405   1.460  10.953 -0.6411  0.5818 -0.4062
 5172SOL     OW27148   2.558   3.106  10.408  0.0556  0.2417 -0.3976
 5172SOL    HW127149   2.621   3.037  10.425  0.3613  0.7385  0.4699
 5172SOL    HW227150   2.477   3.069  10.444  0.4358 -0.3086 -0.1124
 5173SOL     OW27151   2.555   0.115   8.652 -0.3646 -0.2942  0.5780
 5173SOL    HW127152   2.575   0.197   8.698 -1.3181  0.4917 -0.4151
 5173SOL    HW227153   2.643   0.094   8.621 -1.0347 -1.8178 -0.3040
 5174SOL     OW27154   1.531   3.815  11.914  0.0591 -0.4892  0.0207
 5174SOL    HW127155   1.468   3.852  11.852 -0.6194  0.1544  1.1041
 5174SOL    HW227156   1.469   3.801  11.986 -1.8321 -1.0976 -1.7391
 5175SOL     OW27157   1.539   0.164   6.314 -0.4728 -0.9151  0.4192
 5175SOL    HW127158   1.531   0.250   6.355 -0.6035 -0.9273  0.4198
 5175SOL    HW227159   1.575   0.124   6.393 -1.1688  0.3943  1.3974
 5176SOL     OW27160   1.222   1.274   5.752  0.0976 -0.1860 -0.0688
 5176SOL    HW127161   1.280   1.201   5.734 -0.8348 -0.7028 -0.9721
 5176SOL    HW227162   1.136   1.234   5.742  0.8976 -1.2603 -2.6449
 5177SOL     OW27163   1.770   4.418   1.844  0.7813  0.3400 -0.1294
 5177SOL    HW127164   1.799   4.509   1.833  0.5342  0.5535  0.9930
 5177SOL    HW227165   1.764   4.378   1.758 -1.2723  0.8126 -0.1930
 5178SOL     OW27166   2.227   2.998   1.403 -0.0177 -0.1369 -0.7175
 5178SOL    HW127167   2.202   2.906   1.395 -2.1296  0.2010  2.1113
 5178SOL    HW227168   2.195   3.011   1.492  1.3498  0.6492 -0.3412
 5179SOL     OW27169   3.732   3.304   6.832  0.0903 -0.0062 -0.0803
 5179SOL    HW127170   3.785   3.227   6.811 -0.3495  0.3500 -2.5238
 5179SOL    HW227171   3.656   3.277   6.884 -0.8605 -0.0997 -1.5357
 5180SOL     OW27172   4.059   0.346   8.379 -0.2279 -0.2975  0.2974
 5180SOL    HW127173   4.087   0.285   8.311  2.2850 -2.4613  3.2813
 5180SOL    HW227174   4.000   0.289   8.429 -0.1949 -0.1459  0.5069
 5181SOL     OW27175   2.723   2.109   9.043 -0.0428  0.4568 -0.6868
 5181SOL    HW127176   2.770   2.049   9.101  0.7975  0.0169 -1.8404
 5181SOL    HW227177   2.683   2.052   8.978  0.8891 -0.1193 -0.7483
 5182SOL     OW27178   0.420   1.336   0.198 -0.1682 -1.0230  0.2052
 5182SOL    HW127179   0.450   1.247   0.181 -0.1280 -0.5544 -2.0854
 5182SOL    HW227180   0.327   1.319   0.185 -0.4467  0.2885  0.4114
 5183SOL     OW27181   0.915   4.695   3.450  0.1491  0.1261 -0.3303
 5183SOL    HW127182   0.894   0.035   3.396 -0.4564 -0.3859 -0.8376
 5183SOL    HW227183   0.925   4.634   3.377 -3.1673 -1.1576  0.2940
 5184SOL     OW27184   0.706   0.333   1.154  0.0959  0.2095  0.2911
 5184SOL    HW127185   0.751   0.393   1.094  0.6884  1.0640  1.6093
 5184SOL    HW227186   0.633   0.383   1.190  1.8612  1.3377  2.3201
 5185SOL     OW27187   0.812   0.149   1.340  0.2880 -0.0483  0.0753
 5185SOL    HW127188   0.888   0.199   1.372  1.6335 -0.6295 -2.2452
 5185SOL    HW227189   0.778   0.219   1.284  2.2501  2.5868  2.1615
 5186SOL     OW27190   0.034   0.663   2.002  0.6490 -0.5556 -0.4019
 5186SOL    HW127191   4.712   0.595   2.035  0.3457 -0.1672 -0.1528
 5186SOL    HW227192   4.710   0.733   1.978  1.7658 -0.8381 -4.1659
 5187SOL     OW27193   3.171   1.472   6.671 -0.1659  0.6799  0.0855
 5187SOL    HW127194   3.188   1.561   6.702  1.2450  0.4840 -0.1273
 5187SOL    HW227195   3.081   1.468   6.703  0.7255 -2.3808  2.1622
 5188SOL     OW27196   1.560   1.885   0.687  0.6106 -0.3245 -0.3290
 5188SOL    HW127197   1.498   1.879   0.759 -0.9948 -3.2994 -1.9811
 5188SOL    HW227198   1.522   1.952   0.630  1.7293  0.0494 -0.6362
 5189SOL     OW27199   1.577   1.967  12.911  0.4235 -0.3525  0.3783
 5189SOL    HW127200   1.655   1.946  12.964 -0.8049 -1.6307  1.6703
 5189SOL    HW227201   1.529   1.886  12.896 -1.2883  0.6381  0.6253
 5190SOL     OW27202   0.999   1.773  11.461  0.3734  0.7636  0.1827
 5190SOL    HW127203   1.043   1.767  11.375 -1.3254 -0.8490 -0.5720
 5190SOL    HW227204   1.027   1.850  11.509  1.6028  0.7040 -0.4352
 5191SOL     OW27205   2.813   3.230   8.527  0.1681 -0.2630  0.2127
 5191SOL    HW127206   2.772   3.144   8.515  2.4688 -0.9482 -2.4974
 5191SOL    HW227207   2.893   3.216   8.476 -0.8333  0.3399 -1.5171
 5192SOL     OW27208   0.500   2.906   5.855  0.0067  0.0238  0.4724
 5192SOL    HW127209   0.502   2.958   5.935  3.5495 -1.9347  1.6981
 5192SOL    HW227210   0.548   2.959   5.792  1.6671 -0.5137  1.2774
 5193SOL     OW27211   0.415   2.963   5.303 -0.1469  0.7114 -0.0001
 5193SOL    HW127212   0.436   3.055   5.321 -0.0100  0.7604 -0.4085
 5193SOL    HW227213   0.464   2.924   5.374 -0.6951 -0.6892 -0.3937
 5194SOL     OW27214   3.581   0.638   2.837 -0.2690  0.0884 -0.7784
 5194SOL    HW127215   3.529   0.718   2.848  1.4197  0.5360  3.9135
 5194SOL    HW227216   3.580   0.627   2.742 -0.4382 -1.1912 -0.6226
 5195SOL     OW27217   1.582   2.259   8.146  0.2387  0.3663 -0.2148
 5195SOL    HW127218   1.604   2.235   8.236  0.9896  0.5468 -0.3514
 5195SOL    HW227219   1.551   2.349   8.150 -0.5301  0.1355 -0.8101
 5196SOL     OW27220   1.090   0.266   5.209  0.5599 -0.1510  0.2522
 5196SOL    HW127221   1.027   0.332   5.182  1.5397  1.2018  1.2777
 5196SOL    HW227222   1.046   0.220   5.280  0.3601 -0.9079 -0.3571
 5197SOL     OW27223   1.442   3.494   5.801  0.4276 -0.1024  0.8651
 5197SOL    HW127224   1.494   3.556   5.749  1.6912 -2.2211 -0.3584
 5197SOL    HW227225   1.453   3.408   5.761  0.8583 -0.2189  1.2187
 5198SOL     OW27226   2.321   2.530   7.116 -0.4498  0.9649  0.4210
 5198SOL    HW127227   2.340   2.624   7.124  1.2070  0.7695 -1.0365
 5198SOL    HW227228   2.227   2.532   7.099 -0.5517  0.3702  0.9190
 5199SOL     OW27229   0.972   1.513   3.744 -0.0850 -0.3200  0.1648
 5199SOL    HW127230   0.991   1.550   3.830 -0.8308  1.6001 -0.4898
 5199SOL    HW227231   1.062   1.498   3.715  0.3808  1.6432  0.6233
 5200SOL     OW27232   0.187   1.285   8.228 -0.1108  0.0384 -0.7168
 5200SOL    HW127233   0.191   1.189   8.232  0.6995  0.0469 -1.3238
 5200SOL    HW227234   0.096   1.312   8.236 -0.9511 -2.2988 -2.3415
 5201SOL     OW27235   1.497   1.056   7.738  0.3628 -0.0745 -0.0963
 5201SOL    HW127236   1.478   1.008   7.818 -0.2024 -1.2840 -0.9489
 5201SOL    HW227237   1.573   1.009   7.702 -0.4404 -1.0339 -0.5397
 5202SOL     OW27238   1.388   3.264  12.956  0.2114  0.3266  0.1341
 5202SOL    HW127239   1.416   3.335  13.014 -3.4148  2.9811 -1.4018
 5202SOL    HW227240   1.440   3.196  12.998 -1.4845 -0.3898  1.0832
 5203SOL     OW27241   3.228   3.454  14.775  0.1963  0.3870  0.4401
 5203SOL    HW127242   3.261   3.364  14.784 -1.5744 -0.3986 -0.9227
 5203SOL    HW227243   3.278   3.483  14.699  3.6897  0.0047  2.5991
 5204SOL     OW27244   4.605   0.666  15.499 -0.2666 -0.5652 -0.0691
 5204SOL    HW127245   4.635   0.603  15.434  2.5760  1.0044 -0.3062
 5204SOL    HW227246   4.685   0.672  15.551 -0.1564 -1.0726 -0.1799
 5205SOL     OW27247   3.193   2.961   1.832 -0.1115 -0.6536 -0.2695
 5205SOL    HW127248   3.110   2.982   1.790  0.8258  1.5013 -1.0709
 5205SOL    HW227249   3.174   2.869   1.850 -0.2200 -0.1266  2.3572
 5206SOL     OW27250   0.813   3.299  12.000  0.9279  0.6172 -0.2210
 5206SOL    HW127251   0.903   3.276  12.023  1.0094  1.2838  0.1415
 5206SOL    HW227252   0.775   3.233  12.058  0.8100  0.8306 -0.0533
 5207SOL     OW27253   2.285   4.047  11.173 -0.5196  0.0277  0.1885
 5207SOL    HW127254   2.381   4.042  11.171 -0.4880  0.9451 -0.5733
 5207SOL    HW227255   2.268   4.125  11.121  0.1126 -0.1558 -0.3048
 5208SOL     OW27256   1.925   1.625   4.456 -0.5125 -0.5492 -0.7655
 5208SOL    HW127257   1.982   1.565   4.408  0.2071  1.5536 -2.5126
 5208SOL    HW227258   1.919   1.580   4.541 -0.8766  3.2748  1.2395
 5209SOL     OW27259   2.592   4.149   5.276  0.4675  0.7438 -0.4058
 5209SOL    HW127260   2.620   4.143   5.368  0.7393  3.2393 -0.3308
 5209SOL    HW227261   2.595   4.057   5.250 -0.0346  1.1151 -1.7535
 5210SOL     OW27262   2.555   2.069   5.598  0.3980  0.6684  0.2572
 5210SOL    HW127263   2.559   2.058   5.503 -0.2962 -0.9304  0.4073
 5210SOL    HW227264   2.648   2.060   5.620  0.9551  1.5656 -1.7620
 5211SOL     OW27265   1.300   2.791   6.530 -0.0128  0.5608 -0.1695
 5211SOL    HW127266   1.318   2.848   6.455  2.6287 -0.1219 -0.0602
 5211SOL    HW227267   1.374   2.816   6.585 -0.1795  0.1774  0.2322
 5212SOL     OW27268   1.187   4.133  15.245 -0.0890  0.4461 -0.1193
 5212SOL    HW127269   1.174   4.132  15.340 -2.6641  2.2715 -0.4538
 5212SOL    HW227270   1.267   4.184  15.238  0.5184 -0.1769  2.1136
 5213SOL     OW27271   3.779   2.273   2.809 -0.1389 -0.2956  0.3771
 5213SOL    HW127272   3.823   2.343   2.857  0.9764 -0.3639 -0.5557
 5213SOL    HW227273   3.690   2.291   2.839 -1.3235  0.1315 -3.4543
 5214SOL     OW27274   2.953   4.357   5.898  0.5415  0.7247  0.1014
 5214SOL    HW127275   3.013   4.409   5.844  0.3795  1.6930  0.8583
 5214SOL    HW227276   2.958   4.405   5.982  1.2752 -0.1572  0.5653
 5215SOL     OW27277   4.219   4.323   4.431 -0.0407  0.5615 -0.4993
 5215SOL    HW127278   4.198   4.329   4.524 -0.7091  1.6015 -0.7113
 5215SOL    HW227279   4.173   4.396   4.389  0.5717  2.4627  2.1661
 5216SOL     OW27280   3.058   2.665   6.319 -0.0268 -0.7738  0.5726
 5216SOL    HW127281   3.036   2.599   6.385  0.0783 -1.5870 -0.1999
 5216SOL    HW227282   3.012   2.632   6.242  2.9347  0.3439 -1.7083
 5217SOL     OW27283   3.081   3.860   3.896  0.3585  0.4555 -0.1084
 5217SOL    HW127284   3.026   3.819   3.830 -2.7694  2.0674  1.5254
 5217SOL    HW227285   3.020   3.869   3.969 -0.1504  0.2582 -0.5106
 5218SOL     OW27286   2.564   3.634  11.241 -0.2296  0.1866 -0.1830
 5218SOL    HW127287   2.488   3.589  11.278 -0.3063  0.3605 -0.1288
 5218SOL    HW227288   2.575   3.590  11.156 -1.5456 -0.7944  0.1451
 5219SOL     OW27289   0.055   0.058   6.112  0.0241  0.1374 -0.1578
 5219SOL    HW127290   0.005   4.714   6.113  0.0502  0.1069 -1.7642
 5219SOL    HW227291   4.730   0.115   6.067 -0.8724  0.5785  1.6135
 5220SOL     OW27292   0.591   3.728  12.872 -0.5943 -0.2292  0.0880
 5220SOL    HW127293   0.605   3.778  12.791  0.3247 -1.9397 -0.8227
 5220SOL    HW227294   0.659   3.660  12.874 -0.8576 -0.4459  1.4231
 5221SOL     OW27295   3.561   1.594   5.792  0.5227 -0.4507 -0.1693
 5221SOL    HW127296   3.580   1.658   5.724  2.8931 -1.1898 -0.2222
 5221SOL    HW227297   3.544   1.652   5.866 -1.5420 -1.1022 -0.1218
 5222SOL     OW27298   3.420   3.173   9.261  0.2785  0.5371 -0.9309
 5222SOL    HW127299   3.443   3.081   9.278  0.2565  1.1916  2.6176
 5222SOL    HW227300   3.333   3.184   9.299 -0.0715  0.7244 -1.7922
 5223SOL     OW27301   1.296   3.106   6.813  0.1398 -0.1085  0.5315
 5223SOL    HW127302   1.362   3.037   6.805  0.3903  0.2161 -0.2038
 5223SOL    HW227303   1.263   3.103   6.723 -2.2187 -0.6269  1.4210
 5224SOL     OW27304   1.339   1.134   7.121 -0.0150 -0.5715 -0.6106
 5224SOL    HW127305   1.251   1.162   7.149  0.0202 -1.0574 -0.0040
 5224SOL    HW227306   1.343   1.168   7.032 -0.1811  2.5495  0.5711
 5225SOL     OW27307   3.410   1.691  17.230 -0.2451  0.5124 -0.0815
 5225SOL    HW127308   3.441   1.755  17.166 -1.5981  0.9129 -0.3523
 5225SOL    HW227309   3.478   1.624  17.225  0.5234  1.2156  0.9405
 5226SOL     OW27310   1.641   0.629   4.035  0.2740  0.4213 -0.1973
 5226SOL    HW127311   1.557   0.599   4.070 -0.0932  1.8038  0.1172
 5226SOL    HW227312   1.634   0.585   3.950  1.9654 -0.2340  0.0030
 5227SOL     OW27313   0.206   2.793   6.801  0.2144 -0.3233  0.1642
 5227SOL    HW127314   0.264   2.864   6.775 -1.4869  1.1865  0.5442
 5227SOL    HW227315   0.142   2.797   6.731  0.0673  0.5511  0.3539
 5228SOL     OW27316   2.993   3.694   5.576 -0.2356 -0.2299 -0.4627
 5228SOL    HW127317   2.906   3.683   5.615 -0.8256  0.4609 -1.6113
 5228SOL    HW227318   3.044   3.726   5.651 -1.4205 -0.3893  0.4044
 5229SOL     OW27319   1.707   0.930   3.037 -0.3930  0.1339 -0.3328
 5229SOL    HW127320   1.706   1.016   3.078  0.4755 -0.6522  1.3614
 5229SOL    HW227321   1.703   0.867   3.110 -0.8385 -1.9449 -2.1486
 5230SOL     OW27322   4.316   2.611   4.108  0.3085  0.5282 -0.1526
 5230SOL    HW127323   4.411   2.612   4.124  0.5325 -3.0000 -1.3826
 5230SOL    HW227324   4.313   2.567   4.024  1.3254  0.4590 -0.1528
 5231SOL     OW27325   3.325   3.791  12.230 -0.1062  0.2470 -0.3763
 5231SOL    HW127326   3.258   3.815  12.293 -1.0324 -1.3906 -0.7430
 5231SOL    HW227327   3.271   3.748  12.163 -1.0677 -1.1357  1.3059
 5232SOL     OW27328   3.102   2.432   7.820  0.5605 -0.3614  0.3799
 5232SOL    HW127329   3.018   2.440   7.774  0.7367 -3.0453 -0.4409
 5232SOL    HW227330   3.095   2.342   7.854  2.9840 -0.8734 -0.5049
 5233SOL     OW27331   1.305   3.327   4.971 -0.2633 -0.4264 -0.4717
 5233SOL    HW127332   1.326   3.234   4.977 -1.7988 -0.7029  0.7122
 5233SOL    HW227333   1.388   3.364   4.941  0.7150 -0.7174  1.8191
 5234SOL     OW27334   2.028   0.168   3.088  0.4222  0.3562 -0.2726
 5234SOL    HW127335   2.032   0.173   2.993 -0.7241  2.3425 -0.2062
 5234SOL    HW227336   2.064   0.079   3.095  0.0699  0.1188 -1.5634
 5235SOL     OW27337   2.513   1.890   6.180 -0.4474  0.1126 -0.5873
 5235SOL    HW127338   2.608   1.890   6.171 -0.4572 -1.6559 -0.7596
 5235SOL    HW227339   2.522   1.900   6.275 -2.8073 -1.0918 -0.2262
 5236SOL     OW27340   4.330   1.386   4.096 -0.4315  0.0939  0.2317
 5236SOL    HW127341   4.386   1.310   4.082 -2.4198 -1.3757  0.2040
 5236SOL    HW227342   4.301   1.413   4.008  1.9425  1.8535 -0.0221
 5237SOL     OW27343   2.956   2.323   4.316 -0.1270  0.0280 -0.5521
 5237SOL    HW127344   2.973   2.372   4.236  0.0048  0.1124 -0.4723
 5237SOL    HW227345   2.989   2.385   4.380  0.5113 -0.3994 -0.4659
 5238SOL     OW27346   0.049   4.331   5.820  0.0071 -0.8929  0.4985
 5238SOL    HW127347   0.056   4.327   5.725  2.7873  0.0228  0.6748
 5238SOL    HW227348   0.139   4.309   5.844  0.0632  0.7314  1.8005
 5239SOL     OW27349   2.782   3.927   4.930 -0.5564  0.0586  0.1251
 5239SOL    HW127350   2.713   3.861   4.923 -1.2270  0.6982  0.5726
 5239SOL    HW227351   2.833   3.898   5.006  0.8130 -2.1322 -1.6602
 5240SOL     OW27352   1.638   0.370   2.403  0.3033  0.3443  0.4307
 5240SOL    HW127353   1.682   0.439   2.353 -1.7408  1.2423 -0.1058
 5240SOL    HW227354   1.719   0.332   2.438  0.6816  0.0082 -0.8147
 5241SOL     OW27355   1.960   4.131   9.187 -0.0208 -0.7735  0.3252
 5241SOL    HW127356   2.008   4.078   9.252  2.5436  1.1146 -0.0066
 5241SOL    HW227357   2.019   4.110   9.115  0.2178 -2.3777  0.9885
 5242SOL     OW27358   1.323   3.712   1.900  0.0963 -0.1773  0.2093
 5242SOL    HW127359   1.326   3.724   1.805 -1.0103 -0.9737  0.0746
 5242SOL    HW227360   1.380   3.635   1.902  0.0880 -0.2616 -3.5145
 5243SOL     OW27361   1.287   3.815  14.192  0.5113  0.0169 -0.0804
 5243SOL    HW127362   1.248   3.746  14.246  1.8396 -2.0406 -1.7313
 5243SOL    HW227363   1.290   3.781  14.102  0.4817  1.7075 -0.7280
 5244SOL     OW27364   1.797   2.832  12.089 -0.1664 -0.5235 -0.6634
 5244SOL    HW127365   1.762   2.762  12.035 -0.0128 -0.5543 -0.7234
 5244SOL    HW227366   1.793   2.789  12.175  0.2763 -0.9030 -0.8316
 5245SOL     OW27367   3.564   4.499   5.854  0.1587 -0.3505 -0.3496
 5245SOL    HW127368   3.517   4.427   5.813 -0.5393 -1.5782  2.6333
 5245SOL    HW227369   3.605   4.458   5.930  0.0280 -1.8918 -1.1127
 5246SOL     OW27370   0.100   2.256  11.709  0.0730  0.4290  0.0210
 5246SOL    HW127371   0.032   2.192  11.728  0.3723  0.3197  0.7584
 5246SOL    HW227372   0.071   2.327  11.767 -0.9121  0.8516 -0.9895
 5247SOL     OW27373   2.826   2.947   3.018  0.3676  0.4066  0.0567
 5247SOL    HW127374   2.850   2.868   3.065  2.1368  1.1272  0.3759
 5247SOL    HW227375   2.905   2.954   2.964 -0.9717  3.2191 -1.5911
 5248SOL     OW27376   3.488   1.160   3.293  0.1091  0.2445  0.0295
 5248SOL    HW127377   3.426   1.095   3.327  1.3673 -1.6691 -1.3482
 5248SOL    HW227378   3.468   1.160   3.199 -0.4037 -1.9442  0.1440
 5249SOL     OW27379   2.759   1.592  17.199  0.0638 -0.6422 -0.3081
 5249SOL    HW127380   2.704   1.513  17.199  1.0494 -1.3344  1.4464
 5249SOL    HW227381   2.803   1.589  17.114  0.0442 -1.4482 -0.2899
 5250SOL     OW27382   2.198   1.635  14.896  0.3705 -0.1436 -0.4932
 5250SOL    HW127383   2.178   1.637  14.990 -1.5488 -2.7194 -0.8740
 5250SOL    HW227384   2.140   1.699  14.855  0.3253 -1.6734 -2.8158
 5251SOL     OW27385   4.691   1.708   4.739 -0.0160  0.9691  0.6809
 5251SOL    HW127386   0.016   1.773   4.705 -1.6840  1.8834 -0.6028
 5251SOL    HW227387   4.623   1.763   4.777  2.0709  2.8038  1.8190
 5252SOL     OW27388   4.126   0.166   4.723 -0.4304  0.0636 -0.1886
 5252SOL    HW127389   4.119   0.070   4.720 -1.4544  0.0510  2.4105
 5252SOL    HW227390   4.043   0.187   4.767  0.6029 -0.7911  2.2150
 5253SOL     OW27391   1.926   0.236   7.923  0.0464  0.1496 -0.2679
 5253SOL    HW127392   1.929   0.224   7.828  1.3524  0.8195 -0.3034
 5253SOL    HW227393   2.018   0.235   7.948 -0.2849  0.1271  0.9803
 5254SOL     OW27394   1.377   4.620  11.744 -0.0368 -0.0769 -0.3220
 5254SOL    HW127395   1.365   4.526  11.731  1.9436  0.0628 -3.1591
 5254SOL    HW227396   1.421   4.621  11.829  1.9371 -1.6509 -1.3193
 5255SOL     OW27397   4.118   2.369   4.666 -0.3065  0.3374 -0.0101
 5255SOL    HW127398   4.024   2.352   4.660 -0.1611 -1.0094  1.5045
 5255SOL    HW227399   4.142   2.296   4.723  1.8895  0.1199 -1.2103
 5256SOL     OW27400   4.321   3.722  16.199 -0.1314 -0.1796  0.6560
 5256SOL    HW127401   4.307   3.654  16.264 -0.8678  0.5021  1.2145
 5256SOL    HW227402   4.417   3.719  16.203 -0.0272 -0.8183 -2.0375
 5257SOL     OW27403   4.596   3.741  16.495  0.7493  0.4201  0.2997
 5257SOL    HW127404   4.551   3.821  16.519  0.4379  0.0005  1.0960
 5257SOL    HW227405   4.688   3.753  16.521  0.8380  0.5046 -0.0489
 5258SOL     OW27406   1.149   2.060  12.685  0.1653  0.2317 -0.0665
 5258SOL    HW127407   1.172   2.068  12.777  0.0477 -2.9060  0.2354
 5258SOL    HW227408   1.108   2.145  12.673  0.2382  0.4629  1.3191
 5259SOL     OW27409   2.399   0.340  16.755 -0.3306 -0.3220 -0.3843
 5259SOL    HW127410   2.446   0.260  16.782 -0.2153 -0.7303 -1.7896
 5259SOL    HW227411   2.451   0.373  16.682  0.7621 -0.1547  0.4637
 5260SOL     OW27412   4.111   2.492   2.338  0.1742  0.5562 -0.3911
 5260SOL    HW127413   4.206   2.495   2.337  0.1329  1.3796 -2.9777
 5260SOL    HW227414   4.112   2.430   2.265 -2.4662  1.5759 -1.2929
 5261SOL     OW27415   0.358   3.048   9.113  0.6942 -0.1443  0.0864
 5261SOL    HW127416   0.444   3.084   9.090  0.9237  0.7459  2.3143
 5261SOL    HW227417   0.296   3.099   9.062  4.7231  1.1762 -3.5428
 5262SOL     OW27418   3.182   3.974   7.461  0.0344 -0.1718 -0.7566
 5262SOL    HW127419   3.150   3.995   7.549 -0.3540  0.4618 -1.0498
 5262SOL    HW227420   3.121   4.031   7.414 -1.6435 -0.8083  0.6134
 5263SOL     OW27421   0.333   4.590   5.261  0.6552 -0.1969 -0.2586
 5263SOL    HW127422   0.406   4.651   5.267  1.2545 -1.0388  0.7963
 5263SOL    HW227423   0.280   4.624   5.188 -1.9782  1.8955  2.5893
 5264SOL     OW27424   0.846   4.358   3.755 -0.8393 -0.2423 -0.1899
 5264SOL    HW127425   0.899   4.312   3.690  1.0156 -1.0986  1.9501
 5264SOL    HW227426   0.760   4.333   3.723 -2.1400  0.7378  2.5808
 5265SOL     OW27427   2.960   4.095  16.194  0.6742  0.3481 -0.3530
 5265SOL    HW127428   2.879   4.044  16.201  0.9528 -0.1801 -0.9646
 5265SOL    HW227429   2.928   4.185  16.205  0.5028  0.3416 -0.8258
 5266SOL     OW27430   1.406   1.608   4.731 -0.7781 -0.0770 -0.3914
 5266SOL    HW127431   1.409   1.702   4.712 -0.8724  0.0231  0.0901
 5266SOL    HW227432   1.315   1.583   4.714 -1.1492  1.9250 -1.4484
 5267SOL     OW27433   0.757   0.570   0.463 -0.4588  1.0788 -0.2642
 5267SOL    HW127434   0.847   0.602   0.475 -0.4272  0.8669  0.0741
 5267SOL    HW227435   0.710   0.650   0.487  1.7064  2.5168 -0.8494
 5268SOL     OW27436   1.261   0.902   5.085  0.1932 -0.1669 -0.4453
 5268SOL    HW127437   1.291   0.942   5.003  0.2629  0.7572  0.0361
 5268SOL    HW227438   1.318   0.950   5.146 -1.1005 -1.5147  1.8284
 5269SOL     OW27439   0.568   2.343   3.075  0.3064 -0.3485  0.4791
 5269SOL    HW127440   0.541   2.277   3.138 -1.3354 -0.9151 -0.8231
 5269SOL    HW227441   0.560   2.282   3.002 -0.2872 -0.8727  0.9838
 5270SOL     OW27442   3.361   4.148  13.377 -0.1211  0.2638  0.5121
 5270SOL    HW127443   3.436   4.114  13.329 -0.7615 -0.7711  0.2407
 5270SOL    HW227444   3.409   4.190  13.449 -2.0902  1.8104  0.9317
 5271SOL     OW27445   4.517   2.147   4.010 -0.7312  0.1001  0.0132
 5271SOL    HW127446   4.434   2.183   4.041 -2.1500 -2.7726 -0.4617
 5271SOL    HW227447   4.576   2.193   4.070 -0.6708  0.8089 -0.5914
 5272SOL     OW27448   0.552   2.300  13.427 -0.3528 -0.6519  0.3444
 5272SOL    HW127449   0.636   2.330  13.392 -1.5586  0.9359 -1.2041
 5272SOL    HW227450   0.492   2.320  13.354 -0.7028 -2.2837  0.1951
 5273SOL     OW27451   2.281   0.886   4.938 -0.5149  0.1005  0.3161
 5273SOL    HW127452   2.251   0.838   4.861 -1.4789  0.8879  0.1971
 5273SOL    HW227453   2.207   0.856   4.991 -0.4537  1.1910  1.0106
 5274SOL     OW27454   1.502   0.258  10.902 -0.4721 -0.3211  0.4905
 5274SOL    HW127455   1.442   0.314  10.951 -0.2850  1.2884 -1.1288
 5274SOL    HW227456   1.583   0.280  10.948 -0.5971  1.4539 -0.1452
 5275SOL     OW27457   0.974   2.967  15.041 -0.5437  0.2540  0.5616
 5275SOL    HW127458   0.999   3.033  14.975 -2.8409 -0.4828 -1.0164
 5275SOL    HW227459   0.913   3.013  15.098 -1.2402 -1.2354  0.9974
 5276SOL     OW27460   1.110   3.602  13.727  0.2835 -0.2875 -0.0408
 5276SOL    HW127461   1.069   3.651  13.656  2.1311  0.6906 -0.4363
 5276SOL    HW227462   1.031   3.581  13.776 -2.3628  2.6655 -3.1057
 5277SOL     OW27463   1.154   2.342   7.573  0.1204 -0.4024 -0.0947
 5277SOL    HW127464   1.214   2.284   7.527  0.4774  0.8211 -1.1868
 5277SOL    HW227465   1.201   2.424   7.590  0.1442 -0.4062 -0.1418
 5278SOL     OW27466   0.442   2.938   7.679  0.0664  0.0849  0.2990
 5278SOL    HW127467   0.405   2.920   7.766  0.5797 -0.3433  0.4268
 5278SOL    HW227468   0.523   2.979   7.710 -0.2967  1.0945 -0.0726
 5279SOL     OW27469   2.233   3.294  15.839 -0.3077  0.6174 -0.3297
 5279SOL    HW127470   2.156   3.297  15.895 -0.2953 -0.1476 -0.2674
 5279SOL    HW227471   2.203   3.353  15.770  0.7212 -0.3836 -1.6371
 5280SOL     OW27472   1.175   3.948   3.582 -0.6277 -0.7312 -0.1311
 5280SOL    HW127473   1.085   3.954   3.613 -0.9439  1.2313 -1.4009
 5280SOL    HW227474   1.176   3.994   3.498  0.0424  0.3229  0.4496
 5281SOL     OW27475   0.219   1.061   6.382  0.0110  0.2939 -0.3672
 5281SOL    HW127476   0.309   1.078   6.408  0.1817  0.5280 -1.0880
 5281SOL    HW227477   0.191   1.152   6.373 -0.5758  0.1272 -0.2398
 5282SOL     OW27478   2.866   4.435   4.260 -0.4715 -0.3449  0.2715
 5282SOL    HW127479   2.904   4.386   4.333  2.8064 -2.1748 -2.6385
 5282SOL    HW227480   2.795   4.377   4.235  0.2519 -0.1369 -2.2361
 5283SOL     OW27481   3.085   3.401   3.478 -0.0876  0.1263  0.5352
 5283SOL    HW127482   3.005   3.391   3.427  0.1291  0.5247  0.1142
 5283SOL    HW227483   3.139   3.343   3.424 -0.4008 -0.1041  0.4741
 5284SOL     OW27484   2.382   2.530   7.754 -0.0009  0.2169 -0.2665
 5284SOL    HW127485   2.288   2.547   7.757  0.1846  1.1693  0.1483
 5284SOL    HW227486   2.392   2.452   7.809 -2.2963 -0.0297 -0.2148
 5285SOL     OW27487   4.406   0.709   2.147 -0.0706 -0.0125 -0.6262
 5285SOL    HW127488   4.422   0.670   2.061  0.5044  2.1315 -1.4796
 5285SOL    HW227489   4.311   0.697   2.158  0.0039  0.2435  0.2619
 5286SOL     OW27490   1.206   1.453   6.758  0.0046 -0.4558  0.0891
 5286SOL    HW127491   1.189   1.480   6.848 -1.7376 -4.2811  0.8885
 5286SOL    HW227492   1.277   1.509   6.728  0.9100 -2.7990 -2.0967
 5287SOL     OW27493   3.564   1.812   9.202 -0.3284  0.0898  0.5379
 5287SOL    HW127494   3.582   1.725   9.237  2.6986  0.3185 -0.5083
 5287SOL    HW227495   3.618   1.867   9.258 -1.3929 -0.5847  2.2451
 5288SOL     OW27496   0.007   3.783  13.029  0.3043  0.5921  0.6057
 5288SOL    HW127497   4.703   3.730  13.097 -2.0795 -0.8259 -1.9131
 5288SOL    HW227498   0.088   3.810  13.073  0.4600 -0.0280  0.7136
 5289SOL     OW27499   0.797   4.497  13.922  0.4084 -0.3431 -0.6904
 5289SOL    HW127500   0.840   4.417  13.954 -1.4610 -1.7284 -1.6375
 5289SOL    HW227501   0.791   4.540  14.008  1.0510 -1.3319 -0.1492
 5290SOL     OW27502   3.025   0.246   6.774 -0.2134  0.1535 -0.1551
 5290SOL    HW127503   2.943   0.277   6.812 -0.5352  1.5633 -1.9773
 5290SOL    HW227504   3.074   0.226   6.854 -1.1817 -1.1108  0.1174
 5291SOL     OW27505   4.606   3.419  10.822 -0.7464 -0.3285 -0.0387
 5291SOL    HW127506   4.691   3.377  10.813  0.1071  0.6459  3.6915
 5291SOL    HW227507   4.607   3.507  10.784 -2.7625 -0.7991 -1.1824
 5292SOL     OW27508   1.817   0.440  17.710  0.6936 -0.2913 -0.1847
 5292SOL    HW127509   1.908   0.468  17.717  0.7584  0.1463 -2.7208
 5292SOL    HW227510   1.810   0.362   0.018  0.2178  1.5176  2.3067
 5293SOL     OW27511   3.527   3.959   3.618  0.3286  0.7662 -0.0427
 5293SOL    HW127512   3.445   4.009   3.617  1.1497  2.0775 -1.3826
 5293SOL    HW227513   3.589   4.031   3.621 -0.1767  1.2043 -0.2257
 5294SOL     OW27514   1.800   3.172  13.256 -0.3636 -0.3088  0.1425
 5294SOL    HW127515   1.776   3.173  13.348 -0.0138  2.1002  0.1936
 5294SOL    HW227516   1.829   3.261  13.238 -1.4835  0.1744  0.7662
 5295SOL     OW27517   2.335   3.536   2.638 -0.5753 -0.0146 -0.0316
 5295SOL    HW127518   2.322   3.608   2.576  1.0444 -0.2233 -0.6022
 5295SOL    HW227519   2.302   3.458   2.594 -1.4146  0.4822 -0.2796
 5296SOL     OW27520   2.821   1.682  10.168 -0.0413  0.2612 -0.0958
 5296SOL    HW127521   2.778   1.661  10.251 -0.6397  0.6758 -0.3004
 5296SOL    HW227522   2.788   1.771  10.152 -0.7860 -0.1243 -0.6828
 5297SOL     OW27523   0.944   4.168   9.096 -0.2425 -0.1535 -0.1853
 5297SOL    HW127524   0.916   4.087   9.054  0.6755  0.2839 -1.6357
 5297SOL    HW227525   1.000   4.197   9.024  0.8154 -0.1813  0.6243
 5298SOL     OW27526   2.070   3.860   2.548  0.5272  0.1221 -0.1386
 5298SOL    HW127527   2.109   3.777   2.522 -0.1296  0.1267 -1.1120
 5298SOL    HW227528   2.066   3.844   2.642  1.1393 -0.1362 -0.1568
 5299SOL     OW27529   4.022   0.095  11.813  0.1515  0.3586 -0.0092
 5299SOL    HW127530   3.960   0.125  11.746 -1.8840 -0.0999  1.6656
 5299SOL    HW227531   3.962   0.055  11.875  2.1536 -1.2884  0.8430
 5300SOL     OW27532   4.001   2.564  17.166 -0.6882 -0.0381 -0.2551
 5300SOL    HW127533   3.964   2.602  17.087  0.0034  0.5070 -0.3099
 5300SOL    HW227534   3.960   2.627  17.225  1.4526 -0.9803  2.2461
 5301SOL     OW27535   0.120   4.252   2.048  0.3207  0.1600 -0.2324
 5301SOL    HW127536   0.070   4.211   2.118 -1.2362  2.0122 -0.2770
 5301SOL    HW227537   0.151   4.336   2.082 -1.0018  0.3022  0.6233
 5302SOL     OW27538   3.423   2.557   4.118 -0.1239  0.1602 -0.1880
 5302SOL    HW127539   3.386   2.644   4.133  1.6253  0.6197  1.4353
 5302SOL    HW227540   3.362   2.502   4.166 -1.1515  2.7755  1.5068
 5303SOL     OW27541   0.781   0.439   5.420  0.0210  0.1253 -0.2271
 5303SOL    HW127542   0.797   0.490   5.499 -2.4559  0.1731  0.2303
 5303SOL    HW227543   0.785   0.510   5.355  3.3352 -0.4268 -0.6370
 5304SOL     OW27544   2.680   4.338   6.249  0.1406  0.1231  0.1084
 5304SOL    HW127545   2.625   4.260   6.246 -1.1955  1.1970 -3.5042
 5304SOL    HW227546   2.697   4.325   6.342 -0.4216  0.7735  0.3029
 5305SOL     OW27547   3.981   3.085   2.431  0.5663  0.0675  0.3975
 5305SOL    HW127548   3.904   3.114   2.381  1.2435  0.9374 -0.1294
 5305SOL    HW227549   4.047   3.061   2.367 -0.1474 -1.0173  0.0761
 5306SOL     OW27550   3.719   2.022   3.030 -0.1019  0.3449  0.4499
 5306SOL    HW127551   3.702   1.928   3.039  0.2001  0.4923  2.3945
 5306SOL    HW227552   3.716   2.054   3.120  0.8610  0.3899  0.4603
 5307SOL     OW27553   1.392   0.592   5.801  0.7360  0.2055  0.4816
 5307SOL    HW127554   1.402   0.551   5.887  0.0260  1.1871  1.0305
 5307SOL    HW227555   1.300   0.612   5.823  0.5844 -0.7455  0.7046
 5308SOL     OW27556   4.603   1.016   3.099  0.1418 -0.2353  0.1975
 5308SOL    HW127557   4.532   1.018   3.163 -1.7650  0.7450 -1.9539
 5308SOL    HW227558   4.680   1.038   3.150  0.4504 -0.6692 -0.0737
 5309SOL     OW27559   0.156   4.567   6.475  0.0563  0.1355  0.3212
 5309SOL    HW127560   0.189   4.642   6.426 -0.5746  0.2380  0.0560
 5309SOL    HW227561   0.066   4.592   6.492  0.3260 -0.0088  1.9526
 5310SOL     OW27562   4.039   0.969   1.081  0.4739  0.7486  0.0365
 5310SOL    HW127563   4.095   0.973   1.004  0.9947 -0.5059  0.3615
 5310SOL    HW227564   3.959   0.929   1.049  0.1369  1.5366 -0.1202
 5311SOL     OW27565   1.519   2.497   7.537  0.0202 -0.2221  0.2617
 5311SOL    HW127566   1.540   2.587   7.563  0.7264 -0.4105  0.3378
 5311SOL    HW227567   1.577   2.447   7.594 -0.4259 -1.5638 -0.4695
 5312SOL     OW27568   0.088   3.096   8.826  0.2020 -0.0097  0.1658
 5312SOL    HW127569   0.087   3.113   8.920 -0.6877  1.7004 -0.1607
 5312SOL    HW227570   0.128   3.009   8.824  0.1278 -0.1075  2.8233
 5313SOL     OW27571   1.630   0.554   7.765 -0.0029 -0.4444  0.2153
 5313SOL    HW127572   1.706   0.604   7.795 -1.5136  0.4167  2.4922
 5313SOL    HW227573   1.625   0.479   7.824 -1.2189 -0.6588 -0.1552
 5314SOL     OW27574   0.296   2.335   4.479  0.2917  0.0835  0.0123
 5314SOL    HW127575   0.241   2.271   4.525 -1.2283 -0.4966 -2.6492
 5314SOL    HW227576   0.296   2.411   4.538 -0.3227 -0.7827  1.1225
 5315SOL     OW27577   0.050   3.431   2.453  0.2469 -0.0313  0.3474
 5315SOL    HW127578   0.064   3.382   2.372 -0.7380 -1.5732  1.1083
 5315SOL    HW227579   4.734   3.378   2.512 -1.3600  1.6193  0.3830
 5316SOL     OW27580   0.319   0.430   5.967  0.9123  0.5294  0.3907
 5316SOL    HW127581   0.223   0.438   5.973  0.9714  0.2588  1.7753
 5316SOL    HW227582   0.349   0.512   6.008 -1.2718  1.3337  0.3937
 5317SOL     OW27583   3.955   2.506   1.952  0.0806  0.0247 -0.5180
 5317SOL    HW127584   4.033   2.461   1.983 -1.1831 -1.3764  0.6525
 5317SOL    HW227585   3.960   2.495   1.857  0.3503  2.8506 -0.8304
 5318SOL     OW27586   2.463   4.423   7.343  0.4721 -0.0509 -0.0469
 5318SOL    HW127587   2.468   4.334   7.308 -1.4846  0.3043 -1.1759
 5318SOL    HW227588   2.476   4.396   7.435 -0.0744 -2.3111 -0.6190
 5319SOL     OW27589   3.681   1.402   9.400 -0.0987  0.0484  0.4613
 5319SOL    HW127590   3.771   1.402   9.366 -0.5177  2.2216 -0.6670
 5319SOL    HW227591   3.666   1.311   9.425 -2.5687  0.2237 -0.4273
 5320SOL     OW27592   1.470   0.519   4.500  0.4786  0.4136 -0.2006
 5320SOL    HW127593   1.461   0.615   4.498 -3.2188  0.0722 -0.4090
 5320SOL    HW227594   1.482   0.505   4.594  0.7086  3.7372  0.2613
 5321SOL     OW27595   0.688   2.588  13.780  0.6033 -0.3088 -0.1560
 5321SOL    HW127596   0.621   2.527  13.749  1.4914 -0.0453 -2.5566
 5321SOL    HW227597   0.697   2.567  13.874 -0.0393  0.4781  0.0804
 5322SOL     OW27598   3.225   0.088  16.348 -0.8265 -0.1237 -0.2887
 5322SOL    HW127599   3.169   0.160  16.318  1.2702  0.8375 -1.9139
 5322SOL    HW227600   3.205   0.091  16.442  0.3243 -0.1608 -0.0444
 5323SOL     OW27601   3.945   4.570   4.555 -0.3649  0.5363 -0.2262
 5323SOL    HW127602   4.020   4.609   4.600 -1.7943  0.9112  1.8750
 5323SOL    HW227603   3.909   4.508   4.619  1.5341  1.4213  1.7096
 5324SOL     OW27604   3.087   2.649  15.058 -0.0983 -0.7911  0.3447
 5324SOL    HW127605   3.179   2.634  15.037 -0.0491  0.4199 -0.3382
 5324SOL    HW227606   3.043   2.614  14.980  1.3323 -0.0390 -0.8080
 5325SOL     OW27607   4.374   1.653   9.671 -0.2705  0.6053  0.2774
 5325SOL    HW127608   4.318   1.673   9.747  0.5045 -3.4056  1.8939
 5325SOL    HW227609   4.456   1.697   9.693  0.2669  0.4691 -1.5019
 5326SOL     OW27610   1.971   3.943   8.874 -0.5718 -0.3909  0.4324
 5326SOL    HW127611   2.019   3.895   8.806 -2.3256  0.1851 -1.1914
 5326SOL    HW227612   2.048   3.964   8.927  0.0157  0.3252 -0.7031
 5327SOL     OW27613   4.424   0.495  11.919  0.1414  0.1428  0.2247
 5327SOL    HW127614   4.352   0.447  11.958 -0.6688 -0.3941 -1.9064
 5327SOL    HW227615   4.382   0.551  11.853  1.1476  0.0157 -0.5363
 5328SOL     OW27616   3.435   3.715   1.737 -0.0084 -0.1326  0.8433
 5328SOL    HW127617   3.494   3.689   1.665  1.9216  1.8518  1.6881
 5328SOL    HW227618   3.352   3.734   1.693  0.4905  1.1474  0.4307
 5329SOL     OW27619   0.203   4.211   7.956  0.2656  0.1399  0.3842
 5329SOL    HW127620   0.292   4.209   7.923 -0.5476  1.4723 -1.8696
 5329SOL    HW227621   0.155   4.275   7.904 -0.3174 -1.0774 -0.5695
 5330SOL     OW27622   2.539   3.935  12.289  0.0631  0.4284  0.1347
 5330SOL    HW127623   2.503   4.001  12.348  1.2209  0.5168  0.7386
 5330SOL    HW227624   2.479   3.944  12.214 -0.4314  2.2668  0.7665
 5331SOL     OW27625   0.987   3.834  15.483  0.4439  0.0334  0.4399
 5331SOL    HW127626   0.897   3.857  15.505 -0.3516 -2.6850  0.0439
 5331SOL    HW227627   1.005   3.885  15.404  2.2222  2.1979  2.2406
 5332SOL     OW27628   3.914   3.094  10.602  0.3560 -0.1714 -0.5236
 5332SOL    HW127629   4.007   3.108  10.621  0.5683 -0.9155 -1.0363
 5332SOL    HW227630   3.906   3.095  10.506 -1.0442  0.4750 -0.4009
 5333SOL     OW27631   2.023   4.594  13.973 -0.4039 -0.2577  0.3439
 5333SOL    HW127632   1.928   4.582  13.977 -0.5298  0.0475 -1.4706
 5333SOL    HW227633   2.055   4.509  13.944 -0.6011 -0.0687 -0.4414
 5334SOL     OW27634   4.531   3.036   8.513  0.0282 -0.0029 -0.1751
 5334SOL    HW127635   4.567   3.114   8.470  0.9837 -1.0941 -1.3414
 5334SOL    HW227636   4.565   2.969   8.454 -0.4435 -1.6688  1.4333
 5335SOL     OW27637   1.340   3.551   7.408  0.3109 -0.1953 -0.6926
 5335SOL    HW127638   1.272   3.494   7.373 -1.3426  0.6342  1.2016
 5335SOL    HW227639   1.334   3.538   7.502 -0.7603 -1.3188 -0.9134
 5336SOL     OW27640   1.427   1.260  11.325  0.9330  0.1009  0.2145
 5336SOL    HW127641   1.362   1.268  11.255  0.9144  1.7496  0.3991
 5336SOL    HW227642   1.439   1.165  11.324  0.7416  0.0897 -3.9503
 5337SOL     OW27643   0.270   0.846   4.013  0.4307 -0.0744 -0.8905
 5337SOL    HW127644   0.328   0.897   4.070 -0.5319  0.6272 -0.5220
 5337SOL    HW227645   0.320   0.817   3.938  0.0614 -1.8340 -0.4587
 5338SOL     OW27646   1.014   3.692   2.630 -0.3299  0.0074  0.4269
 5338SOL    HW127647   1.013   3.675   2.536 -1.7983  0.5168  0.3391
 5338SOL    HW227648   0.942   3.754   2.638 -0.2055 -0.0293  1.7600
 5339SOL     OW27649   4.338   0.128  13.372  0.4574 -0.2112  0.2458
 5339SOL    HW127650   4.349   0.222  13.358 -1.0838  0.3314  2.5778
 5339SOL    HW227651   4.293   0.105  13.291 -0.9942 -2.9509  1.8227
 5340SOL     OW27652   1.254   4.335  16.959 -0.4550 -0.2830  0.4472
 5340SOL    HW127653   1.304   4.275  16.905 -0.3734  1.0715 -0.9724
 5340SOL    HW227654   1.265   4.294  17.045  1.0140 -0.1784  0.3046
 5341SOL     OW27655   1.479   0.801   5.650  0.3521 -0.4524  0.0823
 5341SOL    HW127656   1.574   0.800   5.663  0.5670 -2.2949 -1.8308
 5341SOL    HW227657   1.452   0.734   5.713  1.4676 -2.4857 -1.6309
 5342SOL     OW27658   3.542   3.702   3.299 -1.4764  0.1199  0.0241
 5342SOL    HW127659   3.526   3.687   3.393  0.5821  0.3603  0.4180
 5342SOL    HW227660   3.573   3.790   3.280  1.4548 -0.5930  1.4377
 5343SOL     OW27661   3.364   3.470   5.445 -0.5763 -0.2216 -0.3433
 5343SOL    HW127662   3.344   3.380   5.471  0.0767 -0.8367 -1.9221
 5343SOL    HW227663   3.422   3.449   5.372 -0.6572 -0.6787 -0.2767
 5344SOL     OW27664   0.124   0.434   8.133 -0.1694  0.2050  0.4043
 5344SOL    HW127665   0.112   0.342   8.154 -1.3854 -0.1635 -1.9763
 5344SOL    HW227666   0.209   0.429   8.089 -0.8770  2.6511 -1.2632
 5345SOL     OW27667   1.043   0.047   5.961 -0.0292  0.1275 -0.4850
 5345SOL    HW127668   0.957   0.075   5.994 -0.8771 -0.9353 -1.7861
 5345SOL    HW227669   1.103   0.053   6.035 -3.7597  2.9028  2.2996
 5346SOL     OW27670   0.123   2.507   8.822  0.2626 -0.0660 -0.1150
 5346SOL    HW127671   0.212   2.525   8.852  0.0077  2.0674 -0.6304
 5346SOL    HW227672   0.071   2.509   8.902 -1.0562  0.1843 -0.9841
 5347SOL     OW27673   1.463   4.241   3.543  0.1416 -0.5024  0.0560
 5347SOL    HW127674   1.413   4.175   3.495 -0.7489  0.2663 -0.0654
 5347SOL    HW227675   1.475   4.316   3.484 -3.1050 -0.6810 -0.8165
 5348SOL     OW27676   0.216   0.438   4.717 -0.1369  0.4315 -0.3647
 5348SOL    HW127677   0.278   0.368   4.699 -0.6241 -0.5694  1.9368
 5348SOL    HW227678   0.144   0.387   4.754 -0.8538 -1.0613 -3.8330
 5349SOL     OW27679   4.591   3.122   5.655 -0.2233  0.0368  0.0004
 5349SOL    HW127680   4.562   3.203   5.614 -0.0372 -0.6313 -1.4404
 5349SOL    HW227681   4.599   3.057   5.585 -0.3494 -0.0541  0.0687
 5350SOL     OW27682   0.436   3.917   1.803  0.2579 -0.4545 -0.3421
 5350SOL    HW127683   0.365   3.976   1.828  1.2829  1.4462 -1.8309
 5350SOL    HW227684   0.460   3.872   1.884  0.4013  0.6168  0.2113
 5351SOL     OW27685   0.714   4.262  15.663 -0.2686  0.2566 -0.0040
 5351SOL    HW127686   0.745   4.343  15.622  1.0777 -0.1694  0.1562
 5351SOL    HW227687   0.654   4.229  15.596  0.2098 -0.6050 -0.0125
 5352SOL     OW27688   2.923   3.272   4.619  0.0789 -1.0165  0.8805
 5352SOL    HW127689   2.950   3.221   4.695  1.5157 -2.2452 -0.4312
 5352SOL    HW227690   2.931   3.212   4.544 -0.9329  1.4056 -1.1526
 5353SOL     OW27691   1.485   3.720   9.320  0.5132  0.3311  0.3257
 5353SOL    HW127692   1.487   3.816   9.314  0.2486  0.2713 -0.6280
 5353SOL    HW227693   1.536   3.712   9.401 -0.3948 -1.2116  0.7333
 5354SOL     OW27694   3.542   2.382   8.727 -0.3349 -0.2954  0.4560
 5354SOL    HW127695   3.603   2.442   8.768  0.5238  0.1688 -1.5130
 5354SOL    HW227696   3.496   2.451   8.679  0.2225  1.5860  2.6049
 5355SOL     OW27697   0.866   1.127   9.248  0.2939 -0.4002  0.7283
 5355SOL    HW127698   0.871   1.212   9.203  1.2165 -0.3892  0.8602
 5355SOL    HW227699   0.875   1.072   9.171  0.0770  0.5968 -0.0215
 5356SOL     OW27700   0.507   3.314   9.996  0.2100  0.6511  0.0469
 5356SOL    HW127701   0.434   3.345  10.050 -0.6659  0.1778 -0.8804
 5356SOL    HW227702   0.458   3.257   9.938 -0.9558  3.7042 -1.9286
 5357SOL     OW27703   0.736   3.684   0.562 -0.3085 -0.7936 -0.3270
 5357SOL    HW127704   0.817   3.633   0.564 -1.0607 -1.8602  1.9017
 5357SOL    HW227705   0.695   3.664   0.646  1.1840 -2.7216 -0.0891
 5358SOL     OW27706   2.382   0.908   4.322  0.2925 -0.5969  0.0041
 5358SOL    HW127707   2.385   0.975   4.390 -2.4379  0.5599 -0.9850
 5358SOL    HW227708   2.287   0.895   4.312  0.5963 -1.0057 -2.2852
 5359SOL     OW27709   1.044   0.837  11.469  0.6079  1.0163  0.2316
 5359SOL    HW127710   1.067   0.745  11.483 -2.4702  0.0898 -0.8720
 5359SOL    HW227711   0.950   0.829  11.454  0.5544  1.0457  0.5622
 5360SOL     OW27712   2.360   3.945   0.758  0.4030  0.2481 -0.0925
 5360SOL    HW127713   2.407   3.864   0.774  1.4373  0.8134 -0.2553
 5360SOL    HW227714   2.364   3.960   0.663 -0.9919  0.8100 -0.0625
 5361SOL     OW27715   0.356   4.427   1.018 -0.0597 -0.1400  0.1791
 5361SOL    HW127716   0.427   4.418   0.955  1.4341  1.2098  1.6809
 5361SOL    HW227717   0.391   4.374   1.089  2.8799  1.3444 -0.1719
 5362SOL     OW27718   2.073   3.661  16.416  0.4299 -0.3424  0.1899
 5362SOL    HW127719   2.076   3.617  16.500  1.4178  0.5114  0.6024
 5362SOL    HW227720   2.053   3.746  16.454  0.0239 -1.0888  1.6503
 5363SOL     OW27721   1.126   2.305  11.698 -0.0498 -0.2440 -0.5135
 5363SOL    HW127722   1.200   2.269  11.747 -0.1144 -2.6073 -2.1318
 5363SOL    HW227723   1.050   2.254  11.727 -1.0515  1.6858  0.2368
 5364SOL     OW27724   3.613   0.236   8.486 -0.2946 -0.1864  0.1628
 5364SOL    HW127725   3.681   0.211   8.423 -1.6758 -1.5187 -0.7912
 5364SOL    HW227726   3.541   0.275   8.436 -0.5663  1.6462  1.9857
 5365SOL     OW27727   4.377   3.378  11.614 -0.2717 -0.0907 -0.3952
 5365SOL    HW127728   4.464   3.401  11.647  0.0149 -0.1407 -1.1114
 5365SOL    HW227729   4.341   3.451  11.565 -0.1455  0.3462  0.1684
 5366SOL     OW27730   0.782   3.449  16.959 -0.3058  0.0385  0.5695
 5366SOL    HW127731   0.818   3.405  17.035  0.5317  2.5600  1.6469
 5366SOL    HW227732   0.703   3.484  17.001  0.0027  0.6321  0.6603
 5367SOL     OW27733   4.007   0.407  17.128  0.2107  0.0865  0.7013
 5367SOL    HW127734   4.087   0.373  17.087  0.2587 -0.1815  1.0168
 5367SOL    HW227735   4.028   0.493  17.163 -1.7156  0.4344  1.0199
 5368SOL     OW27736   3.203   3.318  11.474 -0.3685  0.3966 -0.3228
 5368SOL    HW127737   3.125   3.299  11.526 -1.5373 -1.9029 -2.8959
 5368SOL    HW227738   3.177   3.404  11.442 -0.3328  0.8588  0.8998
 5369SOL     OW27739   1.682   4.575   0.261 -0.2398 -0.1647 -0.4079
 5369SOL    HW127740   1.702   4.499   0.206  2.1110  0.5980 -0.5967
 5369SOL    HW227741   1.600   4.551   0.305  0.6288  0.2287  1.4574
 5370SOL     OW27742   4.421   3.053   3.453  0.5017  0.0850  0.0490
 5370SOL    HW127743   4.325   3.055   3.444  0.4113 -0.8676  0.8050
 5370SOL    HW227744   4.424   3.076   3.546 -1.1444  1.7094 -0.2850
 5371SOL     OW27745   1.054   3.354  15.981  0.3433  0.1761  0.0913
 5371SOL    HW127746   1.065   3.269  15.937  1.6137  1.8278 -2.7758
 5371SOL    HW227747   1.050   3.327  16.072 -0.2304  2.0615  0.6194
 5372SOL     OW27748   2.737   3.233  13.145  0.2255 -0.1635 -0.4410
 5372SOL    HW127749   2.657   3.254  13.097 -0.7505 -2.6487  0.1078
 5372SOL    HW227750   2.731   3.140  13.167 -0.7906 -0.2673 -1.1800
 5373SOL     OW27751   1.531   0.027  12.214 -0.1778 -0.5322  0.7110
 5373SOL    HW127752   1.601   0.039  12.148 -1.1518  0.3216 -0.1749
 5373SOL    HW227753   1.492   4.680  12.192  0.3468 -0.8491  0.9908
 5374SOL     OW27754   1.563   0.235   1.132 -0.2627 -0.0648 -0.2065
 5374SOL    HW127755   1.519   0.294   1.071  0.5173 -1.2907 -1.9721
 5374SOL    HW227756   1.518   0.247   1.216  0.3756  5.2342 -0.6534
 5375SOL     OW27757   3.759   1.850  16.113 -0.2301 -0.5589 -0.0773
 5375SOL    HW127758   3.675   1.890  16.091  0.1145 -0.0290 -0.4364
 5375SOL    HW227759   3.743   1.823  16.203  3.1089  2.2727  1.3931
 5376SOL     OW27760   1.482   1.807   7.495 -0.6244  0.3354 -0.9801
 5376SOL    HW127761   1.397   1.770   7.472 -0.7847 -0.5384  1.0304
 5376SOL    HW227762   1.547   1.766   7.439 -1.0019 -0.1944 -1.0243
 5377SOL     OW27763   0.780   3.570   4.489 -0.5001 -0.0435 -0.1517
 5377SOL    HW127764   0.775   3.492   4.545  1.4864  0.9115  1.3499
 5377SOL    HW227765   0.735   3.641   4.535 -0.2696  0.0227 -0.0286
 5378SOL     OW27766   3.050   2.767   2.639 -0.1125  0.4734  0.2737
 5378SOL    HW127767   3.113   2.757   2.568  1.4294  1.4721  1.5157
 5378SOL    HW227768   3.089   2.825   2.703 -1.6894  0.6792  1.0540
 5379SOL     OW27769   1.394   0.254   6.735  0.1075 -0.1067 -0.1191
 5379SOL    HW127770   1.408   0.347   6.750  2.6033 -0.3928 -0.8085
 5379SOL    HW227771   1.460   0.242   6.667 -0.7558  2.0747 -1.3245
 5380SOL     OW27772   3.768   3.105   7.925 -0.2404  0.1920  0.0067
 5380SOL    HW127773   3.770   3.199   7.908 -0.3159  0.2394  0.2692
 5380SOL    HW227774   3.730   3.092   8.012  0.4215 -1.3871  0.0764
 5381SOL     OW27775   1.686   2.925   8.784  0.3387 -0.3590 -0.4917
 5381SOL    HW127776   1.717   3.016   8.792  0.2030 -0.2094 -1.7048
 5381SOL    HW227777   1.743   2.896   8.713  1.3526  2.5736 -0.8866
 5382SOL     OW27778   3.960   4.236   3.040 -0.2755 -0.5176 -0.9837
 5382SOL    HW127779   4.026   4.293   3.001  1.5532 -0.1676  2.6523
 5382SOL    HW227780   3.973   4.155   2.990  0.2662 -2.0015  1.5359
 5383SOL     OW27781   0.488   4.328  15.825  0.3858  0.4975  0.2895
 5383SOL    HW127782   0.562   4.275  15.797  1.6878  0.6301  3.4765
 5383SOL    HW227783   0.530   4.391  15.883  0.1831  0.0327  0.9419
 5384SOL     OW27784   2.607   0.930   5.677  0.1984  0.0626  0.0482
 5384SOL    HW127785   2.558   0.958   5.755 -1.2263 -0.6913 -0.5779
 5384SOL    HW227786   2.609   0.835   5.679  1.8227  0.1830  3.9862
 5385SOL     OW27787   0.515   3.686   5.811 -0.2316  0.4053 -0.2619
 5385SOL    HW127788   0.539   3.599   5.845  1.7797  0.4225 -1.6511
 5385SOL    HW227789   0.449   3.731   5.863 -0.1941  0.7786 -0.5342
 5386SOL     OW27790   3.101   0.017  12.674 -0.2916 -0.5588 -0.3255
 5386SOL    HW127791   3.018   0.047  12.638  0.0686  2.1536  1.0806
 5386SOL    HW227792   3.102   0.059  12.760 -0.7301 -1.0379 -0.0881
 5387SOL     OW27793   4.311   2.943   7.090 -0.3196 -0.2038  0.0438
 5387SOL    HW127794   4.303   3.015   7.152  0.8156  1.6549 -1.9605
 5387SOL    HW227795   4.237   2.947   7.028 -0.8253  0.4477  0.6914
 5388SOL     OW27796   2.077   0.101   4.061 -0.6285 -0.4255 -0.2920
 5388SOL    HW127797   2.117   0.014   4.058  1.5730  0.6000 -0.7932
 5388SOL    HW227798   2.154   0.146   4.096 -0.4854  0.2185 -1.4513
 5389SOL     OW27799   3.390   0.072   8.609 -0.1120 -0.4624 -0.3257
 5389SOL    HW127800   3.469   0.121   8.585 -0.6745  0.6326  0.0359
 5389SOL    HW227801   3.384   0.082   8.705 -3.1484  0.2838 -0.5904
 5390SOL     OW27802   2.963   3.060   3.587 -0.3825  0.0273  0.1517
 5390SOL    HW127803   2.957   3.068   3.492 -0.6052 -0.6673  0.1031
 5390SOL    HW227804   3.056   3.038   3.596 -0.3779 -1.3306 -3.2823
 5391SOL     OW27805   2.381   1.734   4.579  0.4984 -0.4226 -0.2788
 5391SOL    HW127806   2.406   1.711   4.668  0.9609  0.4772 -0.1740
 5391SOL    HW227807   2.470   1.745   4.545  1.0712 -3.2107  0.3181
 5392SOL     OW27808   3.897   2.058   1.432  0.1929 -0.7998  0.2625
 5392SOL    HW127809   3.940   2.122   1.488 -0.4922 -0.2974  0.2143
 5392SOL    HW227810   3.968   1.995   1.438  2.9390  2.0017 -2.6512
 5393SOL     OW27811   2.959   4.696  12.284  0.7244 -0.0368 -0.4498
 5393SOL    HW127812   3.049   4.669  12.304  0.3728 -0.4795  0.5215
 5393SOL    HW227813   2.934   0.008  12.362 -1.0710 -0.5854 -0.6742
 5394SOL     OW27814   2.537   1.375   0.604  0.8908 -0.0036 -0.2668
 5394SOL    HW127815   2.562   1.288   0.636  0.9559  0.0792 -0.0937
 5394SOL    HW227816   2.477   1.356   0.533  0.6990 -2.5260  0.5705
 5395SOL     OW27817   2.176   1.533   2.389  0.1942  0.6555 -0.3324
 5395SOL    HW127818   2.259   1.581   2.382  0.9506 -0.8060 -1.3847
 5395SOL    HW227819   2.208   1.464   2.447 -0.1837  0.0599 -0.8387
 5396SOL     OW27820   3.096   3.892   9.891 -0.1481  0.0548  0.1800
 5396SOL    HW127821   3.020   3.862   9.841  0.6053  0.9456 -1.5072
 5396SOL    HW227822   3.081   3.986   9.880 -1.7921 -0.1346  0.8372
 5397SOL     OW27823   0.590   0.441  10.749 -0.4602  0.4201  0.5537
 5397SOL    HW127824   0.570   0.429  10.842  3.0714 -2.9282  0.8411
 5397SOL    HW227825   0.654   0.511  10.744  0.7371 -0.6827  0.6098
 5398SOL     OW27826   2.458   3.531   2.885 -0.3084 -0.3759  0.6264
 5398SOL    HW127827   2.431   3.549   2.795  0.5209 -0.3969  0.3741
 5398SOL    HW227828   2.542   3.484   2.881  0.4833  1.3069 -2.2791
 5399SOL     OW27829   2.933   3.783   9.189 -0.1269 -0.1131  0.0721
 5399SOL    HW127830   2.911   3.859   9.243 -0.3254  0.7448 -1.2178
 5399SOL    HW227831   3.028   3.793   9.197 -0.0677 -1.2846  0.8481
 5400SOL     OW27832   1.830   1.648  11.036 -0.4180  0.0307 -0.1179
 5400SOL    HW127833   1.784   1.626  10.955 -0.1109  0.4871 -0.4206
 5400SOL    HW227834   1.761   1.709  11.062  0.6127  0.8103  0.7658
 5401SOL     OW27835   1.334   3.264   4.276 -0.1788  0.1878  0.0478
 5401SOL    HW127836   1.382   3.275   4.358  0.2539  1.4196 -0.3802
 5401SOL    HW227837   1.317   3.357   4.261  0.0292  0.4560  1.4517
 5402SOL     OW27838   2.861   1.890   7.773  0.4470 -0.5711 -0.2199
 5402SOL    HW127839   2.810   1.816   7.805 -0.0082  0.7594  2.1348
 5402SOL    HW227840   2.868   1.854   7.685  3.7336 -0.3829 -0.0414
 5403SOL     OW27841   0.025   0.724   2.688  0.3593 -0.1602  0.1021
 5403SOL    HW127842   4.710   0.646   2.709 -1.3467  1.4078  1.7790
 5403SOL    HW227843   0.029   0.774   2.770 -1.5020  1.4866 -0.8068
 5404SOL     OW27844   3.767   3.086   2.674 -0.2692 -0.0541  0.2791
 5404SOL    HW127845   3.818   3.107   2.596  1.2179 -1.0384  0.9961
 5404SOL    HW227846   3.746   2.995   2.653  0.1646  0.2495 -1.4708
 5405SOL     OW27847   1.593   0.428   8.326 -0.2279  0.3080  0.5829
 5405SOL    HW127848   1.508   0.387   8.341  1.2810 -3.0285  0.0660
 5405SOL    HW227849   1.579   0.483   8.249  0.2451 -2.0977 -1.2351
 5406SOL     OW27850   2.073   2.045   2.732 -0.1159 -0.2964 -0.2363
 5406SOL    HW127851   2.038   1.991   2.803  0.5974 -2.2950 -1.3938
 5406SOL    HW227852   2.012   2.017   2.664  0.8957  2.8416 -2.4159
 5407SOL     OW27853   2.236   3.838   3.156 -0.3878 -0.1774 -0.4350
 5407SOL    HW127854   2.240   3.932   3.136 -0.6956  0.1856  1.2123
 5407SOL    HW227855   2.245   3.848   3.250 -1.7680 -1.7199 -0.1360
 5408SOL     OW27856   0.273   4.361  10.923 -0.6130 -0.4500  0.3171
 5408SOL    HW127857   0.202   4.333  10.865 -1.5966  1.1202  0.7599
 5408SOL    HW227858   0.292   4.277  10.965  0.7131 -0.6345 -0.6585
 5409SOL     OW27859   0.355   1.536   3.898  0.3447 -0.3965 -0.1423
 5409SOL    HW127860   0.334   1.589   3.821 -0.2224 -1.0404 -0.4315
 5409SOL    HW227861   0.349   1.600   3.968  1.5425 -0.9541  0.4712
 5410SOL     OW27862   1.751   0.336  10.991  0.3839 -0.3593 -0.1810
 5410SOL    HW127863   1.835   0.371  10.963  1.1623 -1.2640  1.0526
 5410SOL    HW227864   1.729   0.383  11.072 -1.0772 -1.5987  0.1550
 5411SOL     OW27865   1.321   4.342   7.431  0.1488 -0.2659  0.3177
 5411SOL    HW127866   1.264   4.367   7.358  3.1934  0.3464 -1.8435
 5411SOL    HW227867   1.257   4.287   7.475 -1.8691  1.9448  0.1265
 5412SOL     OW27868   0.168   4.134   2.448  0.1762 -0.0126  0.0457
 5412SOL    HW127869   0.113   4.082   2.506 -1.3457  1.6504  0.0977
 5412SOL    HW227870   0.246   4.143   2.502  1.3252  2.1254 -1.9787
 5413SOL     OW27871   3.310   2.206   4.649 -0.1022  0.1649 -0.1241
 5413SOL    HW127872   3.354   2.214   4.733 -0.3603  1.0378 -0.0723
 5413SOL    HW227873   3.383   2.178   4.594  2.0685  0.0585  2.8040
 5414SOL     OW27874   1.016   3.843  14.147 -0.0807  0.6273 -0.4699
 5414SOL    HW127875   1.108   3.832  14.171 -0.2868 -0.5465 -0.2083
 5414SOL    HW227876   0.975   3.767  14.188  0.4548 -0.6837 -2.3561
 5415SOL     OW27877   3.779   2.357  15.148 -0.4816  0.1128  0.4172
 5415SOL    HW127878   3.728   2.296  15.094 -0.4295  1.0370 -0.6803
 5415SOL    HW227879   3.720   2.361  15.223  0.9753 -2.0234  1.6766
 5416SOL     OW27880   4.706   2.939  14.630  0.1045  0.2546 -0.0373
 5416SOL    HW127881   4.652   3.018  14.623  0.6950  0.6827  0.2474
 5416SOL    HW227882   0.053   2.978  14.654  0.7419 -0.9346 -0.3255
 5417SOL     OW27883   4.139   0.870   2.511 -0.4759  0.0221  0.4540
 5417SOL    HW127884   4.188   0.917   2.580  1.9602 -1.0457 -0.5626
 5417SOL    HW227885   4.165   0.915   2.431  2.4369 -1.5728  0.4784
 5418SOL     OW27886   0.602   4.280  12.428  0.3537 -0.0415 -0.3019
 5418SOL    HW127887   0.557   4.364  12.432  1.4523  0.5821 -1.0649
 5418SOL    HW227888   0.691   4.315  12.442 -0.0823  1.4543 -1.2808
 5419SOL     OW27889   1.462   0.244  12.346  0.2746  0.1818 -0.0403
 5419SOL    HW127890   1.408   0.192  12.405 -0.9134  0.7732 -0.6218
 5419SOL    HW227891   1.510   0.174  12.300  1.1437  1.1544 -0.6130
 5420SOL     OW27892   4.549   1.638   2.953  0.0405  0.0271 -0.5846
 5420SOL    HW127893   4.531   1.549   2.983 -1.1919  1.0444  1.7018
 5420SOL    HW227894   4.517   1.618   2.865 -1.9587  0.7774 -0.0247
 5421SOL     OW27895   4.339   1.880   9.487  0.1648  0.1121 -0.1561
 5421SOL    HW127896   4.339   1.961   9.437 -0.0620 -2.1655 -3.8403
 5421SOL    HW227897   4.324   1.922   9.572 -0.4005 -0.2014 -0.0967
 5422SOL     OW27898   2.484   4.115   3.379 -0.1164 -0.6406  0.2016
 5422SOL    HW127899   2.414   4.147   3.436  0.4221  2.8018 -1.0593
 5422SOL    HW227900   2.448   4.136   3.293  0.5267  0.6136  0.2385
 5423SOL     OW27901   4.355   1.860  15.118 -0.1401 -0.3209 -0.3722
 5423SOL    HW127902   4.272   1.895  15.086  0.2998  1.1385  0.0800
 5423SOL    HW227903   4.362   1.783  15.061 -0.8309 -2.1126  1.9567
 5424SOL     OW27904   4.632   1.115   8.543  0.1591  0.1671  0.3166
 5424SOL    HW127905   4.660   1.049   8.606  2.6341  0.2763 -0.6656
 5424SOL    HW227906   4.708   1.174   8.536 -0.2307  0.5805 -0.4238
 5425SOL     OW27907   4.520   3.074   5.293 -0.2602 -0.1292 -0.0253
 5425SOL    HW127908   4.439   3.086   5.244  0.1055 -0.2149 -0.6520
 5425SOL    HW227909   4.582   3.109   5.230  2.1583 -1.8675  1.4002
 5426SOL     OW27910   0.204   0.129   6.710 -0.1377  0.2135 -0.2959
 5426SOL    HW127911   0.156   0.145   6.628  1.4853  0.3834 -1.2294
 5426SOL    HW227912   0.138   0.127   6.778  0.4093  1.4894  0.2731
 5427SOL     OW27913   3.240   4.274   8.633 -0.6080  0.1127 -0.2871
 5427SOL    HW127914   3.240   4.298   8.725 -0.4158 -2.3531  0.3544
 5427SOL    HW227915   3.202   4.354   8.596 -0.4700 -0.3138 -1.3564
 5428SOL     OW27916   3.472   3.378   5.178 -0.5351  0.7718 -0.5718
 5428SOL    HW127917   3.505   3.373   5.088 -0.2329 -3.0719 -0.2223
 5428SOL    HW227918   3.391   3.328   5.169 -0.6778  1.2262 -1.8726
 5429SOL     OW27919   2.670   2.626   6.782 -0.1078  0.4486 -0.3719
 5429SOL    HW127920   2.661   2.585   6.868  0.1729 -0.6713 -0.8909
 5429SOL    HW227921   2.602   2.694   6.792 -0.3556 -0.1104  1.7975
 5430SOL     OW27922   0.406   0.290  14.433  0.2208 -0.1680  0.0838
 5430SOL    HW127923   0.324   0.280  14.386  0.8394  2.5002 -1.5664
 5430SOL    HW227924   0.459   0.302  14.354 -0.7008  0.8275 -0.3815
 5431SOL     OW27925   4.510   2.328   3.733  0.1053 -0.1021  0.4232
 5431SOL    HW127926   4.451   2.321   3.659  0.5630 -0.1308  0.0601
 5431SOL    HW227927   4.488   2.250   3.784 -0.8806  0.5903  1.0566
 5432SOL     OW27928   2.807   0.315   1.411  0.4525 -0.0017  0.2902
 5432SOL    HW127929   2.841   0.302   1.499 -0.9781  0.7321  0.9642
 5432SOL    HW227930   2.785   0.224   1.392  3.0772 -0.5855  0.1772
 5433SOL     OW27931   3.515   1.421  14.484  0.1943  0.4518  0.0550
 5433SOL    HW127932   3.419   1.426  14.482  0.1186 -1.2085 -0.5704
 5433SOL    HW227933   3.530   1.420  14.578 -0.4449 -2.1240  0.1443
 5434SOL     OW27934   1.583   0.428  12.491  0.5158 -0.2685 -0.3789
 5434SOL    HW127935   1.616   0.511  12.457 -2.1433  0.7844 -0.4250
 5434SOL    HW227936   1.528   0.379  12.429 -1.7716  2.9941 -0.9508
 5435SOL     OW27937   2.289   0.002   7.167 -0.7207  0.4973 -0.3133
 5435SOL    HW127938   2.247   0.088   7.175  1.9528  1.6163  1.6589
 5435SOL    HW227939   2.381   0.029   7.163 -0.8225  1.4450  3.1081
 5436SOL     OW27940   4.652   0.623   6.063 -0.1228 -0.7120 -0.5019
 5436SOL    HW127941   4.557   0.620   6.056 -0.2234  2.4608 -0.9156
 5436SOL    HW227942   4.653   0.715   6.091  1.4312 -0.1227 -2.4691
 5437SOL     OW27943   2.582   1.292   2.652  0.7619 -0.0324  0.2717
 5437SOL    HW127944   2.619   1.380   2.663 -1.8403  1.0510  0.2208
 5437SOL    HW227945   2.636   1.267   2.577  1.3656 -0.2896  0.7856
 5438SOL     OW27946   3.592   2.880   9.616 -0.4852  0.2870 -0.6376
 5438SOL    HW127947   3.537   2.820   9.665 -0.0587 -0.2551 -0.8189
 5438SOL    HW227948   3.595   2.959   9.669 -0.5182 -1.2136  1.5674
 5439SOL     OW27949   1.470   1.332  12.261  0.1292 -0.4511 -0.1302
 5439SOL    HW127950   1.375   1.342  12.254  0.1364  0.7542  1.4527
 5439SOL    HW227951   1.497   1.422  12.280  0.2241 -1.0218  2.4324
 5440SOL     OW27952   2.398   4.021   4.057  0.8348 -0.5299 -0.4045
 5440SOL    HW127953   2.356   3.961   4.118 -1.3373 -0.0985 -1.4561
 5440SOL    HW227954   2.321   4.069   4.025  1.3831  0.9159  0.4648
 5441SOL     OW27955   0.848   3.396   4.935 -0.4464 -0.6137 -0.3340
 5441SOL    HW127956   0.796   3.468   4.900  1.2244  0.7670  0.0617
 5441SOL    HW227957   0.797   3.353   5.004 -1.1589 -2.4626 -2.0151
 5442SOL     OW27958   4.617   3.146   7.836 -0.1738  0.2732 -0.1116
 5442SOL    HW127959   4.550   3.112   7.895 -0.7700 -4.6015 -3.6009
 5442SOL    HW227960   4.601   3.086   7.763 -1.0689  4.3994 -3.3573
 5443SOL     OW27961   4.525   1.411  13.580  0.3498 -0.7124  0.0833
 5443SOL    HW127962   4.575   1.347  13.530 -0.5478 -1.2229 -0.1520
 5443SOL    HW227963   4.545   1.384  13.669 -3.0460 -0.4785  0.9374
 5444SOL     OW27964   3.954   1.045  13.086  0.3223  0.3916 -0.1254
 5444SOL    HW127965   3.926   1.024  12.997  1.2804  0.9441 -0.5597
 5444SOL    HW227966   4.022   0.980  13.102  0.7900  0.6756 -0.9504
 5445SOL     OW27967   3.790   0.521  16.979 -0.1559  0.5515 -0.0466
 5445SOL    HW127968   3.852   0.463  17.022  2.6010  1.2076 -3.1052
 5445SOL    HW227969   3.737   0.550  17.052 -0.0017  0.4348  0.1106
 5446SOL     OW27970   1.942   3.970   8.148 -0.3955  0.5222 -0.4924
 5446SOL    HW127971   1.935   3.936   8.237 -1.6469 -1.6450 -1.4283
 5446SOL    HW227972   2.019   4.027   8.150  1.0891 -1.5263  1.6595
 5447SOL     OW27973   1.800   4.243  14.700 -0.3272 -0.7493  0.3380
 5447SOL    HW127974   1.770   4.225  14.611 -0.6939 -0.4254  0.3944
 5447SOL    HW227975   1.885   4.200  14.703 -0.7530 -1.6391 -0.6364
 5448SOL     OW27976   3.958   4.505   5.265 -0.3769  1.2352  0.0383
 5448SOL    HW127977   3.903   4.582   5.274 -1.7193  0.2568  0.2468
 5448SOL    HW227978   3.898   4.430   5.265  0.5723  0.4770 -0.2130
 5449SOL     OW27979   1.942   2.102  11.076  0.2613  0.0574 -0.3488
 5449SOL    HW127980   1.879   2.097  11.148 -0.3203 -2.6614 -1.0600
 5449SOL    HW227981   2.006   2.156  11.121  1.3067 -0.8293 -0.7607
 5450SOL     OW27982   4.131   1.770   9.313  0.0579  0.0027  0.2276
 5450SOL    HW127983   4.217   1.728   9.305  0.1965  0.2086  0.6538
 5450SOL    HW227984   4.159   1.830   9.381 -2.4916  0.6987  0.6361
 5451SOL     OW27985   2.806   3.855   4.329  0.3350  0.5012 -0.2093
 5451SOL    HW127986   2.785   3.770   4.368  0.1770  0.8408  0.4586
 5451SOL    HW227987   2.718   3.892   4.319  0.2630  0.5698  0.6451
 5452SOL     OW27988   4.377   4.661   8.666 -0.4074 -0.4640  0.2375
 5452SOL    HW127989   4.373   4.567   8.649  0.1777 -0.3861 -0.3615
 5452SOL    HW227990   4.380   4.669   8.761 -0.9678  0.5791  0.1767
 5453SOL     OW27991   2.178   3.908   6.386  0.1931  0.0472 -0.7266
 5453SOL    HW127992   2.269   3.935   6.377  0.0721 -0.0120 -2.0876
 5453SOL    HW227993   2.163   3.848   6.313  1.9291 -0.9155 -0.3038
 5454SOL     OW27994   1.084   2.177   3.010 -0.3705  0.6374 -0.2274
 5454SOL    HW127995   1.109   2.143   3.095  2.4284  0.3280 -1.1913
 5454SOL    HW227996   0.997   2.136   3.007 -0.6365  0.9981  3.2699
 5455SOL     OW27997   3.848   0.494   3.802  0.7187 -0.5260 -0.0694
 5455SOL    HW127998   3.916   0.526   3.861 -1.2505  4.8730 -0.7337
 5455SOL    HW227999   3.899   0.470   3.725  0.1375  0.7176 -0.8280
 5456SOL     OW28000   3.512   1.506   6.617 -0.1888 -0.3212 -0.4557
 5456SOL    HW128001   3.547   1.522   6.705  0.8068 -2.2378 -0.4991
 5456SOL    HW228002   3.567   1.433   6.590  1.5586  0.6803  0.4321
 5457SOL     OW28003   4.544   2.240   6.600  0.2251  0.0519 -0.0287
 5457SOL    HW128004   4.557   2.236   6.506  0.6685 -0.4834  0.0533
 5457SOL    HW228005   4.629   2.248   6.644  0.3219 -3.7503  0.4735
 5458SOL     OW28006   0.686   1.312   8.845 -0.7443  0.4675  0.2111
 5458SOL    HW128007   0.660   1.245   8.910  0.3959  0.2441  0.4371
 5458SOL    HW228008   0.678   1.265   8.762 -0.0625  1.2078 -0.2707
 5459SOL     OW28009   4.092   1.318   6.773  0.3736  0.4304 -0.2958
 5459SOL    HW128010   4.187   1.315   6.763  0.3809  0.5456 -0.2688
 5459SOL    HW228011   4.087   1.413   6.785  0.8239  0.3230  0.7895
 5460SOL     OW28012   2.652   3.918   9.060  0.4059  0.3177 -0.2396
 5460SOL    HW128013   2.658   4.012   9.040 -1.6498  0.6324  0.6093
 5460SOL    HW228014   2.677   3.908   9.152 -0.4212  0.2959 -0.0183
 5461SOL     OW28015   1.876   1.300  17.028 -0.3209  0.4993  0.0172
 5461SOL    HW128016   1.837   1.296  16.941  1.0829 -1.3703 -0.5414
 5461SOL    HW228017   1.856   1.391  17.048 -1.0578  0.8374 -2.2905
 5462SOL     OW28018   1.040   4.380   2.501  0.4249 -0.0667  0.5708
 5462SOL    HW128019   0.948   4.365   2.525 -0.3760  0.1297 -2.2876
 5462SOL    HW228020   1.039   4.432   2.420 -0.8357  0.6123  1.0067
 5463SOL     OW28021   2.826   0.054  13.236 -0.3528  0.1218 -0.3279
 5463SOL    HW128022   2.921   0.041  13.229 -0.2016 -0.7164  3.1622
 5463SOL    HW228023   2.823   0.121  13.168  1.1295  0.9306  0.3947
 5464SOL     OW28024   1.696   2.395  12.416 -0.4524 -0.6197 -0.3050
 5464SOL    HW128025   1.626   2.411  12.479 -0.7486 -0.1787 -0.7483
 5464SOL    HW228026   1.651   2.371  12.335 -1.5121  1.1682 -0.2312
 5465SOL     OW28027   0.082   4.654  11.400 -0.0622 -0.3214 -0.2229
 5465SOL    HW128028   4.726   4.668  11.419 -0.5252 -1.1669 -1.8585
 5465SOL    HW228029   0.091   4.568  11.358 -2.4066 -0.6729 -0.0174
 5466SOL     OW28030   1.145   3.647  14.356  1.0437 -0.1341 -0.1898
 5466SOL    HW128031   1.152   3.679  14.446  1.7389  0.2356 -0.3722
 5466SOL    HW228032   1.054   3.621  14.346  1.4086 -0.7361 -1.9628
 5467SOL     OW28033   2.599   4.244   8.661  0.0300 -0.6144  0.3318
 5467SOL    HW128034   2.537   4.217   8.729 -0.8903 -0.9370 -0.6425
 5467SOL    HW228035   2.674   4.185   8.666  1.0828  0.6239 -0.9617
 5468SOL     OW28036   2.489   4.500   8.740 -0.2121 -0.0976 -0.5202
 5468SOL    HW128037   2.525   4.421   8.700  0.0755 -0.2891  0.1192
 5468SOL    HW228038   2.461   4.462   8.823 -1.8866  0.3892 -0.8636
 5469SOL     OW28039   3.966   3.891   7.924 -0.6058  0.3617  0.2443
 5469SOL    HW128040   3.874   3.873   7.940 -0.9278  0.9620 -0.8790
 5469SOL    HW228041   3.991   3.923   8.010  1.2360  1.9968 -0.8814
 5470SOL     OW28042   4.112   4.388   9.298  0.3626  1.1274  0.4956
 5470SOL    HW128043   4.030   4.400   9.345 -0.4129 -0.3523 -0.4755
 5470SOL    HW228044   4.167   4.390   9.376 -1.1606  2.2959  1.5233
 5471SOL     OW28045   4.281   3.385   3.469  0.3418 -0.2391  0.2186
 5471SOL    HW128046   4.274   3.348   3.557  1.1938 -1.3283 -0.1725
 5471SOL    HW228047   4.349   3.452   3.480  0.7695 -0.2134 -2.6727
 5472SOL     OW28048   3.368   0.463   8.936 -0.0491  0.4325 -0.4902
 5472SOL    HW128049   3.462   0.449   8.947  0.1075  2.2289  0.4065
 5472SOL    HW228050   3.356   0.550   8.975  0.7105 -0.5330  1.8649
 5473SOL     OW28051   1.289   4.094   3.946 -0.1846  0.0714 -0.1625
 5473SOL    HW128052   1.283   4.186   3.918 -4.8985 -0.4107 -0.7296
 5473SOL    HW228053   1.202   4.058   3.933  0.5177 -2.0227  1.0658
 5474SOL     OW28054   1.187   3.555   6.224  0.2992  0.4368 -0.0690
 5474SOL    HW128055   1.233   3.637   6.205 -0.9845  1.3529  0.7659
 5474SOL    HW228056   1.237   3.489   6.178  0.0315 -0.0086  0.2751
 5475SOL     OW28057   0.328   3.044   4.080  0.0529  0.0020  0.5953
 5475SOL    HW128058   0.379   3.080   4.152 -0.0031 -0.5087  0.8854
 5475SOL    HW228059   0.272   3.122   4.079  1.3108  0.9321  1.7400
 5476SOL     OW28060   4.289   2.399   3.573 -0.4401 -0.0464  0.1321
 5476SOL    HW128061   4.239   2.467   3.527  0.6767  0.2153 -0.7062
 5476SOL    HW228062   4.307   2.336   3.503 -1.0608 -0.0573 -0.0116
 5477SOL     OW28063   3.630   1.448   8.599  0.0959  0.1756  0.3437
 5477SOL    HW128064   3.721   1.444   8.570  0.2437  1.2408  0.6376
 5477SOL    HW228065   3.584   1.415   8.522 -1.8719  1.0995  1.1073
 5478SOL     OW28066   0.828   2.201  16.529 -0.2905 -0.3392 -0.4294
 5478SOL    HW128067   0.835   2.173  16.620  1.0880  1.6784  0.0883
 5478SOL    HW228068   0.912   2.168  16.500  0.3355  0.2320  0.7257
 5479SOL     OW28069   3.767   0.389  11.354 -0.4549  0.3837  0.1915
 5479SOL    HW128070   3.713   0.339  11.294  1.2349 -0.0926 -0.9125
 5479SOL    HW228071   3.748   0.473  11.311  0.2355  0.3859 -0.1084
 5480SOL     OW28072   0.731   4.069   4.074 -0.6632  0.1167  0.8309
 5480SOL    HW128073   0.769   4.027   4.151  0.8105  0.6569  0.3926
 5480SOL    HW228074   0.646   4.087   4.116 -1.7095 -1.4601 -0.6215
 5481SOL     OW28075   3.011   4.089   8.601  0.4448  0.0947 -0.4222
 5481SOL    HW128076   3.093   4.134   8.579  0.2574  0.6263 -0.0211
 5481SOL    HW228077   2.947   4.150   8.565 -0.9317 -0.1045  1.6907
 5482SOL     OW28078   0.377   3.172   8.226  0.1944 -0.7843  0.5494
 5482SOL    HW128079   0.454   3.228   8.237  1.5181 -2.7722  1.1968
 5482SOL    HW228080   0.309   3.228   8.264 -0.0376 -0.7140  0.0422
 5483SOL     OW28081   0.218   0.091   4.560  0.0039 -0.1884  1.0305
 5483SOL    HW128082   0.246   0.182   4.548 -0.3354 -0.1975  0.1628
 5483SOL    HW228083   0.295   0.044   4.591  0.2733 -1.1173 -1.0566
 5484SOL     OW28084   4.483   0.862   6.529 -0.4535  0.0301  0.5122
 5484SOL    HW128085   4.557   0.834   6.583 -1.1242 -0.7977  1.0030
 5484SOL    HW228086   4.510   0.949   6.499  0.7274  0.1005  1.7829
 5485SOL     OW28087   1.259   1.488   0.718 -0.0437 -0.0602  0.2637
 5485SOL    HW128088   1.342   1.528   0.691  0.0005 -1.4173 -1.6171
 5485SOL    HW228089   1.222   1.542   0.788 -0.5288  0.0327 -0.0591
 5486SOL     OW28090   3.516   4.186  15.796  0.2186  0.1787 -0.3285
 5486SOL    HW128091   3.518   4.247  15.870 -0.3314  0.2447 -0.3712
 5486SOL    HW228092   3.472   4.112  15.838  1.4744 -1.7504 -2.4414
 5487SOL     OW28093   2.022   4.206   1.254 -0.2121 -0.4752 -0.2946
 5487SOL    HW128094   2.059   4.294   1.257 -1.6246  0.1346 -0.8216
 5487SOL    HW228095   1.957   4.220   1.186 -1.4034 -0.0575  0.9285
 5488SOL     OW28096   3.521   0.433   1.678 -0.4620 -0.6825  0.0748
 5488SOL    HW128097   3.514   0.509   1.736 -0.1626  0.0639 -0.8578
 5488SOL    HW228098   3.616   0.421   1.687 -0.5490 -0.7593  0.8970
 5489SOL     OW28099   0.047   3.184  14.951  0.3502  0.5156  0.9948
 5489SOL    HW128100   0.040   3.229  15.036 -1.6881  3.3637 -0.6748
 5489SOL    HW228101   4.725   3.239  14.900  0.8654  0.2172  0.0711
 5490SOL     OW28102   3.494   1.527   7.928  0.0256 -0.4551 -0.2516
 5490SOL    HW128103   3.547   1.527   7.849  0.2232  0.8040 -0.1224
 5490SOL    HW228104   3.560   1.541   7.996 -1.5010 -0.7954  1.3057
 5491SOL     OW28105   4.491   4.421   8.843 -0.7683 -0.2610  0.2617
 5491SOL    HW128106   4.508   4.456   8.755  0.8779  1.0931  1.1279
 5491SOL    HW228107   4.479   4.501   8.894 -0.4103  1.5831 -2.5488
 5492SOL     OW28108   4.379   0.985   9.176  0.0218  0.2066  0.1201
 5492SOL    HW128109   4.396   1.053   9.111  2.1917  0.2320  0.7122
 5492SOL    HW228110   4.309   1.024   9.229 -0.2021  0.6422 -0.4961
 5493SOL     OW28111   3.763   4.129  11.955  0.0391  0.3874  0.2519
 5493SOL    HW128112   3.679   4.091  11.981  1.2555 -1.6580  1.2035
 5493SOL    HW228113   3.819   4.111  12.031  0.2702 -2.2522 -0.5367
 5494SOL     OW28114   0.563   4.544   3.245 -0.3341  0.1828 -0.3516
 5494SOL    HW128115   0.643   4.594   3.226 -0.9668  1.0593 -0.7382
 5494SOL    HW228116   0.581   4.482   3.315  2.8414  0.1290 -1.2004
 5495SOL     OW28117   4.489   4.247   7.555  0.3479 -0.3064 -0.3065
 5495SOL    HW128118   4.545   4.293   7.491 -1.9795  3.3089  0.2438
 5495SOL    HW228119   4.557   4.183   7.576 -0.3032 -0.5886  0.8850
 5496SOL     OW28120   2.807   3.538   6.791  0.5056 -0.1450 -0.5646
 5496SOL    HW128121   2.895   3.571   6.773  1.3481 -1.5308  0.9542
 5496SOL    HW228122   2.765   3.624   6.798  1.3257  0.3319 -1.3630
 5497SOL     OW28123   0.336   0.074  17.734 -0.6286  0.2820 -0.0022
 5497SOL    HW128124   0.268   0.011  17.709  0.1278 -0.4245 -0.2881
 5497SOL    HW228125   0.345   0.043   0.078 -0.1325 -0.1644 -0.2016
 5498SOL     OW28126   1.951   4.008   7.648 -0.0662  0.6047 -0.0356
 5498SOL    HW128127   1.896   3.979   7.720  1.8309  1.1981  1.6505
 5498SOL    HW228128   2.028   4.053   7.683  1.2119  0.1008 -2.1264
 5499SOL     OW28129   2.473   1.091  17.603 -0.3082 -0.1473 -0.5022
 5499SOL    HW128130   2.483   1.179  17.565  1.0390  0.5875  1.5606
 5499SOL    HW228131   2.406   1.118  17.666  0.9803 -0.8963  1.1810
 5500SOL     OW28132   0.339   3.728   1.651  0.1449  0.1268 -0.3822
 5500SOL    HW128133   0.363   3.802   1.707  2.6585 -1.7265  0.9972
 5500SOL    HW228134   0.398   3.658   1.679 -1.8880 -2.4631 -2.6474
 5501SOL     OW28135   3.314   4.205  12.753  0.6900  0.5605  0.7293
 5501SOL    HW128136   3.339   4.190  12.845  1.3292 -0.4024  0.3992
 5501SOL    HW228137   3.259   4.284  12.752 -0.9520 -0.5532  2.6527
 5502SOL     OW28138   1.022   4.370   3.973  0.5096 -0.1225  0.0928
 5502SOL    HW128139   1.106   4.389   3.931  0.1753 -0.3396 -0.6824
 5502SOL    HW228140   0.972   4.334   3.899  1.9985  1.0535 -1.4793
 5503SOL     OW28141   0.164   1.493  12.689  0.3617  0.4861  0.5894
 5503SOL    HW128142   0.158   1.512  12.783 -0.2238  1.0748  0.4300
 5503SOL    HW228143   0.088   1.435  12.681  1.1157 -0.4742  0.4676
 5504SOL     OW28144   1.677   4.350   2.860  0.2020 -0.4330  0.0343
 5504SOL    HW128145   1.739   4.409   2.903 -1.5140  2.6648 -1.7525
 5504SOL    HW228146   1.721   4.351   2.775 -2.7427 -1.1010 -1.4975
 5505SOL     OW28147   4.737   1.196   4.564  0.1968  0.3697 -0.2854
 5505SOL    HW128148   4.730   1.123   4.626  0.4622  0.8439  0.2971
 5505SOL    HW228149   0.018   1.137   4.490 -0.5171  0.6346 -0.6762
 5506SOL     OW28150   4.118   3.440  12.760 -0.0870  0.0559 -0.1024
 5506SOL    HW128151   4.127   3.402  12.847 -0.4234 -0.6836 -0.3887
 5506SOL    HW228152   4.037   3.401  12.727 -0.0461  0.7705 -1.0574
 5507SOL     OW28153   0.243   0.678   7.861  0.4840 -0.5689  0.3296
 5507SOL    HW128154   0.325   0.697   7.906  0.4781  0.1328  0.0484
 5507SOL    HW228155   0.189   0.754   7.882  0.9685 -0.0849 -0.1983
 5508SOL     OW28156   3.848   4.558  11.718  0.0047  0.0276 -0.5222
 5508SOL    HW128157   3.887   4.477  11.750  0.3259 -0.3976 -1.9584
 5508SOL    HW228158   3.853   4.612  11.796 -4.0232 -1.2140  0.6072
 5509SOL     OW28159   1.084   1.407   4.507 -0.1689 -0.3010  0.3924
 5509SOL    HW128160   1.002   1.366   4.535 -0.4484 -1.2156 -1.7169
 5509SOL    HW228161   1.062   1.420   4.414 -2.3723 -0.6925  0.8499
 5510SOL     OW28162   2.951   2.741   4.665 -0.4561 -0.3551 -0.8539
 5510SOL    HW128163   2.926   2.783   4.582  0.7012  0.5582 -0.7470
 5510SOL    HW228164   2.972   2.814   4.722  0.2138 -0.2737 -1.2047
 5511SOL     OW28165   3.016   1.784   5.441  0.1867 -0.0707  0.1300
 5511SOL    HW128166   3.011   1.840   5.518 -0.1728 -0.7405  0.5828
 5511SOL    HW228167   2.931   1.741   5.445 -0.5962  1.2689 -1.7459
 5512SOL     OW28168   1.249   1.631  14.961  0.2359  0.0264  0.4621
 5512SOL    HW128169   1.283   1.583  14.885 -1.5198 -0.7089  0.1578
 5512SOL    HW228170   1.156   1.636  14.940  0.2986 -1.3258 -0.1502
 5513SOL     OW28171   2.763   2.339   2.470 -0.4215  0.4804 -0.7269
 5513SOL    HW128172   2.754   2.320   2.376  3.4300  0.7634 -1.1574
 5513SOL    HW228173   2.672   2.365   2.481 -0.3914  0.4408 -0.3788
 5514SOL     OW28174   0.548   0.574  12.006  0.1501  0.4072  0.3162
 5514SOL    HW128175   0.603   0.561  11.929 -1.2298  0.1469 -0.6420
 5514SOL    HW228176   0.544   0.491  12.055  1.2867  1.0642  1.5142
 5515SOL     OW28177   3.120   3.185   2.053  0.0244  0.5423 -0.0084
 5515SOL    HW128178   3.158   3.206   2.138  0.7584  1.4461 -0.5581
 5515SOL    HW228179   3.160   3.100   2.042  0.7182  0.3810  3.8653
 5516SOL     OW28180   0.906   0.380  11.906  0.0257 -0.1496  0.1528
 5516SOL    HW128181   0.920   0.430  11.826  0.5359 -3.3749 -1.7714
 5516SOL    HW228182   0.820   0.416  11.928  1.1272  0.5119  3.4223
 5517SOL     OW28183   3.734   1.991  16.910  0.6524  0.1865 -0.0311
 5517SOL    HW128184   3.730   2.070  16.963 -1.2196  1.1644 -1.6578
 5517SOL    HW228185   3.806   2.014  16.851 -0.3790 -0.1065 -1.3988
 5518SOL     OW28186   3.534   2.954   2.231  0.6197  0.3689  0.5230
 5518SOL    HW128187   3.515   3.023   2.295  0.2035  1.0149 -0.3122
 5518SOL    HW228188   3.486   2.985   2.154  0.5479 -0.9246  0.0428
 5519SOL     OW28189   4.388   1.902   9.062 -0.4249 -0.3034 -0.3110
 5519SOL    HW128190   4.404   1.996   9.069 -0.3148 -0.4306  1.1643
 5519SOL    HW228191   4.294   1.912   9.076 -1.0952  0.5151 -5.5260
 5520SOL     OW28192   0.724   2.188   2.690  0.4257 -0.2402  0.0613
 5520SOL    HW128193   0.643   2.214   2.735  1.1587  1.1612  0.5608
 5520SOL    HW228194   0.733   2.096   2.714 -1.6309 -0.8757 -1.6099
 5521SOL     OW28195   4.483   0.232   9.800  0.4484 -0.2958  0.0083
 5521SOL    HW128196   4.532   0.305   9.838  2.0888  0.1502 -2.9581
 5521SOL    HW228197   4.549   0.162   9.798  0.6262 -0.1131 -0.5227
 5522SOL     OW28198   4.399   1.616   2.721 -0.8152  0.5448 -0.2375
 5522SOL    HW128199   4.308   1.590   2.736 -0.0016 -2.2294 -0.0581
 5522SOL    HW228200   4.395   1.673   2.644  3.0673  0.9629 -0.0954
 5523SOL     OW28201   1.662   1.660   3.647 -0.3207  0.5757  0.0849
 5523SOL    HW128202   1.685   1.571   3.675 -1.6185  0.1653 -0.1374
 5523SOL    HW228203   1.744   1.707   3.657 -0.2072  0.3682  0.1362
 5524SOL     OW28204   4.538   1.105   6.427 -0.1105 -0.0176  0.4282
 5524SOL    HW128205   4.583   1.171   6.481  0.3384 -0.0230  0.0585
 5524SOL    HW228206   4.455   1.153   6.425  0.1427  0.5815  3.0195
 5525SOL     OW28207   1.901   3.937  16.312  0.3240 -0.2179 -0.1310
 5525SOL    HW128208   1.833   3.998  16.283  0.1655  0.3680  1.4625
 5525SOL    HW228209   1.863   3.903  16.393  1.2203 -0.2061  0.3006
 5526SOL     OW28210   3.181   0.930   4.557 -0.0509 -0.1477 -0.3819
 5526SOL    HW128211   3.258   0.961   4.606 -2.0262  4.2893 -0.0952
 5526SOL    HW228212   3.113   0.987   4.593  0.8076  0.2024  0.7021
 5527SOL     OW28213   4.499   1.520   3.252  0.8827  0.0330  0.0990
 5527SOL    HW128214   4.553   1.441   3.253 -0.5362 -0.9364 -0.0481
 5527SOL    HW228215   4.445   1.507   3.330  1.0998  0.5471  0.3318
 5528SOL     OW28216   1.497   0.663   2.721  0.0802 -0.0399  0.4156
 5528SOL    HW128217   1.407   0.629   2.719 -0.2979  0.8993  1.2355
 5528SOL    HW228218   1.489   0.749   2.681 -0.8881 -0.1081  0.4564
 5529SOL     OW28219   1.226   0.652   2.129 -0.0723 -0.5244  0.5848
 5529SOL    HW128220   1.306   0.694   2.160  1.4494 -2.1722 -1.1318
 5529SOL    HW228221   1.222   0.673   2.036  1.8019  0.2618  0.6730
 5530SOL     OW28222   3.203   3.730   8.502  0.2299  0.8876 -0.2435
 5530SOL    HW128223   3.235   3.654   8.550  0.7789  0.6037 -1.0700
 5530SOL    HW228224   3.171   3.784   8.574  0.8040 -2.3435  2.4309
 5531SOL     OW28225   3.474   1.088   4.462  0.2019  0.4558  0.1222
 5531SOL    HW128226   3.558   1.118   4.496  0.8524  0.0754 -1.1922
 5531SOL    HW228227   3.422   1.078   4.543 -2.6046  1.9688 -1.4935
 5532SOL     OW28228   4.171   1.330   3.871  0.2129 -0.2339 -0.2470
 5532SOL    HW128229   4.181   1.277   3.792  0.1893 -1.2377  0.4103
 5532SOL    HW228230   4.106   1.273   3.911  1.2500 -0.2583  1.4057
 5533SOL     OW28231   2.646   3.976   8.098  0.6636  0.1361 -0.6519
 5533SOL    HW128232   2.572   3.921   8.127  1.2102 -0.1616  0.1650
 5533SOL    HW228233   2.645   3.954   8.005  0.0382  1.7282 -1.0250
 5534SOL     OW28234   1.029   2.025  14.349  0.0432  0.0918  0.1100
 5534SOL    HW128235   0.940   1.991  14.341 -0.0166  0.6798 -1.7043
 5534SOL    HW228236   1.011   2.117  14.369 -0.1255  0.2597 -0.8254
 5535SOL     OW28237   1.571   1.389   4.677 -0.4127  0.1164 -0.1556
 5535SOL    HW128238   1.534   1.474   4.698  1.4981  1.0464 -0.5317
 5535SOL    HW228239   1.519   1.377   4.597 -0.2400  2.0435 -0.5601
 5536SOL     OW28240   2.089   0.589   6.258 -0.0489  0.4338 -0.3882
 5536SOL    HW128241   2.167   0.534   6.262  0.2165  0.7324 -1.4205
 5536SOL    HW228242   2.080   0.626   6.170  3.1747  0.0146 -0.8938
 5537SOL     OW28243   0.763   3.234  10.056  0.0146  0.4347  0.4242
 5537SOL    HW128244   0.814   3.305  10.017 -1.1947  1.4424  0.6748
 5537SOL    HW228245   0.675   3.266  10.037  0.0588  0.8724  0.9713
 5538SOL     OW28246   1.718   2.684  12.307 -0.2372 -0.0318  0.3486
 5538SOL    HW128247   1.783   2.710  12.372  0.3487  0.3199 -0.3789
 5538SOL    HW228248   1.664   2.639  12.372 -1.5776  0.9085 -0.0997
 5539SOL     OW28249   2.674   1.535  10.826  0.5135 -0.2090  0.7804
 5539SOL    HW128250   2.586   1.504  10.850 -0.0160  0.3861 -0.3934
 5539SOL    HW228251   2.687   1.470  10.756  1.9611 -0.4724  1.3056
 5540SOL     OW28252   4.096   1.680   7.163  0.1829 -0.4644  0.0303
 5540SOL    HW128253   4.060   1.727   7.088 -0.5411  0.0850  0.7273
 5540SOL    HW228254   4.133   1.752   7.215  2.8052 -1.0255 -1.0705
 5541SOL     OW28255   4.704   1.922  13.878  0.1472  0.1367  0.0002
 5541SOL    HW128256   0.009   2.006  13.898 -0.9964  0.5855  0.5690
 5541SOL    HW228257   4.728   1.924  13.786  1.1084 -0.7940  0.2396
 5542SOL     OW28258   4.460   4.286   8.354 -0.1339  0.2687 -0.3366
 5542SOL    HW128259   4.394   4.222   8.327  0.7711 -0.8444  0.0587
 5542SOL    HW228260   4.521   4.222   8.392 -0.2809  0.2285 -0.1715
 5543SOL     OW28261   3.260   1.385   3.874 -0.1917  0.2981 -0.4136
 5543SOL    HW128262   3.245   1.392   3.780  0.3094 -1.5903 -0.6434
 5543SOL    HW228263   3.197   1.442   3.918  0.6935 -0.5236  1.9256
 5544SOL     OW28264   3.345   2.522   1.521  0.3657  0.1544  0.0998
 5544SOL    HW128265   3.338   2.463   1.596 -0.6496 -0.0890 -0.1930
 5544SOL    HW228266   3.258   2.512   1.482 -0.4958  2.8834  1.3833
 5545SOL     OW28267   2.680   2.586  13.835 -0.0038 -0.6032 -0.2256
 5545SOL    HW128268   2.659   2.516  13.897 -1.1759 -0.6929 -0.7201
 5545SOL    HW228269   2.775   2.591  13.836 -0.1891  3.1834 -1.1141
 5546SOL     OW28270   4.284   0.636   5.399  0.1047  0.4719 -0.4492
 5546SOL    HW128271   4.287   0.696   5.474  0.0137  1.3272 -1.1392
 5546SOL    HW228272   4.203   0.662   5.354 -0.6850  0.5853  1.0219
 5547SOL     OW28273   1.722   3.918   7.803  0.4948 -0.1641 -0.7566
 5547SOL    HW128274   1.651   3.861   7.776 -1.1432  2.5669 -2.2134
 5547SOL    HW228275   1.672   3.981   7.854  1.0147 -1.1841  1.0234
 5548SOL     OW28276   1.692   3.606   5.655 -0.4107  0.2088  0.3656
 5548SOL    HW128277   1.739   3.530   5.621  1.2706  1.5393 -0.2479
 5548SOL    HW228278   1.675   3.655   5.574 -0.3125 -3.0975 -1.6725
 5549SOL     OW28279   1.820   0.263   8.664 -0.6460  0.2614 -0.3563
 5549SOL    HW128280   1.841   0.170   8.660 -1.8557 -0.0420  0.2952
 5549SOL    HW228281   1.750   0.253   8.600 -1.0833 -1.3505  0.3716
 5550SOL     OW28282   2.979   3.441   8.596  0.3893 -0.2098 -1.1767
 5550SOL    HW128283   2.922   3.379   8.552 -1.2148  0.7419 -0.4625
 5550SOL    HW228284   3.019   3.491   8.525  0.7886  1.1746  0.0185
 5551SOL     OW28285   4.468   0.519   8.220  0.8233  0.3755 -0.0423
 5551SOL    HW128286   4.490   0.517   8.127 -2.4923  1.1880 -0.8321
 5551SOL    HW228287   4.527   0.448   8.247 -1.1384 -0.3000  2.4774
 5552SOL     OW28288   0.939   1.228   2.527 -0.0661 -0.3119 -0.0217
 5552SOL    HW128289   1.020   1.236   2.577 -0.9182  1.0125  1.1257
 5552SOL    HW228290   0.896   1.314   2.525  0.3434 -0.0703  1.4985
 5553SOL     OW28291   2.216   3.770   3.415 -0.0889  0.4440 -0.1379
 5553SOL    HW128292   2.148   3.720   3.370 -0.3662 -1.3990  2.3549
 5553SOL    HW228293   2.210   3.749   3.509 -1.0959  2.1958  0.2010
 5554SOL     OW28294   1.462   3.631   5.361 -0.1650  0.3514  0.4734
 5554SOL    HW128295   1.411   3.562   5.317  1.0303  0.7600 -1.5281
 5554SOL    HW228296   1.478   3.676   5.278 -0.9094  2.2314  1.3671
 5555SOL     OW28297   1.078   1.847   3.398 -0.4249  0.2287 -0.4794
 5555SOL    HW128298   1.154   1.801   3.434 -0.7687  0.7014  0.8784
 5555SOL    HW228299   1.002   1.813   3.445 -1.6046  1.4156 -1.5686
 5556SOL     OW28300   3.751   2.679   7.840  0.2302 -0.2034  0.2052
 5556SOL    HW128301   3.669   2.727   7.832  0.0194 -0.4537  0.9202
 5556SOL    HW228302   3.766   2.687   7.934  0.2453  1.7452  0.0276
 5557SOL     OW28303   2.289   4.609   8.589  0.2977  0.0545 -0.7021
 5557SOL    HW128304   2.255   4.536   8.642  1.6373  0.3703  0.6150
 5557SOL    HW228305   2.383   4.595   8.604  0.4105 -0.1178 -1.6037
 5558SOL     OW28306   0.395   4.673   6.827  0.2769  0.3856  0.0160
 5558SOL    HW128307   0.356   0.016   6.794 -0.5828  0.6082  1.5791
 5558SOL    HW228308   0.460   4.664   6.757  0.6709  0.2338  0.3967
 5559SOL     OW28309   0.228   3.646   5.990 -0.6833  0.2791  0.2233
 5559SOL    HW128310   0.219   3.709   6.062 -1.9535 -0.7992  0.9883
 5559SOL    HW228311   0.193   3.695   5.916 -0.2281 -1.0897 -0.9043
 5560SOL     OW28312   2.683   4.038   1.903 -0.4136 -0.1239  0.4194
 5560SOL    HW128313   2.732   3.976   1.850 -1.8223  0.3379 -1.4298
 5560SOL    HW228314   2.731   4.042   1.986  1.6733 -1.2089 -0.7376
 5561SOL     OW28315   1.345   4.444   5.249 -0.3855 -0.2879  0.4702
 5561SOL    HW128316   1.260   4.484   5.232  0.0225  0.4578  0.1499
 5561SOL    HW228317   1.346   4.428   5.343 -4.0157 -2.0875  0.1977
 5562SOL     OW28318   2.640   2.897   8.794 -0.2245  0.0010 -0.2473
 5562SOL    HW128319   2.653   2.923   8.702  0.1318  1.3075  0.1736
 5562SOL    HW228320   2.630   2.803   8.778 -2.0986  0.6162 -2.7541
 5563SOL     OW28321   1.280   0.018  14.842 -0.2100 -0.4545 -0.1769
 5563SOL    HW128322   1.273   0.007  14.937  2.1790  0.9645  0.1581
 5563SOL    HW228323   1.241   0.106  14.839  1.1620  0.1861  0.9662
 5564SOL     OW28324   2.609   0.152   3.776  0.4775 -0.7054 -0.4091
 5564SOL    HW128325   2.576   0.069   3.742 -0.6847 -0.7709  0.8742
 5564SOL    HW228326   2.697   0.139   3.740  1.3262 -0.4094  1.5649
 5565SOL     OW28327   0.875   2.035   1.943  0.2850 -0.1691  0.2278
 5565SOL    HW128328   0.822   2.076   2.011  1.6840  3.4398 -0.8307
 5565SOL    HW228329   0.941   2.102   1.926 -1.8408  1.5537 -1.4062
 5566SOL     OW28330   1.100   3.556   5.804  0.0229 -0.4276 -0.4714
 5566SOL    HW128331   1.190   3.568   5.833 -0.0736 -0.1938 -0.2670
 5566SOL    HW228332   1.111   3.573   5.711 -2.3499 -0.2011 -0.7237
 5567SOL     OW28333   1.596   2.357  14.852 -0.4945 -0.3466  0.3820
 5567SOL    HW128334   1.612   2.265  14.829  1.9888  0.4717 -1.1224
 5567SOL    HW228335   1.520   2.339  14.907 -0.9444  0.7177  0.1167
 5568SOL     OW28336   1.277   3.764   1.640  0.1187  0.1909  0.3363
 5568SOL    HW128337   1.357   3.781   1.589  1.2022 -1.8750  1.3601
 5568SOL    HW228338   1.238   3.846   1.609  2.8652  1.7058  0.8574
 5569SOL     OW28339   3.098   4.097  17.429 -0.4079  0.0214 -0.0500
 5569SOL    HW128340   3.023   4.052  17.470 -0.6105  0.8114  0.4447
 5569SOL    HW228341   3.070   4.110  17.339  0.4742 -1.7160 -0.5839
 5570SOL     OW28342   3.898   0.252   6.217 -0.1262  0.0116 -0.1576
 5570SOL    HW128343   3.828   0.207   6.169  1.3102 -1.4463 -0.9073
 5570SOL    HW228344   3.850   0.280   6.295 -0.6819  2.0013 -1.2101
 5571SOL     OW28345   3.977   4.114   7.712  0.1095 -0.0069  0.8763
 5571SOL    HW128346   3.962   4.061   7.790  1.9700 -2.9414 -0.7615
 5571SOL    HW228347   4.072   4.112   7.702  0.2414  1.1968  1.8788
 5572SOL     OW28348   2.348   4.677   4.388  0.6127 -0.1113  0.2300
 5572SOL    HW128349   2.338   0.005   4.319  0.6693 -0.8159 -0.4359
 5572SOL    HW228350   2.377   4.596   4.346  0.6623 -2.0987  4.0420
 5573SOL     OW28351   4.095   2.339  17.056 -0.3008 -0.1804 -0.2478
 5573SOL    HW128352   4.066   2.415  17.106 -0.5631  0.2347 -1.0449
 5573SOL    HW228353   4.181   2.378  17.040 -0.7546  1.9547  2.4887
 5574SOL     OW28354   2.288   2.431  11.281  0.1685 -0.4332 -0.8711
 5574SOL    HW128355   2.253   2.342  11.274 -1.5939  0.1947  0.1519
 5574SOL    HW228356   2.383   2.425  11.267  0.3347  0.3853 -0.0571
 5575SOL     OW28357   4.128   1.209  12.088  0.4569 -0.1775 -0.4025
 5575SOL    HW128358   4.127   1.164  12.004 -0.7507 -1.8601  0.5200
 5575SOL    HW228359   4.220   1.233  12.093  0.2638  0.4033  0.3861
 5576SOL     OW28360   1.432   3.900   2.874  0.0794 -0.0713 -0.2538
 5576SOL    HW128361   1.441   3.837   2.946 -0.1738  1.9001  1.5097
 5576SOL    HW228362   1.350   3.872   2.833 -0.3711  1.5607 -0.4309
 5577SOL     OW28363   2.384   3.755   6.536  0.3461  0.0475  0.7374
 5577SOL    HW128364   2.303   3.766   6.585  0.1470  1.8381  0.0127
 5577SOL    HW228365   2.409   3.663   6.527  0.0160  0.1761 -1.5399
 5578SOL     OW28366   3.519   1.860   7.435  0.4267  0.2702 -0.0133
 5578SOL    HW128367   3.437   1.819   7.461  1.2380 -1.0889  0.3833
 5578SOL    HW228368   3.500   1.950   7.461 -0.6093  0.8253 -2.6278
 5579SOL     OW28369   0.090   3.544  12.860  0.1470 -0.2987 -0.4634
 5579SOL    HW128370   0.064   3.631  12.892 -2.9891 -1.6101  0.5108
 5579SOL    HW228371   0.183   3.545  12.881  0.8386  0.8760 -3.4732
 5580SOL     OW28372   0.411   0.001  10.015  0.5070  0.0965 -0.5213
 5580SOL    HW128373   0.352   0.035  10.082 -1.0586  0.2682 -1.9988
 5580SOL    HW228374   0.469   4.675  10.059  0.1632  0.2057  0.0945
 5581SOL     OW28375   0.616   0.441  11.276  0.2224 -0.1198  0.2727
 5581SOL    HW128376   0.604   0.389  11.356 -0.1669  0.1560  0.3986
 5581SOL    HW228377   0.606   0.527  11.318 -0.9593  0.1339 -0.5312
 5582SOL     OW28378   0.021   3.964   7.990 -0.0280  0.1017  0.9455
 5582SOL    HW128379   0.064   3.898   8.045 -0.1605 -0.6550  0.1354
 5582SOL    HW228380   0.098   4.003   7.949  0.0168  0.2076  1.1303
 5583SOL     OW28381   0.369   2.098   1.644 -0.2893  0.7447 -0.2442
 5583SOL    HW128382   0.324   2.181   1.629 -1.4473  0.1716  0.0403
 5583SOL    HW228383   0.416   2.088   1.562 -0.8999  0.3562 -0.5488
 5584SOL     OW28384   4.667   1.419   1.815 -0.0449  0.4927 -0.3234
 5584SOL    HW128385   4.717   1.384   1.741 -0.7446 -1.5857  0.1859
 5584SOL    HW228386   4.582   1.422   1.771 -0.9926 -1.1802  1.3976
 5585SOL     OW28387   1.364   0.364   7.519  0.1168 -0.1995  0.2124
 5585SOL    HW128388   1.458   0.353   7.529  0.2123 -1.2159 -1.7634
 5585SOL    HW228389   1.338   0.281   7.559  1.8940 -0.8207  0.0803
 5586SOL     OW28390   3.513   4.336  15.366 -0.0488  1.0989  0.6129
 5586SOL    HW128391   3.521   4.394  15.291  0.9907  0.8385  0.5219
 5586SOL    HW228392   3.422   4.309  15.357  0.2038  0.4078  0.1938
 5587SOL     OW28393   2.577   2.415   5.071 -0.2067  0.2287  0.3543
 5587SOL    HW128394   2.600   2.336   5.021  0.0832  0.8756 -0.5358
 5587SOL    HW228395   2.660   2.447   5.107  0.9852 -2.0423 -0.3647
 5588SOL     OW28396   2.317   1.860   8.039 -0.6910  0.2103  0.0209
 5588SOL    HW128397   2.246   1.852   8.102  1.8306  0.3118  2.8606
 5588SOL    HW228398   2.271   1.895   7.962 -2.4064 -2.4959 -0.1493
 5589SOL     OW28399   2.834   3.077  14.463  0.6772  0.0569  0.1295
 5589SOL    HW128400   2.767   3.039  14.406  1.1058  1.5966 -1.4351
 5589SOL    HW228401   2.798   3.043  14.544 -1.8226 -0.8616 -1.3782
 5590SOL     OW28402   1.062   0.821   1.785  0.0876  0.5278  0.7426
 5590SOL    HW128403   1.035   0.857   1.700  0.3402  0.5325  0.6623
 5590SOL    HW228404   0.984   0.768   1.804 -0.2473  0.1127 -1.7665
 5591SOL     OW28405   0.108   2.675   1.700  0.0701 -0.1170 -0.1788
 5591SOL    HW128406   0.134   2.767   1.692 -2.7699  0.6469 -0.6945
 5591SOL    HW228407   0.084   2.651   1.611 -2.4399 -3.0281  1.2807
 5592SOL     OW28408   4.401   4.118   6.113  0.3889  0.3442 -0.3797
 5592SOL    HW128409   4.457   4.045   6.139  0.3204  0.5055  0.2053
 5592SOL    HW228410   4.457   4.158   6.046 -0.5074  0.2676 -1.1733
 5593SOL     OW28411   1.955   2.746  14.669 -0.5935  0.3489  0.0552
 5593SOL    HW128412   1.952   2.821  14.729  0.3704  0.1511  0.3497
 5593SOL    HW228413   1.867   2.708  14.668  0.8557 -3.0314  0.9791
 5594SOL     OW28414   4.614   2.177  12.071  0.1345 -0.5818 -0.4759
 5594SOL    HW128415   4.609   2.121  11.994  0.3704 -1.5383  0.2119
 5594SOL    HW228416   4.539   2.138  12.115  1.4869 -0.3704  2.0354
 5595SOL     OW28417   1.248   0.951   6.823 -0.0519 -0.0683  0.2115
 5595SOL    HW128418   1.268   1.001   6.744  0.6400  1.2132  1.1974
 5595SOL    HW228419   1.232   0.865   6.782  1.2351 -1.1728  2.0359
 5596SOL     OW28420   0.235   2.744   3.035  0.1141  0.3994 -0.8764
 5596SOL    HW128421   0.180   2.692   2.976  1.1678 -0.3476 -1.2125
 5596SOL    HW228422   0.318   2.696   3.036 -1.5051 -2.4026 -1.3369
 5597SOL     OW28423   2.843   1.697  12.629  0.0071 -0.2269  0.2636
 5597SOL    HW128424   2.774   1.690  12.564  0.1771  1.9696 -0.1582
 5597SOL    HW228425   2.845   1.606  12.657 -0.2636 -0.9129 -1.9950
 5598SOL     OW28426   1.643   4.439   4.948  0.0955 -0.1138  0.2081
 5598SOL    HW128427   1.647   4.478   5.035  0.2264 -3.0734  1.5031
 5598SOL    HW228428   1.596   4.508   4.900 -1.4504 -0.4615  1.2124
 5599SOL     OW28429   3.373   2.072   3.467 -0.1076  0.2384 -0.1796
 5599SOL    HW128430   3.375   2.167   3.479  0.2616  0.2496 -0.3277
 5599SOL    HW228431   3.449   2.044   3.517  0.9461  0.3119 -1.7554
 5600SOL     OW28432   1.613   2.770   9.045  0.3903  0.3527 -0.1091
 5600SOL    HW128433   1.556   2.831   9.091  0.8407  1.9591 -1.7134
 5600SOL    HW228434   1.619   2.808   8.958 -1.1677 -0.9712 -0.7947
 5601SOL     OW28435   2.096   1.961   0.816 -0.1437 -0.5990 -0.7402
 5601SOL    HW128436   2.080   2.045   0.772  1.3168  0.8781  1.5476
 5601SOL    HW228437   2.005   1.933   0.829 -0.2879  0.0324 -0.3822
 5602SOL     OW28438   4.005   4.568   7.786  0.6407  0.1541  0.3778
 5602SOL    HW128439   4.083   4.556   7.731 -0.0812  0.2712 -0.6610
 5602SOL    HW228440   4.030   4.634   7.851  0.6729 -0.7383  1.2812
 5603SOL     OW28441   4.006   4.240   1.655  0.4566  0.3670  0.0334
 5603SOL    HW128442   3.966   4.300   1.593 -0.0235 -2.3027 -2.2671
 5603SOL    HW228443   3.944   4.166   1.661  1.0240 -0.0453  0.8863
 5604SOL     OW28444   2.405   1.318   9.921  0.1675  1.1566  0.0803
 5604SOL    HW128445   2.489   1.361   9.906  1.1382 -1.1099 -0.9282
 5604SOL    HW228446   2.421   1.232   9.882  0.0247  1.7649 -1.2973
 5605SOL     OW28447   2.531   3.660   7.039  0.1459  0.1075  0.1721
 5605SOL    HW128448   2.470   3.729   7.065  0.1931  0.4803 -0.7064
 5605SOL    HW228449   2.585   3.701   6.970 -0.8504 -1.9014 -1.7979
 5606SOL     OW28450   3.072   3.688   4.271 -0.0556 -0.4479 -0.0315
 5606SOL    HW128451   3.051   3.649   4.356  1.7382 -0.1722  0.5383
 5606SOL    HW228452   3.029   3.771   4.291 -2.1753 -1.5566  0.0192
 5607SOL     OW28453   0.888   3.781   3.616  0.8088 -0.4585 -0.0987
 5607SOL    HW128454   0.968   3.736   3.642  0.0830 -1.6952  0.0154
 5607SOL    HW228455   0.844   3.810   3.696  0.3742 -0.1264 -0.4550
 5608SOL     OW28456   4.686   2.411   0.363  0.0658 -0.3532  0.1351
 5608SOL    HW128457   4.650   2.338   0.312  0.6254 -0.4902 -0.0656
 5608SOL    HW228458   4.726   2.470   0.299 -0.6567 -0.1801 -0.1659
 5609SOL     OW28459   0.644   3.283   2.790  0.4482 -0.4202 -0.1052
 5609SOL    HW128460   0.656   3.201   2.743 -3.0527  0.1220 -1.9325
 5609SOL    HW228461   0.630   3.246   2.877  3.5409  0.0563  0.5768
 5610SOL     OW28462   3.936   3.687   1.653 -0.2760  0.1626  0.3945
 5610SOL    HW128463   3.859   3.684   1.709 -0.6228  0.1165 -0.0880
 5610SOL    HW228464   4.004   3.655   1.713 -0.6573  1.0851  1.3143
 5611SOL     OW28465   4.221   0.847   7.980 -0.4175  0.0927  0.5795
 5611SOL    HW128466   4.183   0.761   7.965  0.4973 -0.5727  2.1207
 5611SOL    HW228467   4.255   0.874   7.894 -0.6698 -2.7422 -0.4099
 5612SOL     OW28468   3.062   3.349  12.114 -0.3483  0.3058  0.1472
 5612SOL    HW128469   2.994   3.289  12.086 -0.3137  2.0535 -3.7601
 5612SOL    HW228470   3.009   3.409  12.166  0.4027  2.8145 -1.9810
 5613SOL     OW28471   3.432   3.569  12.707 -0.8735 -0.2006  0.5447
 5613SOL    HW128472   3.429   3.548  12.613 -0.6523  0.2162  0.4459
 5613SOL    HW228473   3.488   3.646  12.700  1.3785 -1.8584  0.4167
 5614SOL     OW28474   2.892   1.912   2.516  0.4399  0.1453 -0.1955
 5614SOL    HW128475   2.894   1.934   2.609  0.5897 -0.2293 -0.1117
 5614SOL    HW228476   2.800   1.908   2.491  0.2435 -0.2641  0.6079
 5615SOL     OW28477   2.902   3.581   2.035  0.1123 -0.2720 -0.3229
 5615SOL    HW128478   2.826   3.634   2.058  1.6729  1.9669 -0.3745
 5615SOL    HW228479   2.972   3.639   2.004 -0.7252  0.3318 -1.0741
 5616SOL     OW28480   1.726   3.170   8.897  0.2595 -0.0104 -0.2421
 5616SOL    HW128481   1.779   3.249   8.887  0.0888  0.3917  1.9046
 5616SOL    HW228482   1.656   3.210   8.948  0.7638 -0.9094  1.1583
 5617SOL     OW28483   2.585   1.712   9.831  0.0534  0.7455  0.0939
 5617SOL    HW128484   2.601   1.626   9.872 -0.5236  1.3697  1.6143
 5617SOL    HW228485   2.669   1.753   9.853 -0.2667  0.0130  2.7259
 5618SOL     OW28486   2.263   0.884  14.406 -0.1281 -0.4761 -1.1178
 5618SOL    HW128487   2.344   0.834  14.391  0.6134  0.0832  1.0039
 5618SOL    HW228488   2.202   0.820  14.441 -0.7551 -0.7125 -2.6392
 5619SOL     OW28489   4.403   2.169   0.004 -0.1871 -0.3717 -0.5318
 5619SOL    HW128490   4.342   2.180   0.078 -1.1492 -1.6795 -1.1233
 5619SOL    HW228491   4.450   2.250   0.020 -0.8656  0.3474 -2.2363
 5620SOL     OW28492   0.326   4.686   1.656 -0.0752 -0.1992 -0.0196
 5620SOL    HW128493   0.364   4.657   1.573  1.2379  0.6649  0.2794
 5620SOL    HW228494   0.323   0.044   1.645  1.5541 -0.3846 -2.0838
 5621SOL     OW28495   0.371   2.776  10.370  0.1033 -0.0110  0.2487
 5621SOL    HW128496   0.385   2.729  10.288 -0.2790 -1.6949  1.1371
 5621SOL    HW228497   0.344   2.704  10.428 -1.1020  0.2573  0.0252
 5622SOL     OW28498   3.491   2.157  16.674  0.4639  0.2234  0.2113
 5622SOL    HW128499   3.515   2.085  16.616 -1.7004 -0.0255 -0.3658
 5622SOL    HW228500   3.548   2.225  16.636  1.1915  1.5955  3.7532
 5623SOL     OW28501   2.725   2.280   9.339  0.1648 -0.5286 -0.6063
 5623SOL    HW128502   2.648   2.225   9.325 -0.0758 -0.4328  0.2993
 5623SOL    HW228503   2.794   2.216   9.356 -1.3742 -1.3196  2.6209
 5624SOL     OW28504   0.893   0.900   3.202  0.5821 -0.4950 -0.7809
 5624SOL    HW128505   0.809   0.876   3.243  1.3787 -1.4320  0.2954
 5624SOL    HW228506   0.906   0.812   3.167  2.0799 -0.0580 -1.3026
 5625SOL     OW28507   3.523   2.133   6.768  0.2237 -0.0207  0.3131
 5625SOL    HW128508   3.478   2.199   6.716  0.2870 -0.8529 -0.7847
 5625SOL    HW228509   3.550   2.192   6.839  2.2181  0.2219 -0.6616
 5626SOL     OW28510   3.449   0.735   5.486 -0.4846 -0.2571  0.8303
 5626SOL    HW128511   3.421   0.808   5.431  1.5527 -2.0986 -2.6636
 5626SOL    HW228512   3.509   0.685   5.431 -0.8631 -0.0695  0.2417
 5627SOL     OW28513   0.580   4.705   6.630  0.0073  0.0583 -0.1242
 5627SOL    HW128514   0.625   0.052   6.617  1.3368 -0.7059 -0.4541
 5627SOL    HW228515   0.530   4.712   6.549 -0.4190 -0.6102  0.0842
 5628SOL     OW28516   1.939   0.161   5.090 -0.2637 -0.0734  0.0061
 5628SOL    HW128517   2.001   0.090   5.107  1.9769  2.2997  1.7745
 5628SOL    HW228518   1.898   0.174   5.176 -0.5651 -2.2699  0.1961
 5629SOL     OW28519   1.731   3.218   9.780  0.3506  0.1463 -0.2729
 5629SOL    HW128520   1.680   3.203   9.701  2.3932 -0.3177 -1.5021
 5629SOL    HW228521   1.673   3.188   9.850  0.1005  0.2817 -0.4235
 5630SOL     OW28522   1.862   3.511   4.099 -0.1885  0.2081 -0.0318
 5630SOL    HW128523   1.900   3.423   4.094 -1.6042 -0.3757 -0.3431
 5630SOL    HW228524   1.915   3.558   4.034 -1.9054 -1.8766 -2.9053
 5631SOL     OW28525   4.674   0.174  15.702 -0.0495 -0.8271  0.4516
 5631SOL    HW128526   4.593   0.161  15.652 -0.6913  1.0985  0.9840
 5631SOL    HW228527   4.728   0.220  15.638 -2.0394  0.1045 -0.5680
 5632SOL     OW28528   0.351   1.167   9.160  0.4920  0.3851 -0.2769
 5632SOL    HW128529   0.358   1.129   9.247 -0.5085  0.4675 -0.1558
 5632SOL    HW228530   0.356   1.084   9.113 -0.4227 -0.1698  0.5967
 5633SOL     OW28531   2.243   4.461   7.132 -0.1661 -0.1272 -0.3518
 5633SOL    HW128532   2.315   4.438   7.190 -0.9484  0.4680  0.8664
 5633SOL    HW228533   2.247   4.557   7.127  0.4366 -0.1556 -0.4094
 5634SOL     OW28534   4.255   1.393  14.102  0.0852 -0.3578 -0.1722
 5634SOL    HW128535   4.311   1.460  14.062 -0.5177  1.6103  2.3354
 5634SOL    HW228536   4.262   1.412  14.195 -2.1876 -1.9837  0.3134
 5635SOL     OW28537   2.005   1.527   1.623  0.4310 -0.2375  0.0835
 5635SOL    HW128538   1.940   1.574   1.676 -0.0858  0.3395 -1.0581
 5635SOL    HW228539   2.080   1.584   1.605  1.3113 -1.1769  0.7958
 5636SOL     OW28540   4.367   3.385   9.823  0.3458 -0.0380 -0.3569
 5636SOL    HW128541   4.462   3.375   9.835  0.3736  2.4907  1.4172
 5636SOL    HW228542   4.376   3.410   9.731  0.2938 -0.2804 -0.4294
 5637SOL     OW28543   1.239   3.765   0.657 -0.6603 -0.1132  0.1124
 5637SOL    HW128544   1.287   3.717   0.724  1.1670 -1.0634 -1.8711
 5637SOL    HW228545   1.167   3.705   0.635 -2.5504  1.8765  0.8558
 5638SOL     OW28546   2.849   3.334   2.354 -0.1564 -0.1159 -0.9321
 5638SOL    HW128547   2.779   3.388   2.391 -1.0810 -2.1270  0.2456
 5638SOL    HW228548   2.806   3.287   2.283  1.0413 -0.7103 -1.2662
 5639SOL     OW28549   2.802   3.626  11.355  0.7481  0.9144 -0.0355
 5639SOL    HW128550   2.713   3.612  11.324  0.4594  0.0386  1.2016
 5639SOL    HW228551   2.821   3.692  11.289 -0.9585 -0.2806 -1.7103
 5640SOL     OW28552   0.774   4.594   3.895  0.4426  0.0021  0.2978
 5640SOL    HW128553   0.802   4.505   3.871  2.3772  0.5858  0.4123
 5640SOL    HW228554   0.742   4.577   3.983  0.5254 -0.2519  0.2797
 5641SOL     OW28555   2.576   4.315   7.885 -0.1261 -0.1535  0.0512
 5641SOL    HW128556   2.563   4.410   7.875  1.7673  0.1270  0.2141
 5641SOL    HW228557   2.586   4.305   7.979  0.0289  3.1107  0.3958
 5642SOL     OW28558   1.185   4.618   4.434  0.0609 -0.1997  0.0502
 5642SOL    HW128559   1.110   4.561   4.419 -1.0474  2.0351 -2.7366
 5642SOL    HW228560   1.147   4.679   4.498 -0.5550 -0.5133 -0.0180
 5643SOL     OW28561   0.164   2.118   4.628 -0.2368 -0.1093  0.2782
 5643SOL    HW128562   0.148   2.109   4.722  1.9388  1.5315  0.8205
 5643SOL    HW228563   0.097   2.185   4.624 -0.2163  0.0512  2.3750
 5644SOL     OW28564   1.482   3.599   4.683 -0.7081 -0.2655  0.2219
 5644SOL    HW128565   1.416   3.605   4.615  0.5725 -2.4409 -1.2320
 5644SOL    HW228566   1.501   3.692   4.695 -0.3291 -0.5665  2.0389
 5645SOL     OW28567   3.959   1.257   7.008  0.0722  0.1283  0.3421
 5645SOL    HW128568   3.981   1.260   6.915 -0.8213  0.6964  0.1468
 5645SOL    HW228569   4.042   1.283   7.047 -0.3860 -0.7745  1.8976
 5646SOL     OW28570   3.996   1.163   3.963 -0.2937 -0.0611  0.1984
 5646SOL    HW128571   3.956   1.191   4.046 -1.0069 -0.2052 -0.0937
 5646SOL    HW228572   3.929   1.107   3.923  2.5014 -1.2251 -2.8774
 5647SOL     OW28573   4.245   1.349  10.185 -0.6492 -0.3843  0.0153
 5647SOL    HW128574   4.163   1.368  10.141 -1.5329  0.0780  1.8617
 5647SOL    HW228575   4.227   1.383  10.273 -1.3995  1.0416 -0.6808
 5648SOL     OW28576   2.143   1.547   5.868 -0.7564 -0.2799  0.1177
 5648SOL    HW128577   2.062   1.580   5.830 -1.7736  1.1738  3.6308
 5648SOL    HW228578   2.119   1.529   5.958 -0.1222 -2.1268 -0.0716
 5649SOL     OW28579   1.578   1.467  16.127 -0.4721 -0.2258  0.3538
 5649SOL    HW128580   1.507   1.491  16.186  1.2344  0.8743  1.9628
 5649SOL    HW228581   1.636   1.538  16.154 -3.7768  2.3510  0.6220
 5650SOL     OW28582   3.322   0.108   5.651  0.8393  0.2386  0.1040
 5650SOL    HW128583   3.373   0.185   5.673  0.7867  0.4437 -0.4825
 5650SOL    HW228584   3.350   0.052   5.723 -0.9377 -0.5550  0.1810
 5651SOL     OW28585   1.426   3.864   8.019  0.7523 -0.0656  0.1577
 5651SOL    HW128586   1.498   3.915   8.056  0.8833 -1.0258  1.2375
 5651SOL    HW228587   1.351   3.922   8.031  2.4348  2.2397 -0.4568
 5652SOL     OW28588   2.051   0.172   0.775  0.1526  0.2115  0.0074
 5652SOL    HW128589   1.990   0.244   0.792  0.4891  0.1811  1.3475
 5652SOL    HW228590   1.992   0.099   0.758 -0.2075  0.5329 -0.1306
 5653SOL     OW28591   4.134   4.293   2.832  0.0270  0.3689  0.1957
 5653SOL    HW128592   4.155   4.206   2.798 -0.8264 -0.4416  1.7492
 5653SOL    HW228593   4.220   4.335   2.835  1.1327 -2.0140  2.5923
 5654SOL     OW28594   3.242   3.632   6.420  0.3437 -0.2559 -0.1521
 5654SOL    HW128595   3.276   3.606   6.505 -0.8058 -1.7405 -0.1399
 5654SOL    HW228596   3.320   3.612   6.367 -0.1147  2.4005 -1.8326
 5655SOL     OW28597   0.785   1.420   3.295  0.0061  0.2525  0.2132
 5655SOL    HW128598   0.708   1.460   3.255  2.2046  0.4904 -3.7292
 5655SOL    HW228599   0.741   1.371   3.364  0.6092 -0.1182  0.3279
 5656SOL     OW28600   2.804   2.717   2.295 -0.2588 -0.5220 -0.1137
 5656SOL    HW128601   2.786   2.707   2.389 -0.1795  1.1768  0.0839
 5656SOL    HW228602   2.897   2.704   2.278 -0.4900 -0.7820 -1.1770
 5657SOL     OW28603   2.069   0.871   7.460  0.1680  0.0606  0.1421
 5657SOL    HW128604   2.002   0.804   7.474  0.8173 -1.0351 -2.1586
 5657SOL    HW228605   2.062   0.885   7.366 -1.5168  0.5000  0.3191
 5658SOL     OW28606   1.404   0.805  13.727  0.8258  0.3873  0.1400
 5658SOL    HW128607   1.409   0.719  13.767  0.3856 -0.5377 -1.8237
 5658SOL    HW228608   1.495   0.835  13.737  0.6419  0.1079  2.7993
 5659SOL     OW28609   4.303   0.815   6.174  0.1568  0.3539  0.0350
 5659SOL    HW128610   4.266   0.801   6.261  0.9556  1.3922  0.5497
 5659SOL    HW228611   4.396   0.820   6.193 -0.5830  2.3605  3.1294
 5660SOL     OW28612   2.087   3.700   8.760  0.2736  0.1934 -0.2274
 5660SOL    HW128613   2.173   3.687   8.800 -1.2199 -1.1855  2.5058
 5660SOL    HW228614   2.099   3.735   8.672  0.0663 -0.5973 -0.5674
 5661SOL     OW28615   3.985   4.205   4.950  0.1309  0.4913 -0.7139
 5661SOL    HW128616   4.005   4.127   5.002  0.1116 -0.3010 -1.9134
 5661SOL    HW228617   3.896   4.220   4.982  0.2860 -3.4541  1.6457
 5662SOL     OW28618   0.038   0.099   7.123 -0.3440 -0.5558 -0.1599
 5662SOL    HW128619   0.085   0.058   7.196 -2.9699 -2.5970  0.3704
 5662SOL    HW228620   0.061   0.190   7.138  1.5925 -0.7321 -1.9837
 5663SOL     OW28621   4.710   2.879   3.916 -0.1323  0.4245  0.7626
 5663SOL    HW128622   0.026   2.930   3.855  0.8169 -0.5057  0.8225
 5663SOL    HW228623   4.653   2.845   3.846  2.5258 -0.8364 -0.7937
 5664SOL     OW28624   0.073   2.108   4.984 -0.4507 -0.0198 -0.3495
 5664SOL    HW128625   0.066   2.013   4.973 -2.0503 -0.1929  2.0775
 5664SOL    HW228626   0.010   2.131   5.052 -0.9086 -1.8443 -0.1528
 5665SOL     OW28627   1.418   2.151   9.683 -0.0796  0.2145 -0.1441
 5665SOL    HW128628   1.451   2.089   9.618  0.7003  0.8413 -0.3401
 5665SOL    HW228629   1.398   2.226   9.626  0.0678  0.9686  0.7821
 5666SOL     OW28630   2.583   0.930   3.175 -0.5553 -0.0422  0.0445
 5666SOL    HW128631   2.599   0.842   3.206 -0.4349 -0.5412 -1.4261
 5666SOL    HW228632   2.552   0.972   3.255 -0.1663 -0.5375  0.4481
 5667SOL     OW28633   0.379   2.232   2.297  0.0872 -0.2672  0.7981
 5667SOL    HW128634   0.474   2.228   2.285 -0.0541 -1.6518  0.0739
 5667SOL    HW228635   0.356   2.173   2.369 -0.5033  1.4259  1.9786
 5668SOL     OW28636   2.275   1.730   3.369 -0.0194 -0.2637 -0.4394
 5668SOL    HW128637   2.316   1.649   3.399  0.7382 -0.5993 -2.3387
 5668SOL    HW228638   2.350   1.786   3.351 -1.7508  0.6538 -4.9270
 5669SOL     OW28639   2.551   1.896   4.843  0.9144  0.1316  0.0810
 5669SOL    HW128640   2.460   1.887   4.814  1.3638 -2.0040 -0.6684
 5669SOL    HW228641   2.569   1.804   4.860  2.0890  0.1798 -0.9760
 5670SOL     OW28642   1.152   0.333   0.139  0.1981 -0.0761  0.5390
 5670SOL    HW128643   1.229   0.389   0.130  0.0991 -0.0526 -0.1659
 5670SOL    HW228644   1.085   0.400   0.144 -0.9752 -1.2940  1.0358
 5671SOL     OW28645   0.411   2.457   7.547 -0.1912 -0.5364  0.0159
 5671SOL    HW128646   0.329   2.438   7.499  0.2036 -1.0195 -0.4758
 5671SOL    HW228647   0.405   2.552   7.556  1.0220 -0.2855 -1.8388
 5672SOL     OW28648   4.709   0.698  12.515  0.4436 -0.1195 -0.8663
 5672SOL    HW128649   4.637   0.755  12.488  0.3167 -0.2166 -0.7301
 5672SOL    HW228650   0.025   0.706  12.436 -0.1194  0.6045 -1.1791
 5673SOL     OW28651   0.714   3.994  15.521 -0.4659 -0.2265  0.3659
 5673SOL    HW128652   0.739   4.041  15.441 -3.8719 -0.6310 -0.9192
 5673SOL    HW228653   0.778   4.037  15.577  1.7866  0.1465 -2.4675
 5674SOL     OW28654   1.750   0.862   7.993  0.0156  0.0391 -0.0735
 5674SOL    HW128655   1.781   0.945   8.029 -2.7867  1.8729 -1.8549
 5674SOL    HW228656   1.821   0.826   7.940 -1.4621  1.0771 -2.7508
 5675SOL     OW28657   1.295   2.180  12.086 -0.1267 -0.0522  0.7892
 5675SOL    HW128658   1.205   2.149  12.100 -1.3309  3.1875  0.3493
 5675SOL    HW228659   1.337   2.110  12.037 -2.9469 -1.6669  0.7078
 5676SOL     OW28660   3.531   1.073   5.833  0.6031  0.6070  0.1178
 5676SOL    HW128661   3.595   1.110   5.894 -0.0971  0.4594  0.9476
 5676SOL    HW228662   3.531   1.145   5.771  0.2701  0.1298 -0.4355
 5677SOL     OW28663   1.352   3.599   3.755  0.4439 -0.6968  0.0593
 5677SOL    HW128664   1.430   3.583   3.808  1.4320  1.8719 -0.6386
 5677SOL    HW228665   1.378   3.682   3.716 -1.1773  1.0824  2.8203
 5678SOL     OW28666   2.822   3.162  15.209 -0.0905 -0.0931  0.4204
 5678SOL    HW128667   2.776   3.089  15.168  0.7764 -1.2462  1.5038
 5678SOL    HW228668   2.903   3.179  15.161 -0.1094  2.8456  1.3931
 5679SOL     OW28669   2.909   2.600  11.716  0.5355  0.5556  0.4257
 5679SOL    HW128670   2.918   2.674  11.656 -0.7893  0.4452  0.0764
 5679SOL    HW228671   2.837   2.624  11.774 -0.7626  0.7465 -1.2544
 5680SOL     OW28672   0.135   2.243   7.234 -0.1886 -0.1270 -0.5857
 5680SOL    HW128673   0.063   2.192   7.270 -1.5183 -0.0136 -3.0854
 5680SOL    HW228674   0.182   2.177   7.182  1.5640  1.7339 -1.3658
 5681SOL     OW28675   2.204   2.257   5.342  0.6270  0.4582 -1.0644
 5681SOL    HW128676   2.230   2.308   5.266  1.1836 -0.2321 -1.3451
 5681SOL    HW228677   2.281   2.200   5.350 -0.5151 -1.2849 -2.1965
 5682SOL     OW28678   3.293   0.357   1.965  0.0437 -0.4762  0.3102
 5682SOL    HW128679   3.259   0.414   1.896  3.9973 -0.6921 -1.8114
 5682SOL    HW228680   3.242   0.277   1.954  2.9757 -2.4072  0.7252
 5683SOL     OW28681   2.487   1.755  11.092 -0.4128  0.1403  0.5823
 5683SOL    HW128682   2.424   1.688  11.116  0.1439 -0.2798  0.8652
 5683SOL    HW228683   2.462   1.766  11.000 -1.1492  0.2649  0.8018
 5684SOL     OW28684   1.479   0.217   3.226  0.5087  0.2242 -0.3245
 5684SOL    HW128685   1.497   0.208   3.132  3.0386 -0.1907  0.2150
 5684SOL    HW228686   1.506   0.134   3.265  1.5307  0.2937 -0.8779
 5685SOL     OW28687   2.106   2.661  13.529  0.2830 -0.3236 -0.1757
 5685SOL    HW128688   2.195   2.694  13.519 -0.3599  2.4382  3.5875
 5685SOL    HW228689   2.063   2.726  13.474  0.5845 -0.0623 -0.0988
 5686SOL     OW28690   3.706   3.378   8.397  0.5410 -0.1627  0.7417
 5686SOL    HW128691   3.779   3.342   8.447  0.9758 -1.9994 -1.2019
 5686SOL    HW228692   3.742   3.390   8.309 -0.4433  1.4395  0.5586
 5687SOL     OW28693   3.297   1.662   8.189 -0.5034  0.1904  0.3283
 5687SOL    HW128694   3.303   1.758   8.197 -1.5702  0.6870 -5.2960
 5687SOL    HW228695   3.255   1.637   8.272 -0.4842 -1.3121 -0.1197
 5688SOL     OW28696   0.225   2.046   0.594  0.4096  0.0833  0.0170
 5688SOL    HW128697   0.278   1.969   0.613 -2.1295 -2.2336 -2.1692
 5688SOL    HW228698   0.181   2.061   0.677  1.1345  1.0837  0.2214
 5689SOL     OW28699   1.253   1.802   7.236  0.4499 -0.4824  0.5963
 5689SOL    HW128700   1.308   1.729   7.266  0.1710 -1.7857 -2.0183
 5689SOL    HW228701   1.182   1.753   7.193  0.2724 -0.3786  0.7727
 5690SOL     OW28702   4.353   3.772   7.896 -0.4666 -0.1132 -0.3202
 5690SOL    HW128703   4.262   3.741   7.899 -0.3788 -0.1478  2.2086
 5690SOL    HW228704   4.369   3.777   7.802 -0.7857  0.6003 -0.3421
 5691SOL     OW28705   4.226   2.935   4.236 -0.0952  0.1046  0.0695
 5691SOL    HW128706   4.254   2.882   4.161  1.1631 -1.3111  1.5340
 5691SOL    HW228707   4.200   3.019   4.198  3.1503  0.2864 -1.7917
 5692SOL     OW28708   2.696   1.952  11.343 -0.3494 -0.0765 -0.0238
 5692SOL    HW128709   2.664   1.950  11.433  1.3672  2.7548  0.6366
 5692SOL    HW228710   2.628   2.011  11.312 -2.0423 -1.3652  1.2065
 5693SOL     OW28711   1.079   1.170   8.424  0.1183 -0.1050 -0.3167
 5693SOL    HW128712   1.127   1.234   8.372  0.4850 -0.5081 -0.4785
 5693SOL    HW228713   1.141   1.140   8.491  0.3042  0.0712 -0.4103
 5694SOL     OW28714   4.446   0.494   4.362 -0.5143  0.0424  0.2598
 5694SOL    HW128715   4.539   0.486   4.383 -0.6485 -2.5343 -0.1096
 5694SOL    HW228716   4.415   0.404   4.367  1.1611 -0.5414  0.2069
 5695SOL     OW28717   2.978   1.486  13.074 -0.3702  0.4531  0.4555
 5695SOL    HW128718   2.910   1.430  13.037 -0.2413  0.8812 -0.4334
 5695SOL    HW228719   2.932   1.535  13.141  0.5722 -0.8804  2.0615
 5696SOL     OW28720   4.589   0.835   2.513  0.3691 -0.0526 -0.2822
 5696SOL    HW128721   4.515   0.832   2.573 -0.6195  1.4567 -1.4379
 5696SOL    HW228722   4.656   0.799   2.572  1.6794  1.5225 -0.8111
 5697SOL     OW28723   0.137   3.565   3.988  0.2366 -0.5416 -0.0950
 5697SOL    HW128724   0.215   3.531   4.032 -0.4718 -0.9870  0.8082
 5697SOL    HW228725   0.079   3.554   4.063 -1.3384  0.3439 -1.1673
 5698SOL     OW28726   0.815   4.203  14.742  0.1405 -0.3173 -0.0858
 5698SOL    HW128727   0.869   4.144  14.689 -1.6308  0.8839 -3.1583
 5698SOL    HW228728   0.859   4.287  14.735  1.4989 -0.9729  0.4596
 5699SOL     OW28729   3.700   2.424   4.831  0.4304  0.1363  0.1670
 5699SOL    HW128730   3.762   2.373   4.780  0.7827 -0.6634  1.3943
 5699SOL    HW228731   3.680   2.500   4.776 -2.1577  0.1893  1.1549
 5700SOL     OW28732   1.490   0.113   4.519 -0.7058  0.2390 -0.4353
 5700SOL    HW128733   1.474   0.048   4.587 -3.6716 -0.9109 -2.2304
 5700SOL    HW228734   1.573   0.155   4.542 -0.3635  0.0123 -1.2491
 5701SOL     OW28735   1.857   4.314   7.111  0.3063  0.2786 -0.1876
 5701SOL    HW128736   1.817   4.401   7.106  1.9221  1.0841  0.8199
 5701SOL    HW228737   1.903   4.323   7.194  0.7663 -2.1099 -0.1829
 5702SOL     OW28738   3.744   4.654   3.976  0.1435  0.2551 -0.2008
 5702SOL    HW128739   3.733   4.565   3.941  2.0869 -0.2565  0.4711
 5702SOL    HW228740   3.824   4.677   3.929  1.9557 -1.4049  2.0727
 5703SOL     OW28741   1.377   3.356  13.340  0.4434  0.1057 -0.1360
 5703SOL    HW128742   1.426   3.413  13.281  0.3699 -0.6188 -0.8992
 5703SOL    HW228743   1.406   3.382  13.428 -0.7749 -0.5874  0.4827
 5704SOL     OW28744   4.177   2.100   1.911  0.3281  0.3158  0.4615
 5704SOL    HW128745   4.224   2.120   1.992 -0.9861 -0.9201  1.5275
 5704SOL    HW228746   4.090   2.081   1.947 -0.0707 -1.9958 -1.7154
 5705SOL     OW28747   2.894   3.067  10.549  0.5342 -0.0542 -0.5171
 5705SOL    HW128748   2.900   3.163  10.552 -3.4020  0.1849 -0.4097
 5705SOL    HW228749   2.817   3.051  10.604  0.2371  1.3617 -0.5253
 5706SOL     OW28750   1.350   1.142  10.039 -0.5394 -0.9484 -0.0913
 5706SOL    HW128751   1.279   1.085  10.011  1.9307 -4.4633  0.6650
 5706SOL    HW228752   1.372   1.116  10.128  1.1449  0.3513 -0.1189
 5707SOL     OW28753   2.247   0.580   2.428  0.4115 -0.4898 -0.5296
 5707SOL    HW128754   2.289   0.659   2.393  0.7276 -1.2408 -1.8323
 5707SOL    HW228755   2.264   0.592   2.522 -0.7812  2.8087 -0.7165
 5708SOL     OW28756   2.803   0.579   6.668 -0.3247  0.0482  0.3857
 5708SOL    HW128757   2.879   0.624   6.632  0.1675 -1.4289 -0.4165
 5708SOL    HW228758   2.783   0.506   6.610  0.8819  0.1636 -0.1779
 5709SOL     OW28759   0.432   4.071   1.522 -0.4245  0.1597 -0.4539
 5709SOL    HW128760   0.359   4.013   1.500  0.3252 -0.7595 -0.5156
 5709SOL    HW228761   0.446   4.061   1.616 -0.8668  1.8381 -0.2184
 5710SOL     OW28762   4.229   0.367   4.615  0.0691  0.0109  0.2909
 5710SOL    HW128763   4.184   0.306   4.674  1.7081 -0.6158  0.9032
 5710SOL    HW228764   4.255   0.441   4.671 -0.6564  0.4604  0.0355
 5711SOL     OW28765   3.087   3.176  14.747 -0.3716  0.3503  0.3952
 5711SOL    HW128766   3.177   3.172  14.716 -0.2836  0.1323  0.6827
 5711SOL    HW228767   3.042   3.226  14.679  0.0798  1.5709  1.0115
 5712SOL     OW28768   0.314   3.344   5.639  0.4459 -0.0868  0.4831
 5712SOL    HW128769   0.247   3.354   5.706  0.8565  0.8316  0.7512
 5712SOL    HW228770   0.314   3.431   5.600 -0.8561 -0.7769 -1.0590
 5713SOL     OW28771   1.290   4.368   1.233  0.0027  0.0283 -0.4135
 5713SOL    HW128772   1.262   4.393   1.321 -0.0902  1.4234 -0.8331
 5713SOL    HW228773   1.276   4.453   1.192 -4.4509  1.0319  3.1716
 5714SOL     OW28774   4.703   3.783  17.085 -0.3343 -0.0128  0.0272
 5714SOL    HW128775   4.695   3.786  16.989 -1.2552  0.0566  0.0987
 5714SOL    HW228776   4.610   3.800  17.103 -0.3529  2.1301 -1.9822
 5715SOL     OW28777   1.665   3.237   0.845 -0.4255  0.0603 -0.3213
 5715SOL    HW128778   1.748   3.268   0.808 -0.8457 -1.4888 -2.5093
 5715SOL    HW228779   1.623   3.189   0.774 -2.2814  0.8555  0.2294
 5716SOL     OW28780   0.054   3.738   1.285 -0.3325 -0.2153 -0.2203
 5716SOL    HW128781   4.722   3.708   1.344  0.6909 -0.5781  0.8019
 5716SOL    HW228782   0.010   3.809   1.239 -2.1239 -1.4710 -0.4268
 5717SOL     OW28783   3.522   1.625   9.399 -0.1988 -0.0361 -0.4882
 5717SOL    HW128784   3.431   1.606   9.380 -0.4646  0.7708 -0.0543
 5717SOL    HW228785   3.560   1.539   9.385 -0.1422  0.3667 -2.7093
 5718SOL     OW28786   1.206   4.371   7.998  0.4309  0.6047 -0.3128
 5718SOL    HW128787   1.169   4.432   7.935 -1.1653  1.5631  1.5788
 5718SOL    HW228788   1.138   4.369   8.065  0.1056 -3.6244 -0.7105
 5719SOL     OW28789   0.460   1.833   3.135  0.4091 -0.2243 -0.0376
 5719SOL    HW128790   0.382   1.858   3.184  1.0321  0.2139  0.7215
 5719SOL    HW228791   0.458   1.888   3.056  2.2540 -0.5581 -0.3067
 5720SOL     OW28792   4.280   0.572   3.794  0.2708 -0.0297 -0.6585
 5720SOL    HW128793   4.345   0.638   3.821  0.7458 -0.0693 -1.6929
 5720SOL    HW228794   4.336   0.507   3.751  0.4118 -0.6102  0.3972
 5721SOL     OW28795   0.566   0.544  17.334  0.1000  0.0242 -0.0353
 5721SOL    HW128796   0.522   0.499  17.262  0.8535 -0.8423  0.0532
 5721SOL    HW228797   0.562   0.638  17.314 -0.1294  0.3000  1.3106
 5722SOL     OW28798   4.179   2.717   7.959 -0.3768  0.0448  0.1186
 5722SOL    HW128799   4.225   2.787   8.006 -0.5609  1.5202 -1.8798
 5722SOL    HW228800   4.085   2.737   7.966 -0.4640 -1.0099  2.1133
 5723SOL     OW28801   3.368   3.269  10.449  0.2206 -1.1197  0.6004
 5723SOL    HW128802   3.377   3.227  10.363  0.1750 -0.0365  0.0643
 5723SOL    HW228803   3.300   3.334  10.432  1.5186  0.3457  1.0009
 5724SOL     OW28804   0.581   1.692   5.052 -0.4554  0.4123  0.7898
 5724SOL    HW128805   0.492   1.729   5.048 -0.3370  0.7265  1.0847
 5724SOL    HW228806   0.621   1.743   5.122  2.4798 -0.8675  0.0261
 5725SOL     OW28807   4.663   1.279   8.073 -0.4895  0.2229 -0.1085
 5725SOL    HW128808   4.686   1.186   8.064 -1.4348  0.0336 -0.5748
 5725SOL    HW228809   4.583   1.273   8.124  1.6355  0.0909  3.1680
 5726SOL     OW28810   1.233   4.229  15.956  0.2668 -0.3498  0.5724
 5726SOL    HW128811   1.306   4.240  16.017 -2.2310 -0.9981  3.6942
 5726SOL    HW228812   1.256   4.286  15.883  0.5873 -3.1480 -1.5162
 5727SOL     OW28813   4.287   2.044   9.761  0.1184  0.0546 -0.2026
 5727SOL    HW128814   4.280   2.115   9.697 -0.8935 -0.1040 -0.2794
 5727SOL    HW228815   4.219   2.066   9.825 -0.3271 -1.2352 -0.2398
 5728SOL     OW28816   1.944   3.164   8.214 -0.1727 -0.0372  0.1398
 5728SOL    HW128817   1.901   3.079   8.225  1.7979 -0.7686  2.2986
 5728SOL    HW228818   1.959   3.196   8.303 -1.2846  2.3188 -0.5334
 5729SOL     OW28819   2.308   2.247   9.192 -0.7121 -0.1670 -0.1437
 5729SOL    HW128820   2.239   2.282   9.135  1.0016  0.5695 -1.7601
 5729SOL    HW228821   2.298   2.154   9.173 -0.1424 -0.0174 -1.2154
 5730SOL     OW28822   0.037   4.420   5.292  0.0678  0.6929 -0.1483
 5730SOL    HW128823   0.128   4.390   5.287 -0.5321 -0.9410 -0.9965
 5730SOL    HW228824   0.033   4.502   5.242  0.7883  1.8214  1.6302
 5731SOL     OW28825   0.805   3.143   9.479 -0.0460 -0.0671  0.3336
 5731SOL    HW128826   0.806   3.218   9.420  0.4707  0.1260  0.5832
 5731SOL    HW228827   0.714   3.118   9.465  0.3169 -0.6187 -0.9921
 5732SOL     OW28828   3.307   0.258   9.142  0.0679  0.4845 -0.1797
 5732SOL    HW128829   3.294   0.341   9.189  1.1732  1.3050 -1.3260
 5732SOL    HW228830   3.291   0.296   9.056  0.5438  2.2909  0.5207
 5733SOL     OW28831   1.738   4.628  13.984 -0.1061 -0.1452  0.1397
 5733SOL    HW128832   1.710   4.555  14.039 -2.2000  0.5935  0.0178
 5733SOL    HW228833   1.681   4.617  13.908 -0.6059 -0.5600  0.5824
 5734SOL     OW28834   2.331   1.053   1.873 -0.3941  0.6226  0.7838
 5734SOL    HW128835   2.313   1.031   1.964  0.0146 -1.3302  0.3825
 5734SOL    HW228836   2.272   1.129   1.874 -2.0351 -0.6284 -2.0246
 5735SOL     OW28837   3.648   0.628   4.479  0.0005  0.0367  0.0039
 5735SOL    HW128838   3.588   0.558   4.503 -1.0699  0.6405 -0.9183
 5735SOL    HW228839   3.583   0.695   4.455  1.2754  0.8376 -1.2582
 5736SOL     OW28840   1.276   0.050   6.196 -0.2559  0.7273 -0.3607
 5736SOL    HW128841   1.225   0.030   6.275  2.6434 -1.6595  0.9266
 5736SOL    HW228842   1.333   0.121   6.224  1.5098 -0.7754 -0.0978
 5737SOL     OW28843   1.169   2.107   3.274 -0.1065  0.1966  0.0130
 5737SOL    HW128844   1.124   2.025   3.293 -0.7538  1.1014  2.3910
 5737SOL    HW228845   1.242   2.102   3.335  1.5073  0.1028 -1.9019
 5738SOL     OW28846   0.191   4.577  17.697  0.6366  0.3179  0.2421
 5738SOL    HW128847   0.130   4.580  17.624  0.2535  0.0573  0.5487
 5738SOL    HW228848   0.266   4.533  17.657 -0.0383 -1.6609  1.1659
 5739SOL     OW28849   0.736   0.028   2.684  0.1698  1.0150 -0.0600
 5739SOL    HW128850   0.662   0.062   2.633  0.9013  0.0733 -1.7536
 5739SOL    HW228851   0.694   4.700   2.740 -0.8753  0.7340 -1.1916
 5740SOL     OW28852   4.683   0.682   6.582  0.0417  0.1920 -0.1730
 5740SOL    HW128853   0.017   0.618   6.581 -1.0547 -1.0094 -0.4153
 5740SOL    HW228854   4.624   0.642   6.645 -1.6971  0.6570 -1.5021
 5741SOL     OW28855   1.352   2.235   5.311  0.4355 -0.4283 -0.0669
 5741SOL    HW128856   1.337   2.165   5.246  0.5906  0.3557 -0.9496
 5741SOL    HW228857   1.264   2.272   5.323  1.2290  0.8572  1.7095
 5742SOL     OW28858   0.001   3.520  15.870 -0.0209  0.0279 -0.2024
 5742SOL    HW128859   4.672   3.565  15.817 -0.6816 -0.8108 -0.0811
 5742SOL    HW228860   0.015   3.438  15.822 -1.9191 -2.2002  3.0776
 5743SOL     OW28861   2.542   1.307   4.177  0.0059 -0.2368  0.0745
 5743SOL    HW128862   2.486   1.255   4.234 -1.2835  0.8619 -0.1803
 5743SOL    HW228863   2.626   1.261   4.173 -0.9506 -1.9105 -0.8562
 5744SOL     OW28864   2.521   3.356  15.645 -0.4793  0.2373 -0.0981
 5744SOL    HW128865   2.454   3.418  15.615  0.2095  0.2813 -1.5354
 5744SOL    HW228866   2.578   3.344  15.569 -0.0557 -0.9031  0.4020
 5745SOL     OW28867   1.607   3.726   9.548 -0.5058 -0.0120 -0.5131
 5745SOL    HW128868   1.669   3.729   9.621 -0.7934  2.4882 -0.3640
 5745SOL    HW228869   1.545   3.663   9.584 -1.5705  1.3677  0.0265
 5746SOL     OW28870   3.972   1.910  14.390 -0.3640 -0.2223 -0.2912
 5746SOL    HW128871   4.051   1.950  14.352  0.1582  0.3825  1.4298
 5746SOL    HW228872   3.931   1.871  14.313 -0.3655  0.9934 -0.9025
 5747SOL     OW28873   0.837   2.308   8.844  0.5043  0.2658 -0.1914
 5747SOL    HW128874   0.797   2.221   8.832  0.2142  0.4374 -0.4625
 5747SOL    HW228875   0.929   2.282   8.841 -0.0304 -1.6987 -0.0005
 5748SOL     OW28876   3.324   4.117  12.482  0.5121  0.7880 -0.2601
 5748SOL    HW128877   3.241   4.133  12.436  0.6256  0.3192 -0.6272
 5748SOL    HW228878   3.294   4.121  12.573 -0.8452  0.2100 -0.6765
 5749SOL     OW28879   3.200   3.958   6.482 -0.2315 -0.0205 -0.2529
 5749SOL    HW128880   3.149   4.039   6.479 -3.2998 -1.9064  0.2697
 5749SOL    HW228881   3.203   3.927   6.392  3.2021 -0.5156  0.0430
 5750SOL     OW28882   1.610   4.002  15.775  0.1529  0.4501  0.3016
 5750SOL    HW128883   1.544   3.957  15.829 -0.2221 -1.0386 -1.3881
 5750SOL    HW228884   1.599   4.092  15.804  0.0689  0.4160  0.3788
 5751SOL     OW28885   2.556   1.760   8.420  0.2600  0.3389 -0.0332
 5751SOL    HW128886   2.568   1.682   8.474 -1.9912  0.9407  1.3350
 5751SOL    HW228887   2.461   1.758   8.412  0.3006  2.0622 -1.0591
 5752SOL     OW28888   0.577   1.086   2.080 -0.0014 -0.4356  0.5941
 5752SOL    HW128889   0.591   1.168   2.032  1.8314 -0.1314  1.6642
 5752SOL    HW228890   0.487   1.104   2.108 -0.9016 -1.8557 -1.3309
 5753SOL     OW28891   0.103   2.913  16.847 -0.0540 -0.4216  0.5231
 5753SOL    HW128892   0.134   2.989  16.798 -1.1179 -0.7929 -0.7341
 5753SOL    HW228893   0.008   2.926  16.854  0.0614  0.7296  0.0021
 5754SOL     OW28894   2.819   3.470  12.250 -0.1166  0.2562 -0.2939
 5754SOL    HW128895   2.724   3.471  12.254 -0.0954 -1.5593  0.8166
 5754SOL    HW228896   2.818   3.565  12.256  2.7965  0.2554  0.2472
 5755SOL     OW28897   3.139   3.236   3.966  0.1154 -0.2684 -0.3904
 5755SOL    HW128898   3.082   3.211   3.893  1.8766  0.0732 -1.8924
 5755SOL    HW228899   3.107   3.323   3.988 -0.0130 -0.7805  1.4776
 5756SOL     OW28900   2.604   2.632  14.541 -0.5291  0.5407 -0.6298
 5756SOL    HW128901   2.541   2.580  14.590 -2.4481  1.4981 -2.0804
 5756SOL    HW228902   2.561   2.619  14.456 -0.3236  3.1306 -1.1361
 5757SOL     OW28903   1.505   2.605   1.391  0.1164 -0.6656 -0.4529
 5757SOL    HW128904   1.540   2.662   1.459  0.9195  0.1299 -1.5333
 5757SOL    HW228905   1.413   2.630   1.387  0.9266  2.2456 -0.9421
 5758SOL     OW28906   2.426   2.236   2.487  0.1418  0.1586  0.0337
 5758SOL    HW128907   2.379   2.243   2.570 -0.3380  0.4974 -0.2644
 5758SOL    HW228908   2.461   2.324   2.477  0.3643 -0.1441 -1.9956
 5759SOL     OW28909   1.153   0.585  13.667  0.1058 -0.3545 -0.1421
 5759SOL    HW128910   1.225   0.573  13.729 -0.9021  1.1194  1.3094
 5759SOL    HW228911   1.184   0.522  13.602 -1.2479  0.4176 -1.5348
 5760SOL     OW28912   3.718   3.754   8.928  0.2040 -0.2578  0.2515
 5760SOL    HW128913   3.690   3.738   9.018  0.8395 -0.6126  0.3860
 5760SOL    HW228914   3.794   3.697   8.922  1.1596  0.8745  1.4166
 5761SOL     OW28915   4.346   4.593   3.485 -0.2551  0.1025 -0.7947
 5761SOL    HW128916   4.330   4.655   3.414 -1.9158 -0.4692 -0.9028
 5761SOL    HW228917   4.419   4.629   3.535 -0.2033  0.5670 -1.2071
 5762SOL     OW28918   2.381   3.351   6.098 -0.3033 -0.0688 -0.0082
 5762SOL    HW128919   2.448   3.384   6.157 -0.1364  0.9137 -0.7449
 5762SOL    HW228920   2.371   3.266   6.139 -0.4633  0.1921  0.4883
 5763SOL     OW28921   3.780   1.577   4.493 -0.7829  0.1142 -0.6948
 5763SOL    HW128922   3.696   1.533   4.502 -0.8494  0.1607 -1.0677
 5763SOL    HW228923   3.842   1.506   4.480  0.4058  0.6215  2.1332
 5764SOL     OW28924   0.994   4.511   9.832  0.1879 -0.4361  0.2555
 5764SOL    HW128925   1.087   4.530   9.837 -0.1420  0.9752  1.1740
 5764SOL    HW228926   0.987   4.454   9.909 -1.2609 -2.3438 -1.2883
 5765SOL     OW28927   2.816   3.993  12.455  0.2277  0.1253 -0.5418
 5765SOL    HW128928   2.828   3.927  12.524  2.9888 -0.5640 -1.6454
 5765SOL    HW228929   2.731   3.964  12.422  0.1041  0.4809 -0.5259
 5766SOL     OW28930   0.254   3.003   6.420  0.2339  0.0029  0.0543
 5766SOL    HW128931   0.267   2.919   6.377 -1.3330 -0.3831  0.3466
 5766SOL    HW228932   0.160   3.006   6.401 -0.1105 -0.5846  1.6551
 5767SOL     OW28933   4.261   3.892  16.561 -0.4401  0.2884 -0.0170
 5767SOL    HW128934   4.252   3.941  16.479 -1.1753  1.9110  1.0469
 5767SOL    HW228935   4.340   3.928  16.600 -0.7228 -1.8501  2.5105
 5768SOL     OW28936   4.240   1.176   3.610 -0.2690  0.8245  0.0480
 5768SOL    HW128937   4.211   1.091   3.645  1.5424  0.4274  0.5584
 5768SOL    HW228938   4.160   1.214   3.572 -0.1181  0.0946 -1.0088
 5769SOL     OW28939   1.829   2.916   1.733 -0.1952  0.7534  0.0236
 5769SOL    HW128940   1.900   2.963   1.688 -1.0340  0.8906 -1.1573
 5769SOL    HW228941   1.877   2.838   1.762  0.0189  1.4626  1.5749
 5770SOL     OW28942   1.555   4.614   2.646  0.9142 -1.0319 -0.6042
 5770SOL    HW128943   1.467   4.593   2.678  1.0783  0.6812  0.9701
 5770SOL    HW228944   1.541   4.671   2.570  1.4332 -2.4396 -1.7699
 5771SOL     OW28945   1.037   2.234   1.926  0.4760  0.1734  0.2852
 5771SOL    HW128946   1.083   2.260   1.846 -0.2233  1.9028  0.4421
 5771SOL    HW228947   1.088   2.279   1.994  1.0618  0.6589 -0.4864
 5772SOL     OW28948   1.551   3.944  13.178  0.0464 -0.2447 -0.2662
 5772SOL    HW128949   1.624   3.914  13.234  0.2313 -2.0534 -1.4723
 5772SOL    HW228950   1.531   4.032  13.210  2.2591 -0.0533  0.6639
 5773SOL     OW28951   4.596   1.490   3.623  0.7893 -0.1750 -0.1880
 5773SOL    HW128952   4.537   1.420   3.650 -0.2000  0.3865 -0.8632
 5773SOL    HW228953   4.643   1.510   3.705  0.8686  0.7403 -0.4533
 5774SOL     OW28954   3.871   4.215   4.414  0.0501  0.8294 -0.1485
 5774SOL    HW128955   3.845   4.306   4.402  2.7851  1.6417  0.1500
 5774SOL    HW228956   3.821   4.166   4.348 -2.1966  1.3504  1.1532
 5775SOL     OW28957   4.261   2.285   9.613 -0.0512 -0.3979  0.0166
 5775SOL    HW128958   4.266   2.378   9.593 -0.9863 -0.4012 -0.2208
 5775SOL    HW228959   4.169   2.268   9.593  0.0374 -1.3580  0.3775
 5776SOL     OW28960   4.476   4.381  11.406 -0.1586  0.3629  0.6602
 5776SOL    HW128961   4.382   4.371  11.392 -0.6347  3.3565  1.7015
 5776SOL    HW228962   4.503   4.442  11.338 -0.3390 -0.9528 -0.5807
 5777SOL     OW28963   4.578   2.180   1.861  0.1834  0.0594  0.0802
 5777SOL    HW128964   4.495   2.171   1.814 -0.1577  0.3204  0.6315
 5777SOL    HW228965   4.624   2.227   1.792  0.0345 -0.0950 -0.1238
 5778SOL     OW28966   3.702   4.699  17.118 -0.1159 -0.2693  0.0847
 5778SOL    HW128967   3.636   4.710  17.187 -1.6858 -0.5237 -1.3871
 5778SOL    HW228968   3.687   0.042  17.068 -0.6181 -0.1973  0.3433
 5779SOL     OW28969   3.721   2.301  16.606  0.0194 -1.0840  0.4272
 5779SOL    HW128970   3.708   2.395  16.592  0.5250 -0.8979  1.1881
 5779SOL    HW228971   3.790   2.302  16.672 -0.7863  1.2514  1.2328
 5780SOL     OW28972   3.395   0.750   9.004  0.1065 -0.4502  0.0976
 5780SOL    HW128973   3.448   0.829   8.996  0.4314 -0.7010 -0.2204
 5780SOL    HW228974   3.372   0.751   9.097 -2.2937  1.0261 -0.5263
 5781SOL     OW28975   4.161   2.893   9.081  0.3281 -0.4830 -0.4888
 5781SOL    HW128976   4.095   2.874   9.148 -0.0348  3.6986  0.3520
 5781SOL    HW228977   4.106   2.932   9.014 -0.3000 -2.5316 -1.1348
 5782SOL     OW28978   2.102   3.768   7.319 -0.0738  0.3344 -0.6115
 5782SOL    HW128979   2.111   3.860   7.295 -1.8178  0.6140 -0.2166
 5782SOL    HW228980   2.025   3.766   7.376 -0.9969 -0.1436 -1.8875
 5783SOL     OW28981   1.935   1.136   6.086 -0.1024 -0.2138  0.0072
 5783SOL    HW128982   1.923   1.169   6.175 -3.6375 -2.8774  0.5170
 5783SOL    HW228983   1.942   1.214   6.032  0.2950 -0.1960  0.0776
 5784SOL     OW28984   2.480   3.562   9.880 -0.8071  0.2122 -0.4611
 5784SOL    HW128985   2.541   3.510   9.933 -0.2973  1.1178 -0.1617
 5784SOL    HW228986   2.518   3.532   9.797 -1.1322 -1.5395  0.0184
 5785SOL     OW28987   1.063   1.152   7.227  0.1032  0.1575  0.3541
 5785SOL    HW128988   1.036   1.090   7.160  0.7575  0.4094 -0.1417
 5785SOL    HW228989   0.989   1.213   7.222  0.5425  0.7722  1.3185
 5786SOL     OW28990   1.903   1.659   5.835  0.1912  0.0851 -0.1872
 5786SOL    HW128991   1.827   1.677   5.779 -1.8993  0.7634  2.8754
 5786SOL    HW228992   1.918   1.746   5.872 -0.6954 -0.3775  1.2231
 5787SOL     OW28993   1.469   3.389  17.069  0.1695  0.1669  0.0062
 5787SOL    HW128994   1.413   3.439  17.128 -1.0363  0.2075 -1.1722
 5787SOL    HW228995   1.533   3.451  17.033  0.0314  0.4978  0.3304
 5788SOL     OW28996   1.158   0.302  17.563 -0.1227 -0.3076 -0.1535
 5788SOL    HW128997   1.104   0.330  17.636  1.4979 -1.5256  1.4932
 5788SOL    HW228998   1.122   0.362  17.497  2.1753  1.4067  0.1547
 5789SOL     OW28999   4.223   0.003   2.803  0.2195 -0.0169 -0.2097
 5789SOL    HW129000   4.238   4.684   2.727 -1.2031  0.7750 -1.0924
 5789SOL    HW229001   4.208   4.675   2.871  4.3416 -1.6104 -0.8427
 5790SOL     OW29002   2.125   2.592   7.462  1.2144 -0.1429  0.1783
 5790SOL    HW129003   2.203   2.648   7.471  0.0573  1.0699  2.8674
 5790SOL    HW229004   2.052   2.652   7.477 -0.5188 -1.5719 -2.6403
 5791SOL     OW29005   0.331   4.355   3.922  0.8197  0.3682 -0.4252
 5791SOL    HW129006   0.371   4.366   3.836 -0.0780  4.1720 -0.3285
 5791SOL    HW229007   0.257   4.414   3.908  1.7107  2.0599  1.8810
 5792SOL     OW29008   2.829   1.356  12.056  0.4377  0.0836 -0.6309
 5792SOL    HW129009   2.866   1.315  12.135  0.1474 -0.8333 -0.9642
 5792SOL    HW229010   2.796   1.437  12.094  0.3195 -0.3934  0.3040
 5793SOL     OW29011   3.016   1.195  16.720 -0.5238  0.1142  0.4828
 5793SOL    HW129012   2.935   1.244  16.737 -1.3803 -1.1156 -0.0645
 5793SOL    HW229013   3.019   1.215  16.626 -0.5029  0.4979  0.5659
 5794SOL     OW29014   0.271   3.647   9.090  0.5972 -0.2813 -0.2504
 5794SOL    HW129015   0.221   3.595   9.026 -0.5413  2.0726 -1.2837
 5794SOL    HW229016   0.290   3.718   9.029  0.8608  0.3265  0.5523
 5795SOL     OW29017   0.192   3.032  14.740 -0.1479  0.7453 -0.1476
 5795SOL    HW129018   0.179   3.112  14.791 -1.6500  0.7328 -0.5015
 5795SOL    HW229019   0.249   3.061  14.668  2.2687  0.8193  1.8103
 5796SOL     OW29020   0.491   4.660  14.167  0.3825  0.2952 -0.0489
 5796SOL    HW129021   0.586   4.648  14.171  0.4972  0.2247 -3.6505
 5796SOL    HW229022   0.473   4.567  14.154 -1.2439  0.6133 -0.0214
 5797SOL     OW29023   2.518   3.143   8.759 -0.1154 -0.3407 -0.8156
 5797SOL    HW129024   2.590   3.189   8.801  0.3116 -0.1639 -1.7357
 5797SOL    HW229025   2.534   3.052   8.784 -1.6471 -0.3819  0.0571
 5798SOL     OW29026   1.247   3.001   2.410  0.0732  0.2126  0.4592
 5798SOL    HW129027   1.237   2.924   2.466  0.0404  1.1390  1.7197
 5798SOL    HW229028   1.241   2.960   2.323  0.4048  0.7837  0.1645
 5799SOL     OW29029   3.374   2.388   5.380  0.6886 -0.2770 -0.0268
 5799SOL    HW129030   3.304   2.453   5.385  1.3247  0.4074  0.0002
 5799SOL    HW229031   3.450   2.444   5.396 -1.0547  1.4066  2.2378
 5800SOL     OW29032   4.519   1.216  10.514  0.0367  0.1155  0.0781
 5800SOL    HW129033   4.580   1.286  10.539 -0.0915  0.2680 -0.0332
 5800SOL    HW229034   4.457   1.225  10.586 -0.2436  1.2327 -0.3052
 5801SOL     OW29035   1.832   2.183  13.352  0.0108 -0.1301 -0.3159
 5801SOL    HW129036   1.818   2.217  13.441 -0.4105  2.5769 -1.4115
 5801SOL    HW229037   1.835   2.267  13.306 -0.9957  0.3082  0.4141
 5802SOL     OW29038   4.156   1.525   2.800  0.5657 -0.0591 -0.3883
 5802SOL    HW129039   4.149   1.553   2.891  3.7737  0.8290 -0.4196
 5802SOL    HW229040   4.066   1.545   2.773 -0.2326 -0.9338  1.5913
 5803SOL     OW29041   3.586   3.966   5.683 -0.0162  0.0180  0.2940
 5803SOL    HW129042   3.543   3.895   5.635 -0.2852  0.1637  0.3175
 5803SOL    HW229043   3.655   3.919   5.730 -0.8968 -2.5307 -0.9659
 5804SOL     OW29044   4.401   1.865   4.998 -0.0708 -0.0059  0.4580
 5804SOL    HW129045   4.425   1.939   5.054  0.3093  0.2550 -0.0486
 5804SOL    HW229046   4.320   1.835   5.040 -0.4036 -0.5993 -0.6014
 5805SOL     OW29047   3.422   0.933  12.704  1.2857 -0.0928 -0.3150
 5805SOL    HW129048   3.406   0.976  12.788 -0.0737 -1.8664  0.3389
 5805SOL    HW229049   3.501   0.971  12.668 -0.2248  0.1673 -3.3859
 5806SOL     OW29050   2.438   3.081   6.230  0.1036 -0.3438 -0.4296
 5806SOL    HW129051   2.448   3.021   6.304  0.3689  0.3354  0.0920
 5806SOL    HW229052   2.524   3.122   6.219 -0.6334  1.1119 -0.8202
 5807SOL     OW29053   0.058   1.932   3.061  0.0336  0.3896 -0.1526
 5807SOL    HW129054   4.704   1.951   3.043 -0.5241 -0.7351  1.4984
 5807SOL    HW229055   0.094   1.973   2.982 -2.0160 -0.2451 -1.3925
 5808SOL     OW29056   3.825   0.864   0.974  0.3728  0.3818  0.0028
 5808SOL    HW129057   3.802   0.827   0.888 -0.5810  1.2851 -0.1381
 5808SOL    HW229058   3.740   0.848   1.016 -0.3009  0.6796 -1.2272
 5809SOL     OW29059   2.039   3.257   5.454  0.1883 -0.2345  0.2250
 5809SOL    HW129060   2.092   3.333   5.478  0.7923 -0.7700  0.5864
 5809SOL    HW229061   2.012   3.225   5.540 -0.8579 -0.1226 -0.0603
 5810SOL     OW29062   2.279   4.097  13.828  0.4267  0.0890 -0.1391
 5810SOL    HW129063   2.184   4.090  13.836  0.4609 -0.4138 -0.1466
 5810SOL    HW229064   2.303   4.091  13.921 -1.5306 -0.1633  0.3536
 5811SOL     OW29065   2.873   0.892  12.792  0.4977 -0.1010 -0.1577
 5811SOL    HW129066   2.945   0.900  12.730  1.1265  1.4164  0.7721
 5811SOL    HW229067   2.821   0.826  12.748 -2.1141  1.4692  0.5768
 5812SOL     OW29068   0.956   2.977   9.316  0.1818 -0.1568 -0.1851
 5812SOL    HW129069   0.913   3.029   9.384 -0.0275 -0.4652 -0.0790
 5812SOL    HW229070   0.875   2.935   9.285 -0.6564  0.4395  1.1861
 5813SOL     OW29071   1.355   2.042  11.701 -0.4146 -1.1192 -0.6715
 5813SOL    HW129072   1.334   1.951  11.682 -0.4560 -0.7878 -2.2417
 5813SOL    HW229073   1.389   2.027  11.789  1.1001  0.6531 -0.9479
 5814SOL     OW29074   4.033   3.819   3.155 -0.5189 -0.3045 -0.2813
 5814SOL    HW129075   4.047   3.734   3.113  3.8192 -0.6565  1.8424
 5814SOL    HW229076   3.961   3.791   3.211 -0.0212  3.4140  2.2250
 5815SOL     OW29077   2.841   4.648   7.871 -0.1262  0.3060 -0.0885
 5815SOL    HW129078   2.865   4.614   7.957 -0.8589 -1.0190 -0.3903
 5815SOL    HW229079   2.922   4.647   7.820 -0.5277  0.3981 -0.7305
 5816SOL     OW29080   1.934   2.116   6.872 -0.0314 -0.5151  0.4071
 5816SOL    HW129081   1.976   2.041   6.831  0.1875 -0.9051  1.3607
 5816SOL    HW229082   1.864   2.128   6.807  1.6332 -0.3755 -1.3535
 5817SOL     OW29083   4.518   4.612   4.207  0.0674  0.3370  0.1431
 5817SOL    HW129084   4.473   4.550   4.150 -1.4965 -0.8869  2.6955
 5817SOL    HW229085   4.611   4.591   4.199  0.2661  1.0372  0.6019
 5818SOL     OW29086   3.488   2.872   8.309 -0.0931  0.4335 -0.1322
 5818SOL    HW129087   3.565   2.816   8.306  0.2933  1.0671 -2.3704
 5818SOL    HW229088   3.478   2.877   8.214 -0.8641  0.6600 -0.0398
 5819SOL     OW29089   2.476   1.812   6.950 -0.0060  0.0012 -0.0080
 5819SOL    HW129090   2.520   1.832   6.867  0.7140 -1.4864  0.0084
 5819SOL    HW229091   2.547   1.754   6.979 -0.2662  0.3460  1.2889
 5820SOL     OW29092   3.109   2.617   0.172 -0.4783  0.4184  0.4749
 5820SOL    HW129093   3.081   2.674   0.100 -1.7691 -0.7700  0.0197
 5820SOL    HW229094   3.070   2.534   0.145  1.4814 -0.6501  0.9862
 5821SOL     OW29095   3.463   2.305  11.688 -0.0903  0.2693 -0.1552
 5821SOL    HW129096   3.532   2.240  11.699  2.7568  3.5518  1.5008
 5821SOL    HW229097   3.506   2.391  11.693  0.6050 -0.0180 -1.2503
 5822SOL     OW29098   1.549   3.165   6.184  0.6993 -0.0541 -0.0239
 5822SOL    HW129099   1.502   3.107   6.244  0.3134 -1.4021 -1.6388
 5822SOL    HW229100   1.496   3.158   6.105  0.8081  0.2720 -0.1267
 5823SOL     OW29101   2.738   2.441   6.966  0.2994 -0.6703 -0.8043
 5823SOL    HW129102   2.727   2.350   6.991 -0.0792 -0.7701 -1.3238
 5823SOL    HW229103   2.809   2.468   7.024  0.3090 -1.6813 -0.3477
 5824SOL     OW29104   2.404   0.432  10.852  0.3551  0.1244 -0.3236
 5824SOL    HW129105   2.364   0.481  10.781 -1.4027 -2.0358 -0.8439
 5824SOL    HW229106   2.479   0.491  10.862  1.6504 -1.5268 -0.2481
 5825SOL     OW29107   0.569   2.118  16.440  0.1489  0.2570  0.4811
 5825SOL    HW129108   0.654   2.080  16.462  0.6744 -0.0697 -2.0942
 5825SOL    HW229109   0.551   2.180  16.511 -0.6949  0.0006  0.4899
 5826SOL     OW29110   0.195   2.488   7.364  0.9796  0.4569  0.3435
 5826SOL    HW129111   0.178   2.406   7.317 -0.7441  1.4266 -0.7231
 5826SOL    HW229112   0.109   2.528   7.351  1.4987  2.1055  1.8713
 5827SOL     OW29113   3.805   2.206   7.653  0.5608 -0.0996  0.2169
 5827SOL    HW129114   3.748   2.151   7.706 -0.5061  1.2149  0.4217
 5827SOL    HW229115   3.762   2.288   7.678 -1.3423 -1.0362 -0.0331
 5828SOL     OW29116   3.020   1.813   6.683 -0.1995  0.2288  0.2222
 5828SOL    HW129117   3.059   1.781   6.765  1.4681 -1.2631 -1.1550
 5828SOL    HW229118   3.001   1.906   6.696  2.8246  0.9074 -0.2168
 5829SOL     OW29119   0.963   3.332   8.560  0.4068  0.1731  0.5464
 5829SOL    HW129120   0.930   3.244   8.579  0.0876 -0.2382 -1.8459
 5829SOL    HW229121   0.896   3.387   8.518  0.9354  0.9132  0.6666
 5830SOL     OW29122   3.831   0.932  12.891  0.2693 -0.1906 -0.1187
 5830SOL    HW129123   3.781   1.009  12.865  0.2217 -0.8010 -1.8278
 5830SOL    HW229124   3.760   0.870  12.906 -1.1697  1.2011 -1.1429
 5831SOL     OW29125   1.099   0.142   0.318 -0.3736  0.4907 -0.0481
 5831SOL    HW129126   1.087   0.110   0.229  0.0512  0.5770 -0.1376
 5831SOL    HW229127   1.133   0.223   0.280 -0.7619 -0.1368 -1.6956
 5832SOL     OW29128   3.509   2.697  13.351 -0.4451  0.1340  0.6170
 5832SOL    HW129129   3.561   2.770  13.384  0.1395 -0.3293  0.7365
 5832SOL    HW229130   3.578   2.631  13.343 -0.3328  0.2046  0.9915
 5833SOL     OW29131   4.089   4.552  10.269 -0.1672 -0.8698 -0.4001
 5833SOL    HW129132   4.089   4.596  10.355  0.5422  0.2414 -0.9642
 5833SOL    HW229133   4.066   4.625  10.212 -1.0505 -1.6413 -1.0219
 5834SOL     OW29134   0.105   2.982   7.256 -0.1540 -0.3685  0.3043
 5834SOL    HW129135   0.075   2.906   7.305 -2.1676 -0.2109 -0.6911
 5834SOL    HW229136   0.048   2.981   7.179  1.3712  1.5123 -0.8547
 5835SOL     OW29137   1.910   3.074   5.271 -0.3671  0.3557 -0.1085
 5835SOL    HW129138   1.888   3.037   5.357 -2.5440  1.7137 -0.0551
 5835SOL    HW229139   1.957   3.153   5.298  2.5551 -2.5223  3.2002
 5836SOL     OW29140   0.232   1.153  14.880 -0.6548 -0.4589  0.6283
 5836SOL    HW129141   0.197   1.205  14.807  1.6087  0.8189  0.4579
 5836SOL    HW229142   0.151   1.151  14.931  1.2079 -2.6733  3.4657
 5837SOL     OW29143   2.932   2.167   5.440  0.3333  0.4196 -0.7447
 5837SOL    HW129144   2.915   2.260   5.423  0.4948  0.3212 -1.4349
 5837SOL    HW229145   2.887   2.154   5.524  2.6856  0.1682  0.4563
 5838SOL     OW29146   4.328   4.396  10.327  0.1078  0.5381  0.3992
 5838SOL    HW129147   4.236   4.421  10.336 -0.3268 -1.4807  1.6351
 5838SOL    HW229148   4.368   4.467  10.278  0.5564 -0.2884 -0.4271
 5839SOL     OW29149   4.381   3.446   0.737  0.7014  0.0402  0.4153
 5839SOL    HW129150   4.306   3.435   0.795  1.2705 -0.0256  1.1235
 5839SOL    HW229151   4.409   3.536   0.755  1.3092 -0.2545  0.9111
 5840SOL     OW29152   3.871   3.016   5.886 -0.3025  0.3128 -0.3800
 5840SOL    HW129153   3.885   3.016   5.981  0.7629  1.8443 -0.5513
 5840SOL    HW229154   3.946   3.067   5.858 -1.2714  0.4319 -2.7371
 5841SOL     OW29155   3.635   3.652   9.187 -0.4322 -0.1405  0.1300
 5841SOL    HW129156   3.585   3.708   9.247  0.7074  0.2160  0.7411
 5841SOL    HW229157   3.579   3.575   9.179  0.0557 -0.5702  0.8458
 5842SOL     OW29158   0.317   0.434   3.764 -0.5434 -0.5095  0.1281
 5842SOL    HW129159   0.332   0.411   3.856 -1.6570 -0.5467  0.3003
 5842SOL    HW229160   0.350   0.523   3.759 -1.4975 -0.1787 -0.3231
 5843SOL     OW29161   1.258   3.135   6.539  0.3571 -0.5878 -0.4524
 5843SOL    HW129162   1.186   3.177   6.491 -1.0679 -2.4957  0.0069
 5843SOL    HW229163   1.332   3.151   6.481 -1.1967 -1.0123 -2.5633
 5844SOL     OW29164   0.844   1.526   8.776 -0.7938 -0.1321  0.4681
 5844SOL    HW129165   0.770   1.466   8.778  0.3320 -1.5228  0.2629
 5844SOL    HW229166   0.806   1.610   8.801  0.0999  0.5105 -0.3531
 5845SOL     OW29167   1.311   0.665   3.574 -0.1057  0.7920  0.2277
 5845SOL    HW129168   1.294   0.572   3.567 -0.1260  0.7026  1.4496
 5845SOL    HW229169   1.316   0.688   3.481 -1.2608  1.3790  0.3132
 5846SOL     OW29170   2.278   4.231   1.654  0.2158  0.4247 -0.0967
 5846SOL    HW129171   2.284   4.308   1.711 -0.2691 -0.1952  0.7903
 5846SOL    HW229172   2.321   4.166   1.710 -0.4404 -0.2000 -0.3210
 5847SOL     OW29173   3.967   1.421  10.457 -0.1772 -0.4375  0.7025
 5847SOL    HW129174   3.950   1.402  10.549 -0.3687 -1.5982  0.4287
 5847SOL    HW229175   4.053   1.462  10.463 -0.8121  1.1992 -1.1973
 5848SOL     OW29176   4.163   1.488   6.165 -0.3725 -0.0013  0.0733
 5848SOL    HW129177   4.182   1.516   6.254 -0.8476 -1.8098  0.7419
 5848SOL    HW229178   4.078   1.448   6.180  0.0022 -1.1234 -0.7559
 5849SOL     OW29179   2.000   0.126   6.284 -0.7702 -0.1181 -0.1613
 5849SOL    HW129180   1.986   0.077   6.203  0.6272 -1.5369  0.4391
 5849SOL    HW229181   2.086   0.090   6.307 -0.1335  0.8797 -0.9729
 5850SOL     OW29182   1.619   0.682   2.066 -0.2979  0.0310  0.1072
 5850SOL    HW129183   1.589   0.683   1.975 -0.7599  0.9853  0.2683
 5850SOL    HW229184   1.539   0.701   2.115  1.4187  0.6253  2.6812
 5851SOL     OW29185   4.273   2.097   0.683  0.5205  0.4211  0.4703
 5851SOL    HW129186   4.241   2.115   0.772 -0.8825  1.9701 -0.3568
 5851SOL    HW229187   4.368   2.107   0.690  0.9143 -2.9477  0.2360
 5852SOL     OW29188   2.260   3.668   2.382  0.3681 -0.0413  1.0481
 5852SOL    HW129189   2.285   3.707   2.298  0.1016 -0.1173  0.9335
 5852SOL    HW229190   2.173   3.640   2.354  0.5367 -1.9822  2.4280
 5853SOL     OW29191   1.260   4.317   2.123  0.5098 -0.1047 -0.5737
 5853SOL    HW129192   1.292   4.388   2.178 -1.6631 -0.6755  1.4033
 5853SOL    HW229193   1.333   4.255   2.124  0.5197 -0.0360  2.3731
 5854SOL     OW29194   2.801   1.007   6.836  0.2846 -0.5932 -0.2248
 5854SOL    HW129195   2.853   0.927   6.831  1.5898  0.4124 -3.1173
 5854SOL    HW229196   2.750   1.002   6.755 -0.5881 -0.3682  0.3153
 5855SOL     OW29197   2.315   2.476   6.149  0.1126 -0.8959 -0.3689
 5855SOL    HW129198   2.307   2.391   6.106  0.5085 -0.0969 -2.0075
 5855SOL    HW229199   2.336   2.449   6.238  0.3498 -2.3432 -0.8612
 5856SOL     OW29200   2.434   3.833   8.561  0.0221  0.4124  0.8491
 5856SOL    HW129201   2.493   3.759   8.577 -0.9811 -0.5617  0.0520
 5856SOL    HW229202   2.349   3.795   8.542  1.2000 -1.1639 -1.2633
 5857SOL     OW29203   3.759   1.189   2.030 -0.0244 -0.0119  0.1956
 5857SOL    HW129204   3.805   1.192   2.114  1.9014  1.6261 -0.9520
 5857SOL    HW229205   3.736   1.277   2.002 -1.3422 -0.2644  0.4849
 5858SOL     OW29206   3.462   3.497  11.339  0.0468  0.2082 -0.5111
 5858SOL    HW129207   3.517   3.506  11.417  0.6266 -2.0017 -0.6620
 5858SOL    HW229208   3.392   3.562  11.346  0.2974  0.7719 -3.1070
 5859SOL     OW29209   2.999   0.475   7.639  0.3556  0.3630  0.1402
 5859SOL    HW129210   2.979   0.488   7.732 -0.2388  2.0471 -0.2173
 5859SOL    HW229211   3.046   0.555   7.616  1.1658  0.5827  2.5559
 5860SOL     OW29212   4.052   0.046   8.739 -0.0870 -0.4024 -0.1817
 5860SOL    HW129213   4.105   0.104   8.793  0.4294  1.0971 -2.2975
 5860SOL    HW229214   3.986   0.015   8.802  0.5039 -0.3026  0.4811
 5861SOL     OW29215   3.764   2.990  17.161 -0.3414  0.0220 -0.2178
 5861SOL    HW129216   3.709   3.011  17.086 -0.8316  0.2368  0.2015
 5861SOL    HW229217   3.817   3.069  17.172  0.0600 -0.4679  1.3825
 5862SOL     OW29218   2.264   0.204   6.557 -0.0991 -0.3759  0.3791
 5862SOL    HW129219   2.271   0.155   6.475  0.8806 -0.4665  0.5263
 5862SOL    HW229220   2.261   0.131   6.618 -2.8280  0.3882  1.1696
 5863SOL     OW29221   3.950   3.814  16.220 -0.3191 -0.3219  0.4645
 5863SOL    HW129222   3.938   3.858  16.135  1.2566 -0.3291  0.2362
 5863SOL    HW229223   3.925   3.724  16.198 -1.3916  0.2601 -0.7009
 5864SOL     OW29224   0.339   3.891   5.628 -0.4798  0.3034  0.8033
 5864SOL    HW129225   0.427   3.899   5.664 -0.3352 -1.9872  0.9620
 5864SOL    HW229226   0.334   3.947   5.551  0.0984  1.0326  1.2946
 5865SOL     OW29227   3.024   0.053   5.100 -0.2772 -0.0686 -0.1868
 5865SOL    HW129228   2.961   4.720   5.083  0.2937  0.0901 -3.0378
 5865SOL    HW229229   3.089   0.020   5.163 -0.5380 -0.6785 -0.2422
 5866SOL     OW29230   0.888   1.386  17.275 -0.5113 -0.0085  0.3208
 5866SOL    HW129231   0.971   1.378  17.228  1.0636  2.8192  2.6310
 5866SOL    HW229232   0.857   1.467  17.236  0.6419 -0.2615 -1.0845
 5867SOL     OW29233   1.861   2.572   4.422  0.0365  0.2790  0.1047
 5867SOL    HW129234   1.798   2.527   4.478 -0.3767  0.8965  0.1369
 5867SOL    HW229235   1.815   2.618   4.352 -0.1208  0.9041  0.6211
 5868SOL     OW29236   4.619   0.408   2.077 -0.6643  0.1973  0.2626
 5868SOL    HW129237   4.615   0.323   2.120  1.3837 -1.0063 -1.9338
 5868SOL    HW229238   4.596   0.462   2.153 -0.9249 -0.9779  1.0163
 5869SOL     OW29239   3.390   4.368   5.469 -0.4450 -0.3853  0.2990
 5869SOL    HW129240   3.332   4.411   5.406 -0.5110  0.8911  1.2222
 5869SOL    HW229241   3.366   4.276   5.461 -1.2316 -0.1518 -0.0177
 5870SOL     OW29242   3.780   2.388   5.110  0.2297 -0.2690  0.0325
 5870SOL    HW129243   3.722   2.367   5.037  3.3814 -1.5655 -2.0741
 5870SOL    HW229244   3.805   2.478   5.088 -0.5079 -0.3555 -1.1495
 5871SOL     OW29245   3.176   0.848  11.007 -0.0754 -0.1252  0.2732
 5871SOL    HW129246   3.094   0.896  11.022  0.9137  1.2328  1.3640
 5871SOL    HW229247   3.189   0.808  11.092 -0.9057 -2.4282 -0.6697
 5872SOL     OW29248   0.092   4.663   1.762  0.6126 -0.3613 -0.1901
 5872SOL    HW129249   0.173   4.665   1.711  0.6439 -0.1089 -0.1339
 5872SOL    HW229250   0.075   0.014   1.795 -0.9332  0.0171 -2.0065
 5873SOL     OW29251   3.460   0.899   2.806  0.4284 -0.0597  0.0083
 5873SOL    HW129252   3.474   0.967   2.871 -4.0702  1.7490 -0.9362
 5873SOL    HW229253   3.451   0.957   2.731  0.1518  0.4951  0.4731
 5874SOL     OW29254   1.177   4.483   8.577 -0.4500 -0.1609  0.4811
 5874SOL    HW129255   1.256   4.431   8.589 -0.5027 -0.2771  0.3274
 5874SOL    HW229256   1.158   4.516   8.665 -0.5290 -3.9676  1.8944
 5875SOL     OW29257   3.561   0.368   9.204  0.0025  0.2565  0.4530
 5875SOL    HW129258   3.505   0.296   9.176  1.0248  0.9314 -3.3218
 5875SOL    HW229259   3.636   0.322   9.241  1.7040  0.4355 -2.8010
 5876SOL     OW29260   2.747   0.495   4.447 -0.5911 -1.1190 -0.3561
 5876SOL    HW129261   2.834   0.489   4.409  0.8165  2.2451  2.3416
 5876SOL    HW229262   2.736   0.401   4.460  0.3295 -1.6277 -3.5142
 5877SOL     OW29263   1.770   4.362  13.767  0.0891 -0.4274  0.2384
 5877SOL    HW129264   1.746   4.277  13.731  0.1356  0.3281 -1.5845
 5877SOL    HW229265   1.851   4.343  13.814 -0.3996 -0.0791  1.2122
 5878SOL     OW29266   2.627   1.696  13.457 -0.1398 -0.0995  0.0491
 5878SOL    HW129267   2.562   1.677  13.390  1.1654  2.0252 -1.8340
 5878SOL    HW229268   2.661   1.781  13.430  1.9427 -1.1410 -0.5626
 5879SOL     OW29269   0.617   1.794   8.610  0.0637 -0.3881 -0.2162
 5879SOL    HW129270   0.697   1.779   8.559 -0.8815 -1.3037 -1.4162
 5879SOL    HW229271   0.638   1.745   8.689  0.7617  0.2894  0.0225
 5880SOL     OW29272   3.541   0.561   0.611  0.4837 -0.2492  0.4234
 5880SOL    HW129273   3.484   0.489   0.637  0.4748 -0.4273 -0.0833
 5880SOL    HW229274   3.557   0.575   0.704  3.0885 -1.5367  0.1756
 5881SOL     OW29275   4.577   3.243  11.311 -0.1207 -0.0553  0.3328
 5881SOL    HW129276   4.550   3.160  11.350  3.5786 -1.2201  0.4113
 5881SOL    HW229277   4.627   3.280  11.384  2.3469 -1.2030 -0.7920
 5882SOL     OW29278   0.275   4.661   2.942  0.2729 -0.4593  0.1727
 5882SOL    HW129279   0.342   4.702   2.997  0.3792 -0.7860  0.2895
 5882SOL    HW229280   0.323   4.578   2.945  1.0917 -0.0448 -2.0403
 5883SOL     OW29281   0.294   1.036   8.495 -0.0342 -0.3304 -0.2914
 5883SOL    HW129282   0.347   0.985   8.556 -1.8844 -0.9024  0.8335
 5883SOL    HW229283   0.365   1.073   8.442 -1.6876  0.9674 -1.6219
 5884SOL     OW29284   2.983   0.598   3.926  0.0392  0.5080  0.5652
 5884SOL    HW129285   2.916   0.588   3.993  1.9817 -0.2178  2.4135
 5884SOL    HW229286   2.975   0.509   3.890  0.0951  1.7286 -2.4885
 5885SOL     OW29287   1.579   3.268   4.757 -0.6384  0.2158 -0.8920
 5885SOL    HW129288   1.635   3.338   4.793  1.3439 -1.9798  0.2599
 5885SOL    HW229289   1.648   3.204   4.743  0.1581  1.0606 -0.8980
 5886SOL     OW29290   1.435   2.656   3.633  0.2434 -0.0695 -0.0543
 5886SOL    HW129291   1.513   2.696   3.593  0.0432  1.4479  1.0825
 5886SOL    HW229292   1.417   2.574   3.588  1.4085 -0.1663 -0.3613
 5887SOL     OW29293   3.402   1.043   7.084 -1.1399  0.5767 -0.2399
 5887SOL    HW129294   3.471   1.107   7.067 -0.6960 -0.1872 -1.2818
 5887SOL    HW229295   3.443   0.966   7.122  0.2825  1.9117  0.9710
 5888SOL     OW29296   3.433   0.947  11.145 -0.3045  0.3595  0.9595
 5888SOL    HW129297   3.414   0.958  11.052 -0.9556 -3.7225  0.6363
 5888SOL    HW229298   3.387   1.022  11.183 -2.1294  0.0782 -0.6929
 5889SOL     OW29299   2.890   4.663  15.455  0.1317  0.1788 -0.1985
 5889SOL    HW129300   2.877   4.581  15.503  1.7738  0.4065  0.6456
 5889SOL    HW229301   2.859   4.729  15.516 -0.9604 -0.7808  0.2925
 5890SOL     OW29302   1.905   1.501   4.702  0.7081 -0.7447 -0.2629
 5890SOL    HW129303   1.810   1.492   4.708  0.9607 -2.6708  0.8951
 5890SOL    HW229304   1.936   1.434   4.764  1.9280  1.3378  1.3697
 5891SOL     OW29305   0.586   1.013  13.650 -0.0500  0.2786 -0.1212
 5891SOL    HW129306   0.594   1.037  13.558  0.3193  1.0189  0.1007
 5891SOL    HW229307   0.587   0.921  13.623 -0.4997  0.2992 -0.2083
 5892SOL     OW29308   3.665   0.584  17.202  0.6213 -0.0703  0.4684
 5892SOL    HW129309   3.613   0.664  17.210  0.6362  0.1526 -1.5611
 5892SOL    HW229310   3.665   0.548  17.290  0.6581 -0.1622  0.4307
 5893SOL     OW29311   1.586   0.140   6.912 -0.5346 -0.4458 -0.0215
 5893SOL    HW129312   1.525   0.066   6.914 -0.9293 -0.1533 -1.1366
 5893SOL    HW229313   1.527   0.212   6.888  0.8813  0.4193 -0.8941
 5894SOL     OW29314   0.475   2.604   3.099  0.5964 -0.8409 -0.0317
 5894SOL    HW129315   0.494   2.512   3.081 -2.2329 -1.7252  1.4333
 5894SOL    HW229316   0.560   2.639   3.123 -0.7350  1.7455  0.9519
 5895SOL     OW29317   4.419   1.010   3.296 -0.2111 -0.3005 -0.0523
 5895SOL    HW129318   4.335   0.970   3.316  0.5800 -2.0710 -0.2790
 5895SOL    HW229319   4.480   0.958   3.348 -0.9902  0.4485  1.5981
 5896SOL     OW29320   3.451   2.589  10.823  0.0880  0.3897  0.2224
 5896SOL    HW129321   3.506   2.634  10.887  0.8256 -0.6676  0.3412
 5896SOL    HW229322   3.365   2.586  10.865  0.6586  1.8580  1.4580
 5897SOL     OW29323   4.536   4.502   3.940  0.1766  0.2163  0.1143
 5897SOL    HW129324   4.610   4.562   3.942  2.4263 -2.5676  0.7003
 5897SOL    HW229325   4.569   4.441   3.874  2.5406 -0.7224  2.1725
 5898SOL     OW29326   1.571   1.938   7.746 -0.1002 -0.4491  0.4540
 5898SOL    HW129327   1.493   1.937   7.691 -0.3438 -1.1467  0.8156
 5898SOL    HW229328   1.539   1.952   7.835 -0.1566 -0.7631  0.4803
 5899SOL     OW29329   1.942   3.944   8.437 -0.5281  0.8476  1.4396
 5899SOL    HW129330   1.864   3.898   8.468  0.1407 -1.3656 -0.1023
 5899SOL    HW229331   1.940   4.024   8.489  1.8584  1.4705  0.5627
 5900SOL     OW29332   2.738   1.310  10.661 -0.2510  0.0486 -0.1527
 5900SOL    HW129333   2.781   1.372  10.602  0.7968 -0.5579 -0.0437
 5900SOL    HW229334   2.807   1.243  10.663  1.1502  1.5023 -0.4398
 5901SOL     OW29335   1.424   3.282   4.538 -0.1907  0.1482  0.2335
 5901SOL    HW129336   1.472   3.293   4.620 -2.5045 -2.3235  1.9310
 5901SOL    HW229337   1.349   3.337   4.557  0.0894  1.1278 -1.4644
 5902SOL     OW29338   4.346   1.010   2.633  0.3729  0.5138  0.4746
 5902SOL    HW129339   4.400   0.999   2.712  0.1608  1.8426  0.8050
 5902SOL    HW229340   4.291   1.084   2.658  1.7591  1.4998  0.5697
 5903SOL     OW29341   0.538   3.960   9.288  0.1557 -0.0774  0.1284
 5903SOL    HW129342   0.519   3.939   9.379  1.6658  1.9920  0.9232
 5903SOL    HW229343   0.561   3.873   9.256 -0.3560 -1.0263  2.3496
 5904SOL     OW29344   3.083   0.298   9.458 -0.2355 -0.4714  0.0644
 5904SOL    HW129345   3.002   0.253   9.436 -1.1398  1.0933  0.2385
 5904SOL    HW229346   3.065   0.383   9.419 -0.7438 -0.0670  1.1942
 5905SOL     OW29347   2.597   1.690   3.175  0.4168  0.3777 -0.7425
 5905SOL    HW129348   2.645   1.728   3.101  0.2949  1.8497 -0.0697
 5905SOL    HW229349   2.663   1.640   3.222  1.2790  2.5620  0.3892
 5906SOL     OW29350   4.699   4.574  16.665 -0.5030  0.7361 -0.2029
 5906SOL    HW129351   4.720   4.667  16.660 -0.2520  0.4842 -3.7483
 5906SOL    HW229352   4.724   4.549  16.576  0.9835 -5.0153  1.8025
 5907SOL     OW29353   2.289   4.661   4.061  0.3091  0.7940 -0.4348
 5907SOL    HW129354   2.305   4.667   3.967  2.4229  1.2324 -0.0625
 5907SOL    HW229355   2.339   4.583   4.086 -1.2894 -0.2056 -0.4054
 5908SOL     OW29356   4.711   2.566   6.675  0.2019 -0.1173  0.0207
 5908SOL    HW129357   4.649   2.524   6.734 -1.9500  0.1835 -2.0445
 5908SOL    HW229358   0.027   2.489   6.653  0.9732  0.0820  1.2042
 5909SOL     OW29359   1.055   3.700  16.560 -0.0300  0.2717 -0.3300
 5909SOL    HW129360   1.053   3.616  16.513  1.3505  0.1463 -0.1656
 5909SOL    HW229361   1.006   3.684  16.641  0.1400  0.4200 -0.1986
 5910SOL     OW29362   3.825   4.439   4.749 -0.6522 -0.1788  0.2600
 5910SOL    HW129363   3.739   4.480   4.738 -0.6701 -0.3605 -0.2668
 5910SOL    HW229364   3.806   4.345   4.743  0.8839 -0.5958  1.7005
 5911SOL     OW29365   1.614   0.180  10.434 -0.5524  0.0698 -0.1376
 5911SOL    HW129366   1.610   0.207  10.526  0.8696 -2.5572  0.6826
 5911SOL    HW229367   1.705   0.191  10.407 -1.0652  1.6753 -1.2212
 5912SOL     OW29368   1.224   4.155   4.448 -0.1218  0.5658 -0.1314
 5912SOL    HW129369   1.307   4.137   4.403 -0.9304  0.2080 -1.4790
 5912SOL    HW229370   1.172   4.122   4.375 -0.8934  0.7548  0.3346
 5913SOL     OW29371   2.354   4.339   2.754  0.3962  0.2331 -0.0647
 5913SOL    HW129372   2.315   4.329   2.667 -0.9070  1.2878  0.3737
 5913SOL    HW229373   2.427   4.281   2.734  1.2839  0.9152  1.2258
 5914SOL     OW29374   4.367   1.148   9.988  1.1693 -0.5670  0.4805
 5914SOL    HW129375   4.289   1.115  10.033  0.5718 -2.2903 -1.7996
 5914SOL    HW229376   4.405   1.211  10.048 -0.7005  0.4062  0.6545
 5915SOL     OW29377   4.180   4.334   8.570 -0.3663  0.4447  0.0692
 5915SOL    HW129378   4.259   4.289   8.599 -0.4275  0.6417  0.5470
 5915SOL    HW229379   4.141   4.366   8.652  0.2214  1.1628  0.0645
 5916SOL     OW29380   1.745   4.401   0.591  0.8039 -0.4053 -0.0077
 5916SOL    HW129381   1.654   4.420   0.614  1.9509  2.7367  1.9285
 5916SOL    HW229382   1.743   4.312   0.625  0.2473 -0.0159  0.9939
 5917SOL     OW29383   2.674   1.917  17.441  0.8273 -0.0340  0.2011
 5917SOL    HW129384   2.682   1.989  17.503 -1.7218 -0.0215  0.5331
 5917SOL    HW229385   2.764   1.892  17.421  0.1667  0.4707 -3.4013
 5918SOL     OW29386   3.850   2.287   4.645  0.6653 -0.0290 -0.6466
 5918SOL    HW129387   3.845   2.266   4.551  1.6605 -0.0259 -0.7049
 5918SOL    HW229388   3.822   2.201   4.677  1.0977 -0.1585 -0.6072
 5919SOL     OW29389   0.844   2.623   2.026 -0.1048  0.6647  0.1868
 5919SOL    HW129390   0.804   2.537   2.019  2.6102 -0.5916 -0.0694
 5919SOL    HW229391   0.819   2.658   1.940  0.6956 -0.2622 -0.4250
 5920SOL     OW29392   2.585   1.108   2.853 -0.2676  0.2950  0.4510
 5920SOL    HW129393   2.569   1.179   2.791  0.0841 -0.4388 -0.4804
 5920SOL    HW229394   2.678   1.122   2.867  0.3037 -2.1562 -0.8194
 5921SOL     OW29395   1.923   3.363   3.363  0.0147  0.3228  0.1148
 5921SOL    HW129396   1.985   3.343   3.433 -0.7938 -1.4796  0.3254
 5921SOL    HW229397   1.971   3.439   3.332  0.6927  0.5963  1.8500
 5922SOL     OW29398   3.967   4.328   2.203  0.0433 -0.1726  0.5964
 5922SOL    HW129399   3.926   4.412   2.220  0.5158  0.3118 -0.6429
 5922SOL    HW229400   3.946   4.272   2.278  2.0990 -1.9678 -0.1421
 5923SOL     OW29401   2.842   1.846   9.632  0.0837 -0.2249  0.0091
 5923SOL    HW129402   2.829   1.860   9.726  0.6251  0.6091 -0.0434
 5923SOL    HW229403   2.833   1.754   9.608 -1.5123  0.3329 -1.5863
 5924SOL     OW29404   2.045   3.331   6.759 -0.5261 -0.3060 -0.3889
 5924SOL    HW129405   1.964   3.360   6.800  0.0965 -1.2800  1.5482
 5924SOL    HW229406   2.105   3.389   6.807 -0.5730 -0.0955 -0.5848
 5925SOL     OW29407   3.203   4.140  16.055 -0.1437  0.0380  0.3806
 5925SOL    HW129408   3.258   4.201  16.104  0.3229 -0.2531  0.2193
 5925SOL    HW229409   3.123   4.146  16.107 -0.6295  0.7860 -0.4425
 5926SOL     OW29410   0.006   2.392   2.640  0.3191 -0.0125  0.1475
 5926SOL    HW129411   4.679   2.342   2.590  1.4825  0.3032 -1.6551
 5926SOL    HW229412   0.038   2.445   2.567 -0.7603  0.3641 -0.0423
 5927SOL     OW29413   3.719   0.728   9.184  0.5655  0.1772  0.0501
 5927SOL    HW129414   3.709   0.815   9.224 -0.6816  0.7725 -1.5262
 5927SOL    HW229415   3.810   0.707   9.205  0.5448  0.6348  0.5951
 5928SOL     OW29416   0.124   1.327   5.890  0.0170  0.1908  0.3466
 5928SOL    HW129417   0.167   1.310   5.974  0.3268 -1.5827 -0.1683
 5928SOL    HW229418   0.156   1.416   5.874  1.2374 -0.1419  0.9276
 5929SOL     OW29419   4.400   0.593   6.018  0.0233 -0.0337  0.2462
 5929SOL    HW129420   4.344   0.659   6.058  0.3302 -0.8595  2.0195
 5929SOL    HW229421   4.377   0.509   6.057  1.3626  0.1899  1.5186
 5930SOL     OW29422   0.776   4.663   2.362 -0.4563  0.1633 -0.4930
 5930SOL    HW129423   0.821   0.010   2.360  0.5583 -0.3819 -0.0796
 5930SOL    HW229424   0.848   4.601   2.352  0.8797  1.5179  0.7251
 5931SOL     OW29425   3.630   2.188   7.051  0.1186  0.9284  0.0900
 5931SOL    HW129426   3.642   2.251   7.122  0.4755  0.0713  0.7937
 5931SOL    HW229427   3.553   2.138   7.080 -0.2390  2.2277  1.3765
 5932SOL     OW29428   2.242   4.590   9.355 -0.6739  0.0558 -0.0272
 5932SOL    HW129429   2.288   4.556   9.432 -0.6506 -1.7281 -0.8185
 5932SOL    HW229430   2.231   4.510   9.303 -1.5923  0.0143  0.2427
 5933SOL     OW29431   3.376   2.709   2.468  0.0461  0.4238  0.0530
 5933SOL    HW129432   3.379   2.669   2.555 -1.2842 -0.3317 -0.2471
 5933SOL    HW229433   3.418   2.648   2.407 -0.3577  1.0200 -0.8110
 5934SOL     OW29434   3.666   2.464  13.331 -0.0915 -0.3780  0.1808
 5934SOL    HW129435   3.729   2.435  13.397  1.2740 -0.9104 -1.3354
 5934SOL    HW229436   3.623   2.384  13.301  0.0453 -0.9795  1.6001
 5935SOL     OW29437   0.869   4.420   6.427  0.2334  0.1802 -0.2410
 5935SOL    HW129438   0.819   4.422   6.509 -4.4010  0.6435 -3.0631
 5935SOL    HW229439   0.822   4.481   6.371 -1.5608 -0.1872  0.8665
 5936SOL     OW29440   3.363   2.264   5.141 -0.5759 -0.2084  1.0010
 5936SOL    HW129441   3.382   2.291   5.230  0.7618  1.3695  0.2230
 5936SOL    HW229442   3.392   2.338   5.089  1.2874 -1.9748 -0.4760
 5937SOL     OW29443   4.481   1.154   7.537  0.1151  0.1465 -0.2912
 5937SOL    HW129444   4.499   1.207   7.615 -0.2315 -1.5248  0.9489
 5937SOL    HW229445   4.548   1.089   7.558 -2.9244 -2.8016  0.3282
 5938SOL     OW29446   4.557   4.119  11.380 -0.4735 -0.0205 -0.2033
 5938SOL    HW129447   4.564   4.215  11.386 -0.0409 -0.1467  1.2579
 5938SOL    HW229448   4.468   4.105  11.348  0.5320 -1.2557 -2.4313
 5939SOL     OW29449   1.645   2.525  12.750  0.3598 -0.2514 -0.1717
 5939SOL    HW129450   1.603   2.455  12.699  2.2630 -2.0232  0.6722
 5939SOL    HW229451   1.582   2.541  12.820 -0.7383 -0.0212 -1.2281
 5940SOL     OW29452   2.436   4.056   1.799  0.1116  0.4695 -0.6104
 5940SOL    HW129453   2.523   4.059   1.839 -0.2050  1.1593  0.0336
 5940SOL    HW229454   2.383   4.021   1.871  1.6830  1.2633  0.9322
 5941SOL     OW29455   4.127   2.131   4.815  0.1270  0.2640 -0.4901
 5941SOL    HW129456   4.173   2.061   4.767 -0.9220 -0.0014 -1.1090
 5941SOL    HW229457   4.165   2.127   4.903 -3.1582  2.3237  0.9881
 5942SOL     OW29458   4.164   3.305   8.707  0.2539  0.1901  0.2188
 5942SOL    HW129459   4.174   3.380   8.649  0.1240 -1.9039 -2.4805
 5942SOL    HW229460   4.095   3.257   8.662  0.8967 -0.1044 -0.4551
 5943SOL     OW29461   4.365   4.710  12.106  0.1060  0.1456  0.0293
 5943SOL    HW129462   4.445   4.665  12.079  1.5706  2.2278  0.9728
 5943SOL    HW229463   4.350   0.023  12.026  0.3251  2.3012  1.3357
 5944SOL     OW29464   1.633   2.589  12.042 -0.2332  0.0796  0.3795
 5944SOL    HW129465   1.539   2.601  12.038 -0.3751 -0.4274  2.1098
 5944SOL    HW229466   1.652   2.606  12.134  0.0788 -0.1546  0.3601
 5945SOL     OW29467   0.266   3.711   4.836  0.0022 -0.2602  1.2615
 5945SOL    HW129468   0.273   3.765   4.757  0.7486  1.5652  2.5712
 5945SOL    HW229469   0.251   3.628   4.791 -2.8990 -2.2376  5.8112
 5946SOL     OW29470   2.797   0.255   4.553 -0.4224  0.3003 -0.3959
 5946SOL    HW129471   2.736   0.182   4.542 -0.9631  0.9870 -2.0085
 5946SOL    HW229472   2.875   0.204   4.532  0.3915  1.0805  0.7375
 5947SOL     OW29473   4.511   2.039   0.336  0.1118 -0.0513 -0.0904
 5947SOL    HW129474   4.555   2.088   0.266 -1.6829 -1.0252 -1.8981
 5947SOL    HW229475   4.584   2.018   0.393  0.8534 -0.4975 -1.2094
 5948SOL     OW29476   3.177   0.020   1.397  0.2856  0.4287 -0.5463
 5948SOL    HW129477   3.111   0.025   1.328  1.8160  0.3577 -1.9961
 5948SOL    HW229478   3.251   0.074   1.371  0.0973  0.3911 -1.1600
 5949SOL     OW29479   2.186   1.514   5.172  0.3473  0.7460 -0.1355
 5949SOL    HW129480   2.111   1.534   5.116  0.8768  0.7134 -0.8391
 5949SOL    HW229481   2.149   1.437   5.216 -1.8205  2.7220  1.5020
 5950SOL     OW29482   1.270   1.798  11.947  0.3868 -0.4054  0.5371
 5950SOL    HW129483   1.276   1.793  12.042 -0.3892  0.9044  0.6525
 5950SOL    HW229484   1.178   1.778  11.933  0.2762 -0.8609  1.8924
 5951SOL     OW29485   1.285   2.958   3.987 -0.3049 -0.1357  0.5663
 5951SOL    HW129486   1.308   2.877   3.941  1.7684  1.8610 -1.8750
 5951SOL    HW229487   1.216   2.921   4.043  0.1696 -1.7006  0.1006
 5952SOL     OW29488   4.131   4.453  10.005 -0.0698  0.4733  0.1126
 5952SOL    HW129489   4.128   4.479  10.097 -1.5892 -0.1580  0.2394
 5952SOL    HW229490   4.037   4.439   9.994 -0.1681 -1.3828  3.1032
 5953SOL     OW29491   4.517   2.920   6.863  0.2976  0.0621  0.3916
 5953SOL    HW129492   4.440   2.900   6.808  0.7476 -0.6392  0.0101
 5953SOL    HW229493   4.475   2.969   6.933 -0.7169 -0.2303 -0.0081
 5954SOL     OW29494   3.224   4.296   2.256 -0.1542 -0.3532 -0.4044
 5954SOL    HW129495   3.316   4.280   2.234  0.1021 -1.2547  1.3036
 5954SOL    HW229496   3.211   4.243   2.335  0.5690  1.3601  0.8379
 5955SOL     OW29497   1.235   2.383  11.382 -0.3607  0.4143  0.4358
 5955SOL    HW129498   1.211   2.318  11.317 -0.1237  1.0578 -0.2853
 5955SOL    HW229499   1.163   2.446  11.372  1.2709  2.1641 -0.0779
 5956SOL     OW29500   4.122   0.227   3.826 -0.3803  0.0813 -0.0389
 5956SOL    HW129501   4.043   0.209   3.876  0.6004  0.3306  1.5767
 5956SOL    HW229502   4.093   0.288   3.758  0.4936 -0.2371 -0.7001
 5957SOL     OW29503   4.460   1.692   2.455  0.3838 -0.0057 -0.1944
 5957SOL    HW129504   4.507   1.613   2.427 -1.2064 -0.3533 -1.8574
 5957SOL    HW229505   4.537   1.748   2.441 -1.3009  2.4159  0.3517
 5958SOL     OW29506   1.653   3.202  13.506  0.5004 -0.0675  0.0115
 5958SOL    HW129507   1.616   3.290  13.499 -1.1980 -0.7933 -0.2061
 5958SOL    HW229508   1.576   3.148  13.489  0.3483  0.3243 -0.5520
 5959SOL     OW29509   0.793   4.725   5.136 -0.0824 -0.3871 -0.2185
 5959SOL    HW129510   0.819   0.052   5.202  1.9072 -0.2932 -1.1119
 5959SOL    HW229511   0.793   4.639   5.178  3.2885 -0.5058 -0.4972
 5960SOL     OW29512   2.850   0.307   5.278 -0.1161  0.0981 -0.4327
 5960SOL    HW129513   2.781   0.371   5.300  0.1506  0.2499 -0.0179
 5960SOL    HW229514   2.909   0.325   5.351 -0.6776  0.9139 -0.1764
 5961SOL     OW29515   3.742   1.769  12.415  0.1401  0.9802  0.2251
 5961SOL    HW129516   3.826   1.809  12.438  0.3410  0.2234  0.7802
 5961SOL    HW229517   3.767   1.677  12.414 -0.1679  0.9042 -0.6185
 5962SOL     OW29518   3.585   1.412   4.474 -0.0014  0.2475  0.5682
 5962SOL    HW129519   3.500   1.423   4.516 -1.4301 -0.5306 -2.1503
 5962SOL    HW229520   3.620   1.331   4.512  1.6842  0.5127 -0.3886
 5963SOL     OW29521   2.112   3.062   4.608 -0.5764  0.4217  0.1130
 5963SOL    HW129522   2.201   3.089   4.631 -0.0574 -2.3502  1.2587
 5963SOL    HW229523   2.121   2.969   4.589  0.1394  0.8506 -1.6532
 5964SOL     OW29524   2.781   0.219  13.036 -0.1406 -0.3759 -0.7193
 5964SOL    HW129525   2.703   0.233  12.983 -1.5161  1.1958  1.7319
 5964SOL    HW229526   2.826   0.302  13.028  2.1152 -1.4513  0.9451
 5965SOL     OW29527   0.455   0.091   7.305  0.3985  0.0535  0.1236
 5965SOL    HW129528   0.498   0.107   7.221 -0.7964 -0.4682 -0.5837
 5965SOL    HW229529   0.430   0.180   7.330 -1.9421 -0.1579 -1.5003
 5966SOL     OW29530   1.706   3.547   7.232 -0.0159  0.4678  0.1546
 5966SOL    HW129531   1.656   3.530   7.153 -3.8003  0.3894  2.5669
 5966SOL    HW229532   1.788   3.575   7.190  0.0170  0.4986  0.2372
 5967SOL     OW29533   1.346   0.383   5.300 -0.3818 -0.5700 -0.2336
 5967SOL    HW129534   1.345   0.465   5.250  0.3341  0.9600  2.2615
 5967SOL    HW229535   1.258   0.356   5.273 -1.2792  0.5258  1.5657
 5968SOL     OW29536   2.608   0.525   8.627 -0.0014  0.6410 -0.0838
 5968SOL    HW129537   2.552   0.586   8.676 -1.5829  0.2559 -1.4393
 5968SOL    HW229538   2.543   0.480   8.574  0.2325 -1.0437  1.0498
 5969SOL     OW29539   1.151   2.367  10.028  0.1238  0.2149  0.1387
 5969SOL    HW129540   1.111   2.280  10.026  0.3064  0.0858  2.0056
 5969SOL    HW229541   1.241   2.353  10.000  1.0176 -0.8864  3.5517
 5970SOL     OW29542   0.777   0.582   0.997  0.0116 -0.5064  0.0830
 5970SOL    HW129543   0.833   0.577   0.920 -1.1390  2.4746 -0.9225
 5970SOL    HW229544   0.708   0.644   0.973 -0.8169 -1.6065 -0.4110
 5971SOL     OW29545   3.459   2.346   2.491 -0.1231 -0.3321 -0.4162
 5971SOL    HW129546   3.422   2.389   2.414  0.0578  1.0977  0.2972
 5971SOL    HW229547   3.549   2.376   2.479 -0.5613 -0.2017 -3.2203
 5972SOL     OW29548   0.445   2.986   2.297  0.3691 -0.4982 -0.2702
 5972SOL    HW129549   0.534   2.957   2.319  0.4159 -0.6745 -0.7096
 5972SOL    HW229550   0.441   3.048   2.370  0.8349 -0.2080 -0.4902
 5973SOL     OW29551   1.101   3.251   6.333  0.0260 -0.0309 -0.8646
 5973SOL    HW129552   1.048   3.323   6.299 -0.2096  0.3851  0.3840
 5973SOL    HW229553   1.042   3.177   6.316 -0.3022 -0.2328  1.1103
 5974SOL     OW29554   1.418   2.594   2.263  0.6529  0.1736  0.0748
 5974SOL    HW129555   1.397   2.601   2.356 -1.1913  3.0656 -0.5780
 5974SOL    HW229556   1.492   2.654   2.258  2.4384 -2.1473 -2.2707
 5975SOL     OW29557   3.019   4.676   7.637 -0.4598 -0.1836  0.0305
 5975SOL    HW129558   3.080   4.645   7.704 -0.0269 -0.9836 -0.7317
 5975SOL    HW229559   3.052   0.024   7.607 -0.4619 -0.5867 -1.1203
 5976SOL     OW29560   3.707   1.838  14.233 -0.6048  0.0206 -0.1603
 5976SOL    HW129561   3.761   1.914  14.209 -0.6914  0.3987  0.8230
 5976SOL    HW229562   3.724   1.782  14.158 -0.7361 -2.3821  1.6028
 5977SOL     OW29563   0.840   4.626   3.099 -0.2069  0.5547  1.0313
 5977SOL    HW129564   0.929   4.602   3.124  0.4888  0.1487 -1.8791
 5977SOL    HW229565   0.838   4.722   3.099  0.1532  0.5606  0.8472
 5978SOL     OW29566   3.712   2.023   3.329  0.4259  0.4734 -0.1058
 5978SOL    HW129567   3.632   1.995   3.374 -1.6617  1.6142 -3.0895
 5978SOL    HW229568   3.769   2.032   3.406  0.6744 -1.3610 -0.0780
 5979SOL     OW29569   4.592   0.635   1.651 -0.6473  0.3104 -0.0245
 5979SOL    HW129570   4.532   0.706   1.672  0.4838  1.0042  0.8602
 5979SOL    HW229571   4.660   0.677   1.598  1.5144 -0.9981  1.7153
 5980SOL     OW29572   4.715   3.498   6.189  0.2681  0.5545  0.3993
 5980SOL    HW129573   4.685   3.522   6.102 -0.6982 -1.5002  0.1745
 5980SOL    HW229574   0.068   3.532   6.184  1.0704 -1.5539  0.5734
 5981SOL     OW29575   3.704   2.817  17.741 -0.2804  0.3541  0.6018
 5981SOL    HW129576   3.661   2.900   0.014 -1.2801 -0.0181 -0.0370
 5981SOL    HW229577   3.792   2.849  17.721 -0.4588  0.7953  0.5338
 5982SOL     OW29578   3.894   1.359   4.986  0.0027  0.4213 -0.1390
 5982SOL    HW129579   3.867   1.313   5.065 -0.0743 -0.3586 -0.6305
 5982SOL    HW229580   3.983   1.388   5.010 -0.5769  0.7341  1.6467
 5983SOL     OW29581   4.576   2.669   8.886  0.2339  0.5311 -0.0477
 5983SOL    HW129582   4.613   2.727   8.953  0.3765  0.0544  0.2850
 5983SOL    HW229583   4.613   2.693   8.800  0.4894  1.1014  0.2196
 5984SOL     OW29584   0.976   3.870   6.498 -0.2133 -0.0077 -0.0352
 5984SOL    HW129585   0.933   3.916   6.570  0.2784 -0.5987  0.6372
 5984SOL    HW229586   0.974   3.779   6.527  1.5075  0.2140  0.7609
 5985SOL     OW29587   0.834   3.036   9.896  0.2679 -0.3063 -0.4707
 5985SOL    HW129588   0.782   3.097   9.949 -0.4632  1.2447 -2.9844
 5985SOL    HW229589   0.843   2.964   9.959  0.1848 -0.5781 -0.7704
 5986SOL     OW29590   1.770   0.114  12.551 -0.0767  0.1722 -0.0494
 5986SOL    HW129591   1.706   0.118  12.622 -0.5069  0.2904 -0.4421
 5986SOL    HW229592   1.830   0.187  12.566 -0.3739  1.4189 -4.8183
 5987SOL     OW29593   0.061   1.208   0.710  0.0446 -0.0722 -0.3459
 5987SOL    HW129594   0.050   1.284   0.653 -1.3159 -0.2917 -0.3817
 5987SOL    HW229595   0.127   1.155   0.666  0.9891 -0.8074  1.9284
 5988SOL     OW29596   1.943   0.109  17.507  0.1521  0.7364  0.2018
 5988SOL    HW129597   1.930   0.071  17.594 -0.6049  1.9556  0.6218
 5988SOL    HW229598   1.867   0.081  17.457 -1.6121  0.2138  3.1740
 5989SOL     OW29599   3.513   4.369  16.008  0.3116  1.1982 -0.0624
 5989SOL    HW129600   3.505   4.463  16.023  2.8307  1.2270  1.0708
 5989SOL    HW229601   3.452   4.333  16.072  0.5799 -1.8385 -1.4722
 5990SOL     OW29602   0.205   0.620   1.676  0.0103  0.2302  0.0065
 5990SOL    HW129603   0.154   0.683   1.625  1.2222  0.7741 -0.5377
 5990SOL    HW229604   0.276   0.678   1.705  0.1942 -0.2783  0.5562
 5991SOL     OW29605   2.202   1.782   7.340 -0.5756 -0.0159 -0.4896
 5991SOL    HW129606   2.257   1.820   7.408  1.0437 -2.6346 -0.3331
 5991SOL    HW229607   2.228   1.822   7.257 -1.2000 -1.6930 -1.4845
 5992SOL     OW29608   4.509   0.807   9.327  0.1418  0.2549 -0.2865
 5992SOL    HW129609   4.425   0.841   9.297  0.6590  0.1749 -1.8069
 5992SOL    HW229610   4.564   0.822   9.250 -0.0154 -1.2407 -0.7006
 5993SOL     OW29611   3.760   1.647   7.066 -0.3049 -0.0487 -0.3973
 5993SOL    HW129612   3.846   1.682   7.092 -0.9905  0.7740  0.7370
 5993SOL    HW229613   3.702   1.713   7.104  1.2842  1.1332 -0.0279
 5994SOL     OW29614   1.928   1.991   7.094 -0.2893 -0.1190  0.4053
 5994SOL    HW129615   1.896   2.045   7.021 -1.0002 -0.6618  0.3257
 5994SOL    HW229616   2.017   2.026   7.100 -0.2433 -0.1688  0.0346
 5995SOL     OW29617   4.390   0.266   2.992  0.2552 -0.3765  0.0629
 5995SOL    HW129618   4.312   0.224   2.957  0.6436 -0.9831 -0.0703
 5995SOL    HW229619   4.410   0.333   2.927  0.6456 -1.2488 -0.7010
 5996SOL     OW29620   3.297   1.606   3.488  0.4214 -0.1038 -0.2316
 5996SOL    HW129621   3.267   1.697   3.497  2.1187  0.3416  0.8185
 5996SOL    HW229622   3.383   1.598   3.529 -0.1141 -1.5751  0.5945
 5997SOL     OW29623   0.417   1.188  10.849 -0.2994  0.2041 -0.3723
 5997SOL    HW129624   0.445   1.153  10.764 -1.3362 -0.1345 -0.5754
 5997SOL    HW229625   0.423   1.282  10.838 -2.7918  0.6031  1.6971
 5998SOL     OW29626   2.395   3.393  10.260  0.7795 -0.4849 -0.2108
 5998SOL    HW129627   2.453   3.390  10.336  0.8815  0.8056 -0.2442
 5998SOL    HW229628   2.405   3.306  10.223  1.1868 -0.5418  0.0357
 5999SOL     OW29629   0.790   3.835  13.628 -0.3548 -0.0056 -0.4611
 5999SOL    HW129630   0.780   3.768  13.695 -3.2011  1.2891  0.4087
 5999SOL    HW229631   0.832   3.906  13.677 -0.0373  0.2858 -1.1524
 6000SOL     OW29632   1.022   4.002  17.203  0.3904 -0.0378  0.1197
 6000SOL    HW129633   0.951   4.024  17.264  0.6010  1.2675 -0.1077
 6000SOL    HW229634   0.984   4.033  17.121 -2.2185  0.2426  1.4317
 6001SOL     OW29635   0.235   0.369   2.617  0.2466  0.2601 -0.2937
 6001SOL    HW129636   0.331   0.369   2.612  0.3418  0.6384  1.8614
 6001SOL    HW229637   0.228   0.304   2.687  0.6136  2.5366  1.8429
 6002SOL     OW29638   1.811   1.558   7.569 -0.0213  0.3346  0.5020
 6002SOL    HW129639   1.838   1.580   7.480  0.5358 -0.1339  0.5564
 6002SOL    HW229640   1.825   1.642   7.613 -3.0997  1.0831  0.0630
 6003SOL     OW29641   1.581   1.083  17.177  0.3149  0.0780 -0.1992
 6003SOL    HW129642   1.579   1.095  17.272  0.7615  1.5696 -0.3773
 6003SOL    HW229643   1.494   1.047  17.158  0.2890 -0.0609  0.1760
 6004SOL     OW29644   2.378   2.500  13.790 -0.2572  0.1643 -0.5587
 6004SOL    HW129645   2.389   2.411  13.757 -0.5410  0.9052 -2.6252
 6004SOL    HW229646   2.286   2.499  13.816 -0.1209  1.2190 -0.0287
 6005SOL     OW29647   2.916   1.205   6.981  0.0709 -0.1733 -0.0455
 6005SOL    HW129648   2.884   1.125   6.939  1.8150 -0.3034 -1.1115
 6005SOL    HW229649   2.986   1.178   7.040  0.4353 -0.3978 -0.5767
 6006SOL     OW29650   0.008   0.804   2.978  0.3785 -0.1651  0.8669
 6006SOL    HW129651   4.699   0.871   3.029  0.1032  0.1949  0.1498
 6006SOL    HW229652   4.699   0.726   3.006 -0.3187 -0.0757 -0.0663
 6007SOL     OW29653   2.606   4.183   6.649  0.2941  0.0107  0.0878
 6007SOL    HW129654   2.639   4.167   6.737  1.8320  0.1369 -0.4618
 6007SOL    HW229655   2.582   4.097   6.615  2.0483 -0.3177 -0.3111
 6008SOL     OW29656   0.039   4.712   8.033 -0.3113 -0.5116 -0.2848
 6008SOL    HW129657   0.054   4.697   7.939  1.6743 -1.6170  0.1848
 6008SOL    HW229658   4.715   4.638   8.034 -0.5197 -0.3374 -0.3084
 6009SOL     OW29659   0.279   2.646   7.017 -0.1847 -0.7923  0.2348
 6009SOL    HW129660   0.375   2.640   7.016 -0.1937 -0.9621  0.4201
 6009SOL    HW229661   0.258   2.713   6.952  1.5502  0.2298  0.7130
 6010SOL     OW29662   2.572   2.928   0.591  0.2407  0.1346 -0.1796
 6010SOL    HW129663   2.554   2.907   0.500 -1.0618  2.8009 -0.5440
 6010SOL    HW229664   2.611   2.847   0.624  0.6753  0.1463 -0.6688
 6011SOL     OW29665   2.960   0.237   1.649  0.1031 -0.1751 -0.3509
 6011SOL    HW129666   2.936   0.248   1.741 -0.2056 -0.5766 -0.3814
 6011SOL    HW229667   3.002   0.151   1.648  0.8699  0.1955 -0.1838
 6012SOL     OW29668   3.960   2.459   3.177  0.0172 -0.4007 -0.2203
 6012SOL    HW129669   3.911   2.524   3.128  2.4482  3.0132  1.9081
 6012SOL    HW229670   4.047   2.482   3.145  0.1626 -0.2812  0.2567
 6013SOL     OW29671   0.060   0.494   3.789  0.7622  0.2231  0.1948
 6013SOL    HW129672   0.151   0.466   3.785  0.3751 -0.8986 -0.8789
 6013SOL    HW229673   0.059   0.486   3.884 -0.8212  0.3933  0.1976
 6014SOL     OW29674   3.418   0.645   1.816  0.5842  0.3939  0.1786
 6014SOL    HW129675   3.342   0.589   1.804  0.4358  1.0534 -1.9459
 6014SOL    HW229676   3.389   0.691   1.895 -1.5693 -1.4497  0.4622
 6015SOL     OW29677   4.545   3.823   2.476  0.2457  0.4237  0.1459
 6015SOL    HW129678   4.627   3.779   2.500  1.2950 -0.0714 -4.1813
 6015SOL    HW229679   4.566   3.848   2.386 -1.4781 -0.6929 -0.5669
 6016SOL     OW29680   2.833   2.390   5.318  0.2453 -0.4395 -0.2223
 6016SOL    HW129681   2.887   2.365   5.243 -0.4325  0.4097 -1.0054
 6016SOL    HW229682   2.876   2.475   5.325 -0.8220  0.3903 -3.6063
 6017SOL     OW29683   3.979   3.980   6.140 -0.0712  0.1602 -0.8103
 6017SOL    HW129684   3.953   4.049   6.079  1.9264 -0.2769 -2.1233
 6017SOL    HW229685   3.923   3.996   6.216  3.1646  1.3527  1.3449
 6018SOL     OW29686   4.046   0.540   9.059 -0.3341 -0.7376 -0.7897
 6018SOL    HW129687   4.001   0.466   9.017  0.9164 -1.4988 -0.8025
 6018SOL    HW229688   4.006   0.554   9.145  1.0196  2.3500 -0.6630
 6019SOL     OW29689   1.997   3.511   9.633 -0.0456 -0.0061 -0.3545
 6019SOL    HW129690   2.046   3.469   9.703 -2.6837 -0.2698  1.3478
 6019SOL    HW229691   1.914   3.469   9.654  0.1818 -0.1355  0.2554
 6020SOL     OW29692   4.710   3.185  14.096 -0.6870  0.1530 -0.0953
 6020SOL    HW129693   0.044   3.228  14.142  0.7293 -2.2221 -0.0671
 6020SOL    HW229694   4.695   3.251  14.028  2.7521 -0.3195 -1.3172
 6021SOL     OW29695   1.074   4.110   1.303 -0.2186  0.0787  0.0417
 6021SOL    HW129696   1.022   4.167   1.246 -0.5716 -1.0911 -0.8321
 6021SOL    HW229697   1.095   4.041   1.239  1.7714  0.2083  0.5662
 6022SOL     OW29698   4.415   3.033   7.946  0.0194 -0.1447 -0.1367
 6022SOL    HW129699   4.448   2.960   7.998 -1.7711 -1.5111 -0.8813
 6022SOL    HW229700   4.362   3.079   8.010  0.0218 -0.6136  0.2061
 6023SOL     OW29701   2.435   3.614   8.307 -0.4602  0.1484 -0.1356
 6023SOL    HW129702   2.373   3.553   8.266 -1.5097  1.9008 -1.1349
 6023SOL    HW229703   2.425   3.586   8.398 -1.0834 -0.4953 -0.3981
 6024SOL     OW29704   4.178   3.974   8.659 -0.1666 -0.5305  0.5938
 6024SOL    HW129705   4.098   4.025   8.672 -0.7282 -1.3295  0.2572
 6024SOL    HW229706   4.239   4.034   8.702 -0.9503 -2.4097  4.2315
 6025SOL     OW29707   4.356   3.468   6.054  0.1155 -0.4016  0.5251
 6025SOL    HW129708   4.401   3.538   6.006 -1.0743  0.5667  0.8411
 6025SOL    HW229709   4.403   3.387   6.031  0.8240 -0.5946  2.6428
 6026SOL     OW29710   1.341   3.687   8.633 -0.3105  0.0450  0.6405
 6026SOL    HW129711   1.356   3.782   8.637  0.3663  0.0172 -1.2885
 6026SOL    HW229712   1.352   3.669   8.539 -0.4312 -0.3043  0.6962
 6027SOL     OW29713   3.375   1.595   7.075 -0.7940  0.0285 -0.4317
 6027SOL    HW129714   3.403   1.686   7.078 -0.5376 -0.1702  2.7421
 6027SOL    HW229715   3.279   1.595   7.069 -0.9329  0.2298  1.9406
 6028SOL     OW29716   2.202   2.658   2.299  0.1194 -0.2785  0.6474
 6028SOL    HW129717   2.172   2.714   2.371 -1.0691 -1.2274  0.8976
 6028SOL    HW229718   2.193   2.566   2.324  2.9041 -1.1704 -1.6920
 6029SOL     OW29719   2.255   3.249  11.627 -0.0388  0.2168  0.1825
 6029SOL    HW129720   2.198   3.292  11.691 -0.0044 -2.1974  1.8518
 6029SOL    HW229721   2.332   3.305  11.621 -0.2607  0.5310  0.2965
 6030SOL     OW29722   3.690   3.169   5.778  0.1669  0.0913  0.0628
 6030SOL    HW129723   3.684   3.236   5.846 -1.9945 -0.5075  0.4774
 6030SOL    HW229724   3.757   3.111   5.813 -0.8453 -0.8856  0.3811
 6031SOL     OW29725   4.599   2.444   6.094 -0.1969 -0.3084 -0.5052
 6031SOL    HW129726   4.574   2.408   6.009 -0.9015  0.2933 -0.5617
 6031SOL    HW229727   4.513   2.484   6.113 -0.1247 -0.1046 -0.6062
 6032SOL     OW29728   0.114   2.937  11.227 -0.3560  0.0830 -0.5546
 6032SOL    HW129729   0.121   2.858  11.282 -0.1318 -0.6580 -1.6465
 6032SOL    HW229730   0.115   3.004  11.295 -1.4085 -0.8642  0.3917
 6033SOL     OW29731   4.413   0.425   1.696  0.3766 -0.3556 -0.1877
 6033SOL    HW129732   4.348   0.433   1.626 -0.9534 -1.3972  0.9183
 6033SOL    HW229733   4.474   0.497   1.677  0.2976  0.1621  1.4598
 6034SOL     OW29734   4.091   0.205   5.634 -0.1286  0.6796 -0.1315
 6034SOL    HW129735   4.162   0.269   5.637  1.7092 -1.4169  1.3795
 6034SOL    HW229736   4.146   0.136   5.596 -0.0521  0.3679  0.5395
 6035SOL     OW29737   1.259   1.236   1.655  0.0987 -0.1733  0.1672
 6035SOL    HW129738   1.164   1.234   1.670 -0.0039  1.8874 -0.1700
 6035SOL    HW229739   1.276   1.161   1.598  1.2911 -1.4100  2.1327
 6036SOL     OW29740   2.344   0.182   5.283  0.0993 -0.7599  0.2644
 6036SOL    HW129741   2.414   0.243   5.308  0.7167 -1.9021  1.3092
 6036SOL    HW229742   2.294   0.165   5.364 -0.7789  0.1517 -0.0787
 6037SOL     OW29743   1.374   1.787  11.565 -0.2978 -0.0198  0.8883
 6037SOL    HW129744   1.293   1.773  11.516  0.5990  0.2037 -0.6488
 6037SOL    HW229745   1.407   1.700  11.588  2.0283  0.4627 -0.7482
 6038SOL     OW29746   4.659   4.126   8.489 -0.2090  0.4037  0.3071
 6038SOL    HW129747   4.671   4.056   8.425  0.2688  1.3841 -0.6638
 6038SOL    HW229748   4.613   4.090   8.565  2.1838  0.5845  1.8484
 6039SOL     OW29749   4.319   2.899   3.719 -0.7913 -0.4532  0.8259
 6039SOL    HW129750   4.392   2.839   3.702  1.1574  1.9510  0.5764
 6039SOL    HW229751   4.250   2.834   3.710 -1.9491  0.6620  1.6081
 6040SOL     OW29752   1.465   1.309  14.415 -0.1067 -0.0556  0.2847
 6040SOL    HW129753   1.428   1.342  14.496 -0.4081 -0.2551  0.2302
 6040SOL    HW229754   1.389   1.282  14.362  2.1866 -1.0020 -2.5222
 6041SOL     OW29755   2.903   1.178   6.228 -0.2386  0.0945 -0.4142
 6041SOL    HW129756   2.857   1.234   6.166  2.4804  0.1228 -2.3861
 6041SOL    HW229757   2.979   1.168   6.171  1.6465 -1.7863  2.4204
 6042SOL     OW29758   0.484   4.044   3.441 -0.2110 -0.3118  0.3041
 6042SOL    HW129759   0.573   4.058   3.410  0.9665 -0.8428  3.4931
 6042SOL    HW229760   0.433   4.116   3.403  1.0192 -0.1112 -0.9810
 6043SOL     OW29761   3.455   0.896   4.247 -0.1999  0.2651  0.2422
 6043SOL    HW129762   3.452   0.971   4.307  0.3653  1.6273 -1.4604
 6043SOL    HW229763   3.458   0.829   4.315  2.9466 -1.0458 -1.2289
 6044SOL     OW29764   1.401   0.362   6.035 -0.2985  0.3452 -0.2646
 6044SOL    HW129765   1.495   0.356   6.021  0.2340  3.9757  1.7945
 6044SOL    HW229766   1.383   0.331   5.946 -0.9419  0.4895 -0.1882
 6045SOL     OW29767   3.713   0.870   4.137  0.3216  0.5055 -0.0175
 6045SOL    HW129768   3.703   0.863   4.232  0.6290 -0.9659 -0.0911
 6045SOL    HW229769   3.642   0.810   4.113  0.9207 -0.7975  1.5076
 6046SOL     OW29770   0.464   1.618   8.239  0.5639  0.3734  0.6538
 6046SOL    HW129771   0.524   1.691   8.223  2.1202 -1.2812 -1.0531
 6046SOL    HW229772   0.392   1.661   8.286  0.7132 -1.2228  2.3461
 6047SOL     OW29773   1.066   3.152   4.995 -0.0814 -0.1782 -0.4192
 6047SOL    HW129774   1.124   3.214   5.038 -2.7150  2.7992 -1.1982
 6047SOL    HW229775   0.991   3.150   5.055 -0.2001 -1.4498 -0.5937
 6048SOL     OW29776   2.975   4.552   3.312  0.5354  0.0261 -0.1743
 6048SOL    HW129777   3.014   4.637   3.292  1.6118 -0.3646  0.2187
 6048SOL    HW229778   2.914   4.534   3.241  2.1353 -1.2665 -1.2257
 6049SOL     OW29779   3.220   0.346   2.744  0.1285 -0.5908 -0.9117
 6049SOL    HW129780   3.178   0.301   2.817 -0.1641  0.8110 -0.2085
 6049SOL    HW229781   3.257   0.268   2.704 -0.0041 -1.8611  1.4864
 6050SOL     OW29782   4.502   3.306   6.956 -0.2111  0.0952 -0.2525
 6050SOL    HW129783   4.481   3.288   7.048 -0.1576 -0.9609 -0.4411
 6050SOL    HW229784   4.422   3.352   6.932  0.6922  1.9453  0.3092
 6051SOL     OW29785   1.998   4.332  10.745  0.0062 -0.4841 -0.3827
 6051SOL    HW129786   1.997   4.271  10.671  0.3563  1.4007 -1.9494
 6051SOL    HW229787   1.935   4.283  10.798 -1.8084  0.8904 -1.2459
 6052SOL     OW29788   2.198   1.507   7.264  0.0718  0.4015 -0.0946
 6052SOL    HW129789   2.197   1.596   7.300 -1.4914 -0.4525  1.9018
 6052SOL    HW229790   2.273   1.473   7.312 -0.3832  0.4963  0.6737
 6053SOL     OW29791   3.466   3.402   9.906 -0.8807 -0.1486  0.1610
 6053SOL    HW129792   3.457   3.493   9.934 -1.2308  0.3397 -1.5085
 6053SOL    HW229793   3.559   3.397   9.925 -1.8027 -1.8716  4.1264
 6054SOL     OW29794   4.322   2.672   6.878 -0.5634  0.4818  0.3067
 6054SOL    HW129795   4.338   2.585   6.839 -2.2286  0.5378 -0.5125
 6054SOL    HW229796   4.334   2.725   6.799  0.0622 -1.3256 -0.8353
 6055SOL     OW29797   0.457   3.315  12.605  1.0344  0.2894  0.1263
 6055SOL    HW129798   0.441   3.281  12.693  0.0978  1.2939  0.3499
 6055SOL    HW229799   0.486   3.404  12.621 -0.3148  0.2143  2.9956
 6056SOL     OW29800   1.815   1.932   4.663 -0.0631 -0.4915 -0.5163
 6056SOL    HW129801   1.819   1.848   4.709  0.2245  0.4143  1.1176
 6056SOL    HW229802   1.838   1.895   4.578  1.9959 -0.7185  0.1394
 6057SOL     OW29803   4.527   3.891   6.166 -0.7684 -0.0614  0.6042
 6057SOL    HW129804   4.467   3.825   6.131 -2.6342  1.0492  1.7112
 6057SOL    HW229805   4.591   3.913   6.099 -0.1908  1.6732  1.7270
 6058SOL     OW29806   3.282   1.118   1.970 -0.4577  0.6077  0.5356
 6058SOL    HW129807   3.283   1.095   1.877 -3.6724  1.0319  0.3779
 6058SOL    HW229808   3.187   1.127   1.983 -0.3361  0.5931  1.4267
 6059SOL     OW29809   3.202   0.155  10.871 -0.3792  0.3188 -0.4122
 6059SOL    HW129810   3.130   0.092  10.879  0.0396 -0.0462  0.4709
 6059SOL    HW229811   3.277   0.095  10.873  0.5792  1.5241 -0.6534
 6060SOL     OW29812   1.289   1.698   4.424  0.1873  0.1626  0.7887
 6060SOL    HW129813   1.243   1.767   4.377  2.5262  0.3236 -1.2362
 6060SOL    HW229814   1.374   1.738   4.444  1.4302 -1.5527 -1.1774
 6061SOL     OW29815   2.768   0.250  16.579  1.0494  0.2119 -0.0011
 6061SOL    HW129816   2.749   0.296  16.661  1.2478  0.9995 -0.3981
 6061SOL    HW229817   2.815   0.322  16.537  1.3229 -2.1131 -3.6130
 6062SOL     OW29818   1.832   2.095   9.096 -0.3600  0.1375  0.2770
 6062SOL    HW129819   1.779   2.073   9.172 -0.8765 -0.5470 -0.2832
 6062SOL    HW229820   1.909   2.055   9.137 -1.8658 -1.2389  1.7544
 6063SOL     OW29821   1.506   3.179   9.060  0.7370 -0.6532  0.4475
 6063SOL    HW129822   1.500   3.084   9.048 -0.1702 -0.2439 -2.3069
 6063SOL    HW229823   1.548   3.178   9.146 -0.6063 -0.0952  1.1211
 6064SOL     OW29824   0.900   3.078   5.220 -0.0489 -0.2280 -0.0735
 6064SOL    HW129825   0.829   3.043   5.168 -0.8667  0.3648  0.6420
 6064SOL    HW229826   0.967   3.010   5.229  0.6391  0.7038  1.9539
 6065SOL     OW29827   2.385   3.419   7.784 -0.2756  0.3045 -0.2230
 6065SOL    HW129828   2.316   3.479   7.755  1.2163  1.2626 -1.7847
 6065SOL    HW229829   2.401   3.469   7.864 -0.0915  2.2389 -1.4614
 6066SOL     OW29830   0.006   2.277  13.265 -0.0144  0.2713 -0.0720
 6066SOL    HW129831   0.061   2.321  13.329  0.8475 -2.3879  1.0399
 6066SOL    HW229832   0.057   2.286  13.184 -0.0246  0.2225 -0.0842
 6067SOL     OW29833   1.926   0.145  14.545 -0.1386 -0.2638 -0.0146
 6067SOL    HW129834   1.887   0.070  14.500 -1.7543  0.1557  0.6706
 6067SOL    HW229835   1.917   0.124  14.638 -0.2809  2.3629  0.5556
 6068SOL     OW29836   4.351   3.389   4.969  0.1202 -0.3028 -0.5088
 6068SOL    HW129837   4.276   3.352   5.017  0.1624  1.3688  0.8438
 6068SOL    HW229838   4.400   3.430   5.040 -1.4212  0.2839  0.2156
 6069SOL     OW29839   1.512   1.646  12.268  0.4376 -0.0204  0.0615
 6069SOL    HW129840   1.576   1.712  12.240  1.6563 -1.1451  0.2196
 6069SOL    HW229841   1.513   1.668  12.361 -0.4464  0.3639 -0.0166
 6070SOL     OW29842   0.624   2.850   4.151 -0.7562  0.3654  0.0951
 6070SOL    HW129843   0.556   2.911   4.179 -2.0342 -1.2333  0.5127
 6070SOL    HW229844   0.564   2.807   4.090  0.0311 -0.7355  0.0833
 6071SOL     OW29845   2.997   3.407   5.580  0.2609 -0.0032  0.3320
 6071SOL    HW129846   3.012   3.491   5.623 -3.0451  1.0438 -0.6080
 6071SOL    HW229847   2.912   3.384   5.618 -0.0172  0.6874  0.1207
 6072SOL     OW29848   3.280   2.075  16.386 -0.5286  0.1038  0.9005
 6072SOL    HW129849   3.331   1.994  16.373 -0.3108  0.0122  2.3821
 6072SOL    HW229850   3.196   2.049  16.349  0.2578  0.4856 -1.1913
 6073SOL     OW29851   4.087   1.253   4.360  0.0678  0.2398  0.1055
 6073SOL    HW129852   4.156   1.278   4.421  0.1294 -1.1866  0.6153
 6073SOL    HW229853   4.105   1.162   4.337 -0.7610  0.2713 -0.6846
 6074SOL     OW29854   2.846   2.745  17.381 -0.1962 -0.3250 -0.2480
 6074SOL    HW129855   2.790   2.717  17.454  0.7411 -1.0519  0.1791
 6074SOL    HW229856   2.853   2.661  17.337  1.7563  0.8928 -2.2488
 6075SOL     OW29857   4.348   0.881  17.027  0.0044 -0.3536 -0.2551
 6075SOL    HW129858   4.331   0.835  17.110  1.0281  1.3002  0.8796
 6075SOL    HW229859   4.438   0.907  17.048 -0.0559  0.5059 -1.0905
 6076SOL     OW29860   3.317   0.853   3.025 -0.4770  0.9172  0.2135
 6076SOL    HW129861   3.233   0.815   2.998 -0.4206 -0.0594  1.4259
 6076SOL    HW229862   3.354   0.869   2.938 -2.0886 -1.7713 -1.0110
 6077SOL     OW29863   1.449   0.800   2.220  0.7236 -0.2999  0.0384
 6077SOL    HW129864   1.476   0.812   2.311 -0.6620  2.5210  0.0816
 6077SOL    HW229865   1.483   0.884   2.190 -1.2157  0.2894 -0.5180
 6078SOL     OW29866   0.192   1.043   2.108  0.2515  0.1899 -0.4100
 6078SOL    HW129867   0.196   1.046   2.204 -2.3493  1.5786 -0.3280
 6078SOL    HW229868   0.187   0.949   2.093  2.1813  0.1468 -0.7933
 6079SOL     OW29869   1.640   2.375   2.472  0.5194 -1.0555  0.4845
 6079SOL    HW129870   1.575   2.375   2.542 -1.4809  0.4135 -1.3616
 6079SOL    HW229871   1.669   2.284   2.476  0.3281 -1.1150  0.5101
 6080SOL     OW29872   0.761   4.120   9.795  0.4816 -0.3963 -0.2202
 6080SOL    HW129873   0.825   4.079   9.852  1.8932 -0.5871 -1.9315
 6080SOL    HW229874   0.755   4.061   9.720 -4.0896  1.9003 -1.6789
 6081SOL     OW29875   0.485   2.187   5.832 -0.0595 -0.2424 -0.2964
 6081SOL    HW129876   0.471   2.263   5.888 -0.9457 -0.3423 -0.3816
 6081SOL    HW229877   0.452   2.122   5.894 -0.5039  1.8795  1.6869
 6082SOL     OW29878   3.293   0.014  12.459  0.5413  0.5973  0.1963
 6082SOL    HW129879   3.300   0.108  12.443  0.2456  0.9151  1.9782
 6082SOL    HW229880   3.242   0.027  12.539 -0.7046  1.4343 -0.7354
 6083SOL     OW29881   2.773   2.734   3.694  0.0208 -0.0051 -0.6613
 6083SOL    HW129882   2.795   2.822   3.724  2.2818 -1.4025  1.8164
 6083SOL    HW229883   2.681   2.751   3.673  0.5084  2.5297 -0.7599
 6084SOL     OW29884   1.056   1.693   8.960 -0.5870  0.7012 -0.5468
 6084SOL    HW129885   1.043   1.605   8.924  0.0477  0.3287  0.1416
 6084SOL    HW229886   1.027   1.683   9.050  0.3139  2.8367 -0.0217
 6085SOL     OW29887   2.555   2.280   4.031 -0.0199 -0.2453  0.3142
 6085SOL    HW129888   2.467   2.301   4.000 -0.0162  0.4628  0.7799
 6085SOL    HW229889   2.590   2.225   3.961 -1.6837  0.2644 -0.9180
 6086SOL     OW29890   3.450   1.147   3.883 -0.4734 -0.1857 -0.2838
 6086SOL    HW129891   3.521   1.138   3.946  0.6822  1.5728 -1.3327
 6086SOL    HW229892   3.417   1.236   3.893  1.2564 -0.0782  4.1832
 6087SOL     OW29893   4.321   0.063  11.844 -0.0436 -0.1184  0.4205
 6087SOL    HW129894   4.344   0.014  11.766 -2.8129  0.7291 -0.9185
 6087SOL    HW229895   4.227   0.069  11.825 -0.1715 -0.4430  0.9385
 6088SOL     OW29896   4.720   3.447  16.785  0.4187 -0.3397  0.4887
 6088SOL    HW129897   4.722   3.540  16.762 -0.3290 -0.4417  0.0262
 6088SOL    HW229898   4.679   3.405  16.709  1.3509 -2.0948  0.9448
 6089SOL     OW29899   1.548   1.110  12.396 -0.0185 -0.0495 -0.4012
 6089SOL    HW129900   1.534   1.203  12.380 -2.0456 -0.0688  1.2377
 6089SOL    HW229901   1.593   1.078  12.318 -1.4539 -1.6741 -0.5740
 6090SOL     OW29902   2.480   2.668   2.346 -0.2200 -0.5059 -0.3391
 6090SOL    HW129903   2.386   2.667   2.363 -0.4585 -0.0078 -1.6002
 6090SOL    HW229904   2.494   2.754   2.307  2.8838 -1.0501 -0.4493
 6091SOL     OW29905   3.401   3.663   2.971 -0.3594  0.2093 -0.2365
 6091SOL    HW129906   3.473   3.714   3.009  2.1155 -2.3515 -1.4966
 6091SOL    HW229907   3.446   3.583   2.946  1.5547 -0.0630  4.0786
 6092SOL     OW29908   2.580   4.101   0.880 -0.0092 -0.3972 -0.3317
 6092SOL    HW129909   2.542   4.111   0.968  1.4847  2.1868  0.0305
 6092SOL    HW229910   2.522   4.040   0.834 -1.3940  1.6883 -1.3820
 6093SOL     OW29911   3.864   4.016   5.218  0.2192 -0.8345  0.1186
 6093SOL    HW129912   3.944   4.048   5.260 -0.8621  0.7311  1.0084
 6093SOL    HW229913   3.903   3.953   5.158  0.3870  1.6560 -2.3860
 6094SOL     OW29914   3.674   0.305   6.669 -0.1675  0.0109  0.0577
 6094SOL    HW129915   3.701   0.382   6.719 -0.5347 -0.7714  1.4326
 6094SOL    HW229916   3.604   0.278   6.728  0.9538 -0.9402  0.9389
 6095SOL     OW29917   4.640   1.488   2.725 -0.0267  0.0056  0.1948
 6095SOL    HW129918   4.665   1.481   2.633  0.3192  1.1072  0.1974
 6095SOL    HW229919   4.551   1.523   2.717 -0.5774 -0.9215  2.2259
 6096SOL     OW29920   4.616   3.209   2.904  0.5524  0.5856  0.1059
 6096SOL    HW129921   4.684   3.142   2.909  0.4491  0.5354  0.8496
 6096SOL    HW229922   4.580   3.210   2.993 -1.1304  2.2421 -0.5945
 6097SOL     OW29923   2.611   0.183   1.788 -0.5207  0.0321 -0.0253
 6097SOL    HW129924   2.561   0.223   1.717 -1.0971  2.6705  1.8945
 6097SOL    HW229925   2.649   0.265   1.819 -1.4279  1.3394 -2.3442
 6098SOL     OW29926   3.311   3.388   7.912  0.2105  0.0003 -0.3619
 6098SOL    HW129927   3.313   3.465   7.856 -0.5818  0.2452 -0.0508
 6098SOL    HW229928   3.220   3.359   7.922  0.6253 -0.9043  0.8783
 6099SOL     OW29929   1.515   1.976   5.902 -0.4414 -1.0547  0.2465
 6099SOL    HW129930   1.492   1.911   5.836  1.9882 -0.5888 -1.0385
 6099SOL    HW229931   1.479   1.940   5.983  0.5659 -0.3905  0.9865
 6100SOL     OW29932   2.965   2.758   5.916  0.3120 -0.4805 -0.3172
 6100SOL    HW129933   2.966   2.812   5.995  1.2920 -1.8921  0.6361
 6100SOL    HW229934   2.874   2.728   5.920  0.3367 -0.7390 -1.5777
 6101SOL     OW29935   2.442   0.557   7.122  0.1416  0.2658  0.3846
 6101SOL    HW129936   2.437   0.626   7.056 -0.9716  0.3738  0.5794
 6101SOL    HW229937   2.523   0.577   7.168 -0.7921 -0.4460  2.3754
 6102SOL     OW29938   4.024   3.964   2.931 -0.1632 -0.3804  0.3897
 6102SOL    HW129939   3.998   3.938   3.019  2.2248  0.4403  1.3415
 6102SOL    HW229940   3.953   3.929   2.877 -0.0284  1.5574 -1.0653
 6103SOL     OW29941   1.288   0.487   4.099  0.8522 -0.0529  0.2299
 6103SOL    HW129942   1.266   0.402   4.060  0.5547  0.2483 -0.2609
 6103SOL    HW229943   1.269   0.536   4.019  1.7888 -0.4726 -0.2471
 6104SOL     OW29944   3.529   0.917   1.022  0.6578 -0.1952 -0.8666
 6104SOL    HW129945   3.441   0.935   1.053  0.4994  0.4788 -1.6982
 6104SOL    HW229946   3.518   0.900   0.928 -1.6899  0.8258 -0.7748
 6105SOL     OW29947   3.603   1.677   3.182  0.0662 -0.1367  0.5039
 6105SOL    HW129948   3.583   1.588   3.211  1.2877 -1.0208 -1.3655
 6105SOL    HW229949   3.591   1.726   3.264  1.8102  1.2038 -0.0178
 6106SOL     OW29950   3.942   1.810  13.415  0.2293  0.6213 -0.1901
 6106SOL    HW129951   3.961   1.764  13.497 -0.0148  0.6738 -0.1032
 6106SOL    HW229952   4.009   1.763  13.366  1.6010 -0.6431  2.8570
 6107SOL     OW29953   3.728   3.341   7.727  0.0732 -0.6271  0.4152
 6107SOL    HW129954   3.688   3.389   7.655  1.1588  0.4718  0.5405
 6107SOL    HW229955   3.804   3.399   7.736 -1.3716  1.3658 -0.1059
 6108SOL     OW29956   4.667   4.136  11.112  0.3162 -0.3493 -0.0364
 6108SOL    HW129957   0.018   4.103  11.092  1.5242  1.6298  2.0866
 6108SOL    HW229958   4.658   4.122  11.207  0.5121 -2.8746 -0.3768
 6109SOL     OW29959   3.570   2.730   4.969  0.0725 -0.4385 -0.1209
 6109SOL    HW129960   3.635   2.718   5.038 -1.9766 -1.8205  1.5580
 6109SOL    HW229961   3.609   2.701   4.886  2.9940 -3.7056  2.3926
 6110SOL     OW29962   2.015   3.377   6.163  0.0222 -0.0874  0.1403
 6110SOL    HW129963   1.947   3.312   6.141  0.6383 -0.1932 -1.4271
 6110SOL    HW229964   2.088   3.318   6.179  0.0980  0.4754  1.8618
 6111SOL     OW29965   1.072   4.397   2.921 -0.2633  0.0935  0.0084
 6111SOL    HW129966   1.138   4.378   2.989 -0.5822  0.0582  0.3086
 6111SOL    HW229967   1.054   4.314   2.876 -3.1854  0.3048  0.8038
 6112SOL     OW29968   0.626   3.423   3.105  0.0104  0.4653 -0.9367
 6112SOL    HW129969   0.719   3.421   3.083  0.4423  1.4825  0.7509
 6112SOL    HW229970   0.622   3.509   3.148  1.0438 -0.3374  0.7483
 6113SOL     OW29971   4.125   1.133   9.182  0.0790  0.2110 -0.2049
 6113SOL    HW129972   4.114   1.208   9.123 -2.2443  0.0985  0.1019
 6113SOL    HW229973   4.144   1.182   9.262  0.2868  0.9255 -0.6913
 6114SOL     OW29974   2.949   3.134   1.859 -0.1817  0.1731 -0.0867
 6114SOL    HW129975   3.023   3.164   1.913  0.1512 -0.0604 -0.4169
 6114SOL    HW229976   2.879   3.181   1.905  1.4202  1.3658  1.1429
 6115SOL     OW29977   3.625   0.338   8.765  0.0934 -0.4027 -0.2573
 6115SOL    HW129978   3.657   0.330   8.675  1.0610  1.2188 -0.0546
 6115SOL    HW229979   3.602   0.430   8.775 -0.8412 -0.6355 -0.3222
 6116SOL     OW29980   1.101   2.357  13.573 -0.1772  0.2437 -0.4635
 6116SOL    HW129981   1.055   2.283  13.612  1.4632 -0.8356 -0.5767
 6116SOL    HW229982   1.126   2.406  13.651 -3.8676 -1.2619  1.6879
 6117SOL     OW29983   0.030   2.735  14.464  0.2709 -0.0205 -0.1764
 6117SOL    HW129984   0.024   2.786  14.383 -2.1472  0.7902  0.5259
 6117SOL    HW229985   0.002   2.800  14.528  1.1880  0.0205  0.1766
 6118SOL     OW29986   2.612   0.126   6.024 -0.3642  0.1208  0.2905
 6118SOL    HW129987   2.635   0.055   5.964 -5.6043 -1.8765  0.6268
 6118SOL    HW229988   2.687   0.119   6.082 -0.4344  0.3414  0.4073
 6119SOL     OW29989   1.279   1.220  11.103  0.2462 -0.5258  0.0738
 6119SOL    HW129990   1.240   1.227  11.017 -0.7602  1.4687  0.6991
 6119SOL    HW229991   1.306   1.128  11.113 -3.7421 -1.5333  1.3498
 6120SOL     OW29992   1.901   4.200   2.424 -0.1297  0.3252 -0.0796
 6120SOL    HW129993   1.859   4.196   2.338 -1.3707 -6.2748  0.7996
 6120SOL    HW229994   1.879   4.286   2.459  0.0205 -0.2926  1.5897
 6121SOL     OW29995   0.222   1.922   3.265  0.7795  0.9237  0.5140
 6121SOL    HW129996   0.196   1.843   3.312  2.0252 -1.7362 -3.3412
 6121SOL    HW229997   0.170   1.924   3.184  0.3892 -0.7180  0.7293
 6122SOL     OW29998   3.160   0.544   6.953  0.5203  0.6365 -0.4753
 6122SOL    HW129999   3.098   0.479   6.985 -1.3650  1.4124 -2.5467
 6122SOL    HW230000   3.096   0.594   6.902 -0.9724 -1.0691 -0.2913
 6123SOL     OW30001   2.269   0.512   8.255 -0.3577  0.4813 -0.1946
 6123SOL    HW130002   2.247   0.542   8.167  0.6228  1.9529  0.0709
 6123SOL    HW230003   2.207   0.439   8.265 -0.0082 -0.1058 -2.2459
 6124SOL     OW30004   0.807   0.212   8.210 -0.1358 -0.0094  0.2924
 6124SOL    HW130005   0.867   0.169   8.149 -0.1934  1.4902 -0.8062
 6124SOL    HW230006   0.776   0.280   8.150 -1.9314 -1.7515 -0.7641
 6125SOL     OW30007   0.546   3.150  16.495 -0.3581  0.2297  0.1670
 6125SOL    HW130008   0.563   3.100  16.416  0.0435 -0.8591  0.9569
 6125SOL    HW230009   0.489   3.221  16.463 -0.8074  1.3677  3.4895
 6126SOL     OW30010   0.409   4.473   9.136  0.3516 -0.2511 -0.7242
 6126SOL    HW130011   0.468   4.422   9.192  0.0178  1.0811  0.8498
 6126SOL    HW230012   0.456   4.556   9.136 -1.1834  0.6048 -1.2234
 6127SOL     OW30013   0.837   1.322   7.260 -0.3398  0.1942 -0.5824
 6127SOL    HW130014   0.807   1.409   7.284  2.0641  1.6901 -2.9271
 6127SOL    HW230015   0.797   1.261   7.322  1.6567 -0.9013 -0.3431
 6128SOL     OW30016   2.588   0.669  15.972  0.1709 -0.3782 -0.4672
 6128SOL    HW130017   2.503   0.690  16.011  0.5029  2.7646 -1.3875
 6128SOL    HW230018   2.584   0.732  15.900 -0.1552  1.8669  1.5172
 6129SOL     OW30019   4.088   3.592   6.769  0.0922  0.3338 -0.2734
 6129SOL    HW130020   3.994   3.576   6.759  0.2907 -1.3775  0.5607
 6129SOL    HW230021   4.112   3.613   6.679  0.1820  0.9703 -0.1013
 6130SOL     OW30022   4.730   0.479   9.512  0.0726 -0.2432  0.3505
 6130SOL    HW130023   4.734   0.409   9.578 -0.5459 -0.1961  0.4337
 6130SOL    HW230024   0.082   0.512   9.523  0.6115 -1.0296 -1.6922
 6131SOL     OW30025   1.815   0.108  11.652  0.2836  0.2839 -0.0798
 6131SOL    HW130026   1.853   0.163  11.584 -0.2520  1.6031  0.6734
 6131SOL    HW230027   1.730   0.107  11.609 -0.7929  0.1722  2.0527
 6132SOL     OW30028   0.091   4.599   5.102 -0.2377  0.2651 -0.0393
 6132SOL    HW130029   0.135   4.571   5.022  0.3599 -2.7753  1.3313
 6132SOL    HW230030   0.004   4.617   5.066 -1.1811  0.4799  2.2986
 6133SOL     OW30031   1.189   3.623   1.412  0.3391  0.7440  0.1152
 6133SOL    HW130032   1.116   3.668   1.369 -1.3518  0.2574  2.5099
 6133SOL    HW230033   1.227   3.699   1.456  0.4214  0.3492  0.7232
 6134SOL     OW30034   2.785   2.261  17.201 -0.4048  0.0218 -0.3053
 6134SOL    HW130035   2.707   2.210  17.224  0.3046 -1.7168 -1.8091
 6134SOL    HW230036   2.780   2.248  17.106 -0.9503  2.0525 -0.5418
 6135SOL     OW30037   0.049   1.324   6.504 -0.0794  0.5055 -0.3541
 6135SOL    HW130038   0.134   1.319   6.546 -1.1465  1.2409  1.9045
 6135SOL    HW230039   0.043   1.411   6.465  0.1758 -0.0957 -1.7600
 6136SOL     OW30040   1.356   2.985   6.286  0.5078 -0.1366 -0.0411
 6136SOL    HW130041   1.359   2.933   6.206 -0.0472 -0.9150  0.4495
 6136SOL    HW230042   1.274   3.030   6.264 -0.2309 -1.0664  0.7928
 6137SOL     OW30043   3.877   0.749   6.158  0.1592 -0.4587  0.6293
 6137SOL    HW130044   3.808   0.691   6.125 -0.0432 -1.2380  2.4441
 6137SOL    HW230045   3.955   0.694   6.152 -0.1177 -0.9297  1.5286
 6138SOL     OW30046   1.909   4.679   0.261 -0.5456 -0.2529  0.7165
 6138SOL    HW130047   1.934   4.657   0.350 -1.8350 -0.3694  1.0367
 6138SOL    HW230048   1.820   4.645   0.271 -0.2433 -0.4143  2.6980
 6139SOL     OW30049   0.025   2.329   5.737 -0.1066 -0.4118 -0.0434
 6139SOL    HW130050   0.115   2.310   5.713  0.1045  2.7815 -1.8231
 6139SOL    HW230051   4.734   2.379   5.660 -1.0552  0.6183  0.9768
 6140SOL     OW30052   3.609   1.439  14.775  0.4425  0.0883  0.1513
 6140SOL    HW130053   3.568   1.363  14.816 -3.2231  0.2150 -3.2382
 6140SOL    HW230054   3.694   1.396  14.770  0.8188  0.7779  0.6074
 6141SOL     OW30055   4.163   4.622   5.116  0.3195  0.1316  0.7758
 6141SOL    HW130056   4.209   4.699   5.149 -2.1858  1.6979  0.6142
 6141SOL    HW230057   4.113   4.590   5.191 -1.7382  1.5944  0.0175
 6142SOL     OW30058   0.234   0.657   6.131  0.1667  0.0125  0.4987
 6142SOL    HW130059   0.199   0.693   6.050  2.9372 -0.9982 -1.1620
 6142SOL    HW230060   0.186   0.706   6.198 -1.6569 -0.2352 -0.6235
 6143SOL     OW30061   2.955   3.005   5.323 -0.5364 -0.0511 -0.1300
 6143SOL    HW130062   2.965   3.096   5.297  1.6781 -0.2733 -0.0580
 6143SOL    HW230063   2.860   3.007   5.331 -0.6493  2.1857 -1.9751
 6144SOL     OW30064   0.315   4.412   1.803  0.4020 -0.1438 -0.6372
 6144SOL    HW130065   0.250   4.464   1.851  1.8758  1.5704 -0.5193
 6144SOL    HW230066   0.337   4.471   1.732  2.4403  0.6642  0.6691
 6145SOL     OW30067   2.223   0.919   0.856  0.3065 -0.2868  0.5900
 6145SOL    HW130068   2.186   0.832   0.841 -0.7988  0.1861  0.6014
 6145SOL    HW230069   2.293   0.899   0.917  0.4629  1.3902  0.9587
 6146SOL     OW30070   0.938   2.872  11.649  0.4247  0.2202  0.1557
 6146SOL    HW130071   0.900   2.957  11.627  0.4546  0.3157  0.4737
 6146SOL    HW230072   1.010   2.868  11.586 -1.6447 -1.6445 -2.0944
 6147SOL     OW30073   2.039   2.438  13.182  0.6877  0.1827 -0.7660
 6147SOL    HW130074   2.022   2.383  13.106 -1.4084  1.6121 -1.3528
 6147SOL    HW230075   1.981   2.513  13.170  1.1135  1.0707  2.5767
 6148SOL     OW30076   3.541   0.187   7.835  1.3284  0.1592 -0.3821
 6148SOL    HW130077   3.509   0.105   7.798 -1.8959  0.8583  0.8200
 6148SOL    HW230078   3.453   0.222   7.853  1.1745 -0.8438  0.8423
 6149SOL     OW30079   4.635   4.717  13.158  0.1720 -0.2097 -0.7510
 6149SOL    HW130080   4.657   4.662  13.083 -0.4087  0.4853 -1.4293
 6149SOL    HW230081   4.673   0.060  13.123 -1.7888  0.7517 -0.7051
 6150SOL     OW30082   2.961   3.008   8.885  0.3343 -0.4047  0.3007
 6150SOL    HW130083   3.002   3.093   8.867  0.5730 -0.2750  1.4234
 6150SOL    HW230084   2.988   2.964   8.804  3.6700  0.3176  1.0194
 6151SOL     OW30085   0.981   3.172  10.331 -0.3847 -0.0194  0.1715
 6151SOL    HW130086   0.966   3.233  10.259  1.5308  0.7387  0.3998
 6151SOL    HW230087   0.894   3.135  10.341 -0.0196 -0.5096  1.5629
 6152SOL     OW30088   1.705   1.830  16.972  0.0768 -0.6220  0.1013
 6152SOL    HW130089   1.635   1.895  16.962  0.4280 -0.3436 -0.5104
 6152SOL    HW230090   1.781   1.880  16.944  1.5226 -2.0984  1.4357
 6153SOL     OW30091   2.467   2.473   6.635 -0.0319  0.1972 -0.2581
 6153SOL    HW130092   2.466   2.562   6.598  0.4748  0.8188  1.2154
 6153SOL    HW230093   2.459   2.490   6.729  1.1160  2.5573 -0.5834
 6154SOL     OW30094   2.882   2.511  17.259  0.3189 -0.0803 -0.2018
 6154SOL    HW130095   2.838   2.426  17.253  1.2849 -0.5657 -0.3341
 6154SOL    HW230096   2.937   2.504  17.181  0.5701  1.3091 -0.1411
 6155SOL     OW30097   4.583   4.081   2.544 -0.1699 -0.3407 -0.1280
 6155SOL    HW130098   4.559   3.988   2.543  0.6235 -0.5299 -1.1702
 6155SOL    HW230099   4.654   4.080   2.608  0.7120  0.3466 -1.1040
 6156SOL     OW30100   0.748   1.775   3.293 -0.3628  0.5474  0.5239
 6156SOL    HW130101   0.810   1.745   3.359 -1.3858 -0.4567  1.0227
 6156SOL    HW230102   0.705   1.696   3.262  2.3223 -0.0080 -1.7523
 6157SOL     OW30103   0.636   2.791   9.010 -0.2545 -0.4836 -0.2333
 6157SOL    HW130104   0.648   2.704   9.048 -2.4968 -0.7395 -0.1297
 6157SOL    HW230105   0.724   2.818   8.981 -0.2018  0.8325  1.1682
 6158SOL     OW30106   3.629   2.202   6.109  0.2822 -0.0059  0.6853
 6158SOL    HW130107   3.618   2.182   6.016  2.5722  0.2093  0.3691
 6158SOL    HW230108   3.620   2.112   6.141 -3.2130  0.3413  0.7020
 6159SOL     OW30109   4.463   2.485   9.049 -0.2617 -0.1804 -0.2736
 6159SOL    HW130110   4.509   2.562   9.017  0.1687 -1.0025 -1.6239
 6159SOL    HW230111   4.467   2.439   8.965 -2.0839  0.9265 -0.9563
 6160SOL     OW30112   1.102   2.088   3.578 -0.7839  0.2279 -0.3640
 6160SOL    HW130113   1.018   2.127   3.601  0.7139  2.2180  1.7276
 6160SOL    HW230114   1.099   2.007   3.630 -1.2825 -0.9907 -2.2885
 6161SOL     OW30115   1.989   1.835  15.156  0.8850  0.1446  0.4062
 6161SOL    HW130116   2.040   1.759  15.183  1.2781  0.6634  1.1335
 6161SOL    HW230117   2.048   1.910  15.152  1.2064 -0.1982 -1.4210
 6162SOL     OW30118   2.527   3.730   0.854 -0.3074  0.2390  0.0395
 6162SOL    HW130119   2.622   3.722   0.850 -0.2093  0.8497  1.3233
 6162SOL    HW230120   2.526   3.794   0.925 -1.3037  1.1923 -0.8256
 6163SOL     OW30121   0.977   0.028   2.050  0.0462  0.4155 -0.2777
 6163SOL    HW130122   0.942   0.036   2.139  0.3360  1.1232 -0.2301
 6163SOL    HW230123   0.907   4.710   2.012 -0.9884  0.5576  1.4032
 6164SOL     OW30124   3.890   2.983   6.156 -0.0626 -0.2491 -0.4109
 6164SOL    HW130125   3.961   2.937   6.199  1.1098  1.8545 -0.0948
 6164SOL    HW230126   3.864   3.042   6.227  1.2595  2.1774 -1.9166
 6165SOL     OW30127   3.211   4.334   0.603 -0.2131  0.0604  0.2700
 6165SOL    HW130128   3.194   4.401   0.669 -0.0503 -1.2484  1.6452
 6165SOL    HW230129   3.176   4.255   0.645 -1.7423  0.8318  0.4533
 6166SOL     OW30130   0.410   2.155   5.216  1.0630 -0.6129 -0.0391
 6166SOL    HW130131   0.325   2.190   5.245  1.1953 -0.3529  0.0353
 6166SOL    HW230132   0.397   2.066   5.247 -1.8141 -0.4580 -0.7784
 6167SOL     OW30133   4.171   0.281   8.879 -0.0991  0.3953 -0.0665
 6167SOL    HW130134   4.252   0.316   8.916 -0.1030  0.1195  0.2051
 6167SOL    HW230135   4.178   0.296   8.784  1.9080 -0.1827 -0.0255
 6168SOL     OW30136   3.357   2.042  13.318 -0.3747  0.4171  0.2339
 6168SOL    HW130137   3.435   2.050  13.263 -0.5520  3.9804  0.5493
 6168SOL    HW230138   3.325   1.955  13.294 -0.2319  0.5651 -0.4921
 6169SOL     OW30139   2.843   3.860   1.705  0.2592  0.1492 -0.3215
 6169SOL    HW130140   2.906   3.788   1.715  1.9352  1.5438 -0.8383
 6169SOL    HW230141   2.911   3.927   1.695  0.5203 -0.5675 -3.6600
 6170SOL     OW30142   4.553   1.783   3.183 -0.4929  0.1193 -0.3941
 6170SOL    HW130143   4.511   1.709   3.226  0.0374 -0.6255 -1.1556
 6170SOL    HW230144   4.589   1.740   3.106  1.5350 -0.4090  0.8398
 6171SOL     OW30145   1.337   0.867   1.266  0.0069  0.0276  0.5577
 6171SOL    HW130146   1.380   0.948   1.236  1.3445 -0.9204 -0.0530
 6171SOL    HW230147   1.281   0.853   1.190  0.0042 -0.6943  0.6963
 6172SOL     OW30148   0.476   1.969  10.771 -0.0039  0.4949  0.0044
 6172SOL    HW130149   0.411   2.004  10.833 -0.6969 -2.8205  1.1673
 6172SOL    HW230150   0.451   2.018  10.693 -0.5953  0.5215  0.2108
 6173SOL     OW30151   1.841   1.827   0.798 -0.6644 -0.2527 -0.3158
 6173SOL    HW130152   1.749   1.841   0.773 -0.4432  1.3161 -0.2370
 6173SOL    HW230153   1.878   1.786   0.720 -1.6471  1.4070 -1.6688
 6174SOL     OW30154   0.883   2.327  13.341 -0.6659 -0.3207 -0.2166
 6174SOL    HW130155   0.931   2.245  13.325 -3.1206 -1.6136 -1.0291
 6174SOL    HW230156   0.951   2.386  13.374 -1.8049  0.9911 -0.2165
 6175SOL     OW30157   1.058   2.770   3.249  0.3361  0.5876  0.0669
 6175SOL    HW130158   1.116   2.695   3.238  0.1208  0.3303  0.7314
 6175SOL    HW230159   1.085   2.796   3.337  0.5265 -0.7190  0.3856
 6176SOL     OW30160   2.584   1.181   5.810  0.2938  0.0460 -0.0828
 6176SOL    HW130161   2.585   1.267   5.851 -2.1393 -1.4522  3.1590
 6176SOL    HW230162   2.675   1.156   5.825  0.1345 -1.3497 -1.3922
 6177SOL     OW30163   1.931   4.514  12.747  0.2534  0.2818  0.6417
 6177SOL    HW130164   2.008   4.520  12.691  0.1667 -1.9973  0.2908
 6177SOL    HW230165   1.918   4.601  12.787  0.1015  0.4985  0.1257
 6178SOL     OW30166   0.387   2.507   8.936 -0.5222 -0.2360  0.0480
 6178SOL    HW130167   0.451   2.540   8.872  1.8860 -1.7596  1.7167
 6178SOL    HW230168   0.433   2.436   8.979  1.1643  0.8347  0.0361
 6179SOL     OW30169   0.232   3.790   6.231  0.0595  0.0090  0.5017
 6179SOL    HW130170   0.155   3.810   6.284  1.4811 -0.7376  2.8978
 6179SOL    HW230171   0.266   3.875   6.205  0.5281 -0.2538  0.2531
 6180SOL     OW30172   0.522   2.177   8.368 -0.3392 -0.3781 -0.2100
 6180SOL    HW130173   0.612   2.149   8.384 -1.1689 -0.5382  4.1928
 6180SOL    HW230174   0.507   2.229   8.447 -0.1719 -0.0487 -0.3968
 6181SOL     OW30175   2.795   2.661   6.525 -0.0639  0.3826  0.0842
 6181SOL    HW130176   2.730   2.662   6.595 -0.0895 -1.3517  0.0903
 6181SOL    HW230177   2.874   2.671   6.577 -1.2821  1.9532  1.5914
 6182SOL     OW30178   1.389   2.591   9.707  0.2145  0.5595  0.0434
 6182SOL    HW130179   1.404   2.531   9.780  1.6483  1.9738  0.9005
 6182SOL    HW230180   1.308   2.546   9.681 -1.5922  3.0087  1.4040
 6183SOL     OW30181   1.071   2.385   7.821 -0.1509  0.0444 -0.4327
 6183SOL    HW130182   1.069   2.323   7.748 -0.5046  2.3373 -2.3447
 6183SOL    HW230183   1.152   2.432   7.803 -1.6411  2.4524 -0.8163
 6184SOL     OW30184   2.413   3.980   6.091  0.3191 -0.0318 -0.2495
 6184SOL    HW130185   2.433   3.990   6.184  3.0013  1.2606 -0.9637
 6184SOL    HW230186   2.322   4.010   6.085  1.6131  4.2553  1.3738
 6185SOL     OW30187   1.979   2.441   5.457  0.0395 -0.3309  0.3165
 6185SOL    HW130188   2.060   2.398   5.427  0.6097  0.2457  1.0136
 6185SOL    HW230189   1.950   2.479   5.374  1.3588  0.7012  0.3153
 6186SOL     OW30190   4.358   3.373   4.438  0.1361 -0.0605 -0.2334
 6186SOL    HW130191   4.387   3.354   4.348  1.8620  0.8610  0.1283
 6186SOL    HW230192   4.278   3.426   4.436  0.8608  1.0896  1.4119
 6187SOL     OW30193   0.483   3.405  16.378 -1.0051  0.3847  0.6236
 6187SOL    HW130194   0.497   3.476  16.315 -3.0584 -0.9840 -1.3408
 6187SOL    HW230195   0.570   3.395  16.416 -0.2034  1.6280 -0.8731
 6188SOL     OW30196   0.525   4.502  11.883 -0.6418 -0.3676  0.0560
 6188SOL    HW130197   0.479   4.585  11.874  1.2406  0.8820  1.9713
 6188SOL    HW230198   0.517   4.458  11.798  2.2805 -3.1860  1.2347
 6189SOL     OW30199   2.237   1.497   3.132  0.1912 -0.0176 -0.2196
 6189SOL    HW130200   2.194   1.467   3.052  2.2987  1.6554 -1.9825
 6189SOL    HW230201   2.206   1.587   3.145  1.5900  0.5204 -0.6234
 6190SOL     OW30202   1.544   0.912  16.651  0.2194  0.5251 -0.3089
 6190SOL    HW130203   1.600   0.892  16.726  0.1021 -0.1943 -0.4155
 6190SOL    HW230204   1.549   1.007  16.662  0.2793  0.1975  2.7164
 6191SOL     OW30205   1.674   0.755   0.144  0.3534  0.4710 -0.1105
 6191SOL    HW130206   1.726   0.815   0.198  1.3249  1.8033 -2.5085
 6191SOL    HW230207   1.731   0.679   0.136  0.2695  0.3685  0.2640
 6192SOL     OW30208   3.094   3.898   9.451  0.2705  0.1734  0.1880
 6192SOL    HW130209   3.049   3.982   9.459  1.1694  0.4192  2.9242
 6192SOL    HW230210   3.124   3.901   9.360 -0.6134  2.4835 -0.0139
 6193SOL     OW30211   3.037   2.471   7.439  0.0789  0.2625  0.0986
 6193SOL    HW130212   3.084   2.550   7.412 -1.6817  1.3057  0.1388
 6193SOL    HW230213   2.962   2.516   7.479 -0.2970  0.7895 -1.2074
 6194SOL     OW30214   3.869   0.002   2.993  0.1222 -0.1999 -0.0320
 6194SOL    HW130215   3.843   4.726   2.902  0.1008  1.3712 -0.2565
 6194SOL    HW230216   3.782   0.028   3.026 -0.0030  0.6010 -0.9922
 6195SOL     OW30217   2.586   2.969   2.469 -0.1507 -0.6988  0.3448
 6195SOL    HW130218   2.523   3.011   2.527 -0.2892 -1.9514  1.1126
 6195SOL    HW230219   2.528   2.960   2.393 -0.7017  0.5885  0.6144
 6196SOL     OW30220   3.911   3.181   4.565 -0.2579  0.2092 -0.3494
 6196SOL    HW130221   3.859   3.212   4.639  0.8149 -1.0937  0.9476
 6196SOL    HW230222   3.925   3.263   4.517 -1.9979  0.2864 -0.7301
 6197SOL     OW30223   2.238   1.051   8.986  0.1882  0.0308 -0.0716
 6197SOL    HW130224   2.246   1.040   8.891  2.1114 -0.2614  0.1167
 6197SOL    HW230225   2.177   0.979   9.000 -0.2902  0.6496  1.0965
 6198SOL     OW30226   1.853   3.554   8.819  0.0081  0.0062  0.3432
 6198SOL    HW130227   1.938   3.578   8.783 -0.0062  0.4382  0.5850
 6198SOL    HW230228   1.885   3.480   8.870  2.1876 -0.2095 -1.3848
 6199SOL     OW30229   0.217   3.425   9.534 -0.4143  0.1349  0.2913
 6199SOL    HW130230   0.265   3.366   9.592  0.8108  0.7517 -0.0915
 6199SOL    HW230231   0.279   3.498   9.539  0.7391 -0.8047 -0.4764
 6200SOL     OW30232   0.065   0.452  14.210  0.0097  0.0517  0.2399
 6200SOL    HW130233   0.136   0.514  14.193 -0.3193  0.8253  1.7014
 6200SOL    HW230234   4.726   0.508  14.202  0.2470  0.0118 -2.1274
 6201SOL     OW30235   1.393   2.596  14.996  0.2252  0.0722 -0.0011
 6201SOL    HW130236   1.348   2.640  14.924  0.4525  1.0958  0.4775
 6201SOL    HW230237   1.383   2.501  14.989 -0.4464  0.0434  1.2974
 6202SOL     OW30238   2.894   0.025   1.901 -0.0245  0.2849 -0.2354
 6202SOL    HW130239   2.915   4.682   1.853  0.5225  0.5777 -0.4867
 6202SOL    HW230240   2.799   0.026   1.909  0.2284 -1.8799  2.8824
 6203SOL     OW30241   0.109   4.223   7.579  0.2782 -0.1242  0.1316
 6203SOL    HW130242   0.045   4.178   7.634  2.1427 -0.9187  1.6558
 6203SOL    HW230243   0.058   4.229   7.498 -1.1002  0.4356  1.0488
 6204SOL     OW30244   2.606   4.586   7.188 -0.6331 -0.5007 -0.2061
 6204SOL    HW130245   2.576   4.556   7.274 -1.5061 -2.0480 -1.0592
 6204SOL    HW230246   2.598   4.682   7.191  2.1181 -0.2689 -0.3236
 6205SOL     OW30247   3.220   2.907   2.389 -0.5218 -0.1729 -0.4261
 6205SOL    HW130248   3.289   2.843   2.408 -0.7327 -0.3310 -0.1842
 6205SOL    HW230249   3.175   2.837   2.341 -0.1677  0.5710 -1.8382
 6206SOL     OW30250   0.497   4.530   7.304  0.4760  0.2387 -0.1275
 6206SOL    HW130251   0.462   4.472   7.236 -1.3714 -0.0294  1.0450
 6206SOL    HW230252   0.471   4.615   7.269 -1.0337  0.1346  0.7451
 6207SOL     OW30253   4.214   2.504   3.153 -0.2260 -0.0547 -0.0177
 6207SOL    HW130254   4.246   2.592   3.170  0.6371  0.0956 -2.3266
 6207SOL    HW230255   4.277   2.465   3.213  0.0654  1.4074  0.5999
 6208SOL     OW30256   2.022   1.788   3.881  0.2516  0.1114 -0.2473
 6208SOL    HW130257   1.995   1.841   3.806  1.1130 -0.6626 -1.1081
 6208SOL    HW230258   1.972   1.822   3.955 -1.7073  0.6869 -1.8427
 6209SOL     OW30259   2.981   2.326   3.455 -0.2530  0.1553 -0.2184
 6209SOL    HW130260   2.942   2.345   3.370  0.1250  0.2636 -0.3688
 6209SOL    HW230261   3.069   2.363   3.449 -0.7640  2.0384  3.9358
 6210SOL     OW30262   1.286   0.375   4.960 -0.4179 -0.2195  0.0666
 6210SOL    HW130263   1.381   0.360   4.961 -0.2262  1.0182  0.9811
 6210SOL    HW230264   1.267   0.302   5.019  1.3607 -1.3511 -0.7369
 6211SOL     OW30265   1.549   0.479   0.325  0.3014  0.0615  0.2040
 6211SOL    HW130266   1.548   0.555   0.384  2.4354  0.8476 -0.7676
 6211SOL    HW230267   1.633   0.491   0.280 -1.0095  0.5170 -2.0722
 6212SOL     OW30268   0.810   3.290   6.774 -0.2594  0.0526 -0.3140
 6212SOL    HW130269   0.896   3.328   6.791 -0.3111 -0.3778  0.9249
 6212SOL    HW230270   0.822   3.258   6.685  2.6861 -0.1830  0.1917
 6213SOL     OW30271   1.674   3.406   4.493 -0.7754 -0.2390  0.2673
 6213SOL    HW130272   1.590   3.404   4.539 -0.4796 -1.8198  0.7407
 6213SOL    HW230273   1.722   3.350   4.554 -1.7604 -1.0708  0.2726
 6214SOL     OW30274   2.439   2.236  15.331 -0.0784 -0.5463 -0.2421
 6214SOL    HW130275   2.398   2.150  15.323  3.1937 -2.1176 -0.0654
 6214SOL    HW230276   2.431   2.257  15.238  1.2507  0.6635 -0.0869
 6215SOL     OW30277   1.137   3.914  16.411  0.2712 -0.0582  0.1397
 6215SOL    HW130278   1.047   3.922  16.379  0.6755  2.1439 -0.4092
 6215SOL    HW230279   1.124   3.840  16.471  3.0891 -1.8015 -1.4048
 6216SOL     OW30280   0.923   2.628   0.994 -0.9549  0.1504  0.2694
 6216SOL    HW130281   0.962   2.641   0.908 -2.2380 -0.6247 -0.4093
 6216SOL    HW230282   0.835   2.665   0.982 -1.2972 -0.2650  1.5178
 6217SOL     OW30283   1.856   4.668  17.728  0.6584  0.1912  0.4379
 6217SOL    HW130284   1.877   4.688   0.072 -1.7712 -0.9498  1.2463
 6217SOL    HW230285   1.912   4.591  17.730  1.3210  0.7128  1.6607
 6218SOL     OW30286   4.526   0.355   8.529  0.0513  0.0984 -0.3765
 6218SOL    HW130287   4.535   0.377   8.621  1.0661  0.2592 -0.5169
 6218SOL    HW230288   4.611   0.385   8.497  0.3159  0.6849  0.9118
 6219SOL     OW30289   2.575   0.859   5.250  0.2610 -0.5783 -0.2690
 6219SOL    HW130290   2.657   0.845   5.203  1.8020 -1.2960  2.5628
 6219SOL    HW230291   2.520   0.813   5.187 -0.4973 -0.4164  0.2759
 6220SOL     OW30292   4.648   3.524   5.224  0.1209 -0.1295 -0.4331
 6220SOL    HW130293   0.006   3.517   5.233  0.1526  0.7489 -0.1416
 6220SOL    HW230294   4.638   3.584   5.151 -2.3257 -0.5596 -0.4646
 6221SOL     OW30295   2.575   2.282  14.929 -0.0636 -0.1458 -0.4044
 6221SOL    HW130296   2.659   2.320  14.955 -1.1328  1.5204  0.6435
 6221SOL    HW230297   2.597   2.198  14.889  0.9636  0.0030 -0.1538
 6222SOL     OW30298   0.213   1.429  17.552 -0.1500 -0.2923  0.5550
 6222SOL    HW130299   0.296   1.423  17.504  0.6695 -0.4983  2.0039
 6222SOL    HW230300   0.140   1.411  17.494  0.4837 -0.8498 -0.0774
 6223SOL     OW30301   3.255   2.904   6.002  0.6551 -0.0533  0.0122
 6223SOL    HW130302   3.256   2.815   6.037 -0.3383 -0.8215 -1.9126
 6223SOL    HW230303   3.160   2.906   5.988  0.5982  1.0581  0.5419
 6224SOL     OW30304   0.547   0.717  12.270 -0.2523 -0.1917  0.6361
 6224SOL    HW130305   0.637   0.744  12.252  0.4682 -1.7184  1.9638
 6224SOL    HW230306   0.535   0.662  12.192 -1.9407 -0.6888  1.2506
 6225SOL     OW30307   2.482   0.366   6.624 -0.1427 -0.4687  0.3680
 6225SOL    HW130308   2.451   0.444   6.671 -1.5705  0.1686 -1.6471
 6225SOL    HW230309   2.404   0.316   6.601  1.0480 -1.6040 -1.1914
 6226SOL     OW30310   1.538   3.510   8.781 -0.0009 -0.1156 -0.4344
 6226SOL    HW130311   1.618   3.549   8.744 -0.3439  1.0569  0.0691
 6226SOL    HW230312   1.472   3.548   8.723  2.0953  0.4183 -2.4854
 6227SOL     OW30313   3.456   3.705   5.182 -0.0208  0.2990 -0.2790
 6227SOL    HW130314   3.543   3.727   5.215 -0.1943 -0.1616  0.4834
 6227SOL    HW230315   3.474   3.626   5.130 -0.3653  1.0403 -1.5205
 6228SOL     OW30316   3.412   0.687  11.192 -0.5138  0.1645 -0.7148
 6228SOL    HW130317   3.391   0.701  11.284  3.9584  0.5638  0.2729
 6228SOL    HW230318   3.430   0.778  11.168 -1.8598  1.0096  1.5149
 6229SOL     OW30319   4.345   2.188   2.727  0.4855  0.0573 -0.2187
 6229SOL    HW130320   4.259   2.155   2.702  0.7538 -1.1290  0.4214
 6229SOL    HW230321   4.337   2.240   2.807 -0.7003  0.4819 -0.6230
 6230SOL     OW30322   4.682   3.568   0.365 -0.4263  0.5531  0.1501
 6230SOL    HW130323   4.650   3.627   0.298  0.0457  0.6909  0.0409
 6230SOL    HW230324   4.601   3.519   0.376  0.6552 -1.5661 -1.1312
 6231SOL     OW30325   2.329   4.124  14.441  0.5194 -0.6396  0.1115
 6231SOL    HW130326   2.424   4.111  14.441  0.5773 -0.1559  2.1046
 6231SOL    HW230327   2.299   4.051  14.495  0.7862 -0.6978  0.1829
 6232SOL     OW30328   1.347   3.751   5.866 -0.4206 -0.0984  0.5371
 6232SOL    HW130329   1.376   3.669   5.827 -0.1165  0.2697  0.0018
 6232SOL    HW230330   1.298   3.779   5.789 -0.6456  1.0050  1.0772
 6233SOL     OW30331   3.123   4.513   5.711 -0.0406 -0.7123 -0.6150
 6233SOL    HW130332   3.050   4.568   5.684  0.3224  0.1074  0.0844
 6233SOL    HW230333   3.134   4.470   5.626 -1.7448  1.5535 -1.9829
 6234SOL     OW30334   0.745   3.025   8.226 -0.1138 -0.1151 -0.2182
 6234SOL    HW130335   0.702   3.110   8.235  1.4998  0.5268  1.5408
 6234SOL    HW230336   0.704   2.975   8.296  0.4277  1.5071  1.2734
 6235SOL     OW30337   0.453   3.056   4.888  0.3134  0.2783 -0.0588
 6235SOL    HW130338   0.379   3.067   4.827  1.8099  1.5625 -1.6379
 6235SOL    HW230339   0.469   2.962   4.893 -2.2019 -0.0568  1.7428
 6236SOL     OW30340   3.461   3.613   7.380  0.7928  0.2818  0.2654
 6236SOL    HW130341   3.424   3.573   7.301  0.9402  2.5077 -0.9356
 6236SOL    HW230342   3.443   3.706   7.366  1.4144  0.5290  1.1266
 6237SOL     OW30343   3.967   0.533   5.620 -0.8746  0.0024 -0.3773
 6237SOL    HW130344   3.932   0.612   5.662 -0.4233 -0.6419  1.2189
 6237SOL    HW230345   4.036   0.521   5.685 -0.0502  1.1209 -1.0483
 6238SOL     OW30346   4.409   0.882  11.149  0.0651 -0.2588  0.1757
 6238SOL    HW130347   4.346   0.819  11.114 -1.3392  1.3024 -0.0855
 6238SOL    HW230348   4.496   0.843  11.134 -0.3495 -1.1908  0.1554
 6239SOL     OW30349   0.262   3.476  14.677  0.0436  0.4033 -0.0716
 6239SOL    HW130350   0.243   3.526  14.757  0.0871 -1.6453  1.2287
 6239SOL    HW230351   0.298   3.401  14.726 -2.5778 -0.6659  0.2204
 6240SOL     OW30352   0.182   1.007   2.907 -0.4335 -0.3679  0.0546
 6240SOL    HW130353   0.124   0.941   2.945  0.1229 -1.1146 -0.3815
 6240SOL    HW230354   0.266   0.990   2.949 -0.1874 -0.6806 -0.5500
 6241SOL     OW30355   3.734   0.035   4.988 -0.1044 -0.1853  0.0349
 6241SOL    HW130356   3.663   4.710   4.981 -0.1517  0.1335 -2.2894
 6241SOL    HW230357   3.805   4.708   4.997 -0.4433 -0.8241 -2.0249
 6242SOL     OW30358   3.015   3.251  15.013 -0.4898  0.4224 -0.0662
 6242SOL    HW130359   2.966   3.328  14.985 -0.9023  0.3079  0.3412
 6242SOL    HW230360   3.027   3.214  14.925  1.1243 -2.1237  1.2252
 6243SOL     OW30361   1.658   4.659   6.237 -0.2233  0.6396 -0.6609
 6243SOL    HW130362   1.579   4.605   6.237 -0.2601  0.6920 -0.4176
 6243SOL    HW230363   1.619   0.007   6.259 -0.7381  0.5029 -1.0442
 6244SOL     OW30364   1.898   1.101   4.178 -0.0955 -0.1119  0.1303
 6244SOL    HW130365   1.908   1.177   4.119  0.1070 -1.7825 -1.9880
 6244SOL    HW230366   1.818   1.057   4.152  0.5875 -0.3087 -1.6340
 6245SOL     OW30367   0.166   3.629   5.190 -0.1770 -0.4606  0.1795
 6245SOL    HW130368   0.150   3.690   5.117  1.7959 -1.1336 -0.8298
 6245SOL    HW230369   0.224   3.677   5.249  0.5824 -0.9148 -0.1959
 6246SOL     OW30370   2.777   4.541   2.720 -0.0099  0.2965 -0.7665
 6246SOL    HW130371   2.689   4.576   2.734  0.6334  1.2168  1.0322
 6246SOL    HW230372   2.816   4.607   2.663  3.3939 -0.9611  0.0824
 6247SOL     OW30373   3.557   1.425   3.298  0.1357 -0.6250 -0.3361
 6247SOL    HW130374   3.546   1.329   3.299  0.5607 -0.6698  0.0995
 6247SOL    HW230375   3.464   1.443   3.282 -0.3257 -3.0713 -0.4231
 6248SOL     OW30376   0.692   3.775   6.732  0.0270  0.0257  0.5615
 6248SOL    HW130377   0.691   3.777   6.827  0.1481 -0.5354  0.5708
 6248SOL    HW230378   0.741   3.857   6.726 -0.1563  0.1925  1.3433
 6249SOL     OW30379   2.644   0.939   6.640 -0.1544  0.2562 -0.0597
 6249SOL    HW130380   2.601   1.024   6.629  0.1222  0.6021  1.5514
 6249SOL    HW230381   2.608   0.895   6.563  1.4919  0.2637 -0.8380
 6250SOL     OW30382   3.464   3.725   5.586  0.2560  0.2315  0.6049
 6250SOL    HW130383   3.470   3.677   5.669  0.5649 -0.8676 -0.0472
 6250SOL    HW230384   3.425   3.661   5.526 -0.6678  1.2091  0.1804
 6251SOL     OW30385   0.749   3.087  11.439 -0.5450 -0.3959  0.0097
 6251SOL    HW130386   0.783   3.096  11.528 -1.8221  2.0112  0.2446
 6251SOL    HW230387   0.662   3.052  11.458 -1.3546  0.1711 -2.5493
 6252SOL     OW30388   3.450   3.531   6.261 -0.5979  0.2905  0.1210
 6252SOL    HW130389   3.457   3.516   6.167 -2.7393  0.5540 -0.0902
 6252SOL    HW230390   3.491   3.617   6.267 -0.1901  0.2076 -1.4474
 6253SOL     OW30391   0.018   2.552   5.296 -0.3258 -0.0171  0.2946
 6253SOL    HW130392   4.692   2.544   5.225  1.4863 -0.9144 -1.2350
 6253SOL    HW230393   0.059   2.637   5.285  1.2218 -0.6836  0.7518
 6254SOL     OW30394   1.596   1.265   5.923 -0.3181 -0.1817  0.1570
 6254SOL    HW130395   1.565   1.260   5.832 -1.1731  3.6408  0.2660
 6254SOL    HW230396   1.682   1.305   5.910 -0.3874  0.0377  0.3751
 6255SOL     OW30397   2.729   3.939   3.334  0.2894 -0.2461  0.0260
 6255SOL    HW130398   2.651   3.974   3.377  0.3533 -0.6485  0.4717
 6255SOL    HW230399   2.774   4.021   3.315  0.3656 -0.1510  0.6348
 6256SOL     OW30400   3.340   3.848   0.952 -0.4588 -0.2622  0.4297
 6256SOL    HW130401   3.316   3.938   0.927  0.3145  0.3103  1.7348
 6256SOL    HW230402   3.376   3.857   1.040 -0.1896 -0.1670  0.3108
 6257SOL     OW30403   2.207   4.442   4.610 -0.3016  0.4393  0.3655
 6257SOL    HW130404   2.183   4.397   4.529 -1.9248  1.0148  0.5342
 6257SOL    HW230405   2.119   4.448   4.646 -0.4969  0.4795 -0.1112
 6258SOL     OW30406   2.864   1.811   7.510 -0.0394 -0.3322 -0.1361
 6258SOL    HW130407   2.777   1.814   7.470 -0.5163  0.7737  0.9991
 6258SOL    HW230408   2.903   1.730   7.476 -1.5505 -1.7277  1.5128
 6259SOL     OW30409   3.908   1.967  10.356 -0.1808  0.0063  0.2889
 6259SOL    HW130410   3.910   2.052  10.312 -1.8848 -0.9981 -1.7032
 6259SOL    HW230411   3.847   1.916  10.303  0.2265 -1.1837  0.9640
 6260SOL     OW30412   0.498   4.709   8.768 -0.6484  0.3790 -0.2914
 6260SOL    HW130413   0.541   4.649   8.829 -1.3583 -0.4568 -0.6182
 6260SOL    HW230414   0.531   0.058   8.794  1.7759 -0.5902 -0.2408
 6261SOL     OW30415   1.248   0.631  11.256 -0.1998  0.1612  0.5538
 6261SOL    HW130416   1.246   0.601  11.165  0.7023  0.8943  0.2915
 6261SOL    HW230417   1.247   0.724  11.236 -1.7391  0.2048  0.8796
 6262SOL     OW30418   3.241   0.725   8.714  0.0849  0.4098  0.0763
 6262SOL    HW130419   3.331   0.749   8.695 -0.2136  0.3140 -1.4500
 6262SOL    HW230420   3.213   0.807   8.756  2.3919  0.6828  1.0411
 6263SOL     OW30421   2.376   2.490   9.339  0.0431 -0.3995 -0.0433
 6263SOL    HW130422   2.445   2.517   9.279 -1.1870  1.2799 -0.6896
 6263SOL    HW230423   2.346   2.411   9.293 -0.7839  0.6861 -1.3395
 6264SOL     OW30424   1.977   4.586  10.594 -0.0876  0.3364 -0.3976
 6264SOL    HW130425   1.991   4.647  10.666 -2.2731 -0.3796  0.6225
 6264SOL    HW230426   1.964   4.508  10.647 -2.7957  1.3187  0.3536
 6265SOL     OW30427   0.499   1.732   3.532  0.4345 -0.1167 -0.2626
 6265SOL    HW130428   0.561   1.747   3.603  0.3625 -0.3383 -0.1529
 6265SOL    HW230429   0.423   1.695   3.577  0.5278 -0.3523 -0.2990
 6266SOL     OW30430   2.763   2.443   7.403 -0.6733  0.1184  0.3406
 6266SOL    HW130431   2.683   2.485   7.370 -0.8629 -0.1238  0.4840
 6266SOL    HW230432   2.744   2.353   7.377 -1.9050  0.8650 -1.4158
 6267SOL     OW30433   3.463   0.694   7.384  0.2933  0.8798 -0.3855
 6267SOL    HW130434   3.539   0.661   7.432 -0.1241  1.4120  0.6301
 6267SOL    HW230435   3.418   0.614   7.357  1.6095 -0.5010  1.4862
 6268SOL     OW30436   0.004   1.934   0.469  0.0736 -0.2828  0.2060
 6268SOL    HW130437   0.073   1.994   0.495 -0.3043  0.0955  0.3310
 6268SOL    HW230438   0.032   1.851   0.509  3.6808  0.2567 -1.2260
 6269SOL     OW30439   3.794   1.538  13.211  0.3002 -0.0010 -0.5226
 6269SOL    HW130440   3.764   1.479  13.281 -0.7117  2.1020  0.8272
 6269SOL    HW230441   3.738   1.614  13.229 -0.1597 -0.2301 -0.9862
 6270SOL     OW30442   3.734   4.317   9.187  0.0140  0.5792 -0.1965
 6270SOL    HW130443   3.759   4.373   9.261  1.4996  0.1607 -0.3894
 6270SOL    HW230444   3.809   4.258   9.191 -0.5041 -0.0693 -0.0846
 6271SOL     OW30445   0.029   4.391  11.765 -0.0657 -0.1721 -0.4425
 6271SOL    HW130446   0.069   4.404  11.851 -0.7301 -0.1007 -0.1430
 6271SOL    HW230447   0.101   4.350  11.717 -0.0163 -1.0923  0.4004
 6272SOL     OW30448   0.572   0.506   2.147 -0.6697 -0.3761  0.1446
 6272SOL    HW130449   0.486   0.513   2.107 -0.2489 -0.9964 -0.8749
 6272SOL    HW230450   0.571   0.581   2.206  0.0488  0.5978 -1.0794
 6273SOL     OW30451   0.332   3.068  11.928 -0.0849  0.7161 -0.0337
 6273SOL    HW130452   0.380   2.995  11.967 -0.4092 -0.0640 -1.0962
 6273SOL    HW230453   0.244   3.049  11.961  0.0940 -1.7296 -0.9366
 6274SOL     OW30454   1.886   3.498  10.234 -0.2122  0.1425 -0.4705
 6274SOL    HW130455   1.950   3.427  10.232 -0.4735 -0.0595 -1.6710
 6274SOL    HW230456   1.813   3.448  10.271  0.4003 -0.4283 -0.0340
 6275SOL     OW30457   2.788   4.053   8.782  0.2299 -0.5373  0.1479
 6275SOL    HW130458   2.873   4.063   8.739 -0.7413  2.2611 -1.1939
 6275SOL    HW230459   2.784   3.959   8.797 -2.5594 -0.6007 -0.9075
 6276SOL     OW30460   4.443   4.190  10.446  0.2863  0.5997  0.1799
 6276SOL    HW130461   4.398   4.256  10.394  1.7920 -0.2522 -2.1765
 6276SOL    HW230462   4.508   4.156  10.385 -0.8032 -1.5538  0.2432
 6277SOL     OW30463   0.377   0.679   8.896 -0.0269 -0.3670 -0.1446
 6277SOL    HW130464   0.304   0.617   8.889  0.0430 -0.6720  1.9854
 6277SOL    HW230465   0.328   0.755   8.926  1.7058  0.5377  0.3333
 6278SOL     OW30466   2.779   2.933   4.827 -0.3255  0.2260  0.4044
 6278SOL    HW130467   2.846   2.997   4.850  0.2570 -0.6999  1.2813
 6278SOL    HW230468   2.704   2.984   4.857 -1.5789 -0.7294 -1.1449
 6279SOL     OW30469   3.119   4.420   5.325  0.4792  0.1425  0.2132
 6279SOL    HW130470   3.058   4.384   5.262  0.0739 -1.0387  1.2837
 6279SOL    HW230471   3.081   4.377   5.402  2.1426  1.9220  2.0392
 6280SOL     OW30472   2.739   0.212   8.155  0.3263 -0.2328  0.0549
 6280SOL    HW130473   2.744   0.296   8.200  2.2505 -0.8140  0.9366
 6280SOL    HW230474   2.802   0.162   8.207  0.2951  0.9161  1.1845
 6281SOL     OW30475   0.251   2.442  16.581  0.2497 -0.0467 -0.5916
 6281SOL    HW130476   0.292   2.528  16.569  1.0730 -0.4398 -0.6019
 6281SOL    HW230477   0.221   2.442  16.672  0.3673 -0.9845 -0.5517
 6282SOL     OW30478   2.849   3.519  12.660  0.0072  0.0304 -0.2112
 6282SOL    HW130479   2.931   3.566  12.675  1.1400 -1.6966 -0.9979
 6282SOL    HW230480   2.873   3.432  12.629  0.2165  0.9032 -2.4903
 6283SOL     OW30481   2.174   3.517   8.218 -0.7080  0.7560  0.7255
 6283SOL    HW130482   2.083   3.543   8.235 -0.7593  1.2091 -0.2450
 6283SOL    HW230483   2.206   3.588   8.163 -0.6140  0.7260  0.7419
 6284SOL     OW30484   4.216   0.862   3.426  0.1388  0.1012 -0.0164
 6284SOL    HW130485   4.255   0.779   3.455  0.1144 -0.1396 -0.6673
 6284SOL    HW230486   4.167   0.880   3.506 -0.0918  1.3029 -0.4281
 6285SOL     OW30487   1.211   1.546   7.035  0.2707 -0.0117  0.1631
 6285SOL    HW130488   1.193   1.469   7.090  1.4728 -0.7375 -0.4533
 6285SOL    HW230489   1.293   1.566   7.079 -1.7494  3.3693  2.3767
 6286SOL     OW30490   4.680   1.641   9.546 -0.3390 -0.3669  0.5927
 6286SOL    HW130491   4.675   1.734   9.526  2.4726 -0.6657 -1.4973
 6286SOL    HW230492   4.719   1.619   9.462  0.2537 -0.8857  0.9970
 6287SOL     OW30493   4.580   3.860   2.797 -0.7105 -0.6219 -0.3626
 6287SOL    HW130494   4.557   3.936   2.850  1.8523 -0.2328  0.2174
 6287SOL    HW230495   4.501   3.808   2.812 -1.2466  0.5693  0.9673
 6288SOL     OW30496   0.398   2.679  16.572  0.3102  0.0825 -0.2386
 6288SOL    HW130497   0.458   2.731  16.519 -1.3687 -0.7837 -2.9927
 6288SOL    HW230498   0.362   2.744  16.633  0.5047  0.3878 -0.4505
 6289SOL     OW30499   2.413   0.326   4.488  0.0208  0.5614 -0.2770
 6289SOL    HW130500   2.428   0.248   4.542 -1.0325 -2.6048 -4.5451
 6289SOL    HW230501   2.470   0.293   4.418  3.1915  3.2317  1.0399
 6290SOL     OW30502   1.624   2.463   4.207 -0.0852  0.2150 -0.0989
 6290SOL    HW130503   1.565   2.484   4.279 -3.2997 -4.4899 -1.3998
 6290SOL    HW230504   1.616   2.544   4.157  3.5126  0.3857 -0.4105
 6291SOL     OW30505   0.549   1.688   7.929 -0.5857 -0.2655  0.4197
 6291SOL    HW130506   0.487   1.653   7.992 -1.8292  0.8252 -0.1929
 6291SOL    HW230507   0.591   1.757   7.980 -1.6548  1.4870 -1.0545
 6292SOL     OW30508   2.185   1.859   4.266  0.0836  0.2363  0.1189
 6292SOL    HW130509   2.205   1.765   4.271 -0.2142  0.2187  0.9497
 6292SOL    HW230510   2.206   1.891   4.354  1.2073 -1.9023  0.6482
 6293SOL     OW30511   4.701   4.498  15.158 -0.3935  0.2932  0.7417
 6293SOL    HW130512   4.699   4.560  15.085 -2.1907 -1.4653 -0.7057
 6293SOL    HW230513   4.607   4.485  15.166 -0.9106  3.1334 -0.5243
 6294SOL     OW30514   2.025   1.225   7.471  0.0365 -0.3684 -0.2624
 6294SOL    HW130515   2.007   1.284   7.544  1.8164 -1.7624  1.2810
 6294SOL    HW230516   1.941   1.179   7.476 -0.5511  0.6172 -0.8358
 6295SOL     OW30517   4.467   2.800   4.665  0.8076  0.6969  0.7908
 6295SOL    HW130518   4.499   2.890   4.674  0.4668  0.8941 -0.0153
 6295SOL    HW230519   4.479   2.793   4.570 -1.7002  1.8468  0.4157
 6296SOL     OW30520   0.186   3.679  17.422 -0.2968  0.5450  0.3381
 6296SOL    HW130521   0.159   3.748  17.361  0.0260  0.9910  0.7054
 6296SOL    HW230522   0.119   3.689  17.489 -1.0138 -1.1185 -0.1353
 6297SOL     OW30523   2.001   3.639   6.283 -0.2258  0.7180 -0.9397
 6297SOL    HW130524   1.995   3.547   6.256  0.8071  0.3162  0.1985
 6297SOL    HW230525   2.076   3.674   6.235 -0.4107  1.8471 -0.3970
 6298SOL     OW30526   0.922   2.656   6.799  0.2805  0.5276  0.4152
 6298SOL    HW130527   0.997   2.599   6.782  1.1637  2.1809 -1.1875
 6298SOL    HW230528   0.958   2.743   6.785  3.5967 -1.1558 -1.4884
 6299SOL     OW30529   3.660   2.695   8.551 -0.1236  0.3460  0.1488
 6299SOL    HW130530   3.684   2.698   8.459 -2.5608  1.7248 -0.4320
 6299SOL    HW230531   3.574   2.655   8.540  0.1379 -0.9952  2.9936
 6300SOL     OW30532   1.010   2.487   3.209  0.6232  0.3969  0.0727
 6300SOL    HW130533   0.984   2.424   3.276  2.1608  0.0863  0.3756
 6300SOL    HW230534   1.103   2.468   3.194  0.4494 -0.5913  0.2598
 6301SOL     OW30535   2.082   3.382  12.136  0.0211  0.6306  0.0305
 6301SOL    HW130536   2.150   3.358  12.199 -2.6551  0.6625  2.8602
 6301SOL    HW230537   2.073   3.474  12.161  0.5689  0.8066 -0.4050
 6302SOL     OW30538   2.709   0.046   6.469  0.3145 -0.1989  0.5849
 6302SOL    HW130539   2.661   4.736   6.537  0.9482 -0.2899  0.9659
 6302SOL    HW230540   2.731   0.129   6.510 -0.0412 -0.3297  1.0354
 6303SOL     OW30541   0.999   4.336   5.251 -0.7085  0.1275  0.7316
 6303SOL    HW130542   1.030   4.426   5.240 -2.5931  0.8477  1.3031
 6303SOL    HW230543   1.059   4.322   5.325  1.1481  0.0675 -0.7665
 6304SOL     OW30544   0.110   3.764  16.545  0.2334  0.1871  1.1627
 6304SOL    HW130545   0.152   3.682  16.518 -0.1811 -0.7383  3.4119
 6304SOL    HW230546   0.167   3.834  16.511  0.7841 -0.6136  0.4421
 6305SOL     OW30547   3.091   4.735   1.673 -0.0153  0.0546  0.6310
 6305SOL    HW130548   3.124   4.727   1.584 -1.2568  1.5013  0.0502
 6305SOL    HW230549   3.061   4.649   1.703 -0.8652  0.0108 -0.3800
 6306SOL     OW30550   1.261   1.065  13.603  0.1031  0.2854  0.0980
 6306SOL    HW130551   1.306   0.981  13.596  0.8019  0.6048  0.8072
 6306SOL    HW230552   1.219   1.059  13.517  1.7359  2.3441 -0.8473
 6307SOL     OW30553   0.658   2.806  12.105  0.1173 -0.0241  0.2016
 6307SOL    HW130554   0.687   2.716  12.091 -1.6148 -0.6055  0.3414
 6307SOL    HW230555   0.739   2.849  12.132 -0.1640  1.0570 -0.6980
 6308SOL     OW30556   4.051   1.461   8.767 -0.0130  0.2077  0.1562
 6308SOL    HW130557   4.095   1.542   8.741 -1.3966  1.6541  2.3181
 6308SOL    HW230558   3.995   1.451   8.690  1.5754  0.8957 -1.0689
 6309SOL     OW30559   2.448   4.240   0.379  0.2679 -0.0522  0.2271
 6309SOL    HW130560   2.536   4.201   0.371  0.8511  1.4786 -0.6964
 6309SOL    HW230561   2.458   4.326   0.420  0.7536  0.3546 -0.7583
 6310SOL     OW30562   4.678   2.251   4.654  0.0186 -0.6273  0.0587
 6310SOL    HW130563   4.673   2.337   4.613 -3.7869 -0.2363  1.3854
 6310SOL    HW230564   4.641   2.271   4.740 -0.6588  0.0338 -0.3863
 6311SOL     OW30565   3.313   3.099  13.458  0.2690  0.5435  0.1539
 6311SOL    HW130566   3.354   3.175  13.500  0.6187  0.6764 -0.4237
 6311SOL    HW230567   3.358   3.110  13.375 -1.6882 -1.7335 -1.1921
 6312SOL     OW30568   2.383   3.658  12.096 -0.3030 -0.3020 -0.0990
 6312SOL    HW130569   2.425   3.673  12.011 -0.1155  1.0554  0.2389
 6312SOL    HW230570   2.323   3.731  12.108 -0.0357  0.3648 -2.8718
 6313SOL     OW30571   1.820   3.768   8.013  0.3177 -0.0061 -0.3659
 6313SOL    HW130572   1.861   3.836   8.067 -1.2303  0.4028  0.3004
 6313SOL    HW230573   1.784   3.829   7.949  3.0101  0.7691 -1.1184
 6314SOL     OW30574   1.969   1.063   5.760 -0.7047 -0.5274  0.1894
 6314SOL    HW130575   1.925   1.108   5.832 -1.8039  1.8551 -1.9866
 6314SOL    HW230576   2.059   1.067   5.792 -0.9534  1.4479  0.6055
 6315SOL     OW30577   2.571   1.660  17.424 -0.0087 -0.5273  0.1880
 6315SOL    HW130578   2.642   1.722  17.409  0.6806 -0.4935  3.5291
 6315SOL    HW230579   2.569   1.617  17.338 -1.6982 -0.9994  0.4607
 6316SOL     OW30580   3.096   3.994   7.718 -0.5473  0.1926 -0.0225
 6316SOL    HW130581   3.041   4.070   7.736 -1.4387 -0.7263  1.1388
 6316SOL    HW230582   3.139   3.965   7.798  1.1132 -1.1869 -1.4260
 6317SOL     OW30583   0.829   1.081  12.570 -0.4639  0.3983 -0.2282
 6317SOL    HW130584   0.811   1.168  12.536 -2.6882 -0.7849 -2.0352
 6317SOL    HW230585   0.791   1.090  12.658  0.2526 -0.0782  0.1349
 6318SOL     OW30586   0.782   4.476   7.944 -0.6408 -0.2510 -0.0801
 6318SOL    HW130587   0.749   4.532   7.874 -0.1948 -1.0881 -0.9502
 6318SOL    HW230588   0.716   4.502   8.009  2.7611  2.3937  2.3474
 6319SOL     OW30589   3.040   4.503  11.680  0.2995 -0.1152  0.2684
 6319SOL    HW130590   2.950   4.508  11.712 -0.2951 -2.7829 -0.9331
 6319SOL    HW230591   3.096   4.510  11.757 -0.4596  1.7039  0.6386
 6320SOL     OW30592   1.955   0.768  10.870 -0.1319 -0.4313  0.1487
 6320SOL    HW130593   1.905   0.847  10.892 -1.1356 -0.0389 -3.4196
 6320SOL    HW230594   2.025   0.788  10.931  0.9716  0.9975 -1.5803
 6321SOL     OW30595   2.571   1.218   6.723 -0.4876  0.5458 -0.3517
 6321SOL    HW130596   2.628   1.185   6.792  0.8271 -0.6755 -2.0027
 6321SOL    HW230597   2.483   1.204   6.758  0.3347 -1.4342  0.8963
 6322SOL     OW30598   2.705   4.673   5.668 -0.1125  0.5194  0.4897
 6322SOL    HW130599   2.720   4.661   5.761  0.3754 -1.2663  0.1833
 6322SOL    HW230600   2.788   4.706   5.633  0.4855 -1.1883  0.3010
 6323SOL     OW30601   2.178   4.091   3.111 -0.1051  0.0315 -0.4298
 6323SOL    HW130602   2.157   4.112   3.019  0.3646  3.0203  0.1444
 6323SOL    HW230603   2.268   4.123   3.108 -1.0756  3.0331  2.3204
 6324SOL     OW30604   1.423   2.981   5.722  0.1404  0.1199  0.2872
 6324SOL    HW130605   1.495   2.956   5.663 -1.2565 -2.2387 -0.4262
 6324SOL    HW230606   1.364   2.905   5.725 -0.9938  1.0005 -0.1404
 6325SOL     OW30607   3.273   0.341  10.087 -0.4590  0.1049 -0.2349
 6325SOL    HW130608   3.277   0.259  10.136  1.5105 -0.2668 -1.0433
 6325SOL    HW230609   3.341   0.386  10.136  0.2720 -0.4933 -0.7036
 6326SOL     OW30610   1.769   2.092   5.867  0.3517 -0.2429  0.6371
 6326SOL    HW130611   1.686   2.045   5.876  0.5231 -0.8645 -0.9830
 6326SOL    HW230612   1.745   2.120   5.779  0.9932 -1.5404  0.0362
 6327SOL     OW30613   4.281   4.148   8.115 -0.3321  0.1104  0.4090
 6327SOL    HW130614   4.348   4.082   8.096  0.4213  0.2754  2.4638
 6327SOL    HW230615   4.245   4.182   8.033  0.5669  1.7473  0.6914
 6328SOL     OW30616   4.545   2.693   3.662  0.2916  0.3926 -0.0572
 6328SOL    HW130617   4.526   2.618   3.606  0.5663 -0.6678  1.2621
 6328SOL    HW230618   4.574   2.740   3.584 -2.3941  3.2866  0.6924
 6329SOL     OW30619   2.016   3.006  12.133  0.1420 -0.0801 -0.3925
 6329SOL    HW130620   1.926   2.973  12.127 -0.3021  1.4224 -1.9496
 6329SOL    HW230621   2.002   3.091  12.093 -3.6568 -0.3058  0.5093
 6330SOL     OW30622   1.797   1.057   2.620 -0.3420 -0.1246  0.0996
 6330SOL    HW130623   1.825   1.021   2.704  1.1259 -1.7233 -1.0532
 6330SOL    HW230624   1.811   0.982   2.562  1.3830  2.5326 -3.0022
 6331SOL     OW30625   1.750   3.416   9.149  0.0636 -0.4496  0.2645
 6331SOL    HW130626   1.654   3.417   9.149  0.0856  1.0789  0.2152
 6331SOL    HW230627   1.780   3.496   9.191 -3.9530  1.2120 -0.0619
 6332SOL     OW30628   0.904   0.690   5.494  0.2400 -0.3171  0.7954
 6332SOL    HW130629   0.916   0.751   5.566  2.0095 -0.9216  1.0060
 6332SOL    HW230630   0.993   0.654   5.490  0.6239  0.7415 -0.2289
 6333SOL     OW30631   0.906   4.445  14.941  0.6074  0.4336  0.4165
 6333SOL    HW130632   0.978   4.500  14.970  0.2504 -0.0755  2.2406
 6333SOL    HW230633   0.904   4.373  15.003 -0.7277  0.4569  0.3988
 6334SOL     OW30634   2.255   0.170  15.798  0.2302 -0.5082  0.3923
 6334SOL    HW130635   2.349   0.178  15.813  0.4726  1.1605 -2.0347
 6334SOL    HW230636   2.236   0.091  15.848 -3.8689  0.8603  1.0504
 6335SOL     OW30637   1.101   0.885   6.167 -0.3891  0.4261 -0.1987
 6335SOL    HW130638   1.018   0.846   6.138  1.1135 -3.1022  0.3953
 6335SOL    HW230639   1.102   0.961   6.108 -0.5341 -0.1998 -0.9977
 6336SOL     OW30640   0.738   2.411  16.870  0.6587  0.2719 -0.1058
 6336SOL    HW130641   0.774   2.497  16.891  2.4728 -0.6018  0.3319
 6336SOL    HW230642   0.648   2.430  16.898  0.7163 -2.1560  1.7043
 6337SOL     OW30643   0.680   1.002   4.938  0.4967  0.0006  0.5240
 6337SOL    HW130644   0.601   0.979   4.890  1.2807 -0.2213 -0.6702
 6337SOL    HW230645   0.678   1.097   4.937 -0.0780 -0.0230 -0.8628
 6338SOL     OW30646   4.541   1.055   7.075  0.3713  1.1401  0.2308
 6338SOL    HW130647   4.621   1.023   7.035 -1.0960 -1.8956 -0.2739
 6338SOL    HW230648   4.530   0.977   7.129  0.0222  0.4394 -0.8492
 6339SOL     OW30649   1.236   0.817  10.805 -0.5621 -0.1453 -0.8824
 6339SOL    HW130650   1.156   0.796  10.756 -0.6245  2.7283 -1.9649
 6339SOL    HW230651   1.286   0.739  10.779  1.2341  0.4405  0.8145
 6340SOL     OW30652   4.206   4.415  11.048  0.0849  0.0807 -0.1323
 6340SOL    HW130653   4.271   4.347  11.034 -0.3605 -0.5347  0.7872
 6340SOL    HW230654   4.132   4.373  11.093  0.6470  0.2852  0.9848
 6341SOL     OW30655   2.362   4.062   8.424 -0.2009  0.2898 -0.6067
 6341SOL    HW130656   2.384   3.976   8.461  1.5628  0.0197 -2.3371
 6341SOL    HW230657   2.452   4.091   8.409 -0.2603  1.1144  0.6378
 6342SOL     OW30658   4.458   2.488   5.616  0.7022 -0.1884  0.6810
 6342SOL    HW130659   4.430   2.467   5.705  0.0864 -1.8149  0.1034
 6342SOL    HW230660   4.375   2.476   5.570  2.2569 -1.7407 -1.7138
 6343SOL     OW30661   0.733   0.986   2.485  0.6404 -0.1374  0.0854
 6343SOL    HW130662   0.714   0.926   2.414 -1.2304  2.2478 -1.4127
 6343SOL    HW230663   0.829   0.994   2.480  0.7641 -0.6083  1.5309
 6344SOL     OW30664   2.803   3.445   3.581 -0.6308  0.2909 -0.1454
 6344SOL    HW130665   2.733   3.485   3.632  0.3634  1.0106  0.6603
 6344SOL    HW230666   2.811   3.511   3.512  0.2044  1.1849  0.8065
 6345SOL     OW30667   0.161   1.539   5.338  0.4965 -0.2634  0.2095
 6345SOL    HW130668   0.148   1.515   5.247  0.6553  0.5407 -0.0205
 6345SOL    HW230669   0.099   1.471   5.366  1.3634 -1.2056 -0.1448
 6346SOL     OW30670   1.380   3.248   7.151  0.0886  0.6116 -0.3206
 6346SOL    HW130671   1.419   3.218   7.234  0.6559  1.0832 -0.4230
 6346SOL    HW230672   1.371   3.166   7.104  0.0049  0.1748  0.4463
 6347SOL     OW30673   2.394   4.342   6.787  0.0150  0.3294  0.8994
 6347SOL    HW130674   2.462   4.303   6.732 -0.3588 -1.4041  1.6623
 6347SOL    HW230675   2.432   4.423   6.821  3.1490 -1.0091  0.5902
 6348SOL     OW30676   4.202   3.757   7.090 -0.0451 -0.5534 -0.4399
 6348SOL    HW130677   4.216   3.852   7.090  1.7565 -0.8027  0.5689
 6348SOL    HW230678   4.289   3.722   7.069  0.2668  0.6896 -1.2340
 6349SOL     OW30679   0.445   3.023  12.294  0.2438  0.1147  0.2074
 6349SOL    HW130680   0.387   3.099  12.301 -0.4212 -0.1910 -2.0202
 6349SOL    HW230681   0.375   2.958  12.289 -1.0747  1.4855  0.5746
 6350SOL     OW30682   3.347   2.519   6.370 -0.1155  0.1004  0.0040
 6350SOL    HW130683   3.360   2.426   6.389 -0.2525  0.2435  0.8056
 6350SOL    HW230684   3.266   2.539   6.418  0.5297 -0.0735  1.1763
 6351SOL     OW30685   4.289   4.472   8.241 -0.0503  0.1996 -0.5770
 6351SOL    HW130686   4.302   4.385   8.203  0.6519  0.0438  0.0111
 6351SOL    HW230687   4.308   4.457   8.334 -1.1650 -1.1134 -0.5640
 6352SOL     OW30688   2.897   4.135   6.729  0.5261  0.6433 -0.1142
 6352SOL    HW130689   2.927   4.049   6.758 -0.5903 -1.2982 -4.7550
 6352SOL    HW230690   2.849   4.166   6.806 -0.7875  1.3387 -1.2078
 6353SOL     OW30691   3.848   3.099   9.244 -0.2549 -0.0788  0.0722
 6353SOL    HW130692   3.774   3.158   9.258 -0.6502 -0.1607 -1.6718
 6353SOL    HW230693   3.924   3.156   9.259  0.4582 -1.1229  0.4369
 6354SOL     OW30694   0.851   3.363  11.521 -0.1522 -0.1612 -0.2116
 6354SOL    HW130695   0.846   3.339  11.428 -1.9107  0.6391 -0.3227
 6354SOL    HW230696   0.898   3.291  11.563  1.3589  1.2160  0.5051
 6355SOL     OW30697   2.059   3.380   2.090 -0.7683  0.4780  0.5034
 6355SOL    HW130698   1.975   3.412   2.055 -1.5055 -1.7339  0.2745
 6355SOL    HW230699   2.122   3.417   2.028  0.7948  0.3337  2.0027
 6356SOL     OW30700   2.308   1.355   2.550  0.2723  0.0787 -0.0515
 6356SOL    HW130701   2.391   1.328   2.591  0.3534  1.9980  1.0462
 6356SOL    HW230702   2.256   1.283   2.587 -0.7732  0.4300 -0.8466
 6357SOL     OW30703   3.643   4.271  12.820 -0.1481  0.5657  0.0310
 6357SOL    HW130704   3.692   4.306  12.895 -0.7025  2.3961 -0.4606
 6357SOL    HW230705   3.594   4.351  12.799  1.8903  1.3697 -1.7928
 6358SOL     OW30706   4.142   0.273   2.726  0.0916 -0.0452  0.2790
 6358SOL    HW130707   4.203   0.200   2.740  1.2792  0.7766 -0.5640
 6358SOL    HW230708   4.056   0.234   2.716  1.6121 -3.4624  0.2906
 6359SOL     OW30709   1.407   0.182   1.750 -0.3136  0.1948  0.0121
 6359SOL    HW130710   1.325   0.147   1.783  0.0273  0.6269  1.2997
 6359SOL    HW230711   1.397   0.274   1.774  3.2186  0.8279 -0.8552
 6360SOL     OW30712   0.341   0.158   5.119  0.1920 -0.1190 -0.2560
 6360SOL    HW130713   0.346   0.253   5.104 -1.2711 -0.0909 -0.5463
 6360SOL    HW230714   0.434   0.135   5.126  0.4889  1.0195 -0.4438
 6361SOL     OW30715   2.397   1.606  17.621  0.0053  0.2227  0.0819
 6361SOL    HW130716   2.422   1.661  17.695 -3.2137 -0.0049  1.3310
 6361SOL    HW230717   2.455   1.632  17.550 -1.9048  1.3840 -1.0582
 6362SOL     OW30718   4.728   2.014   2.364 -0.5142 -0.0332  0.0658
 6362SOL    HW130719   4.691   1.962   2.293  0.3555 -1.8653  0.9474
 6362SOL    HW230720   0.056   1.951   2.393 -2.4874 -1.5905  1.1227
 6363SOL     OW30721   2.668   3.027  15.928  0.3488  0.5068  0.0348
 6363SOL    HW130722   2.752   3.068  15.910 -2.0546  5.1937 -0.4269
 6363SOL    HW230723   2.604   3.094  15.904 -1.0111  0.4539  3.5131
 6364SOL     OW30724   2.328   4.673   5.841  0.3865  0.3776  0.3748
 6364SOL    HW130725   2.348   4.674   5.935  0.3060 -1.0876  0.4128
 6364SOL    HW230726   2.389   4.603   5.815 -0.6411 -0.0537 -0.8661
 6365SOL     OW30727   0.676   1.716   2.540  0.1313 -0.0675 -0.3632
 6365SOL    HW130728   0.612   1.784   2.520 -0.0994 -0.0232  0.5156
 6365SOL    HW230729   0.689   1.722   2.635  1.0970 -2.3571 -0.3437
 6366SOL     OW30730   1.301   2.393  12.974  0.0361  0.0334 -0.6076
 6366SOL    HW130731   1.330   2.404  13.064 -0.2459  0.5493 -0.5775
 6366SOL    HW230732   1.339   2.307  12.956 -0.5310 -0.2455 -0.4609
 6367SOL     OW30733   0.917   4.021  13.773  0.1207 -0.2796 -0.0464
 6367SOL    HW130734   0.937   4.002  13.865  1.5667 -1.8741 -0.7006
 6367SOL    HW230735   0.855   4.094  13.771 -1.2120 -1.4914 -2.1609
 6368SOL     OW30736   2.493   4.324   8.934 -0.3558  0.3003 -0.6291
 6368SOL    HW130737   2.568   4.268   8.953 -2.0316 -2.6959 -2.8944
 6368SOL    HW230738   2.479   4.367   9.019  0.5398 -2.0596  0.7305
 6369SOL     OW30739   3.756   1.877   9.398 -0.4118 -0.1228 -0.1478
 6369SOL    HW130740   3.785   1.821   9.470  1.2698 -0.4711 -1.1041
 6369SOL    HW230741   3.826   1.943   9.396 -0.1562 -0.3204  1.6647
 6370SOL     OW30742   3.732   4.502   2.176  0.5038  0.0497  0.3538
 6370SOL    HW130743   3.677   4.553   2.235  0.3707 -1.2164  1.3150
 6370SOL    HW230744   3.669   4.457   2.120  1.6186 -0.8520 -0.1878
 6371SOL     OW30745   0.567   0.731   4.213 -0.2788 -0.1724  0.7660
 6371SOL    HW130746   0.650   0.753   4.256  0.5195  2.2365 -2.0200
 6371SOL    HW230747   0.563   0.635   4.220 -2.1118 -0.1333  0.2194
 6372SOL     OW30748   1.008   1.043   4.438 -0.7324  0.0484 -0.1720
 6372SOL    HW130749   1.090   1.059   4.485 -1.5927 -1.0128  1.6981
 6372SOL    HW230750   1.025   0.967   4.382  0.4425  0.6621 -0.6334
 6373SOL     OW30751   1.763   3.705   6.399  0.4688  0.0479  0.3511
 6373SOL    HW130752   1.710   3.694   6.321  0.9053 -2.0325  0.3308
 6373SOL    HW230753   1.847   3.682   6.358 -0.0617  1.1986 -1.3245
 6374SOL     OW30754   4.352   1.935   4.733  0.1780 -0.5778 -0.0449
 6374SOL    HW130755   4.441   1.944   4.697 -1.2269  1.0982 -3.0797
 6374SOL    HW230756   4.371   1.922   4.826  0.4041  0.5159  0.0674
 6375SOL     OW30757   4.442   2.528   1.205  0.4678  0.3454 -0.2558
 6375SOL    HW130758   4.360   2.576   1.210 -0.2874 -1.1160  1.4850
 6375SOL    HW230759   4.465   2.538   1.297  0.2771  0.2056 -0.1930
 6376SOL     OW30760   2.238   1.450   3.798 -0.2914 -0.2715 -0.1461
 6376SOL    HW130761   2.143   1.442   3.810  0.1960 -4.6870  0.9638
 6376SOL    HW230762   2.271   1.381   3.856 -2.1179 -0.4977  0.6135
 6377SOL     OW30763   0.987   4.718   6.823  0.6253  0.1785 -0.3459
 6377SOL    HW130764   1.005   0.064   6.865 -1.0750  1.0913 -1.4180
 6377SOL    HW230765   1.058   4.700   6.761  2.8027  1.0575  1.9143
 6378SOL     OW30766   4.016   3.874   9.883  0.1580  0.0804  0.0518
 6378SOL    HW130767   4.022   3.879   9.787  0.6463 -0.3485  0.0616
 6378SOL    HW230768   4.095   3.823   9.898  0.6060  1.0226  0.9324
 6379SOL     OW30769   1.976   2.488  13.692 -0.3011  0.1448 -0.3837
 6379SOL    HW130770   1.929   2.411  13.660  1.7081 -1.4719  0.5593
 6379SOL    HW230771   2.016   2.535  13.619  0.1410  1.2382  0.5591
 6380SOL     OW30772   0.389   3.125  17.388 -0.2101  0.0491 -0.3432
 6380SOL    HW130773   0.335   3.046  17.386 -0.3860  0.2106 -1.7548
 6380SOL    HW230774   0.318   3.184  17.416 -0.0630  0.9351 -1.8431
 6381SOL     OW30775   2.369   3.595  11.571  0.5429 -0.2256 -0.2780
 6381SOL    HW130776   2.417   3.518  11.601  0.6078 -0.1341 -0.1460
 6381SOL    HW230777   2.431   3.659  11.605  0.0990  0.5468 -0.9346
 6382SOL     OW30778   0.344   2.555   1.757 -0.6445  0.2266 -0.0057
 6382SOL    HW130779   0.397   2.625   1.719  0.4470 -1.2219 -1.1586
 6382SOL    HW230780   0.259   2.596   1.741 -1.6174 -2.8129 -2.6215
 6383SOL     OW30781   3.893   0.982   9.118  0.2778 -0.1825  0.2793
 6383SOL    HW130782   3.955   1.046   9.152  0.6779  0.7428 -2.1836
 6383SOL    HW230783   3.949   0.927   9.062  1.2267  1.2306 -0.1503
 6384SOL     OW30784   2.101   3.042  10.049  0.1670  0.1440 -0.1954
 6384SOL    HW130785   2.069   3.045   9.959 -1.4386  1.6520  0.4150
 6384SOL    HW230786   2.101   2.946  10.044  1.0409  0.0469  1.6383
 6385SOL     OW30787   1.137   1.621   4.661  0.0560 -0.2033 -0.0179
 6385SOL    HW130788   1.187   1.681   4.605 -2.9822  1.1356 -1.2842
 6385SOL    HW230789   1.092   1.559   4.604 -0.5115  1.4344 -1.3549
 6386SOL     OW30790   1.595   4.553  13.732 -0.3889  0.2060  0.2217
 6386SOL    HW130791   1.660   4.485  13.747  2.1428  2.6283  0.2986
 6386SOL    HW230792   1.524   4.501  13.694 -0.3143  0.0340  0.3186
 6387SOL     OW30793   2.656   3.934   7.381 -0.2407  0.4622 -0.3806
 6387SOL    HW130794   2.626   3.885   7.458 -1.8937  0.9745 -0.7025
 6387SOL    HW230795   2.606   4.015   7.390 -2.3800 -0.8888 -0.0592
 6388SOL     OW30796   3.073   1.823   4.354  0.0603 -0.0754  0.0761
 6388SOL    HW130797   3.082   1.863   4.268 -2.0609 -0.0447 -0.1154
 6388SOL    HW230798   3.140   1.756   4.344  0.7326  0.3610  1.5425
 6389SOL     OW30799   4.186   2.535   6.612 -0.3109 -0.1290  0.1683
 6389SOL    HW130800   4.117   2.532   6.545 -0.1685 -0.3585  0.0341
 6389SOL    HW230801   4.170   2.452   6.655  1.8953 -0.8654 -0.4439
 6390SOL     OW30802   2.109   3.409  11.397  0.4939 -0.3006  0.0621
 6390SOL    HW130803   2.154   3.347  11.455 -2.9470 -0.6110  2.3647
 6390SOL    HW230804   2.095   3.478  11.462 -0.8016 -0.8365  0.3491
 6391SOL     OW30805   4.313   2.173   4.495  0.1455  0.1945  0.3274
 6391SOL    HW130806   4.346   2.105   4.554 -0.8800 -1.2742 -0.8205
 6391SOL    HW230807   4.223   2.151   4.470 -0.2202  2.1969 -0.0947
 6392SOL     OW30808   1.838   2.588   4.056  0.0108 -0.2378 -0.0407
 6392SOL    HW130809   1.854   2.493   4.056  2.2601  0.1474 -0.4234
 6392SOL    HW230810   1.788   2.599   3.975  2.6199  0.3591 -1.5880
 6393SOL     OW30811   1.619   0.854   4.362  0.2907 -0.1584 -0.5926
 6393SOL    HW130812   1.563   0.931   4.353  0.2097 -0.1521  0.0010
 6393SOL    HW230813   1.584   0.820   4.445 -0.0942 -0.9216 -1.0604
 6394SOL     OW30814   1.278   3.200   2.063  0.6936 -0.0637  0.4535
 6394SOL    HW130815   1.313   3.231   1.979 -0.9110  0.4863 -0.0279
 6394SOL    HW230816   1.356   3.202   2.117  0.0353 -5.6586  1.5667
 6395SOL     OW30817   1.250   3.909   6.502  0.2997 -0.4542  0.3906
 6395SOL    HW130818   1.242   3.821   6.466  1.0127 -0.1847 -0.4152
 6395SOL    HW230819   1.156   3.928   6.493  0.4445  0.2050  0.2920
 6396SOL     OW30820   4.049   0.809  11.408  0.2008 -0.0591  0.7550
 6396SOL    HW130821   3.955   0.824  11.421 -0.5235 -2.6632 -1.2352
 6396SOL    HW230822   4.082   0.800  11.497  0.2201 -1.0231  0.6572
 6397SOL     OW30823   1.720   0.173   4.347 -0.1351 -0.2732 -0.0783
 6397SOL    HW130824   1.779   0.132   4.410  0.4812  1.1732  0.2796
 6397SOL    HW230825   1.718   0.259   4.389  2.4365 -1.8431  3.2162
 6398SOL     OW30826   2.370   3.814  14.241  0.3215 -0.5459  0.5106
 6398SOL    HW130827   2.385   3.727  14.204  1.0634  0.7369 -2.2518
 6398SOL    HW230828   2.443   3.818  14.302  2.0888  0.0931 -1.6417
 6399SOL     OW30829   2.919   3.183   3.827  0.7023  0.7344 -0.4493
 6399SOL    HW130830   2.860   3.256   3.844 -0.1680  0.1944 -1.1481
 6399SOL    HW230831   2.938   3.184   3.733 -0.4439  1.0910 -0.6719
 6400SOL     OW30832   3.798   3.670   5.053  0.6503 -0.2648 -0.7763
 6400SOL    HW130833   3.826   3.761   5.063  1.2537 -0.4954 -0.3461
 6400SOL    HW230834   3.752   3.672   4.970 -1.4760  3.3603  0.4748
 6401SOL     OW30835   0.554   3.544   7.851  0.2271 -0.0350 -0.1569
 6401SOL    HW130836   0.642   3.511   7.871  0.1469  1.0871  2.1062
 6401SOL    HW230837   0.545   3.617   7.912  0.0917 -1.5961  1.6982
 6402SOL     OW30838   2.218   4.465  10.847  0.1836  0.0748 -0.0237
 6402SOL    HW130839   2.226   4.522  10.771  2.1104  1.1819  1.0047
 6402SOL    HW230840   2.152   4.405  10.812 -0.4148  0.1756  0.9248
 6403SOL     OW30841   1.214   4.238   9.847  0.3590  0.7015 -0.2310
 6403SOL    HW130842   1.162   4.216   9.770  0.4050  0.2874 -0.1435
 6403SOL    HW230843   1.253   4.319   9.814 -2.0589  1.1435 -2.0124
 6404SOL     OW30844   1.982   0.869   3.901 -0.5665 -0.2194  0.9484
 6404SOL    HW130845   1.915   0.929   3.933 -2.5695 -1.7939 -0.2948
 6404SOL    HW230846   1.927   0.810   3.849  0.3443  0.6557 -1.0391
 6405SOL     OW30847   1.489   1.594   1.009  0.0059  0.6313 -0.0799
 6405SOL    HW130848   1.401   1.569   1.036  0.8029 -1.6616  0.4625
 6405SOL    HW230849   1.500   1.688   1.024  3.1608  0.1640  0.6767
 6406SOL     OW30850   1.784   0.284  12.288  0.5489  0.4002 -0.2117
 6406SOL    HW130851   1.875   0.312  12.285  1.1168 -1.5196 -0.9761
 6406SOL    HW230852   1.763   0.282  12.381  1.0428  0.7901 -0.0946
 6407SOL     OW30853   0.639   1.536   4.013 -0.3119  0.4744 -0.2578
 6407SOL    HW130854   0.667   1.621   3.977 -1.4722  0.8719 -0.2156
 6407SOL    HW230855   0.575   1.572   4.073  0.2973 -0.9218  1.2150
 6408SOL     OW30856   2.476   0.932   2.634  0.2141  0.0818  0.3331
 6408SOL    HW130857   2.409   0.868   2.657 -0.5912  1.1687  1.0166
 6408SOL    HW230858   2.496   0.969   2.720  0.7277 -0.2859  0.3726
 6409SOL     OW30859   3.702   0.640  11.263 -0.0670 -0.0166 -0.0264
 6409SOL    HW130860   3.723   0.675  11.350 -2.1901 -0.9128  0.8419
 6409SOL    HW230861   3.624   0.691  11.242 -0.6934 -0.7573  0.5196
 6410SOL     OW30862   0.347   0.436   5.047  0.4517 -0.2651  0.1506
 6410SOL    HW130863   0.259   0.454   5.016  0.4569 -1.9914 -0.8882
 6410SOL    HW230864   0.365   0.499   5.117 -1.9804  1.9854 -1.2510
 6411SOL     OW30865   2.840   1.511  16.930 -0.1070 -0.1311  0.2057
 6411SOL    HW130866   2.903   1.556  16.874 -0.7155  0.5025  0.0355
 6411SOL    HW230867   2.784   1.465  16.867 -0.1937  1.1350 -0.6445
 6412SOL     OW30868   2.239   4.043  17.150 -0.0236 -0.0545  0.3311
 6412SOL    HW130869   2.290   4.114  17.111 -1.2619  0.9616  0.5544
 6412SOL    HW230870   2.177   4.022  17.081 -0.6718  0.0126  0.8915
 6413SOL     OW30871   1.109   4.562   3.262  0.0199 -0.5075 -0.1669
 6413SOL    HW130872   1.118   4.469   3.242 -3.6019 -0.6203 -1.1369
 6413SOL    HW230873   1.182   4.584   3.320 -1.6485  0.2087  1.6744
 6414SOL     OW30874   0.430   4.024   8.123 -0.0545  0.0313 -0.3000
 6414SOL    HW130875   0.501   4.089   8.125  0.5217 -0.5581 -1.5770
 6414SOL    HW230876   0.358   4.075   8.160  1.2617  1.1801  0.7024
 6415SOL     OW30877   1.098   0.779   4.396 -0.0978 -0.0291  0.2772
 6415SOL    HW130878   1.059   0.700   4.359  0.8752 -0.7748  0.8754
 6415SOL    HW230879   1.172   0.789   4.337  0.1036 -1.2066  0.3330
 6416SOL     OW30880   1.193   1.407  12.424  0.5925  0.0270  0.1156
 6416SOL    HW130881   1.164   1.496  12.442 -1.6705 -0.7903  0.5429
 6416SOL    HW230882   1.185   1.404  12.329 -2.4662 -1.1707  0.4166
 6417SOL     OW30883   1.060   3.178  12.050 -0.0234  0.8488 -0.0153
 6417SOL    HW130884   1.045   3.194  12.143  2.0894 -2.1107  0.8437
 6417SOL    HW230885   1.128   3.110  12.054  2.0865  2.8948 -1.6506
 6418SOL     OW30886   1.099   3.899   5.821 -0.4474  0.2471  0.2703
 6418SOL    HW130887   1.025   3.891   5.882 -1.0257  1.2225 -0.3172
 6418SOL    HW230888   1.060   3.906   5.734 -1.0429 -0.3733  0.4830
 6419SOL     OW30889   2.940   3.244   9.440 -0.3195  0.7116  0.1236
 6419SOL    HW130890   3.005   3.271   9.375  0.4553  0.6118  0.8726
 6419SOL    HW230891   2.987   3.252   9.523 -0.5394  1.4097  0.1744
 6420SOL     OW30892   0.012   3.415   7.834 -0.5704  0.2223  0.2184
 6420SOL    HW130893   4.669   3.465   7.819  0.2525  1.6076  0.4163
 6420SOL    HW230894   4.708   3.329   7.840  0.8685 -0.6407 -2.0142
 6421SOL     OW30895   1.784   3.109   4.722 -0.2990  0.0893 -0.2283
 6421SOL    HW130896   1.862   3.093   4.775  0.1972  1.6830 -0.4594
 6421SOL    HW230897   1.822   3.123   4.635  0.1533  0.5552  0.0397
 6422SOL     OW30898   1.007   3.517   6.729 -0.8376 -0.1152 -0.0042
 6422SOL    HW130899   1.035   3.563   6.807 -0.6134  2.2853 -1.5020
 6422SOL    HW230900   1.090   3.480   6.699 -1.2764  0.7994 -2.3893
 6423SOL     OW30901   4.199   4.414  11.353 -0.1169 -0.9777 -0.1352
 6423SOL    HW130902   4.146   4.484  11.314 -0.7777 -1.4054 -0.0153
 6423SOL    HW230903   4.145   4.398  11.430  0.4899 -1.3837  0.2025
 6424SOL     OW30904   3.300   3.746   2.249 -0.0819 -0.5028  0.1679
 6424SOL    HW130905   3.319   3.709   2.335 -1.8961  0.9369  1.1655
 6424SOL    HW230906   3.300   3.676   2.184 -0.0806 -2.6409  2.4835
 6425SOL     OW30907   1.983   4.536   8.348  0.1312 -0.4290 -0.1399
 6425SOL    HW130908   1.899   4.491   8.360 -2.5331  4.2141 -1.4900
 6425SOL    HW230909   2.024   4.469   8.293  0.3896 -0.5219  0.1652
 6426SOL     OW30910   1.091   4.103  14.846 -0.3436 -0.0734 -0.0585
 6426SOL    HW130911   1.067   4.057  14.765  1.9902 -3.1688  0.9934
 6426SOL    HW230912   1.186   4.110  14.839  0.0208 -1.6919  3.0251
 6427SOL     OW30913   1.687   2.520   6.124  0.0018 -0.1188 -0.0137
 6427SOL    HW130914   1.688   2.476   6.209 -1.0295  1.0033  0.5956
 6427SOL    HW230915   1.754   2.473   6.075  1.2552  2.8454 -1.1836
 6428SOL     OW30916   0.822   0.509   4.105  0.0258 -1.5196 -0.3297
 6428SOL    HW130917   0.731   0.502   4.132  0.7303  1.8228  3.0123
 6428SOL    HW230918   0.859   0.462   4.180 -0.1875  1.8997  1.9365
 6429SOL     OW30919   1.155   4.345   6.416 -0.0600  0.3009  0.6332
 6429SOL    HW130920   1.090   4.385   6.359 -0.8383 -1.8523  0.0214
 6429SOL    HW230921   1.234   4.357   6.363  0.5672  0.2892  1.5682
 6430SOL     OW30922   1.636   2.195   4.174 -0.2046  0.4063  0.8902
 6430SOL    HW130923   1.629   2.290   4.184 -1.1443  0.1934  2.2789
 6430SOL    HW230924   1.548   2.171   4.145 -0.3323  2.2193 -0.1981
 6431SOL     OW30925   4.265   2.330   7.625  0.0156  0.1902  0.2478
 6431SOL    HW130926   4.205   2.325   7.550  0.1000 -3.3079  0.4175
 6431SOL    HW230927   4.212   2.307   7.701 -0.2242  0.0608  0.0440
 6432SOL     OW30928   0.002   3.375   1.342  0.2946  0.0439 -0.8677
 6432SOL    HW130929   4.668   3.390   1.404 -0.2100  0.7828 -1.6177
 6432SOL    HW230930   0.068   3.440   1.366 -0.0945 -0.2571  1.0510
 6433SOL     OW30931   0.467   3.730   6.963 -0.5827 -0.3488 -0.7581
 6433SOL    HW130932   0.525   3.663   6.927 -0.4766  0.9238 -2.9805
 6433SOL    HW230933   0.482   3.736   7.057 -2.2010 -1.5898 -0.4158
 6434SOL     OW30934   0.414   0.326   2.918 -0.1824  0.2809 -0.6130
 6434SOL    HW130935   0.366   0.270   2.857  0.0514  0.2527 -0.7713
 6434SOL    HW230936   0.458   0.382   2.854  0.7684 -1.0707 -1.1564
 6435SOL     OW30937   3.514   1.540   3.637  0.1719  0.0727  0.5698
 6435SOL    HW130938   3.594   1.490   3.654  0.5451 -0.1467 -1.8261
 6435SOL    HW230939   3.480   1.550   3.726 -1.0872  0.9671 -0.0143
 6436SOL     OW30940   3.790   4.034  12.446  0.2096 -0.4008  0.6834
 6436SOL    HW130941   3.867   4.089  12.462 -0.0426  0.1039  0.1651
 6436SOL    HW230942   3.738   4.062  12.521 -1.3558 -4.6720  1.1997
 6437SOL     OW30943   1.717   3.660   8.627  0.1103 -0.0937 -0.2671
 6437SOL    HW130944   1.765   3.655   8.710 -0.2640  0.2249 -0.0329
 6437SOL    HW230945   1.750   3.582   8.582 -0.2072 -0.1260 -0.4487
 6438SOL     OW30946   2.383   3.526   0.771 -0.5250 -0.0350 -0.3414
 6438SOL    HW130947   2.419   3.448   0.814  0.6901  1.4792  1.3329
 6438SOL    HW230948   2.434   3.601   0.801  1.9070 -1.7235 -0.2580
 6439SOL     OW30949   2.588   0.552   8.170 -0.4622  0.4915  0.4017
 6439SOL    HW130950   2.535   0.516   8.099  1.5215  0.7830 -1.2569
 6439SOL    HW230951   2.554   0.517   8.252  0.1060  0.9181  0.8146
 6440SOL     OW30952   2.617   2.604  13.570  0.2039  0.4075 -0.0045
 6440SOL    HW130953   2.617   2.593  13.665 -2.7231 -2.5173 -0.3377
 6440SOL    HW230954   2.685   2.671  13.568  1.4074 -0.8482 -0.9255
 6441SOL     OW30955   4.538   3.500   8.895 -0.0510 -0.5605 -0.0310
 6441SOL    HW130956   4.563   3.420   8.849 -0.7062  0.6115 -2.4104
 6441SOL    HW230957   4.443   3.495   8.893 -0.1404  0.6435  1.2323
 6442SOL     OW30958   2.609   3.794  16.545 -0.0143  0.0035  0.3200
 6442SOL    HW130959   2.648   3.881  16.549 -0.3819  0.3562 -3.5047
 6442SOL    HW230960   2.551   3.787  16.468 -1.2631  0.1380  1.2476
 6443SOL     OW30961   3.190   3.306   2.292 -0.0169  0.1640 -0.1378
 6443SOL    HW130962   3.204   3.387   2.244  0.3827 -1.0538 -2.0797
 6443SOL    HW230963   3.156   3.340   2.375  1.4108  1.1523  0.0328
 6444SOL     OW30964   0.735   2.565   4.156  0.1660 -0.1298 -0.1976
 6444SOL    HW130965   0.721   2.660   4.161  1.1817  0.0161 -0.1792
 6444SOL    HW230966   0.672   2.536   4.222 -0.1745  0.5307 -0.2280
 6445SOL     OW30967   0.008   0.396   9.800  0.3288  0.1870  0.0899
 6445SOL    HW130968   0.031   0.303   9.808  0.3802  0.2904  1.1354
 6445SOL    HW230969   0.097   0.428   9.787 -0.2319  1.1976 -1.1940
 6446SOL     OW30970   2.780   2.786   2.572 -0.2596 -0.2934 -0.5696
 6446SOL    HW130971   2.733   2.862   2.540 -0.2868  0.1649  0.5391
 6446SOL    HW230972   2.869   2.818   2.587 -0.7763  0.2550  1.4376
 6447SOL     OW30973   0.175   0.781   5.326  0.3939  0.0114  0.5504
 6447SOL    HW130974   0.139   0.811   5.410  1.3330  1.7262  0.3580
 6447SOL    HW230975   0.097   0.743   5.286  0.5310 -1.4016  1.6337
 6448SOL     OW30976   0.494   4.493  12.773  0.3856  0.2591 -0.4297
 6448SOL    HW130977   0.569   4.434  12.777  1.8853  2.2329  0.4618
 6448SOL    HW230978   0.530   4.573  12.812  0.1105 -0.7419  1.8950
 6449SOL     OW30979   0.021   1.578  13.716 -0.2070  0.1221 -0.4454
 6449SOL    HW130980   4.671   1.571  13.756  0.0812 -0.3984  0.1017
 6449SOL    HW230981   0.042   1.504  13.659 -1.1814 -0.6712  0.2063
 6450SOL     OW30982   1.643   1.171   3.178  0.2286 -0.1420 -0.2588
 6450SOL    HW130983   1.645   1.240   3.111  1.9315 -1.5232 -1.6222
 6450SOL    HW230984   1.727   1.177   3.224  0.1795 -0.6282 -0.1098
 6451SOL     OW30985   2.371   1.045   5.900  0.7608  0.2614 -0.0388
 6451SOL    HW130986   2.449   1.099   5.885 -0.2223  2.2234  1.9276
 6451SOL    HW230987   2.307   1.103   5.860 -0.2544 -1.5248 -0.9958
 6452SOL     OW30988   1.097   2.557  17.047  0.3201  0.4074  0.1781
 6452SOL    HW130989   1.034   2.578  17.116 -1.5513 -1.3384 -0.9869
 6452SOL    HW230990   1.173   2.610  17.071 -0.8151  1.0161  2.4898
 6453SOL     OW30991   0.531   2.202   1.901 -0.2951 -0.6119  0.0707
 6453SOL    HW130992   0.465   2.185   1.835 -1.7703 -1.0852  1.6600
 6453SOL    HW230993   0.547   2.112   1.930  1.4183 -0.9080 -1.8124
 6454SOL     OW30994   4.510   3.983   0.315  0.8109 -0.0293 -0.4569
 6454SOL    HW130995   4.577   4.048   0.337 -1.9005  2.2526  1.0328
 6454SOL    HW230996   4.487   4.012   0.226  0.9236  1.8991  0.1341
 6455SOL     OW30997   0.433   0.084  12.345  0.0273 -0.1493  0.6703
 6455SOL    HW130998   0.389   0.136  12.278  2.1226 -0.1736 -0.7699
 6455SOL    HW230999   0.486   0.027  12.288  1.9335  1.1812  1.1082
 6456SOL     OW31000   3.337   4.026   4.343  0.0324 -0.2961 -0.0252
 6456SOL    HW131001   3.245   4.008   4.363 -0.6841  1.3365 -1.8171
 6456SOL    HW231002   3.378   3.999   4.425  1.6579  0.5010 -0.5729
 6457SOL     OW31003   1.872   2.190  11.752  0.0953 -0.3476 -0.6215
 6457SOL    HW131004   1.883   2.096  11.737  0.3645 -0.2383 -1.1349
 6457SOL    HW231005   1.892   2.232  11.668  1.3530 -1.4103 -0.8588
 6458SOL     OW31006   4.491   1.301   9.321  0.0089  0.6716  0.0922
 6458SOL    HW131007   4.537   1.337   9.397 -1.6293  1.4890  0.6972
 6458SOL    HW231008   4.562   1.244   9.291  0.2120  0.8380  0.2615
 6459SOL     OW31009   4.574   0.569  13.596  0.5479  0.0570 -0.1698
 6459SOL    HW131010   4.484   0.557  13.568  1.0023 -0.6578 -1.3324
 6459SOL    HW231011   4.608   0.485  13.566  0.5025  0.2570 -0.7819
 6460SOL     OW31012   3.882   4.715   8.930  0.1429  0.0094 -0.0556
 6460SOL    HW131013   3.811   0.037   8.953  1.6105  0.7345  2.6007
 6460SOL    HW231014   3.854   4.626   8.950  1.2649 -0.8040 -2.0925
 6461SOL     OW31015   0.818   0.205   6.878  0.0714  0.0211 -0.1940
 6461SOL    HW131016   0.769   0.175   6.801  0.6192  0.1844 -0.6068
 6461SOL    HW231017   0.811   0.298   6.857 -4.3816  0.1039  1.6737
 6462SOL     OW31018   2.578   2.856  13.830  0.2112  0.2746  0.0336
 6462SOL    HW131019   2.488   2.828  13.818  1.1471 -2.4854 -0.4205
 6462SOL    HW231020   2.625   2.774  13.842 -0.4134 -0.1932 -0.7506
 6463SOL     OW31021   0.547   1.971   9.418  1.0994 -0.0200 -0.5452
 6463SOL    HW131022   0.525   2.059   9.449  1.0608 -0.0349 -0.5302
 6463SOL    HW231023   0.468   1.918   9.430  1.8555 -1.0589 -0.2094
 6464SOL     OW31024   3.237   3.200   5.162 -0.5801 -0.0326  0.2391
 6464SOL    HW131025   3.266   3.145   5.089 -0.8937 -1.6084  1.3121
 6464SOL    HW231026   3.273   3.145   5.232  1.6071 -0.5762 -1.3049
 6465SOL     OW31027   1.549   2.387   5.731  0.5488  0.1350 -0.0192
 6465SOL    HW131028   1.641   2.380   5.704  0.6517 -1.9254  0.8781
 6465SOL    HW231029   1.516   2.452   5.669 -1.1088 -1.1444 -0.4595
 6466SOL     OW31030   4.539   2.990   6.539  0.4589  0.8525 -0.0750
 6466SOL    HW131031   4.561   2.944   6.620  0.2255 -0.2175 -0.6218
 6466SOL    HW231032   4.609   2.948   6.489  0.0685 -0.0489  0.1367
 6467SOL     OW31033   0.090   3.174   1.639 -0.0612  0.2839 -0.3108
 6467SOL    HW131034   0.026   3.129   1.584  0.3894  0.6833 -1.1721
 6467SOL    HW231035   0.111   3.258   1.597 -0.9987 -0.8964 -3.1627
 6468SOL     OW31036   1.895   3.608   9.245 -0.0893  0.1349  0.0280
 6468SOL    HW131037   1.916   3.702   9.238 -0.7144  0.1803 -1.1220
 6468SOL    HW231038   1.977   3.592   9.293  1.4077  3.2484 -1.4593
 6469SOL     OW31039   2.123   0.901   2.555 -0.5187  0.1162 -0.5148
 6469SOL    HW131040   2.208   0.860   2.567 -1.1347 -0.7652  0.7839
 6469SOL    HW231041   2.068   0.830   2.587 -0.6415  0.2981 -0.3197
 6470SOL     OW31042   2.000   0.797  11.388 -0.4376 -0.1274 -0.0345
 6470SOL    HW131043   2.079   0.850  11.387 -0.3153 -0.2458  2.4231
 6470SOL    HW231044   1.948   0.839  11.457  2.0601 -0.7245  2.1710
 6471SOL     OW31045   3.867   1.194   5.229  0.4887  0.3863 -0.6339
 6471SOL    HW131046   3.941   1.240   5.268  1.5031 -1.2616 -0.6201
 6471SOL    HW231047   3.794   1.237   5.274  2.0999  0.6739  1.6910
 6472SOL     OW31048   4.129   2.074   6.851 -0.0624  0.4017  0.3294
 6472SOL    HW131049   4.205   2.062   6.794 -0.2770  1.1189 -0.1105
 6472SOL    HW231050   4.114   2.168   6.837 -3.1943 -0.3273 -0.9988
 6473SOL     OW31051   0.271   1.414   3.067  0.0233  0.0565 -0.3437
 6473SOL    HW131052   0.218   1.384   2.993 -2.6273 -0.9499  1.9593
 6473SOL    HW231053   0.245   1.506   3.065 -0.5684 -0.1024  0.2426
 6474SOL     OW31054   3.653   3.598   3.716  0.3936  0.4392  0.2387
 6474SOL    HW131055   3.656   3.606   3.811  1.3170  0.2547  0.2245
 6474SOL    HW231056   3.686   3.510   3.697  3.4713  1.0318  2.7190
 6475SOL     OW31057   0.538   2.579   2.219  0.0057  0.3878  0.5000
 6475SOL    HW131058   0.521   2.661   2.173  1.5719  0.1737 -0.4350
 6475SOL    HW231059   0.531   2.528   2.138 -0.2027  1.5518 -0.2131
 6476SOL     OW31060   4.527   1.513   0.006  0.6197 -0.2107 -0.4784
 6476SOL    HW131061   4.499   1.571  17.682  1.0125  0.4115 -0.1154
 6476SOL    HW231062   4.621   1.514  17.736  0.6357 -2.7356 -0.6772
 6477SOL     OW31063   0.588   0.798   9.932  0.7837  0.0880  0.9727
 6477SOL    HW131064   0.504   0.820   9.973  0.7431  2.5931 -0.4497
 6477SOL    HW231065   0.606   0.711   9.966  2.0944  0.4585  1.2225
 6478SOL     OW31066   3.866   1.222  12.463 -0.4935  0.4999  0.0765
 6478SOL    HW131067   3.952   1.219  12.422 -0.3306 -0.1153  0.4692
 6478SOL    HW231068   3.812   1.282  12.411  0.4840  1.2551 -0.0641
 6479SOL     OW31069   0.818   2.719  11.841 -0.1378 -0.6260  0.1745
 6479SOL    HW131070   0.841   2.771  11.764  0.9310 -0.7726  0.4019
 6479SOL    HW231071   0.891   2.658  11.845 -0.7877 -1.5639 -2.2499
 6480SOL     OW31072   0.354   1.039   5.370  0.6267 -0.4016 -0.4371
 6480SOL    HW131073   0.287   1.080   5.424  1.1978 -0.7667  0.5637
 6480SOL    HW231074   0.314   0.952   5.364 -0.6593 -0.0384  2.6153
 6481SOL     OW31075   2.573   1.737  16.881 -0.2303 -0.3015  0.5272
 6481SOL    HW131076   2.593   1.770  16.793  2.8095  1.5983  1.9108
 6481SOL    HW231077   2.572   1.642  16.873  0.3195 -0.2550 -0.1327
 6482SOL     OW31078   1.818   1.867   1.068 -0.0011  0.4178 -0.2248
 6482SOL    HW131079   1.880   1.832   1.132  1.0951  1.1064 -0.9156
 6482SOL    HW231080   1.847   1.836   0.982 -0.9568  0.7416 -0.6608
 6483SOL     OW31081   2.188   2.710  10.443  0.0404 -0.6113  0.0216
 6483SOL    HW131082   2.172   2.804  10.436  0.3898 -0.5129  0.4753
 6483SOL    HW231083   2.221   2.701  10.354  1.4330 -0.5960  0.5310
 6484SOL     OW31084   4.664   4.566   2.020 -0.4018  0.1410 -0.2028
 6484SOL    HW131085   0.013   4.574   1.979  1.2213 -1.0937  2.9510
 6484SOL    HW231086   4.632   4.656   2.020 -4.0902 -1.1837 -0.7734
 6485SOL     OW31087   1.927   4.362   4.924  0.0730 -0.3311  0.0526
 6485SOL    HW131088   1.938   4.402   4.837 -1.1811 -0.8927 -0.3662
 6485SOL    HW231089   1.832   4.371   4.933  0.3340  0.6712  1.6835
 6486SOL     OW31090   4.107   4.588  16.101 -0.4850  0.0202 -0.3275
 6486SOL    HW131091   4.041   4.521  16.084  0.6883 -1.6680  1.9176
 6486SOL    HW231092   4.057   4.670  16.107 -2.2348 -1.1862  1.6483
 6487SOL     OW31093   3.026   3.019   2.840  0.5304  0.6638 -0.2898
 6487SOL    HW131094   3.114   2.988   2.818  0.2881 -2.2240  2.8120
 6487SOL    HW231095   3.003   3.062   2.758 -2.1416 -3.2585 -1.6299
 6488SOL     OW31096   3.765   3.852   4.740  0.2564 -0.4357 -0.9996
 6488SOL    HW131097   3.747   3.824   4.650  1.5660 -2.5839 -0.5859
 6488SOL    HW231098   3.851   3.814   4.758 -0.1296 -1.2637 -0.8721
 6489SOL     OW31099   2.186   0.106  11.620 -0.0406 -0.0366  0.7211
 6489SOL    HW131100   2.146   0.052  11.688 -0.7126 -1.1656 -0.5870
 6489SOL    HW231101   2.105   0.148  11.589  0.8733  0.1506 -1.4169
 6490SOL     OW31102   2.287   1.209   3.947  0.4855  0.5294  0.7926
 6490SOL    HW131103   2.243   1.128   3.919  0.8076  1.0805 -1.2890
 6490SOL    HW231104   2.273   1.220   4.041  0.5382 -0.2786  0.8974
 6491SOL     OW31105   3.263   3.305  16.775  0.4244  0.3596 -0.4915
 6491SOL    HW131106   3.190   3.248  16.798  1.2181 -0.3160  0.2975
 6491SOL    HW231107   3.315   3.310  16.854 -1.2061  0.7408  0.5590
 6492SOL     OW31108   0.018   4.601   0.656 -0.4340  0.4495  0.0583
 6492SOL    HW131109   4.692   4.530   0.648  1.7304 -1.3492 -0.9214
 6492SOL    HW231110   0.086   4.569   0.715 -1.6719 -0.3734  1.0613
 6493SOL     OW31111   1.343   4.088  16.380 -0.0105 -0.1108  0.5649
 6493SOL    HW131112   1.414   4.065  16.440 -0.5774 -0.3036  1.1525
 6493SOL    HW231113   1.283   4.016  16.397  0.4986 -0.2400  1.7976
 6494SOL     OW31114   4.176   3.963  15.205  0.2259 -0.1645  0.2155
 6494SOL    HW131115   4.189   4.019  15.129 -1.1069  0.8835  0.7691
 6494SOL    HW231116   4.123   4.023  15.258 -0.4122 -1.5160  1.1028
 6495SOL     OW31117   0.964   1.636   6.989  0.3593  0.8615 -0.1512
 6495SOL    HW131118   1.060   1.628   6.990  0.1802 -1.0904  1.0097
 6495SOL    HW231119   0.931   1.600   7.071  2.3539  3.1137  1.6671
 6496SOL     OW31120   4.180   4.094  11.837  0.4898  0.6838  0.4809
 6496SOL    HW131121   4.224   4.116  11.919 -1.1591  0.9902  1.2861
 6496SOL    HW231122   4.218   4.008  11.820  1.3326  1.2317 -0.3804
 6497SOL     OW31123   2.517   1.260  12.901  0.0224  0.1614 -0.2874
 6497SOL    HW131124   2.542   1.239  12.810  1.9927 -0.8011  0.4692
 6497SOL    HW231125   2.592   1.221  12.945 -0.3267 -0.5598 -0.3274
 6498SOL     OW31126   4.177   1.621   1.415  0.1368  0.1469 -0.2820
 6498SOL    HW131127   4.216   1.708   1.423 -1.2138  0.7646 -0.3390
 6498SOL    HW231128   4.143   1.615   1.326  0.9221 -0.3590 -0.5456
 6499SOL     OW31129   1.369   3.334   2.864 -0.5374  0.5847 -0.1534
 6499SOL    HW131130   1.325   3.282   2.930  0.0094 -0.6587 -0.7725
 6499SOL    HW231131   1.303   3.375   2.808  0.2039  0.3654 -1.1891
 6500SOL     OW31132   0.388   4.221  14.902  0.1873  0.1988  0.3639
 6500SOL    HW131133   0.465   4.278  14.906  2.2320 -2.6492  1.4309
 6500SOL    HW231134   0.419   4.140  14.862  0.6455  1.1694 -1.2484
 6501SOL     OW31135   1.778   1.356   7.315  0.0789 -0.2487  0.1188
 6501SOL    HW131136   1.772   1.317   7.403  0.6777 -0.8103 -0.0886
 6501SOL    HW231137   1.686   1.374   7.296  0.2351 -1.2278 -1.5063
 6502SOL     OW31138   3.685   3.688   3.028  0.4351  0.4949  0.1089
 6502SOL    HW131139   3.706   3.595   3.042 -1.5373  0.3577  2.0987
 6502SOL    HW231140   3.721   3.726   3.108  0.6153 -3.2809  1.8692
 6503SOL     OW31141   1.964   2.081   3.935 -0.2653 -0.4363 -0.5159
 6503SOL    HW131142   1.947   2.164   3.979  1.3653 -0.1382 -0.4420
 6503SOL    HW231143   1.947   2.015   4.002 -1.0003 -1.6546 -1.9102
 6504SOL     OW31144   4.235   4.218  16.199 -0.3513  0.1351  0.7341
 6504SOL    HW131145   4.328   4.203  16.213 -0.3746  1.3748  2.2733
 6504SOL    HW231146   4.211   4.126  16.187  0.5482 -0.1678  1.2314
 6505SOL     OW31147   0.806   1.879  15.502 -0.6674  0.8202  0.1495
 6505SOL    HW131148   0.830   1.842  15.587 -3.7544  1.1370  1.1447
 6505SOL    HW231149   0.777   1.801  15.455  2.7618  0.0576 -0.6853
 6506SOL     OW31150   2.076   2.769   5.746 -0.1714 -0.3309  0.1388
 6506SOL    HW131151   1.998   2.717   5.767 -1.2939  1.3259  0.0536
 6506SOL    HW231152   2.139   2.719   5.797  1.1542  1.7908  0.5834
 6507SOL     OW31153   1.459   4.495  12.455  0.1987  0.2226  0.6895
 6507SOL    HW131154   1.493   4.405  12.454  0.3021  0.2828 -0.9881
 6507SOL    HW231155   1.436   4.507  12.363  2.4834  1.9932  0.3542
 6508SOL     OW31156   0.150   0.562   3.211  0.2577 -0.4226 -0.2433
 6508SOL    HW131157   0.202   0.482   3.201  1.9028  0.5217  0.7714
 6508SOL    HW231158   0.058   0.536   3.213  0.2109 -0.0895  1.7781
 6509SOL     OW31159   0.356   0.598   5.462  0.0221  0.1289  0.2105
 6509SOL    HW131160   0.305   0.522   5.492 -0.7078  1.2638  1.8804
 6509SOL    HW231161   0.293   0.670   5.460  1.0943  1.1105  1.9743
 6510SOL     OW31162   4.580   2.128   8.622  0.0181  0.0449 -0.1430
 6510SOL    HW131163   4.632   2.151   8.699  1.8895 -0.8129 -1.1479
 6510SOL    HW231164   4.645   2.106   8.555  0.3605  1.4934 -0.3024
 6511SOL     OW31165   3.680   4.084  16.330  0.2499  0.8567 -0.0248
 6511SOL    HW131166   3.621   4.142  16.378  2.7385  2.3341  1.2334
 6511SOL    HW231167   3.752   4.147  16.327 -0.0273  1.1597 -0.2685
 6512SOL     OW31168   3.147   3.259   9.257 -0.2067  0.1541  0.3582
 6512SOL    HW131169   3.121   3.301   9.175 -1.6133  0.0114  0.7150
 6512SOL    HW231170   3.129   3.168   9.234 -0.2711 -0.3484  2.3299
 6513SOL     OW31171   4.370   2.804   6.311 -0.1265 -0.0103  0.1677
 6513SOL    HW131172   4.384   2.743   6.238  0.4069  0.4022 -0.0773
 6513SOL    HW231173   4.449   2.777   6.358 -0.6087 -0.9141  0.4537
 6514SOL     OW31174   0.063   3.675   2.817 -0.2902 -0.2484  0.0236
 6514SOL    HW131175   4.718   3.724   2.821  0.4155  1.1801 -2.6977
 6514SOL    HW231176   0.093   3.683   2.908  0.0603 -0.1235 -0.1022
 6515SOL     OW31177   1.243   0.411   7.239  0.2924 -0.0699 -0.1742
 6515SOL    HW131178   1.163   0.412   7.292 -0.2533  0.3839 -0.9972
 6515SOL    HW231179   1.271   0.320   7.252 -1.7681 -0.7325 -0.3260
 6516SOL     OW31180   1.549   4.297  15.964 -0.1611  0.2121 -0.1604
 6516SOL    HW131181   1.496   4.291  16.043 -0.1445 -2.0422 -0.3212
 6516SOL    HW231182   1.590   4.382  15.979 -0.3725  0.6995 -2.2391
 6517SOL     OW31183   1.976   1.209  11.836  0.4015  0.5815  0.1425
 6517SOL    HW131184   1.946   1.121  11.860 -1.8772  1.1970 -0.3969
 6517SOL    HW231185   1.914   1.213  11.763 -0.8746  1.7198  1.2997
 6518SOL     OW31186   1.226   2.603  16.211  0.0046 -0.0844  0.1937
 6518SOL    HW131187   1.161   2.628  16.277  1.9229  3.2880  0.7987
 6518SOL    HW231188   1.301   2.661  16.221 -0.9514  1.1806 -0.0480
 6519SOL     OW31189   4.314   0.246  14.873  0.2917 -0.0139 -0.4817
 6519SOL    HW131190   4.336   0.209  14.958 -1.3862  3.1177  1.2818
 6519SOL    HW231191   4.359   0.330  14.873  1.9266 -0.8738  0.1752
 6520SOL     OW31192   0.928   2.835   2.494 -0.0196 -0.0470 -0.0203
 6520SOL    HW131193   0.881   2.868   2.417 -1.4773  0.4511  1.0794
 6520SOL    HW231194   0.965   2.754   2.458 -1.5429  0.2180 -2.1857
 6521SOL     OW31195   2.794   3.827   1.186 -0.0859  0.0902 -0.0299
 6521SOL    HW131196   2.716   3.836   1.240 -1.7818 -2.4666 -2.0585
 6521SOL    HW231197   2.833   3.910   1.216 -1.5041  0.3591  1.0741
 6522SOL     OW31198   1.323   2.367  16.283 -0.0010  0.1551 -0.3025
 6522SOL    HW131199   1.371   2.308  16.225  1.4554  0.0463  1.0108
 6522SOL    HW231200   1.295   2.439  16.226 -2.3637 -0.8455 -0.3973
 6523SOL     OW31201   2.009   0.790  14.898  0.0823  0.0452  0.2327
 6523SOL    HW131202   2.094   0.823  14.926 -1.5860  2.0195  2.9822
 6523SOL    HW231203   2.027   0.710  14.850 -2.2955  0.3966 -1.2355
 6524SOL     OW31204   1.685   1.536   5.145 -0.3657  0.2310  0.4421
 6524SOL    HW131205   1.632   1.577   5.214 -0.7511 -3.6146  2.4261
 6524SOL    HW231206   1.607   1.507   5.097 -0.1138  0.6773 -0.2365
 6525SOL     OW31207   2.890   3.657  16.193 -0.5223 -0.3457 -0.2870
 6525SOL    HW131208   2.938   3.607  16.259 -0.7327  0.0715  0.1753
 6525SOL    HW231209   2.925   3.635  16.106 -0.3075  0.1394 -0.3247
 6526SOL     OW31210   1.744   0.083   3.093  0.1340  0.3541  0.3595
 6526SOL    HW131211   1.773   0.067   3.003  0.6793 -0.3684  0.6577
 6526SOL    HW231212   1.797   0.022   3.145 -0.1965  0.2394  0.5580
 6527SOL     OW31213   2.112   2.739   5.053 -0.3896  0.7635 -0.4967
 6527SOL    HW131214   2.118   2.834   5.065  1.7628  0.5517  0.0778
 6527SOL    HW231215   2.136   2.743   4.961 -1.0977  0.2176 -0.7076
 6528SOL     OW31216   3.579   0.560   0.876 -0.2073  1.2810  0.0537
 6528SOL    HW131217   3.665   0.525   0.899 -0.9371 -0.7533 -0.3321
 6528SOL    HW231218   3.551   0.577   0.966  0.5239 -1.3390  0.7954
 6529SOL     OW31219   3.554   4.689   0.390 -0.0089  0.3368  0.1024
 6529SOL    HW131220   3.489   0.015   0.358 -0.8204 -1.8567 -2.6007
 6529SOL    HW231221   3.496   4.641   0.449 -1.5675  0.8888 -0.9824
 6530SOL     OW31222   1.294   0.741   4.201 -0.9078  0.0127 -0.5660
 6530SOL    HW131223   1.278   0.673   4.136  0.3866 -1.0541  0.2380
 6530SOL    HW231224   1.386   0.731   4.225 -1.2365  0.0348  0.7132
 6531SOL     OW31225   2.985   1.499   4.648 -0.4691  0.1603  0.3724
 6531SOL    HW131226   3.053   1.565   4.663  1.2966 -2.1360  2.4831
 6531SOL    HW231227   2.950   1.496   4.737 -1.8469  1.4300 -0.1126
 6532SOL     OW31228   1.838   1.133   2.158  0.2076 -0.1654 -0.2525
 6532SOL    HW131229   1.820   1.063   2.095 -1.7585 -0.3769  0.5351
 6532SOL    HW231230   1.754   1.180   2.156  0.1269 -0.3056 -0.0860
 6533SOL     OW31231   3.826   4.111   6.340 -0.1572  0.2704  0.0303
 6533SOL    HW131232   3.731   4.103   6.351  0.0250  0.7678  1.9698
 6533SOL    HW231233   3.863   4.107   6.428 -1.4407  4.0286  0.6893
 6534SOL     OW31234   0.695   4.270   6.645  0.1740 -0.0638  0.2237
 6534SOL    HW131235   0.724   4.346   6.696  1.0453 -0.6472  0.5862
 6534SOL    HW231236   0.609   4.298   6.613  1.0096 -0.0004 -1.9360
 6535SOL     OW31237   0.723   3.975  14.900 -0.2134  0.0578 -0.3736
 6535SOL    HW131238   0.708   4.006  14.989 -0.9534  0.6380 -0.7020
 6535SOL    HW231239   0.756   4.055  14.859  2.6398 -1.1862 -0.5255
 6536SOL     OW31240   4.611   1.512  17.397  0.2772 -0.4319  0.2074
 6536SOL    HW131241   4.576   1.595  17.431  0.8869 -0.7596  1.6336
 6536SOL    HW231242   4.629   1.530  17.305 -1.8745  1.5818  0.1698
 6537SOL     OW31243   3.843   3.667   7.346  0.1838 -0.7264  0.5572
 6537SOL    HW131244   3.892   3.743   7.378 -1.2224  0.3500  0.1396
 6537SOL    HW231245   3.765   3.667   7.400 -0.7518 -1.5900 -0.8072
 6538SOL     OW31246   2.859   2.662   3.433 -0.5985  0.4336  0.3681
 6538SOL    HW131247   2.845   2.707   3.516  3.7078 -1.2590  2.0244
 6538SOL    HW231248   2.952   2.649   3.451 -0.3355 -0.0683 -1.3272
 6539SOL     OW31249   0.764   2.704   1.776 -0.1342  0.1121  0.0007
 6539SOL    HW131250   0.705   2.780   1.778 -1.1938 -0.7574  1.8350
 6539SOL    HW231251   0.830   2.735   1.714  0.8855 -0.1901  0.9378
 6540SOL     OW31252   1.520   3.448   0.951 -0.3020 -0.3149 -0.2813
 6540SOL    HW131253   1.552   3.373   0.900  0.0631  1.3412 -2.5041
 6540SOL    HW231254   1.603   3.496   0.958  0.7265 -2.2791  0.8522
 6541SOL     OW31255   2.663   1.609  12.899 -0.1171  0.0248 -0.0425
 6541SOL    HW131256   2.584   1.578  12.942 -0.0264  1.3835  1.1371
 6541SOL    HW231257   2.648   1.703  12.888  1.0610  0.2031 -0.1638
 6542SOL     OW31258   1.273   3.130  15.107  0.5366 -0.2018  0.1539
 6542SOL    HW131259   1.300   3.064  15.044  2.3484 -0.1232  0.8556
 6542SOL    HW231260   1.183   3.102  15.124 -0.5779  3.4233  0.1497
 6543SOL     OW31261   0.378   0.783   8.632 -0.0596 -0.2051  0.0024
 6543SOL    HW131262   0.373   0.777   8.727 -0.0722  0.3179  0.0329
 6543SOL    HW231263   0.363   0.692   8.605  1.1789 -0.4638  0.1961
 6544SOL     OW31264   2.505   4.420   5.039 -0.1022  0.3056 -0.1103
 6544SOL    HW131265   2.557   4.340   5.024 -0.8384 -0.6231  2.2820
 6544SOL    HW231266   2.440   4.407   4.970 -0.0347  0.1168 -0.1396
 6545SOL     OW31267   1.588   4.735   7.865 -0.1718 -0.2472 -0.1363
 6545SOL    HW131268   1.647   0.008   7.939  0.0027  1.8578 -0.5535
 6545SOL    HW231269   1.534   4.665   7.902 -1.6755  0.4156 -1.0373
 6546SOL     OW31270   0.802   4.293   9.513  0.3060 -0.0710  0.7407
 6546SOL    HW131271   0.726   4.260   9.466 -0.9657  0.3732  2.5050
 6546SOL    HW231272   0.747   4.333   9.581 -1.1524 -1.3162  0.2882
 6547SOL     OW31273   3.227   2.963   7.250  0.1114  0.6774 -0.1745
 6547SOL    HW131274   3.320   2.940   7.255  0.0145 -0.1953 -2.5303
 6547SOL    HW231275   3.235   3.055   7.275 -2.5300  0.2081  2.4147
 6548SOL     OW31276   2.565   0.855  11.168  0.1088 -0.0701  0.1550
 6548SOL    HW131277   2.632   0.809  11.119 -0.6083 -1.0197  0.0720
 6548SOL    HW231278   2.493   0.797  11.141  0.0829  0.0754 -0.0911
 6549SOL     OW31279   3.943   0.359   5.069 -0.0945 -0.5374 -0.1611
 6549SOL    HW131280   3.938   0.435   5.127 -0.9095  1.0259 -2.3175
 6549SOL    HW231281   3.962   0.290   5.132 -1.0807 -0.9486 -0.3063
 6550SOL     OW31282   2.495   3.000  15.337 -0.5582 -0.6838  0.6100
 6550SOL    HW131283   2.403   2.975  15.348 -0.7446  0.2580  1.1203
 6550SOL    HW231284   2.511   3.032  15.426  0.7720  0.8761 -0.1940
 6551SOL     OW31285   2.730   1.204  16.714 -0.3441  0.4407 -0.2025
 6551SOL    HW131286   2.640   1.187  16.745 -0.3368  0.6796 -0.0513
 6551SOL    HW231287   2.750   1.137  16.649 -0.3695  0.5497 -0.3223
 6552SOL     OW31288   2.505   3.772   5.427 -0.2728 -0.8061 -0.1978
 6552SOL    HW131289   2.513   3.692   5.479  0.9326 -1.5599 -1.5408
 6552SOL    HW231290   2.598   3.794   5.422 -0.7261  1.3626  0.6101
 6553SOL     OW31291   0.966   0.975   2.098 -0.0956  0.0823  0.0848
 6553SOL    HW131292   1.038   1.007   2.043  0.3392  0.4090  0.8521
 6553SOL    HW231293   0.947   1.052   2.151 -0.1562  0.2295 -0.1496
 6554SOL     OW31294   3.670   3.919   4.423  0.4377 -0.2438 -0.0038
 6554SOL    HW131295   3.628   3.992   4.469  1.1699  0.0198  0.2527
 6554SOL    HW231296   3.688   3.964   4.340 -2.0959  0.4069 -0.2145
 6555SOL     OW31297   1.532   1.155   2.498 -0.5268  0.2941  0.1144
 6555SOL    HW131298   1.606   1.177   2.556 -0.5134 -0.1387  0.2637
 6555SOL    HW231299   1.550   1.222   2.432  1.0197 -1.4345 -1.2167
 6556SOL     OW31300   0.258   2.598   5.031 -0.3866  0.5332  0.4048
 6556SOL    HW131301   0.243   2.517   4.983 -4.2127  1.2831  0.2810
 6556SOL    HW231302   0.277   2.562   5.118 -0.0546 -2.0180 -0.7389
 6557SOL     OW31303   3.033   0.836   1.555 -0.2075  0.0428 -0.2350
 6557SOL    HW131304   3.056   0.830   1.648  0.7383 -0.3891 -0.5040
 6557SOL    HW231305   3.107   0.791   1.514  0.1663  0.2115  0.2560
 6558SOL     OW31306   2.471   4.552   6.958 -0.0642 -0.1380 -0.3960
 6558SOL    HW131307   2.513   4.555   7.044 -0.9387  1.8897 -0.0325
 6558SOL    HW231308   2.378   4.560   6.979  0.1326 -0.3749  0.5771
 6559SOL     OW31309   0.808   2.372   1.937  0.2927  0.0487 -0.3601
 6559SOL    HW131310   0.891   2.327   1.924  1.7470  2.1487  1.7993
 6559SOL    HW231311   0.744   2.304   1.915  0.6159 -1.0105  2.0990
 6560SOL     OW31312   3.472   0.042   5.225  0.0008  0.5380  0.0675
 6560SOL    HW131313   3.382   0.011   5.233  0.2508 -0.1630  0.1043
 6560SOL    HW231314   3.508   4.717   5.163 -0.1575 -0.6213  1.1430
 6561SOL     OW31315   0.209   3.586   2.105  0.2259 -0.5434  0.2244
 6561SOL    HW131316   0.195   3.662   2.048 -0.1899 -0.3145  0.6382
 6561SOL    HW231317   0.132   3.532   2.086 -2.2470  2.5688  1.4164
 6562SOL     OW31318   3.075   2.363   1.398  0.1076 -0.6736 -0.3958
 6562SOL    HW131319   3.090   2.268   1.394  1.0645 -0.5397  0.2279
 6562SOL    HW231320   3.032   2.367   1.312 -1.9571 -0.8246  0.6089
 6563SOL     OW31321   0.617   3.144  17.517  0.0535  0.2700 -0.0381
 6563SOL    HW131322   0.547   3.118  17.457  0.5257 -1.9267  0.3337
 6563SOL    HW231323   0.586   3.229  17.548 -3.8260 -0.5737 -1.7393
 6564SOL     OW31324   0.724   2.612   5.012 -0.1627 -0.1560  0.1382
 6564SOL    HW131325   0.783   2.539   5.023 -0.3407 -0.1550  1.1544
 6564SOL    HW231326   0.683   2.618   5.099  0.7492 -2.1192  0.6873
 6565SOL     OW31327   1.740   1.014   5.622 -0.1733  0.6584  0.2829
 6565SOL    HW131328   1.829   1.029   5.654  0.4247 -0.9999 -0.6113
 6565SOL    HW231329   1.729   0.926   5.657 -3.1261  0.4239 -1.2207
 6566SOL     OW31330   3.674   1.013  12.580 -0.5045 -0.2009  0.0998
 6566SOL    HW131331   3.770   1.018  12.575 -0.4527 -0.7035  0.5137
 6566SOL    HW231332   3.669   1.078  12.650 -2.4997  0.9890 -1.1690
 6567SOL     OW31333   3.826   1.371   7.552 -0.9455  0.5929 -0.3014
 6567SOL    HW131334   3.831   1.287   7.506  2.5235  0.4999  0.1835
 6567SOL    HW231335   3.798   1.429   7.482  3.6566  0.8768 -1.8898
 6568SOL     OW31336   0.391   1.860   2.803 -0.1609  0.3797  0.4454
 6568SOL    HW131337   0.332   1.921   2.759  1.8288  2.0662  0.0911
 6568SOL    HW231338   0.336   1.784   2.822  0.6214 -0.0785  0.9094
 6569SOL     OW31339   4.438   0.085  14.689 -0.2459  0.4870  0.2029
 6569SOL    HW131340   4.380   0.129  14.751 -0.5960  1.8026 -1.0675
 6569SOL    HW231341   4.499   0.157  14.672 -0.8198  0.4441 -1.9677
 6570SOL     OW31342   2.747   4.670   4.553 -0.6729  0.2029 -0.1663
 6570SOL    HW131343   2.797   4.684   4.633 -0.2497 -2.7437  0.1025
 6570SOL    HW231344   2.712   4.584   4.578 -0.4593 -0.7628 -3.1480
 6571SOL     OW31345   3.105   3.149   5.677 -0.6676 -0.0643 -0.2477
 6571SOL    HW131346   3.066   3.232   5.651 -0.2583  0.0585 -0.4783
 6571SOL    HW231347   3.130   3.167   5.767 -3.3371 -2.7102  1.0098
 6572SOL     OW31348   4.475   1.995   5.498  0.3798 -0.0263 -0.6628
 6572SOL    HW131349   4.514   2.037   5.574 -0.1358 -0.0246 -0.3982
 6572SOL    HW231350   4.386   2.030   5.496 -0.1454 -1.4007 -0.9516
 6573SOL     OW31351   0.452   2.133  15.562  0.1650  0.5300 -0.2557
 6573SOL    HW131352   0.544   2.158  15.566  0.2727  0.0999 -0.0129
 6573SOL    HW231353   0.440   2.113  15.655  0.4388  0.1300 -0.3045
 6574SOL     OW31354   4.089   2.147  15.772 -0.4190 -0.3098 -0.2898
 6574SOL    HW131355   4.177   2.184  15.773 -0.2661 -0.7500  2.5593
 6574SOL    HW231356   4.029   2.219  15.795  0.9521  0.4829  0.8064
 6575SOL     OW31357   0.335   3.307  11.808  0.0416 -0.1097 -0.0563
 6575SOL    HW131358   0.353   3.220  11.843  1.8055  0.5197  0.6513
 6575SOL    HW231359   0.296   3.273  11.728  0.2701 -1.0207  0.2277
 6576SOL     OW31360   4.164   4.195  17.169 -0.4167 -0.0871  0.2016
 6576SOL    HW131361   4.082   4.236  17.195 -0.9945 -1.9244  1.2695
 6576SOL    HW231362   4.171   4.245  17.087 -1.1330  1.6302  1.1969
 6577SOL     OW31363   1.518   2.884  17.088  0.8227 -0.4368  0.2466
 6577SOL    HW131364   1.525   2.979  17.088  0.3338 -0.4076 -1.0589
 6577SOL    HW231365   1.606   2.860  17.117  1.4667  1.7497  0.1082
 6578SOL     OW31366   3.984   2.115   8.525 -0.3741  0.2672 -0.3090
 6578SOL    HW131367   4.056   2.139   8.582  0.4639 -0.7602 -0.9326
 6578SOL    HW231368   3.937   2.198   8.521  1.3182  1.3083  1.9003
 6579SOL     OW31369   3.271   1.655   2.358  0.1601 -0.5890  0.0775
 6579SOL    HW131370   3.183   1.623   2.339  0.1741 -0.2304 -0.6179
 6579SOL    HW231371   3.254   1.712   2.432 -1.6817 -1.7716  0.5378
 6580SOL     OW31372   0.026   2.809  14.864 -0.4229  0.2023  0.0499
 6580SOL    HW131373   0.067   2.732  14.824 -2.1959 -0.7083 -0.0080
 6580SOL    HW231374   4.719   2.848  14.788 -0.1105 -0.1595 -0.3205
 6581SOL     OW31375   4.456   1.791   5.321 -0.2844 -0.8671 -0.2903
 6581SOL    HW131376   4.363   1.772   5.333 -1.1901  3.2986 -0.8438
 6581SOL    HW231377   4.462   1.863   5.384 -1.3127 -0.5380 -0.5766
 6582SOL     OW31378   3.640   2.537   5.375  0.0915 -0.2616  0.4835
 6582SOL    HW131379   3.721   2.486   5.378 -1.8273 -3.4785 -3.4692
 6582SOL    HW231380   3.629   2.566   5.285  0.2009 -1.6065  0.0415
 6583SOL     OW31381   0.416   4.373   4.244  0.4850  0.2780 -0.4647
 6583SOL    HW131382   0.360   4.395   4.170 -0.0425  2.0946  0.4743
 6583SOL    HW231383   0.355   4.405   4.311 -0.1305 -1.9600  0.0451
 6584SOL     OW31384   2.966   2.217  12.741 -0.1148  0.0264  0.3927
 6584SOL    HW131385   2.944   2.129  12.711  0.2560  0.2031 -0.3916
 6584SOL    HW231386   2.887   2.261  12.710 -0.6979 -0.8428  0.6569
 6585SOL     OW31387   3.183   4.648  15.477 -0.6279  0.1572  0.4743
 6585SOL    HW131388   3.096   4.646  15.437 -0.5207  1.5395  0.1702
 6585SOL    HW231389   3.243   4.661  15.403 -3.1283 -0.4904 -1.6432
 6586SOL     OW31390   3.828   2.721  16.997 -0.0461 -0.1732 -0.4539
 6586SOL    HW131391   3.838   2.806  17.039 -2.3418 -0.6761  1.0756
 6586SOL    HW231392   3.760   2.682  17.051 -0.9592 -0.8761 -2.0911
 6587SOL     OW31393   1.656   1.395   6.431  0.2021  0.4330  0.4863
 6587SOL    HW131394   1.571   1.374   6.392  1.1774 -0.7259 -1.0122
 6587SOL    HW231395   1.664   1.316   6.485  1.3877  0.7233  0.7307
 6588SOL     OW31396   0.603   0.797   0.553 -0.2151  0.8111  0.5652
 6588SOL    HW131397   0.523   0.820   0.505  0.3362 -3.5325 -2.3786
 6588SOL    HW231398   0.644   0.883   0.544  0.6429  0.0492 -2.6324
 6589SOL     OW31399   3.855   0.715   8.039  0.2267  0.3911  0.1557
 6589SOL    HW131400   3.841   0.687   8.130  2.8113 -0.8119  0.2018
 6589SOL    HW231401   3.912   0.790   8.055  1.6220 -0.3835 -1.0955
 6590SOL     OW31402   1.198   4.215   9.576 -0.2388  0.0558  0.2511
 6590SOL    HW131403   1.244   4.239   9.496 -0.5852 -2.1274 -0.5906
 6590SOL    HW231404   1.109   4.218   9.543 -0.0898 -2.9678 -0.4191
 6591SOL     OW31405   0.080   3.500   8.948  0.0621  0.1537  0.2124
 6591SOL    HW131406   0.009   3.525   9.006  0.5399 -0.4422  1.0457
 6591SOL    HW231407   0.025   3.481   8.872  0.7433  1.8588 -0.7166
 6592SOL     OW31408   0.799   3.815   6.989  0.3181 -0.2485 -0.0414
 6592SOL    HW131409   0.742   3.821   7.065 -0.3605 -0.3963 -0.5413
 6592SOL    HW231410   0.870   3.760   7.022  0.9957 -0.3615 -1.7008
 6593SOL     OW31411   4.619   1.512  12.748 -0.2579 -0.4435  0.4128
 6593SOL    HW131412   4.666   1.575  12.693 -0.9005  1.6790  2.2647
 6593SOL    HW231413   4.649   1.428  12.713  1.4654 -0.5770  2.2473
 6594SOL     OW31414   3.196   1.629   9.540  0.3212  0.2922  0.1916
 6594SOL    HW131415   3.164   1.707   9.494  0.8883 -0.0508 -0.7776
 6594SOL    HW231416   3.246   1.578   9.476  0.7355  0.8350  0.0831
 6595SOL     OW31417   3.791   2.423   6.912  0.3307 -0.0216  0.3559
 6595SOL    HW131418   3.771   2.334   6.942  0.1695 -0.3540 -0.7565
 6595SOL    HW231419   3.863   2.440   6.973 -0.9287  0.3303  1.7690
 6596SOL     OW31420   2.344   2.917   6.034 -0.0688 -0.0218 -0.0456
 6596SOL    HW131421   2.373   2.983   5.972  3.2614 -0.5784  0.9205
 6596SOL    HW231422   2.384   2.956   6.112 -0.1317  0.0425 -0.0460
 6597SOL     OW31423   0.634   1.448   4.448 -0.2138 -0.2934  0.2685
 6597SOL    HW131424   0.671   1.526   4.406 -1.5514 -0.1651 -0.6751
 6597SOL    HW231425   0.716   1.398   4.450  1.3507  2.1930 -1.1443
 6598SOL     OW31426   4.495   4.437  11.786 -0.3945 -0.4595 -0.2362
 6598SOL    HW131427   4.567   4.434  11.723  0.6481 -0.0919  0.9416
 6598SOL    HW231428   4.531   4.498  11.850  0.7139 -0.9013 -0.4373
 6599SOL     OW31429   1.512   1.125   0.790  0.6088 -0.0472 -0.4814
 6599SOL    HW131430   1.584   1.077   0.747  1.7847  0.4955  0.8993
 6599SOL    HW231431   1.551   1.212   0.798  0.0476  0.1302  0.2685
 6600SOL     OW31432   2.971   4.572  14.077  0.2217 -0.3310  0.3160
 6600SOL    HW131433   3.040   4.619  14.125 -1.6700  1.0071  1.7597
 6600SOL    HW231434   3.025   4.514  14.024 -0.1733  1.2060 -1.7751
 6601SOL     OW31435   0.237   1.379   9.479  0.8055 -0.3830  0.0800
 6601SOL    HW131436   0.255   1.471   9.497  0.7060 -0.1084 -1.2422
 6601SOL    HW231437   0.194   1.389   9.394  1.4225 -1.0007 -0.2966
 6602SOL     OW31438   2.921   3.690  14.748 -0.5428 -0.2702 -0.0569
 6602SOL    HW131439   2.960   3.642  14.676 -1.6320  0.5283 -1.1672
 6602SOL    HW231440   3.005   3.689  14.795 -1.0953  1.0592  0.9982
 6603SOL     OW31441   1.824   0.061   7.459 -0.2293  0.3002  0.4113
 6603SOL    HW131442   1.891   4.732   7.441  0.3250  0.3354  2.3809
 6603SOL    HW231443   1.775   0.015   7.527 -0.7763  0.6345  0.2390
 6604SOL     OW31444   2.298   1.371  10.392 -0.4753  0.4380  0.4481
 6604SOL    HW131445   2.355   1.348  10.319 -0.0163  0.3851  0.8273
 6604SOL    HW231446   2.368   1.390  10.455  0.8695  0.9411 -1.2145
 6605SOL     OW31447   2.746   1.972   1.054 -0.2999 -0.0315  0.2722
 6605SOL    HW131448   2.736   1.890   1.007 -0.9847 -0.0311  0.4159
 6605SOL    HW231449   2.842   1.972   1.059 -0.3420 -0.5579  1.0099
 6606SOL     OW31450   0.743   2.706   3.252 -0.3743  0.3118  0.0769
 6606SOL    HW131451   0.836   2.719   3.270 -1.1029  2.3541  2.3568
 6606SOL    HW231452   0.732   2.624   3.300  1.1002 -0.0964 -0.2944
 6607SOL     OW31453   0.097   4.379  11.277  0.3543  0.0138 -0.5428
 6607SOL    HW131454   0.167   4.339  11.225  1.9979 -0.0438  1.7560
 6607SOL    HW231455   0.020   4.357  11.224  0.9711  1.1761 -1.9254
 6608SOL     OW31456   4.116   0.996   5.704 -0.6881  0.1853 -0.4540
 6608SOL    HW131457   4.030   1.010   5.663 -1.4706 -1.2009  0.6962
 6608SOL    HW231458   4.102   1.051   5.780  2.5004 -1.6376  1.4502
 6609SOL     OW31459   4.295   2.377   5.790  0.3369 -0.1380  0.3661
 6609SOL    HW131460   4.297   2.281   5.787 -1.8860 -0.1368 -1.2123
 6609SOL    HW231461   4.202   2.391   5.809  0.3218  0.5844 -0.2497
 6610SOL     OW31462   1.508   3.683   0.204 -0.6592  0.1376  0.2237
 6610SOL    HW131463   1.522   3.607   0.148  0.6091  1.4309 -1.2432
 6610SOL    HW231464   1.419   3.710   0.179  0.2008  2.9853  0.2561
 6611SOL     OW31465   4.283   2.599   7.746  0.1273  0.3910  0.6158
 6611SOL    HW131466   4.213   2.636   7.800 -1.3254 -2.6742  0.7909
 6611SOL    HW231467   4.238   2.590   7.662  0.8753  2.8680 -0.0727
 6612SOL     OW31468   0.021   2.297   2.332 -0.5621  0.1216  0.2369
 6612SOL    HW131469   4.665   2.286   2.315 -0.5226 -1.4778  1.0655
 6612SOL    HW231470   0.040   2.203   2.336  0.0795  0.2334 -0.0457
 6613SOL     OW31471   1.894   3.071  11.481 -0.1592  0.4071  0.3560
 6613SOL    HW131472   1.815   3.030  11.447  1.2272 -1.9435 -0.1063
 6613SOL    HW231473   1.903   3.128  11.405 -0.6144 -1.3974 -1.0426
 6614SOL     OW31474   3.194   0.124  14.006 -0.0413 -0.0402  0.1622
 6614SOL    HW131475   3.155   0.198  14.053 -1.4579 -0.7459  0.0967
 6614SOL    HW231476   3.169   0.133  13.914 -1.6959  0.3893  0.6547
 6615SOL     OW31477   3.605   3.492   7.563  0.0998  0.4627  0.4568
 6615SOL    HW131478   3.561   3.540   7.493 -0.9317 -2.3355 -0.8007
 6615SOL    HW231479   3.628   3.566   7.620  0.8713 -0.8752  1.9062
 6616SOL     OW31480   1.993   0.265   3.855  0.3636 -0.0538  0.1709
 6616SOL    HW131481   1.942   0.193   3.818  1.2375 -0.6198  0.0615
 6616SOL    HW231482   2.021   0.245   3.944  1.0826 -1.5496 -0.3755
 6617SOL     OW31483   2.174   3.152   6.266 -0.0366  0.6189 -0.4485
 6617SOL    HW131484   2.251   3.101   6.242  0.2601  0.1575  1.4621
 6617SOL    HW231485   2.205   3.196   6.346 -0.3655 -0.1656  0.1136
 6618SOL     OW31486   3.116   3.923  16.329  0.1971  0.5021  0.1668
 6618SOL    HW131487   3.035   3.959  16.293  0.4512  0.0799 -0.8266
 6618SOL    HW231488   3.126   3.841  16.280  1.8824  0.6607  0.2217
 6619SOL     OW31489   1.570   1.241   5.631  0.0001 -0.0860  0.1844
 6619SOL    HW131490   1.623   1.161   5.626 -0.1378 -0.1909  0.4224
 6619SOL    HW231491   1.634   1.310   5.611  0.0118 -0.2915 -0.4862
 6620SOL     OW31492   0.131   1.405  14.948 -0.3530  0.3536 -0.1887
 6620SOL    HW131493   0.102   1.495  14.937 -1.0225 -0.2678 -3.6235
 6620SOL    HW231494   0.123   1.394  14.853 -0.6457 -3.2008  0.2450
 6621SOL     OW31495   1.120   1.787  11.232 -0.3900  0.0375  0.0661
 6621SOL    HW131496   1.160   1.874  11.227 -0.2543  0.1232  2.7737
 6621SOL    HW231497   1.182   1.735  11.180  2.7667  1.6584  2.2129
 6622SOL     OW31498   4.554   2.660   6.441 -0.2626  0.0279 -0.4821
 6622SOL    HW131499   4.635   2.637   6.395  1.2647  0.7586  1.8041
 6622SOL    HW231500   4.570   2.636   6.533 -2.8344  1.0401  0.2210
 6623SOL     OW31501   2.075   0.044  16.226 -0.2756 -0.2911  0.3072
 6623SOL    HW131502   2.122   0.098  16.163 -1.1645  0.9734  0.7234
 6623SOL    HW231503   2.041   0.114  16.281 -0.1853 -0.1445  0.1745
 6624SOL     OW31504   3.956   1.364   4.573  0.1778 -0.6649  0.5551
 6624SOL    HW131505   3.982   1.308   4.646 -0.6157 -0.9194  0.6502
 6624SOL    HW231506   3.968   1.308   4.496  0.4146 -1.1174  0.9196
 6625SOL     OW31507   3.967   3.175   1.410  0.4364  0.2551  0.0539
 6625SOL    HW131508   3.915   3.097   1.431  1.1026  0.5218  2.6289
 6625SOL    HW231509   4.041   3.162   1.468  0.7047 -0.2269 -0.3986
 6626SOL     OW31510   1.445   2.954   9.200 -0.1446 -0.2763 -0.2976
 6626SOL    HW131511   1.368   2.983   9.249 -0.8542  0.7392 -2.0315
 6626SOL    HW231512   1.510   2.993   9.258  0.3419 -1.4851 -0.0154
 6627SOL     OW31513   1.349   4.162   8.263  0.0250 -0.2305 -0.0225
 6627SOL    HW131514   1.281   4.229   8.277  0.7457  0.6253 -0.5743
 6627SOL    HW231515   1.376   4.158   8.355 -1.4736 -1.0971  0.3903
 6628SOL     OW31516   1.039   4.278   4.852 -0.0678 -0.0875  0.6335
 6628SOL    HW131517   0.983   4.258   4.927  2.0602  0.3268  2.3014
 6628SOL    HW231518   0.971   4.274   4.784 -0.0664  0.0528  0.6244
 6629SOL     OW31519   1.139   2.549   8.771  0.3087  0.0865 -0.7321
 6629SOL    HW131520   1.188   2.549   8.689  2.2365 -0.1267  0.4278
 6629SOL    HW231521   1.133   2.453   8.780  0.8263 -0.0108 -1.4741
 6630SOL     OW31522   4.518   3.330   1.809  0.0792 -0.4249 -0.3179
 6630SOL    HW131523   4.489   3.323   1.718 -1.1266 -3.4391  0.2879
 6630SOL    HW231524   4.436   3.334   1.858  0.0465 -1.4166 -0.2902
 6631SOL     OW31525   1.620   4.183  11.923 -0.3971  0.1194 -0.3524
 6631SOL    HW131526   1.609   4.174  12.017 -1.5948  0.2531 -0.4843
 6631SOL    HW231527   1.698   4.239  11.914 -0.1066 -0.0914  0.9168
 6632SOL     OW31528   4.392   3.391  10.092  0.2199  0.2217  0.4027
 6632SOL    HW131529   4.306   3.404  10.131 -0.3480  0.5815 -0.9843
 6632SOL    HW231530   4.369   3.396  10.000  3.5435 -0.7963 -0.5073
 6633SOL     OW31531   4.350   1.625   6.022 -0.5136  0.6813 -0.6942
 6633SOL    HW131532   4.285   1.568   6.062  0.9124 -1.2213 -1.0559
 6633SOL    HW231533   4.387   1.561   5.961 -1.9040 -1.7732  1.0422
 6634SOL     OW31534   0.978   2.253   6.331  0.2310 -0.0075 -0.6496
 6634SOL    HW131535   1.024   2.326   6.288 -0.3519 -0.1117 -1.4627
 6634SOL    HW231536   0.899   2.302   6.353  1.9533  2.0239  1.0197
 6635SOL     OW31537   1.985   2.091   4.803 -0.0689  0.6099 -0.2711
 6635SOL    HW131538   1.949   2.105   4.716 -2.2722  2.2357  0.8968
 6635SOL    HW231539   2.001   1.996   4.804  3.0728  1.1413 -0.8615
 6636SOL     OW31540   0.102   3.873  17.282  0.0333  0.0620  0.4730
 6636SOL    HW131541   0.039   3.834  17.221  0.7214 -0.3064  0.0025
 6636SOL    HW231542   0.165   3.913  17.222 -2.2127  1.3088 -1.0625
 6637SOL     OW31543   1.005   1.217  13.233  0.4041 -0.2934 -0.7916
 6637SOL    HW131544   0.959   1.296  13.203  1.5813  0.4916 -0.5487
 6637SOL    HW231545   1.094   1.251  13.237  0.7239 -1.4110  1.3344
 6638SOL     OW31546   4.273   3.192   5.226  0.4351  0.2260  0.1848
 6638SOL    HW131547   4.229   3.226   5.148 -1.4820 -2.9526 -0.1339
 6638SOL    HW231548   4.232   3.229   5.304 -0.0354  0.1858 -0.0407
 6639SOL     OW31549   2.347   4.498   3.417  0.0372 -0.6370  0.9100
 6639SOL    HW131550   2.316   4.572   3.469 -0.1855  0.5634 -0.9177
 6639SOL    HW231551   2.294   4.425   3.450 -1.6181  0.1040 -0.0925
 6640SOL     OW31552   2.676   0.313   8.798  0.6371 -0.2140 -0.2701
 6640SOL    HW131553   2.746   0.343   8.856  0.6904 -2.0309  0.5921
 6640SOL    HW231554   2.673   0.392   8.744  1.2724 -0.2425 -0.3496
 6641SOL     OW31555   2.125   3.963  16.482 -0.1625  0.5319  0.7100
 6641SOL    HW131556   2.209   3.930  16.449 -1.2324 -0.3733 -1.1520
 6641SOL    HW231557   2.077   3.973  16.400  0.7290  2.4361  0.4445
 6642SOL     OW31558   0.222   0.247   9.351  0.0176 -0.2839  0.0430
 6642SOL    HW131559   0.200   0.218   9.439  0.6670  0.1046  0.3258
 6642SOL    HW231560   0.300   0.193   9.354  0.4438  0.3974  1.0645
 6643SOL     OW31561   3.243   1.169   5.212  0.2083  0.4262  0.1172
 6643SOL    HW131562   3.237   1.264   5.227 -1.0593  0.3924 -0.1814
 6643SOL    HW231563   3.201   1.121   5.284  1.0928  2.1771  1.8274
 6644SOL     OW31564   4.254   4.330   5.456  0.0718 -0.1403 -0.0679
 6644SOL    HW131565   4.210   4.414   5.440 -0.5492 -0.6779 -1.1221
 6644SOL    HW231566   4.269   4.339   5.551  0.8347 -0.6430 -0.1421
 6645SOL     OW31567   4.128   3.601  11.737 -0.0156  0.7533 -0.3111
 6645SOL    HW131568   4.211   3.613  11.692  1.3639  0.7050  2.2259
 6645SOL    HW231569   4.123   3.670  11.803  0.8355  1.3252 -0.8525
 6646SOL     OW31570   4.578   2.492  14.300 -0.4001  0.0917  0.2288
 6646SOL    HW131571   4.487   2.521  14.308  0.0639  1.5791  0.1100
 6646SOL    HW231572   4.631   2.548  14.356  0.8366 -1.4477  0.5859
 6647SOL     OW31573   0.666   1.916   2.807  0.0055  0.4133 -0.1944
 6647SOL    HW131574   0.573   1.908   2.824  0.1877 -1.1742  0.0044
 6647SOL    HW231575   0.692   1.824   2.808 -0.9666  0.1330 -1.4904
 6648SOL     OW31576   0.377   2.342  13.224  0.0424 -0.3866 -0.6044
 6648SOL    HW131577   0.402   2.385  13.142  0.6354  0.3841 -0.0114
 6648SOL    HW231578   0.381   2.252  13.191  0.6818 -0.4703 -0.2962
 6649SOL     OW31579   1.100   2.875   4.784 -0.4230 -0.2869 -0.4780
 6649SOL    HW131580   1.093   2.831   4.868  0.4379 -0.6921 -0.6249
 6649SOL    HW231581   1.063   2.808   4.726  0.4676 -1.1933  0.0013
 6650SOL     OW31582   0.529   1.564  16.834  0.2660  0.1286 -0.2170
 6650SOL    HW131583   0.521   1.604  16.920 -0.7912 -2.0738  0.6967
 6650SOL    HW231584   0.560   1.635  16.778  2.3615 -0.0837  0.7069
 6651SOL     OW31585   1.244   2.870   1.698  0.3413 -0.2006 -0.0437
 6651SOL    HW131586   1.302   2.795   1.683  0.9913  0.2071  0.4009
 6651SOL    HW231587   1.299   2.925   1.754 -0.5703 -0.1463  0.7825
 6652SOL     OW31588   1.139   2.811   4.440  0.0476 -0.4543 -0.1410
 6652SOL    HW131589   1.173   2.895   4.469 -1.1073  0.0373 -0.2186
 6652SOL    HW231590   1.063   2.804   4.497 -0.7436  0.4304 -1.0851
 6653SOL     OW31591   3.541   1.854   5.899 -0.2637  0.3117  0.0331
 6653SOL    HW131592   3.553   1.936   5.851 -1.0269  1.5758  2.0074
 6653SOL    HW231593   3.548   1.886   5.989  3.0557  0.7201 -0.4062
 6654SOL     OW31594   3.289   3.703  11.157  0.1907 -0.1061  0.3306
 6654SOL    HW131595   3.291   3.700  11.061 -1.6537 -0.2312  0.3077
 6654SOL    HW231596   3.336   3.786  11.168  0.6235 -0.4217  0.8937
 6655SOL     OW31597   4.093   4.415   1.837 -0.3192  0.5898 -0.0715
 6655SOL    HW131598   4.080   4.357   1.762 -0.3484  0.5909 -0.0673
 6655SOL    HW231599   4.183   4.444   1.821 -0.1749 -0.1188 -0.5599
 6656SOL     OW31600   2.489   2.384  11.041  0.1664  0.4308 -0.5151
 6656SOL    HW131601   2.415   2.393  10.980 -0.2883 -0.1321 -0.0504
 6656SOL    HW231602   2.551   2.408  10.972  1.7988  0.8808  1.1286
 6657SOL     OW31603   0.881   4.242   1.149 -0.2051  0.1128  0.1760
 6657SOL    HW131604   0.809   4.204   1.200 -0.3140 -1.6527 -1.3278
 6657SOL    HW231605   0.836   4.325   1.134 -0.0966 -0.0022 -0.8049
 6658SOL     OW31606   4.263   3.111   7.738  0.0099  0.3222 -0.5648
 6658SOL    HW131607   4.260   3.197   7.779 -1.7382  0.6867 -1.4029
 6658SOL    HW231608   4.297   3.057   7.809  2.4727  0.5693 -1.5528
 6659SOL     OW31609   1.232   4.737   8.400 -0.0387  0.2279 -0.5388
 6659SOL    HW131610   1.237   4.649   8.438 -0.6602  0.9170  1.1562
 6659SOL    HW231611   1.174   0.043   8.463  1.7453 -0.1842  1.3846
 6660SOL     OW31612   4.084   2.170   1.671  0.1535  0.1218 -0.2674
 6660SOL    HW131613   4.161   2.208   1.628  1.4178  0.8539  2.6474
 6660SOL    HW231614   4.122   2.137   1.752 -1.0736  0.8005  0.5787
 6661SOL     OW31615   3.453   2.783   1.747  0.0858 -0.5192 -0.3338
 6661SOL    HW131616   3.429   2.691   1.750 -1.0935 -0.1788  0.7837
 6661SOL    HW231617   3.438   2.814   1.836  1.6423  0.0779 -0.2782
 6662SOL     OW31618   0.429   4.397   8.512  0.4248  0.4474 -0.2159
 6662SOL    HW131619   0.483   4.330   8.469 -0.0220 -1.2156  1.7778
 6662SOL    HW231620   0.503   4.448   8.546 -0.3462  0.6030  1.2426
 6663SOL     OW31621   1.468   0.436  15.330 -0.4797 -0.7155 -0.3655
 6663SOL    HW131622   1.560   0.461  15.321 -0.3472 -0.0202  2.8286
 6663SOL    HW231623   1.452   0.448  15.424 -0.5973 -0.3711 -0.4306
 6664SOL     OW31624   3.022   0.197   7.098 -0.2903 -0.2182  0.1666
 6664SOL    HW131625   2.984   0.280   7.127  0.9626 -0.5389  2.7530
 6664SOL    HW231626   3.082   0.185   7.172  2.2136  0.6895 -1.7399
 6665SOL     OW31627   4.325   1.823   6.438  0.3631  0.3251  0.0410
 6665SOL    HW131628   4.279   1.896   6.480  0.0999  0.5845 -0.7041
 6665SOL    HW231629   4.291   1.829   6.349 -0.6157 -2.3727  0.2082
 6666SOL     OW31630   3.641   3.620   4.831 -0.2698  0.0120 -0.6222
 6666SOL    HW131631   3.661   3.710   4.806  0.4589 -0.9159 -3.4075
 6666SOL    HW231632   3.635   3.590   4.741  0.1654 -1.6964 -0.0874
 6667SOL     OW31633   4.184   1.635   5.609 -0.6739  0.3826 -0.1875
 6667SOL    HW131634   4.260   1.584   5.584 -2.3162 -2.3903  0.5394
 6667SOL    HW231635   4.149   1.575   5.675  0.1558  0.1997  0.0787
 6668SOL     OW31636   4.736   3.653  14.132  0.2135  0.2834 -0.1016
 6668SOL    HW131637   0.012   3.563  14.103  0.9507  1.0290 -2.0860
 6668SOL    HW231638   0.069   3.698  14.085 -1.0915  2.7793  0.3149
 6669SOL     OW31639   2.035   4.087   1.678  0.2081  0.3393 -0.2253
 6669SOL    HW131640   2.113   4.136   1.655  0.5541 -0.1810 -0.1532
 6669SOL    HW231641   1.966   4.123   1.621  0.6642  1.9528  0.2420
 6670SOL     OW31642   1.407   4.086   4.180 -0.3028  0.1342 -0.0824
 6670SOL    HW131643   1.474   4.153   4.196  0.9080 -0.9054 -0.7395
 6670SOL    HW231644   1.383   4.104   4.089 -2.7441 -0.3378  0.4769
 6671SOL     OW31645   0.330   0.778   2.261  0.3079 -0.7915  0.0881
 6671SOL    HW131646   0.425   0.787   2.248  0.4642  0.6696  2.2594
 6671SOL    HW231647   0.324   0.799   2.354 -1.2876  1.9840 -0.6447
 6672SOL     OW31648   4.354   3.608   8.147 -0.4047 -0.1534  0.0608
 6672SOL    HW131649   4.343   3.667   8.072 -1.5345  0.2926  0.5829
 6672SOL    HW231650   4.331   3.658   8.225  0.1104  1.0726 -0.5673
 6673SOL     OW31651   3.022   1.936   5.669  0.7632 -0.2247  0.8060
 6673SOL    HW131652   3.033   2.030   5.677  2.2141 -0.1472 -2.0369
 6673SOL    HW231653   2.951   1.919   5.731 -0.4477  2.7527  0.2021
 6674SOL     OW31654   2.987   4.335   8.262  0.1954  0.1880  0.0868
 6674SOL    HW131655   2.986   4.241   8.247  1.3452  0.5252 -2.2043
 6674SOL    HW231656   3.074   4.359   8.230 -0.2965  1.2459 -0.4484
 6675SOL     OW31657   2.242   0.143   0.606  0.3815 -0.2242 -0.1706
 6675SOL    HW131658   2.166   0.157   0.662  1.2102  2.1140  0.3654
 6675SOL    HW231659   2.314   0.159   0.667  0.2361 -0.8872  0.1755
 6676SOL     OW31660   2.705   0.738  11.404  0.1585  0.5813  0.3704
 6676SOL    HW131661   2.668   0.803  11.344  3.2638  1.7652 -0.2193
 6676SOL    HW231662   2.790   0.721  11.363 -0.1870  0.7903 -0.4396
 6677SOL     OW31663   0.758   2.037   4.117  0.0848 -0.1138  0.0054
 6677SOL    HW131664   0.745   2.051   4.211 -0.3807  0.8141 -0.1987
 6677SOL    HW231665   0.780   2.125   4.087  2.2051 -0.2652  1.0966
 6678SOL     OW31666   0.015   1.530   5.011 -0.3004  0.5386 -0.2279
 6678SOL    HW131667   4.677   1.577   5.046 -2.5453 -1.6707 -2.0363
 6678SOL    HW231668   0.052   1.587   4.943 -0.1328  1.7703  0.8970
 6679SOL     OW31669   0.193   2.038   2.742  0.7022 -0.1903  0.3390
 6679SOL    HW131670   0.148   2.102   2.796  0.8853 -1.0626  1.5332
 6679SOL    HW231671   0.113   1.997   2.710  0.4216 -0.6527  1.6281
 6680SOL     OW31672   2.332   1.155  13.711  0.2664 -0.5933 -0.2502
 6680SOL    HW131673   2.300   1.201  13.634 -3.3338 -0.2194  1.5053
 6680SOL    HW231674   2.335   1.067  13.672  0.2693  0.3358 -2.3328
 6681SOL     OW31675   3.447   2.593   4.430 -0.0208  0.3529 -0.1555
 6681SOL    HW131676   3.526   2.546   4.404  0.5313  0.3966  1.4120
 6681SOL    HW231677   3.382   2.523   4.439  2.7293 -1.9577  1.8478
 6682SOL     OW31678   2.145   4.307   2.529 -0.5633  0.1564  0.2681
 6682SOL    HW131679   2.145   4.388   2.478 -1.4809 -1.3208 -2.0485
 6682SOL    HW231680   2.084   4.251   2.481  0.6272 -1.3634  0.5278
 6683SOL     OW31681   1.092   4.102   6.118  0.2756 -0.2604 -0.0528
 6683SOL    HW131682   1.077   4.030   6.180  1.7050  1.7566  2.6452
 6683SOL    HW231683   1.001   4.118   6.093  0.3323  0.5305  0.2463
 6684SOL     OW31684   3.375   4.385   7.543  0.3042 -0.2167  0.2712
 6684SOL    HW131685   3.381   4.383   7.639  1.4733 -1.3950  0.1698
 6684SOL    HW231686   3.345   4.476   7.533  4.0092  0.9807 -0.0926
 6685SOL     OW31687   1.676   1.449   8.726  0.0862  0.6560  0.3547
 6685SOL    HW131688   1.701   1.515   8.662  3.9687 -2.2181 -1.1308
 6685SOL    HW231689   1.758   1.439   8.775 -0.7250 -0.6698  1.4722
 6686SOL     OW31690   3.446   3.209  14.790 -0.1600 -0.5862 -0.0287
 6686SOL    HW131691   3.408   3.227  14.704 -0.2472  0.3076  0.2039
 6686SOL    HW231692   3.437   3.114  14.797  4.8254 -0.8571  3.0336
 6687SOL     OW31693   1.505   1.621   0.626  0.1329  0.2430  0.3866
 6687SOL    HW131694   1.588   1.574   0.634  0.6738  1.0300 -0.7048
 6687SOL    HW231695   1.543   1.707   0.643  1.5688 -0.2860 -0.1222
 6688SOL     OW31696   0.552   2.287   9.059  0.0126 -0.0021  0.3814
 6688SOL    HW131697   0.484   2.238   9.104 -0.8546 -0.5507 -1.5330
 6688SOL    HW231698   0.624   2.225   9.043 -0.9673 -1.2602  0.8700
 6689SOL     OW31699   1.872   3.236  12.036  0.0387 -0.1091 -0.8040
 6689SOL    HW131700   1.923   3.305  12.078 -0.2256  1.6355 -3.3480
 6689SOL    HW231701   1.778   3.251  12.046  0.3757  1.7892 -0.5088
 6690SOL     OW31702   3.499   3.843  12.616 -0.3161  0.0206  0.4834
 6690SOL    HW131703   3.432   3.856  12.683  1.8782  0.2979  2.6089
 6690SOL    HW231704   3.549   3.924  12.628  0.7660 -0.2359 -2.2001
 6691SOL     OW31705   3.127   0.136   4.123 -0.2929 -0.6028  0.1355
 6691SOL    HW131706   3.045   0.150   4.170 -0.0509 -2.8869  1.2256
 6691SOL    HW231707   3.168   0.218   4.150 -0.4292 -0.7602  0.8237
 6692SOL     OW31708   1.350   1.880   6.124 -0.0321 -0.2733  0.4686
 6692SOL    HW131709   1.291   1.822   6.077  2.2166 -0.6763 -1.8580
 6692SOL    HW231710   1.317   1.879   6.214 -2.1546  0.3513 -0.3139
 6693SOL     OW31711   0.014   2.287  11.381  0.0555  0.2917  0.3204
 6693SOL    HW131712   0.067   2.357  11.341  0.7106  0.5689  1.6888
 6693SOL    HW231713   4.676   2.286  11.322 -1.2635 -1.2687  2.0638
 6694SOL     OW31714   1.157   0.356   6.140  0.0665 -0.6320 -0.0299
 6694SOL    HW131715   1.236   0.350   6.086  0.4915  1.1714  0.3831
 6694SOL    HW231716   1.087   0.314   6.092 -2.2363  0.5789  2.2678
 6695SOL     OW31717   4.219   1.015  11.335  0.7068 -0.1298  0.1780
 6695SOL    HW131718   4.173   0.938  11.367  0.5918  0.2240  0.8578
 6695SOL    HW231719   4.284   0.969  11.281  2.0028 -1.9398  3.3250
 6696SOL     OW31720   3.324   2.841   1.477  0.0003  0.2245 -0.0007
 6696SOL    HW131721   3.373   2.844   1.559  1.6712 -1.1225 -0.9534
 6696SOL    HW231722   3.315   2.747   1.465  0.5628  0.2876 -0.9579
 6697SOL     OW31723   1.313   3.680   8.352 -0.0862  0.0891  0.3887
 6697SOL    HW131724   1.404   3.662   8.329 -1.0198 -1.3130 -2.2357
 6697SOL    HW231725   1.280   3.657   8.265 -0.1779 -1.4225  0.8248
 6698SOL     OW31726   1.361   3.440   6.052 -0.3665  0.2683 -0.6551
 6698SOL    HW131727   1.368   3.345   6.043 -0.0704  0.1862  0.4141
 6698SOL    HW231728   1.371   3.473   5.963 -2.1132  1.9343 -0.2177
 6699SOL     OW31729   1.072   3.685   8.473  0.0957  0.7535 -0.0284
 6699SOL    HW131730   1.085   3.657   8.564 -2.9404  1.0068  0.4882
 6699SOL    HW231731   1.163   3.686   8.443  0.8018 -1.8101  1.9974
 6700SOL     OW31732   4.119   3.024   4.715 -0.1978 -0.0219  0.1476
 6700SOL    HW131733   4.043   3.054   4.664 -1.3435 -1.4548  0.9973
 6700SOL    HW231734   4.186   3.021   4.647  0.3464  0.5775  0.6667
 6701SOL     OW31735   2.484   3.354   4.080  0.3861 -0.3798 -0.4396
 6701SOL    HW131736   2.421   3.311   4.139 -0.5051 -1.1448 -1.9623
 6701SOL    HW231737   2.442   3.440   4.083  0.1293 -0.4556 -2.0763
 6702SOL     OW31738   2.679   3.068   5.402 -0.5200 -0.3917  0.0511
 6702SOL    HW131739   2.635   2.990   5.435 -0.3981 -0.4594  0.0536
 6702SOL    HW231740   2.606   3.121   5.371 -0.7841 -1.4899 -1.1967
 6703SOL     OW31741   4.552   2.781   7.667 -0.2483 -0.5135 -0.9255
 6703SOL    HW131742   4.555   2.762   7.574  0.6309  0.3358 -1.0657
 6703SOL    HW231743   4.645   2.793   7.684 -0.4503  0.0647 -0.1909
 6704SOL     OW31744   0.259   2.905   8.261  1.3128  0.3325  0.3788
 6704SOL    HW131745   0.336   2.858   8.293  1.1463 -0.0748  0.1854
 6704SOL    HW231746   0.299   2.981   8.218 -0.4353  1.7945  1.3352
 6705SOL     OW31747   1.425   0.090   0.590  0.4940  0.0650 -0.1984
 6705SOL    HW131748   1.437   0.148   0.515  0.9031  1.7366  1.1661
 6705SOL    HW231749   1.373   0.025   0.542  0.9103  0.0339 -0.6101
 6706SOL     OW31750   1.986   3.547   7.093  0.0569  0.3733  0.4519
 6706SOL    HW131751   1.969   3.524   7.001 -3.9211  1.5092  0.9172
 6706SOL    HW231752   2.025   3.634   7.086  0.0378  0.3215 -0.3290
 6707SOL     OW31753   4.312   3.208   9.027  0.0192 -0.9450  0.2716
 6707SOL    HW131754   4.311   3.299   8.998  2.0041 -1.4276 -1.2368
 6707SOL    HW231755   4.220   3.203   9.002 -0.8869  0.6918  3.2482
 6708SOL     OW31756   3.676   4.217   3.670 -0.3234 -0.3772  0.1515
 6708SOL    HW131757   3.694   4.283   3.603  3.1734  0.8551  2.3112
 6708SOL    HW231758   3.754   4.161   3.657 -1.4640 -1.7041 -1.0161
 6709SOL     OW31759   3.805   1.705  11.664  0.0687 -0.0414 -0.1063
 6709SOL    HW131760   3.871   1.774  11.669  0.1393 -0.0344 -1.2372
 6709SOL    HW231761   3.835   1.665  11.582  1.7588  2.8393 -0.8831
 6710SOL     OW31762   1.673   4.427   1.585  0.0061  0.4516  0.2535
 6710SOL    HW131763   1.697   4.504   1.533  1.3577  0.5814  1.0853
 6710SOL    HW231764   1.579   4.431   1.601 -0.2520 -0.9344 -0.8484
 6711SOL     OW31765   3.202   0.396   1.556 -0.0306 -0.3725 -0.4107
 6711SOL    HW131766   3.137   0.329   1.579  0.2069 -0.9410 -1.3671
 6711SOL    HW231767   3.249   0.362   1.480  0.1490  1.5944 -1.1704
 6712SOL     OW31768   1.200   0.064  17.367  0.1891  0.2128  0.2689
 6712SOL    HW131769   1.163   0.126  17.430 -0.4442  1.3377 -1.2147
 6712SOL    HW231770   1.187   0.113  17.286  0.3005  2.4082  1.5812
 6713SOL     OW31771   2.324   2.372   1.741 -0.1091  0.7209 -0.0900
 6713SOL    HW131772   2.256   2.388   1.675 -1.2101  0.6375  1.0135
 6713SOL    HW231773   2.271   2.359   1.820 -1.4836  0.2676 -1.0893
 6714SOL     OW31774   2.722   2.290  12.687 -0.1266  0.1835  0.1726
 6714SOL    HW131775   2.672   2.325  12.760 -0.7094  2.3621 -1.2691
 6714SOL    HW231776   2.654   2.248  12.634 -0.1597  0.1211  0.2658
 6715SOL     OW31777   1.540   4.281  15.715 -0.2548 -0.3159  0.1544
 6715SOL    HW131778   1.539   4.287  15.810  3.6307 -0.2765  0.1636
 6715SOL    HW231779   1.475   4.345  15.685  0.2980 -0.1483 -0.7052
 6716SOL     OW31780   2.168   4.080   8.653  0.0816 -0.3407  0.0092
 6716SOL    HW131781   2.220   4.071   8.573  1.1510 -0.5121  0.7358
 6716SOL    HW231782   2.233   4.104   8.719  0.2350 -1.3993  0.2387
 6717SOL     OW31783   2.420   3.143   5.899  0.4302  0.7485  0.0945
 6717SOL    HW131784   2.370   3.151   5.818 -0.4259  0.5683  0.6133
 6717SOL    HW231785   2.434   3.236   5.918 -3.5467  0.7002  3.2706
 6718SOL     OW31786   3.097   2.941  16.816 -0.0288  0.0731 -0.2667
 6718SOL    HW131787   3.064   2.918  16.729 -0.1294  0.2596 -0.2774
 6718SOL    HW231788   3.069   2.857  16.852 -1.5501 -0.5905 -2.9624
 6719SOL     OW31789   3.595   3.484  11.099  0.2275 -0.4321 -0.0799
 6719SOL    HW131790   3.686   3.508  11.113  0.1296 -0.3112  0.3689
 6719SOL    HW231791   3.557   3.521  11.179  0.9656 -0.1275  0.1305
 6720SOL     OW31792   2.035   1.773   4.804 -0.2885  0.1612  0.7957
 6720SOL    HW131793   1.986   1.691   4.796 -0.4602  0.3981 -0.6634
 6720SOL    HW231794   2.115   1.750   4.756 -0.4543  1.9997 -0.3562
 6721SOL     OW31795   3.382   1.218   8.808 -0.3557 -0.5183  0.0911
 6721SOL    HW131796   3.343   1.305   8.807  1.8980  0.4931  1.0466
 6721SOL    HW231797   3.397   1.212   8.713 -3.0808  0.5764 -0.4197
 6722SOL     OW31798   2.190   3.991   3.630  0.5859 -0.0697 -0.3185
 6722SOL    HW131799   2.215   3.899   3.637 -1.1212 -0.6392 -1.8800
 6722SOL    HW231800   2.095   3.987   3.622  0.5097  1.0647 -0.1112
 6723SOL     OW31801   3.303   0.936   7.373 -0.1797 -0.3419 -0.1663
 6723SOL    HW131802   3.347   0.855   7.398 -1.1268 -0.1290  2.1599
 6723SOL    HW231803   3.385   0.984   7.356 -1.0939  0.7534 -1.5150
 6724SOL     OW31804   0.989   1.647  11.688  0.0203  0.2546 -0.4365
 6724SOL    HW131805   0.962   1.694  11.610  1.0515 -1.8551 -2.0555
 6724SOL    HW231806   1.061   1.607  11.641  0.3889  0.2780  0.1043
 6725SOL     OW31807   4.124   0.831   1.741 -0.1882  0.2013  0.0995
 6725SOL    HW131808   4.117   0.926   1.738  1.8306  0.3266 -0.3645
 6725SOL    HW231809   4.035   0.802   1.718 -0.4177  0.1677  1.0109
 6726SOL     OW31810   0.096   2.411   1.375  0.0086  0.6039  0.5697
 6726SOL    HW131811   0.103   2.396   1.281  0.3003  1.3914  0.4589
 6726SOL    HW231812   0.043   2.334   1.392 -1.5668  1.7185  0.7467
 6727SOL     OW31813   1.409   1.770   5.741 -0.3059  0.0575  0.1743
 6727SOL    HW131814   1.404   1.676   5.755 -1.6702  0.0686 -0.2123
 6727SOL    HW231815   1.362   1.773   5.658 -0.0147  0.2965  0.0164
 6728SOL     OW31816   4.501   0.138   5.736  0.0828  0.6327  0.9272
 6728SOL    HW131817   4.441   0.111   5.667 -0.3459  1.0888  1.1209
 6728SOL    HW231818   4.574   0.160   5.678 -2.4504  3.2104 -1.3354
 6729SOL     OW31819   0.629   1.627   9.577 -0.0918  0.0375 -0.2964
 6729SOL    HW131820   0.613   1.570   9.501  3.6544 -0.1379 -0.9248
 6729SOL    HW231821   0.679   1.699   9.538 -1.5982  2.1837  1.7155
 6730SOL     OW31822   1.351   3.822   4.202  0.2729  0.3744  0.0879
 6730SOL    HW131823   1.357   3.915   4.225  0.9625  0.3467  0.0049
 6730SOL    HW231824   1.434   3.806   4.158  0.3035  0.0948  0.2434
 6731SOL     OW31825   0.035   4.436  15.565  0.5007  0.2097 -0.2616
 6731SOL    HW131826   0.118   4.459  15.608 -0.7970  1.1341  1.7514
 6731SOL    HW231827   0.057   4.438  15.472  0.9191 -0.0555 -0.1683
 6732SOL     OW31828   2.904   3.159  11.965  0.0049 -0.3832  0.1854
 6732SOL    HW131829   2.854   3.095  11.913  1.2508 -0.4029 -0.9794
 6732SOL    HW231830   2.987   3.112  11.958  1.9186  3.2286 -1.3678
 6733SOL     OW31831   1.250   4.681   0.473  0.2295 -0.2062  0.2403
 6733SOL    HW131832   1.198   4.602   0.460 -1.2329  0.5588  1.5095
 6733SOL    HW231833   1.220   0.006   0.406 -3.8568 -2.8879 -0.4001
 6734SOL     OW31834   0.454   2.010  17.688 -0.1850  0.2864  0.1567
 6734SOL    HW131835   0.418   2.069   0.008  0.4961 -1.4145  2.0231
 6734SOL    HW231836   0.446   1.933  17.745 -0.7315  0.1196 -0.1559
 6735SOL     OW31837   3.665   1.116   7.753  0.0371  0.1783 -0.1272
 6735SOL    HW131838   3.658   1.199   7.706  3.3700  0.1072 -0.7508
 6735SOL    HW231839   3.669   1.046   7.688 -0.8341  1.7153 -1.8326
 6736SOL     OW31840   1.966   4.701  10.213 -0.2684 -0.5722  0.1884
 6736SOL    HW131841   1.959   4.616  10.258 -0.0500 -0.8101 -0.2271
 6736SOL    HW231842   1.950   0.033  10.278 -0.1264  0.5551 -0.9823
 6737SOL     OW31843   3.764   0.225   8.093  0.7720  0.7889  0.2711
 6737SOL    HW131844   3.683   0.276   8.101  0.8191  0.9143 -0.0631
 6737SOL    HW231845   3.802   0.270   8.018  1.3248 -2.7798 -1.5586
 6738SOL     OW31846   0.192   4.731   7.310  0.4201 -0.7882  0.4091
 6738SOL    HW131847   0.180   4.642   7.277  1.2811 -0.6513 -0.2872
 6738SOL    HW231848   0.286   4.737   7.328  1.0250  0.3306 -2.9789
 6739SOL     OW31849   4.651   2.731   7.429  0.1863 -0.2147  0.0309
 6739SOL    HW131850   4.614   2.812   7.393 -0.3102 -1.0111 -1.2723
 6739SOL    HW231851   4.684   2.698   7.345 -2.2509 -0.6312 -0.7753
 6740SOL     OW31852   1.197   1.130   1.363  0.0835  0.2321  0.6230
 6740SOL    HW131853   1.249   1.182   1.302 -0.0417  0.6803  0.8965
 6740SOL    HW231854   1.260   1.063   1.391  0.1238 -1.0556 -2.5566
 6741SOL     OW31855   0.873   2.979   5.836  0.0546 -0.7640 -0.3386
 6741SOL    HW131856   0.865   3.074   5.825 -0.4862 -0.9342 -1.4666
 6741SOL    HW231857   0.838   2.952   5.921  1.0895 -0.5770  0.1411
 6742SOL     OW31858   4.025   3.304  14.883 -0.3372 -0.0247 -0.1556
 6742SOL    HW131859   3.948   3.306  14.827 -0.9825 -1.1023  0.7025
 6742SOL    HW231860   4.086   3.335  14.816  0.8663 -0.9666  0.4983
 6743SOL     OW31861   3.030   2.092   1.833 -0.4353  0.0431 -0.3025
 6743SOL    HW131862   3.053   2.123   1.920  0.7561  0.9290 -0.9419
 6743SOL    HW231863   3.021   1.999   1.857 -1.6989 -0.1130 -1.3697
 6744SOL     OW31864   1.135   2.796   8.216 -1.0004  0.2400 -0.4930
 6744SOL    HW131865   1.217   2.755   8.187 -0.0536  1.7326  0.1210
 6744SOL    HW231866   1.162   2.886   8.200  0.3825 -0.0914 -0.0274
 6745SOL     OW31867   3.176   1.909   9.430  0.2546 -0.4434  0.3315
 6745SOL    HW131868   3.179   2.003   9.447  0.7963 -0.2983 -0.5288
 6745SOL    HW231869   3.269   1.891   9.445  0.9352  1.7602 -1.1484
 6746SOL     OW31870   2.166   4.184   5.257  0.5128 -0.3400 -0.3520
 6746SOL    HW131871   2.245   4.229   5.288 -0.8453  0.0089  2.5550
 6746SOL    HW231872   2.128   4.164   5.342 -0.6313  0.4462 -0.6757
 6747SOL     OW31873   2.689   2.393   7.691  0.5672  0.3657 -0.5235
 6747SOL    HW131874   2.620   2.398   7.625 -0.2403 -0.5654  0.2502
 6747SOL    HW231875   2.725   2.481   7.688 -0.6839  0.9738  2.1516
 6748SOL     OW31876   1.619   1.927  11.461 -0.0627 -0.0444 -0.1564
 6748SOL    HW131877   1.534   1.890  11.486 -0.5521  1.9856  1.1433
 6748SOL    HW231878   1.686   1.863  11.484  0.0444  0.1574  0.0962
 6749SOL     OW31879   0.186   4.302  11.536 -0.3796  0.2537  0.0764
 6749SOL    HW131880   0.276   4.311  11.504  0.1040 -2.9503  0.5147
 6749SOL    HW231881   0.142   4.334  11.457  0.5661 -0.6170 -0.8180
 6750SOL     OW31882   3.324   4.402  14.911 -0.2650  0.1193  0.4841
 6750SOL    HW131883   3.324   4.322  14.964 -1.3265 -0.2816 -0.1157
 6750SOL    HW231884   3.234   4.424  14.884 -0.4659 -1.8768 -0.4560
 6751SOL     OW31885   1.459   1.212  10.640  0.0233  0.1128  0.1826
 6751SOL    HW131886   1.518   1.218  10.715 -0.4746 -1.1231  0.6768
 6751SOL    HW231887   1.450   1.303  10.612  2.5984 -0.4269 -2.3197
 6752SOL     OW31888   3.370   0.802   3.884 -0.2778 -0.2656  0.0545
 6752SOL    HW131889   3.343   0.888   3.919 -1.9984 -0.3214 -1.1391
 6752SOL    HW231890   3.316   0.788   3.806  0.5075  0.0842 -0.5454
 6753SOL     OW31891   4.685   3.983   5.952 -0.0786 -0.2477 -0.1609
 6753SOL    HW131892   4.613   4.017   5.899  1.2861 -1.5782 -2.8426
 6753SOL    HW231893   4.727   3.928   5.886  0.3903  0.6178 -0.5749
 6754SOL     OW31894   3.309   4.728   9.229 -0.3181  0.0613 -1.0946
 6754SOL    HW131895   3.389   4.711   9.180  0.9590  0.7838  0.7698
 6754SOL    HW231896   3.295   0.081   9.203  2.1667  0.7116 -0.1890
 6755SOL     OW31897   2.945   0.142   8.799 -0.5604  0.0717  0.3942
 6755SOL    HW131898   2.972   0.224   8.757 -0.7890  0.4355  0.9485
 6755SOL    HW231899   2.890   0.102   8.733  0.5285  0.5057 -0.7859
 6756SOL     OW31900   1.175   1.345   9.132 -0.1134  0.2211  0.1480
 6756SOL    HW131901   1.157   1.434   9.165  1.1160 -0.4587  2.6920
 6756SOL    HW231902   1.096   1.331   9.080 -1.8575 -1.3789  3.1894
 6757SOL     OW31903   0.698   2.857   1.232  0.1514  0.1268 -0.7648
 6757SOL    HW131904   0.736   2.895   1.311  4.3649 -2.3524 -1.5923
 6757SOL    HW231905   0.645   2.794   1.281  2.3994  0.0488  1.5550
 6758SOL     OW31906   2.940   2.615  13.868  0.3509  0.4094 -0.0556
 6758SOL    HW131907   2.918   2.692  13.920  0.6685  0.2156  0.3736
 6758SOL    HW231908   3.028   2.638  13.837  0.8480  0.5136  1.4439
 6759SOL     OW31909   3.109   3.542   9.748  0.7495  0.7720 -0.1907
 6759SOL    HW131910   3.132   3.581   9.832  1.0270 -3.2763  1.5712
 6759SOL    HW231911   3.183   3.572   9.694  3.2069 -2.3368  1.4419
 6760SOL     OW31912   1.572   3.036   7.703 -0.1536  0.5304 -0.3703
 6760SOL    HW131913   1.584   3.128   7.730  1.4832  0.2719 -0.1990
 6760SOL    HW231914   1.550   3.045   7.610  0.7481 -0.5420 -0.6745
 6761SOL     OW31915   1.882   1.975  16.828  0.8342  0.3423 -0.4809
 6761SOL    HW131916   1.967   1.949  16.862  1.1349 -2.5337 -3.4449
 6761SOL    HW231917   1.891   2.059  16.782  2.7658  1.7069  2.4185
 6762SOL     OW31918   2.666   3.745   9.542 -0.0168  0.4065  0.4951
 6762SOL    HW131919   2.605   3.807   9.582  0.6836  1.5845 -0.2655
 6762SOL    HW231920   2.608   3.709   9.474 -2.1908 -1.0336  3.1008
 6763SOL     OW31921   1.949   2.231   6.204  0.7661 -0.5349  0.6741
 6763SOL    HW131922   1.887   2.279   6.150  0.4992 -0.1421  1.3285
 6763SOL    HW231923   2.013   2.299   6.225 -0.9016  0.8807  1.1440
 6764SOL     OW31924   2.188   0.510   4.829  0.5116  0.3097  0.3285
 6764SOL    HW131925   2.193   0.496   4.923 -1.4059 -0.7798  0.2639
 6764SOL    HW231926   2.136   0.432   4.810  0.0369  0.6328  0.2896
 6765SOL     OW31927   3.624   4.635  10.083 -0.6407  0.3016  0.1707
 6765SOL    HW131928   3.581   4.695  10.022 -0.1520  0.2256 -0.2464
 6765SOL    HW231929   3.576   4.558  10.055 -1.8231  0.3428  2.0659
 6766SOL     OW31930   2.259   1.892   4.972  0.2363 -0.1498  0.4080
 6766SOL    HW131931   2.163   1.893   4.974  0.2858 -0.5517  2.6311
 6766SOL    HW231932   2.270   1.984   4.947  0.5419 -0.8984 -2.2546
 6767SOL     OW31933   1.253   3.899   8.921 -0.1416 -0.2985 -0.3319
 6767SOL    HW131934   1.318   3.831   8.938  0.5836 -0.3301 -3.3104
 6767SOL    HW231935   1.175   3.844   8.930  0.2216 -0.3954  2.2207
 6768SOL     OW31936   2.979   2.785   1.331  0.5019  0.1385 -0.0282
 6768SOL    HW131937   3.049   2.760   1.271  0.7432  2.7905 -0.8192
 6768SOL    HW231938   2.909   2.729   1.296  0.1027  1.7623 -1.7991
 6769SOL     OW31939   0.232   4.590   9.860 -0.1802 -0.0245  0.0422
 6769SOL    HW131940   0.171   4.576   9.932 -0.1873 -0.4535 -0.0486
 6769SOL    HW231941   0.296   4.645   9.905 -0.1174 -0.3726  0.3789
 6770SOL     OW31942   0.425   1.696  17.034  0.5263  0.2180 -0.0286
 6770SOL    HW131943   0.406   1.699  17.127  2.2474 -0.2223  0.3358
 6770SOL    HW231944   0.338   1.721  17.004  0.3364 -0.1456  0.2298
 6771SOL     OW31945   2.654   3.613  11.962 -0.3440  0.1640 -0.1990
 6771SOL    HW131946   2.704   3.535  11.939 -1.8057 -1.4719  2.1942
 6771SOL    HW231947   2.683   3.640  12.049  1.7214 -2.8842  0.0676
 6772SOL     OW31948   2.047   0.032   9.277  0.2027 -0.1308  0.3634
 6772SOL    HW131949   2.006   4.699   9.328 -0.2248 -0.2996 -0.2162
 6772SOL    HW231950   2.134   4.736   9.302  1.6708  1.6297 -2.4206
 6773SOL     OW31951   0.542   1.164   0.466 -0.6273 -0.7836 -0.4165
 6773SOL    HW131952   0.529   1.132   0.377 -1.0132  0.6641 -0.8784
 6773SOL    HW231953   0.615   1.226   0.457  1.7692 -3.3519  1.1825
 6774SOL     OW31954   1.407   1.507   1.720  0.0918 -0.4015  0.1062
 6774SOL    HW131955   1.497   1.516   1.690 -0.8295 -0.1210 -2.5398
 6774SOL    HW231956   1.383   1.430   1.668  1.0145 -0.2264 -0.5667
 6775SOL     OW31957   0.573   3.339   0.200  0.3572  0.0832  0.8537
 6775SOL    HW131958   0.668   3.345   0.213  0.4298 -0.7031  0.6631
 6775SOL    HW231959   0.559   3.257   0.152 -1.8592  1.7716 -1.3973
 6776SOL     OW31960   2.349   2.587   1.474 -0.6009 -0.3625  0.1685
 6776SOL    HW131961   2.408   2.611   1.546 -1.4157 -0.7032  0.9534
 6776SOL    HW231962   2.369   2.660   1.417 -0.3274 -1.1808 -0.7854
 6777SOL     OW31963   2.090   2.196   1.934 -0.5269 -0.5842 -0.0552
 6777SOL    HW131964   2.040   2.216   1.855 -2.0365 -0.6591  0.8858
 6777SOL    HW231965   2.078   2.101   1.937 -0.4201 -0.6542 -1.8455
 6778SOL     OW31966   3.312   0.742   2.058  0.4306  0.5720 -0.0515
 6778SOL    HW131967   3.279   0.816   2.109  0.4081  0.7327 -0.3004
 6778SOL    HW231968   3.399   0.776   2.038  0.0625  2.4584  1.4856
 6779SOL     OW31969   3.703   1.164  12.827  0.1532  0.1138  0.0381
 6779SOL    HW131970   3.734   1.249  12.861  1.1825 -0.4095  0.4004
 6779SOL    HW231971   3.615   1.166  12.865 -0.1641  0.2924 -0.7153
 6780SOL     OW31972   3.930   1.630   2.658  0.0666  0.4839  0.0669
 6780SOL    HW131973   3.895   1.545   2.634 -0.0848  1.2260 -2.3531
 6780SOL    HW231974   3.854   1.685   2.639 -0.9518 -1.6870 -2.0507
 6781SOL     OW31975   0.563   1.910   5.730  0.4609 -0.4192 -0.1683
 6781SOL    HW131976   0.561   1.980   5.795  1.1560 -0.0342 -0.5594
 6781SOL    HW231977   0.651   1.912   5.691  0.5679  0.2584  0.0967
 6782SOL     OW31978   2.350   1.255   3.618  0.1537  0.3484 -0.2710
 6782SOL    HW131979   2.267   1.241   3.663  0.2027  0.5498 -0.1182
 6782SOL    HW231980   2.336   1.202   3.540  0.8347 -0.7937  0.3706
 6783SOL     OW31981   3.867   4.430   9.410 -0.7175 -0.5674  0.3983
 6783SOL    HW131982   3.849   4.442   9.503  1.6646  1.3423  0.6230
 6783SOL    HW231983   3.870   4.522   9.384  1.6589 -0.6870  0.2017
 6784SOL     OW31984   0.607   2.475   7.211 -0.2899 -0.2037  0.1178
 6784SOL    HW131985   0.650   2.527   7.278 -0.2268 -0.2608  0.1214
 6784SOL    HW231986   0.577   2.397   7.259  2.3960 -1.0420  0.4451
 6785SOL     OW31987   4.218   1.298   7.521  0.3358  0.3665  0.0547
 6785SOL    HW131988   4.304   1.257   7.516  0.0553 -0.0803 -1.0959
 6785SOL    HW231989   4.244   1.386   7.492  0.0110 -0.0713 -1.5608
 6786SOL     OW31990   3.491   1.804   8.000 -0.0379 -0.3832 -0.1615
 6786SOL    HW131991   3.484   1.823   8.093  0.0469 -0.2155 -0.1877
 6786SOL    HW231992   3.470   1.711   8.000 -0.0274 -0.3864 -0.4631
 6787SOL     OW31993   4.265   0.011  13.821  0.6044 -0.2994  0.7333
 6787SOL    HW131994   4.262   0.093  13.771 -0.6458 -0.1162  1.1084
 6787SOL    HW231995   4.334   0.037  13.882 -0.6378 -1.9290  2.8160
 6788SOL     OW31996   3.267   2.306  11.902 -0.2942  0.1873 -0.4733
 6788SOL    HW131997   3.342   2.299  11.843  0.1633 -1.0715  0.2687
 6788SOL    HW231998   3.299   2.365  11.970 -0.0698  1.2812 -1.5154
 6789SOL     OW31999   4.111   2.078   8.165 -0.5216  0.2931  0.4257
 6789SOL    HW132000   4.114   2.015   8.237 -0.9933  0.2214  0.3781
 6789SOL    HW232001   4.094   2.008   8.103 -0.3683 -0.4718  1.2430
 6790SOL     OW32002   4.516   1.705   7.869 -0.8872 -0.4601  0.2094
 6790SOL    HW132003   4.505   1.800   7.866  0.4509 -0.2896  0.5258
 6790SOL    HW232004   4.431   1.664   7.854 -0.5300 -1.0860 -0.1047
 6791SOL     OW32005   3.088   3.666  17.400  0.4882  0.1563  0.1885
 6791SOL    HW132006   3.033   3.727  17.349  2.8214 -0.3177 -2.9401
 6791SOL    HW232007   3.068   3.579  17.366 -1.9804 -0.1332  2.4079
 6792SOL     OW32008   3.768   2.699   2.004 -0.0552  0.0461  0.4065
 6792SOL    HW132009   3.854   2.658   1.999 -0.3081 -0.5365  0.9305
 6792SOL    HW232010   3.713   2.622   1.992  0.2924 -0.2218  0.5300
 6793SOL     OW32011   4.109   0.946   3.672  0.6064  0.1889  0.1551
 6793SOL    HW132012   4.133   0.893   3.748 -0.2557 -1.8193 -0.9798
 6793SOL    HW232013   4.024   0.913   3.642 -0.0398  1.0610  1.0541
 6794SOL     OW32014   3.566   3.965   2.960  0.1967  0.7785  0.5373
 6794SOL    HW132015   3.615   3.883   2.953 -0.0738  0.6061  0.7074
 6794SOL    HW232016   3.539   3.970   3.052  4.6494  1.2097  1.8163
 6795SOL     OW32017   1.950   3.518  15.460  0.0032 -0.2236  0.3759
 6795SOL    HW132018   1.923   3.507  15.368  1.5359 -1.9038  0.1172
 6795SOL    HW232019   1.979   3.608  15.453  3.3413 -1.2659  0.8464
 6796SOL     OW32020   3.262   1.244   4.133 -0.0177 -0.1717  0.0511
 6796SOL    HW132021   3.284   1.283   4.049  0.1175  1.2969  0.7699
 6796SOL    HW232022   3.346   1.260   4.176 -1.0060  0.3236  1.8275
 6797SOL     OW32023   1.818   0.685   8.784 -0.2191  0.1730 -0.5447
 6797SOL    HW132024   1.777   0.646   8.706 -1.1669 -0.9462  0.5146
 6797SOL    HW232025   1.814   0.614   8.848  0.9190 -1.8567 -2.7386
 6798SOL     OW32026   0.633   4.541   8.578  0.3220 -1.0905  0.0366
 6798SOL    HW132027   0.598   4.596   8.648  0.0458 -0.9538 -0.2065
 6798SOL    HW232028   0.727   4.538   8.593  0.1869 -0.6168  0.9849
 6799SOL     OW32029   1.627   1.955  17.485  0.6241  0.0894 -0.1625
 6799SOL    HW132030   1.701   2.005  17.452  0.3123  0.4182 -0.3692
 6799SOL    HW232031   1.545   2.005  17.478  0.4449 -0.1831 -0.0210
 6800SOL     OW32032   0.473   2.874   9.484 -0.0944  0.1793  0.3156
 6800SOL    HW132033   0.459   2.794   9.432 -1.2889 -0.1457  1.1371
 6800SOL    HW232034   0.443   2.844   9.570  2.2658 -1.0589  0.7008
 6801SOL     OW32035   4.667   3.975  16.241  0.3323 -0.2944 -0.2634
 6801SOL    HW132036   4.691   3.991  16.150 -1.0702 -2.0531 -0.9557
 6801SOL    HW232037   4.732   3.906  16.256 -0.4980 -0.6245  1.8022
 6802SOL     OW32038   4.525   0.432   3.717  0.6632 -0.2142 -0.0525
 6802SOL    HW132039   4.592   0.492   3.751 -1.8211  2.5567 -0.0953
 6802SOL    HW232040   4.547   0.349   3.758  1.1587 -0.0144  0.0956
 6803SOL     OW32041   4.498   4.200  16.230  0.3726 -0.0505  0.4784
 6803SOL    HW132042   4.549   4.233  16.156 -1.7001 -0.2290 -1.0270
 6803SOL    HW232043   4.539   4.117  16.252 -1.0240 -0.6321  0.8770
 6804SOL     OW32044   1.017   3.869   6.211  0.3842 -0.0642 -0.3377
 6804SOL    HW132045   1.007   3.873   6.307  1.5850  1.4941 -0.2686
 6804SOL    HW232046   0.930   3.861   6.173 -0.4875 -2.3748  2.1318
 6805SOL     OW32047   0.520   0.930  13.980 -0.6875 -0.4354  0.2319
 6805SOL    HW132048   0.504   0.964  13.893  1.9604  0.5689  0.1364
 6805SOL    HW232049   0.449   0.970  14.030 -0.1364  2.0608 -1.0084
 6806SOL     OW32050   3.578   1.423   9.135 -0.0050 -0.0984  0.3570
 6806SOL    HW132051   3.654   1.471   9.103  0.3608 -0.0750  1.2401
 6806SOL    HW232052   3.602   1.407   9.227  0.9018  2.1379  0.5031
 6807SOL     OW32053   1.762   3.939   4.877 -0.4181 -0.5168  0.2792
 6807SOL    HW132054   1.762   3.936   4.782 -1.2629  2.5659  0.2083
 6807SOL    HW232055   1.719   3.856   4.900 -1.3374 -0.2224 -0.3730
 6808SOL     OW32056   0.409   0.653   5.190  0.3647  0.1676  0.2372
 6808SOL    HW132057   0.430   0.649   5.283 -3.7312  1.4407  1.2297
 6808SOL    HW232058   0.332   0.709   5.183 -1.4217 -2.0577  2.3021
 6809SOL     OW32059   0.335   0.183   6.069  0.0240  0.5280  0.6598
 6809SOL    HW132060   0.245   0.154   6.056  0.3276 -1.4149  2.8393
 6809SOL    HW232061   0.339   0.277   6.051  0.2699  0.1025 -1.4159
 6810SOL     OW32062   3.797   3.758   6.635  0.2508  0.2212 -0.3880
 6810SOL    HW132063   3.769   3.715   6.555 -2.9874 -1.0181  1.4352
 6810SOL    HW232064   3.804   3.688   6.700 -0.4720 -0.5035 -1.0978
 6811SOL     OW32065   1.212   1.138   5.233  0.1833  0.1275  0.2954
 6811SOL    HW132066   1.125   1.164   5.202  0.9084 -0.1326 -1.9454
 6811SOL    HW232067   1.264   1.207   5.191  0.8093 -1.2149 -1.0947
 6812SOL     OW32068   3.063   1.989   8.197 -0.0169 -0.2096 -0.4699
 6812SOL    HW132069   3.113   2.062   8.161  0.4113 -0.8261 -1.1285
 6812SOL    HW232070   3.000   1.998   8.125 -0.0384  0.2886 -0.3908
 6813SOL     OW32071   4.647   3.284   0.978  0.5804  0.1714 -0.1848
 6813SOL    HW132072   4.696   3.364   1.001  1.2619  0.5051 -2.8549
 6813SOL    HW232073   4.658   3.222   1.050  1.8854 -0.0333 -0.5680
 6814SOL     OW32074   1.100   2.469   9.623  0.2730  0.1682 -0.3660
 6814SOL    HW132075   1.118   2.561   9.606  0.3506  0.0208 -1.1053
 6814SOL    HW232076   1.049   2.450   9.544 -0.4713  0.6510  0.0009
 6815SOL     OW32077   0.683   2.433  16.523  0.3196  0.4824  0.2141
 6815SOL    HW132078   0.734   2.352  16.521 -0.0178  0.2642  0.3694
 6815SOL    HW232079   0.710   2.481  16.601  1.1059 -0.5272  0.5572
 6816SOL     OW32080   4.201   0.330  15.878  0.3115 -0.3458  0.0965
 6816SOL    HW132081   4.257   0.287  15.814  1.2036 -1.3229  1.5476
 6816SOL    HW232082   4.134   0.367  15.821  0.4220  0.5749  0.5522
 6817SOL     OW32083   4.631   4.631   3.222  0.1170  0.2540 -0.2289
 6817SOL    HW132084   4.639   4.642   3.317 -2.3638  0.3139 -0.0376
 6817SOL    HW232085   4.703   4.688   3.195  0.4603  0.3906  0.9649
 6818SOL     OW32086   2.594   4.012  15.966  0.1794  0.0184  0.5091
 6818SOL    HW132087   2.571   3.921  15.946 -0.6947 -0.0961  2.0099
 6818SOL    HW232088   2.678   4.012  15.921  0.3057  1.6912  0.7434
 6819SOL     OW32089   1.248   0.619   5.151  0.3986  0.1592  0.0604
 6819SOL    HW132090   1.262   0.571   5.069  1.2371  1.7267 -0.7061
 6819SOL    HW232091   1.247   0.709   5.119  2.5103  0.0170 -0.4514
 6820SOL     OW32092   0.777   1.532   5.968  0.4382  0.1729 -0.2083
 6820SOL    HW132093   0.776   1.495   5.880  1.8999  0.5026 -0.3720
 6820SOL    HW232094   0.802   1.466   6.033  2.6181  2.1013  0.9305
 6821SOL     OW32095   1.935   1.005  14.518  0.2539  0.1571 -0.1840
 6821SOL    HW132096   1.900   1.078  14.569  2.2988  0.1649  1.2335
 6821SOL    HW232097   2.030   1.000  14.534  0.0742  4.0077  1.8892
 6822SOL     OW32098   0.355   2.605  13.188 -0.4470 -0.6497  0.5645
 6822SOL    HW132099   0.366   2.517  13.223  1.6525 -0.1881  1.1244
 6822SOL    HW232100   0.264   2.633  13.191 -0.5292 -0.9222  0.6500
 6823SOL     OW32101   0.818   1.398   7.583 -0.1660 -0.1918 -0.1728
 6823SOL    HW132102   0.759   1.362   7.649 -1.9630  0.9284 -1.1609
 6823SOL    HW232103   0.878   1.327   7.561 -0.7045 -0.4234 -0.8809
 6824SOL     OW32104   1.558   2.762   0.937  0.4594 -0.5624 -0.9856
 6824SOL    HW132105   1.594   2.758   1.026  1.5784 -0.5920 -1.4397
 6824SOL    HW232106   1.495   2.833   0.944  0.2423 -0.8568  0.0097
 6825SOL     OW32107   1.079   2.220  11.193 -0.1572  0.0876  0.0022
 6825SOL    HW132108   1.034   2.292  11.149 -1.3933 -1.1354 -0.7364
 6825SOL    HW232109   1.017   2.151  11.168  1.3609 -1.3622  0.2436
 6826SOL     OW32110   0.986   4.201  15.082  0.1806  0.2416  0.2566
 6826SOL    HW132111   1.026   4.186  14.996 -0.4888 -1.7945  0.2884
 6826SOL    HW232112   1.064   4.199  15.137 -0.8678 -0.8789  1.7262
 6827SOL     OW32113   3.135   1.108   8.457 -0.1037  0.1754 -0.1707
 6827SOL    HW132114   3.080   1.143   8.386  0.2710  2.0774  0.4566
 6827SOL    HW232115   3.146   1.015   8.442  1.6423  0.3521  0.0683
 6828SOL     OW32116   4.729   1.910  10.690 -0.0875 -0.1242 -0.4160
 6828SOL    HW132117   0.084   1.902  10.664  0.3617  2.6734  0.2924
 6828SOL    HW232118   4.733   1.974  10.761 -0.2954  0.1807 -0.6776
 6829SOL     OW32119   1.465   1.214   1.871 -0.0201 -0.1483 -0.4504
 6829SOL    HW132120   1.511   1.180   1.795 -0.1116  0.2272 -0.6715
 6829SOL    HW232121   1.380   1.241   1.834 -0.6673  0.0189  1.1458
 6830SOL     OW32122   0.446   2.739   8.380  0.0407  0.0340  0.6986
 6830SOL    HW132123   0.404   2.685   8.447  0.5715 -1.2891 -0.0466
 6830SOL    HW232124   0.496   2.681   8.323 -0.2398  1.2737 -0.7937
 6831SOL     OW32125   4.237   4.515   7.657 -0.5426 -0.1074 -0.4562
 6831SOL    HW132126   4.331   4.515   7.680 -0.7097  0.4803  0.2407
 6831SOL    HW232127   4.229   4.475   7.571 -1.0285 -1.4172  0.2093
 6832SOL     OW32128   2.114   2.601   3.691  0.3847  0.1713  0.6077
 6832SOL    HW132129   2.140   2.692   3.706  1.0045  0.3075 -1.3239
 6832SOL    HW232130   2.142   2.582   3.602  0.2815 -0.0721  0.6265
 6833SOL     OW32131   1.217   2.803   8.979 -0.1037  0.9690  0.6220
 6833SOL    HW132132   1.231   2.791   9.073  0.4990 -1.3993  0.2105
 6833SOL    HW232133   1.165   2.884   8.988 -0.5717  0.7165  0.1743
 6834SOL     OW32134   0.453   3.008   0.841  0.1362  0.0896  0.1207
 6834SOL    HW132135   0.412   3.094   0.828 -1.3080 -0.7706 -1.1501
 6834SOL    HW232136   0.495   3.026   0.925 -1.7082 -0.9342  1.2722
 6835SOL     OW32137   1.602   2.411   3.820  0.2079 -0.6360 -0.1590
 6835SOL    HW132138   1.576   2.355   3.893 -1.8634  0.5653  0.0133
 6835SOL    HW232139   1.539   2.482   3.834  1.1674  0.1198  0.3214
 6836SOL     OW32140   3.711   3.786  12.327  0.6092  0.1057 -0.0041
 6836SOL    HW132141   3.645   3.795  12.258 -1.6078 -1.1591  1.9346
 6836SOL    HW232142   3.708   3.878  12.351 -1.3620 -0.1813  0.8535
 6837SOL     OW32143   0.677   2.137   7.165 -0.2814 -0.4809  0.2785
 6837SOL    HW132144   0.732   2.090   7.228  0.9502 -0.7895 -1.0311
 6837SOL    HW232145   0.636   2.194   7.230  1.1866 -0.2555  0.9973
 6838SOL     OW32146   1.938   1.891   4.145  1.0605  0.1115 -0.2878
 6838SOL    HW132147   2.017   1.879   4.199  0.1953  0.2633  0.9975
 6838SOL    HW232148   1.865   1.902   4.206  0.5358  0.9035 -1.0579
 6839SOL     OW32149   2.507   2.977  14.063 -0.2606  0.4271  0.2934
 6839SOL    HW132150   2.502   3.066  14.028  1.0409 -0.3598 -1.8948
 6839SOL    HW232151   2.521   2.926  13.983 -1.8514  0.1844  0.1590
 6840SOL     OW32152   2.826   1.704   4.318  0.3714  0.3549  0.1694
 6840SOL    HW132153   2.839   1.622   4.271 -1.0019  1.3535 -1.9365
 6840SOL    HW232154   2.916   1.737   4.318  1.0008 -1.3704 -0.0201
 6841SOL     OW32155   3.900   2.904   1.435  0.2245  0.1372  0.0975
 6841SOL    HW132156   3.824   2.883   1.488  0.5147 -3.9574 -1.0659
 6841SOL    HW232157   3.868   2.861   1.355 -0.8946 -3.4720  2.4613
 6842SOL     OW32158   1.176   0.000  11.618  0.5163  0.4924 -0.3471
 6842SOL    HW132159   1.249   4.693  11.661 -1.0886 -0.6930  1.1786
 6842SOL    HW232160   1.151   0.064  11.686 -0.4060  0.7834 -0.9491
 6843SOL     OW32161   0.553   4.561   2.256 -0.6769  0.2242  0.5356
 6843SOL    HW132162   0.631   4.609   2.285  1.3712 -2.3441 -0.7933
 6843SOL    HW232163   0.516   4.540   2.342 -1.9246 -1.2789 -0.3905
 6844SOL     OW32164   2.428   2.776   1.256 -0.4893  0.3801  0.3162
 6844SOL    HW132165   2.388   2.840   1.196 -0.0333 -0.6342 -1.0768
 6844SOL    HW232166   2.515   2.814   1.264  0.2515 -1.0522 -0.9742
 6845SOL     OW32167   1.610   3.481   8.236 -0.2426  0.2143 -0.1468
 6845SOL    HW132168   1.610   3.576   8.245 -1.3551 -0.0314  2.5902
 6845SOL    HW232169   1.542   3.450   8.296  0.4167  0.7026  0.8566
 6846SOL     OW32170   4.209   1.070   6.113 -0.1905  0.3757 -0.0762
 6846SOL    HW132171   4.247   0.982   6.121 -1.6416 -0.3326 -0.9816
 6846SOL    HW232172   4.146   1.071   6.185  0.9558  1.6895  0.9131
 6847SOL     OW32173   0.855   0.582   3.377  0.2187 -0.4092  0.4613
 6847SOL    HW132174   0.933   0.636   3.386 -0.6989  1.3568 -2.0348
 6847SOL    HW232175   0.869   0.540   3.292  1.1432 -1.2028  1.0155
 6848SOL     OW32176   3.051   4.458   8.542  0.0834 -0.3445  0.1798
 6848SOL    HW132177   2.965   4.438   8.505  0.7702 -2.4298 -0.2816
 6848SOL    HW232178   3.073   4.524   8.476  0.3257 -0.3261  0.2787
 6849SOL     OW32179   2.110   1.590  11.030  0.6353  0.5303  0.1447
 6849SOL    HW132180   2.117   1.685  11.027  4.6256  0.2610  0.3583
 6849SOL    HW232181   2.019   1.571  11.053  0.2214  0.3135 -1.6335
 6850SOL     OW32182   3.510   1.715   8.753 -0.8480 -0.5974  0.4488
 6850SOL    HW132183   3.481   1.669   8.832  0.5412  0.5177  1.6056
 6850SOL    HW232184   3.462   1.798   8.747  0.0202 -0.2099 -1.1899
 6851SOL     OW32185   0.927   0.262  16.694 -0.5441  0.1842 -0.2493
 6851SOL    HW132186   0.892   0.191  16.640  0.3821 -2.0468  2.0809
 6851SOL    HW232187   0.997   0.211  16.735  0.6363  1.1624 -1.0443
 6852SOL     OW32188   3.089   4.167   9.424  0.8051 -0.4001 -0.1216
 6852SOL    HW132189   3.020   4.233   9.425  1.2342  0.0138  1.3443
 6852SOL    HW232190   3.160   4.218   9.386  1.1845 -0.2932  0.7299
 6853SOL     OW32191   1.347   2.423  14.362 -0.1044  0.0928 -0.2703
 6853SOL    HW132192   1.335   2.333  14.334 -1.3643 -0.4351  1.9903
 6853SOL    HW232193   1.402   2.460  14.293  0.2735 -0.7752 -0.4326
 6854SOL     OW32194   0.110   4.428   3.415  0.0505  0.0122  0.7841
 6854SOL    HW132195   0.041   4.362   3.422  0.7367 -0.5995  1.6936
 6854SOL    HW232196   0.059   4.504   3.442 -2.9277 -1.8060  0.2913
 6855SOL     OW32197   0.533   0.461   2.727 -0.6354  0.8370 -0.0418
 6855SOL    HW132198   0.628   0.454   2.730 -0.6956 -0.0734 -0.5318
 6855SOL    HW232199   0.525   0.544   2.681 -2.6568  0.7702  0.1502
 6856SOL     OW32200   2.724   0.687  11.651  0.0235 -0.0368  0.2577
 6856SOL    HW132201   2.713   0.705  11.558 -0.8425 -2.3796 -0.0922
 6856SOL    HW232202   2.785   0.614  11.639 -0.2960 -0.5389  1.6555
 6857SOL     OW32203   2.387   1.667   4.859  0.1237  0.0986 -0.8136
 6857SOL    HW132204   2.321   1.724   4.899  1.0609  0.2619  0.4723
 6857SOL    HW232205   2.343   1.583   4.866  0.5842 -0.2045 -1.5099
 6858SOL     OW32206   3.801   4.627   9.678  0.5674  0.4133 -0.4676
 6858SOL    HW132207   3.878   4.572   9.664  0.5691 -0.1427  1.7518
 6858SOL    HW232208   3.836   4.714   9.695 -1.5457  1.0789  0.4286
 6859SOL     OW32209   1.873   3.165  16.749 -0.4028 -0.3047 -0.4202
 6859SOL    HW132210   1.865   3.149  16.655  1.7226  0.8044 -0.7965
 6859SOL    HW232211   1.793   3.124  16.782 -1.1980  2.4672  1.0915
 6860SOL     OW32212   0.405   4.207   7.199  0.3598 -0.0622  0.2617
 6860SOL    HW132213   0.441   4.220   7.287  0.7370 -0.4110  0.1603
 6860SOL    HW232214   0.341   4.138   7.213 -0.3840  0.4758 -0.4841
 6861SOL     OW32215   1.007   2.639   0.700 -0.1994 -0.2337  0.0101
 6861SOL    HW132216   1.000   2.545   0.718  1.1456 -0.6137 -1.4296
 6861SOL    HW232217   1.089   2.650   0.652 -1.5059  0.9707 -1.9597
 6862SOL     OW32218   1.674   1.528   6.874 -0.0411 -0.3211 -0.3981
 6862SOL    HW132219   1.748   1.496   6.823 -0.0629 -1.5038  0.3056
 6862SOL    HW232220   1.602   1.530   6.810  1.3099  1.6231 -1.8653
 6863SOL     OW32221   0.929   1.202   2.227  0.0612 -0.2052 -0.1149
 6863SOL    HW132222   0.953   1.288   2.191 -1.8468  0.9876  1.4605
 6863SOL    HW232223   0.916   1.225   2.319 -3.8891 -1.4111 -0.3599
 6864SOL     OW32224   2.859   4.566   5.079 -0.1392  0.7622  0.5676
 6864SOL    HW132225   2.916   4.491   5.061  0.7667  1.4670  0.4760
 6864SOL    HW232226   2.794   4.527   5.137 -0.0013  0.2774  0.3964
 6865SOL     OW32227   0.129   2.415   5.951  0.4374 -0.5863 -0.0809
 6865SOL    HW132228   0.095   2.331   5.982 -0.8739  0.6808  1.9116
 6865SOL    HW232229   0.085   2.420   5.867 -1.5757 -1.1987  0.9406
 6866SOL     OW32230   4.047   2.028   3.884 -0.6339 -0.1371  0.0436
 6866SOL    HW132231   4.098   1.948   3.896  2.0927  1.8465  1.5853
 6866SOL    HW232232   4.094   2.094   3.935  0.9500  0.2149 -1.8576
 6867SOL     OW32233   2.332   1.085   3.379 -0.0208  0.5078 -0.1024
 6867SOL    HW132234   2.301   0.999   3.351  0.1657  0.9852 -1.7990
 6867SOL    HW232235   2.325   1.131   3.295  1.2215  3.9393  1.6794
 6868SOL     OW32236   4.101   3.536  11.408  0.1001 -0.0907  0.0809
 6868SOL    HW132237   4.064   3.459  11.365  0.9273  1.5660 -3.5677
 6868SOL    HW232238   4.196   3.524  11.403  0.0095  0.2075 -1.9935
 6869SOL     OW32239   0.771   0.199   4.962  0.0162 -0.4072  0.4254
 6869SOL    HW132240   0.777   0.110   4.998  0.3230 -0.2388  0.7940
 6869SOL    HW232241   0.865   0.210   4.951  0.1392  0.4756  2.4850
 6870SOL     OW32242   1.733   2.948   5.720 -0.5185 -0.4730  0.3715
 6870SOL    HW132243   1.744   3.040   5.698 -0.3694 -0.2934  1.1996
 6870SOL    HW232244   1.709   2.906   5.637 -1.1360  0.8375 -0.1076
 6871SOL     OW32245   3.021   3.288   5.028  0.4680  0.4581 -0.3404
 6871SOL    HW132246   2.965   3.293   5.106 -1.6008 -2.6994 -1.6418
 6871SOL    HW232247   3.105   3.283   5.072  1.1691 -0.1226 -1.7597
 6872SOL     OW32248   1.651   0.992   7.089  0.5249  0.1208 -0.2580
 6872SOL    HW132249   1.627   0.937   7.014 -0.5396  0.7992 -0.4195
 6872SOL    HW232250   1.723   1.042   7.051  0.9313 -0.3808 -0.1387
 6873SOL     OW32251   0.470   3.824   7.949  0.0665  0.7523 -0.3300
 6873SOL    HW132252   0.438   3.891   8.010  1.0910  0.6745  0.2865
 6873SOL    HW232253   0.551   3.791   7.988  0.4709  0.6442 -1.2552
 6874SOL     OW32254   1.808   2.879   1.290 -0.4171 -0.4159  0.5618
 6874SOL    HW132255   1.734   2.830   1.255  0.8257 -1.5741 -0.4795
 6874SOL    HW232256   1.799   2.834   1.374 -1.9915 -0.4984  0.3376
 6875SOL     OW32257   4.338   2.639  10.770 -0.4008 -0.2303 -0.0732
 6875SOL    HW132258   4.310   2.728  10.788 -0.2178 -0.4188  1.1176
 6875SOL    HW232259   4.427   2.653  10.802 -1.1396  1.5075  1.1877
 6876SOL     OW32260   0.780   3.845   1.053 -0.2504 -0.2595 -0.1787
 6876SOL    HW132261   0.697   3.884   1.024  0.1367  0.1946 -0.6675
 6876SOL    HW232262   0.839   3.898   1.000  0.7980 -0.9216  0.3410
 6877SOL     OW32263   1.429   1.495  16.439  0.2403 -0.3948  0.0332
 6877SOL    HW132264   1.403   1.586  16.429 -0.4311 -0.4902  0.9421
 6877SOL    HW232265   1.432   1.460  16.350 -4.4888  2.9779 -1.4190
 6878SOL     OW32266   0.291   3.839  10.358  0.1634  1.1426 -0.3209
 6878SOL    HW132267   0.207   3.804  10.385  1.1819  0.2369  1.6415
 6878SOL    HW232268   0.304   3.794  10.274 -0.4352 -0.7898  0.6254
 6879SOL     OW32269   3.688   3.827   5.280  0.0985  0.4125  0.1528
 6879SOL    HW132270   3.752   3.890   5.249 -1.2864  0.4136 -2.7231
 6879SOL    HW232271   3.729   3.776   5.350 -0.9003 -0.7031 -0.0559
 6880SOL     OW32272   3.865   3.728  12.577  0.3365 -0.4621 -0.0347
 6880SOL    HW132273   3.835   3.765  12.494 -0.7468 -0.5694  0.3174
 6880SOL    HW232274   3.958   3.743  12.557  0.0657  0.3923 -0.6515
 6881SOL     OW32275   1.498   2.724   7.880 -0.0061 -0.0546  0.0824
 6881SOL    HW132276   1.490   2.771   7.962 -0.6748  0.6455 -0.3777
 6881SOL    HW232277   1.584   2.690   7.902  0.1111 -0.0549 -0.3633
 6882SOL     OW32278   4.290   3.890   2.480 -0.1889 -0.2836  0.0481
 6882SOL    HW132279   4.325   3.959   2.536  0.0570 -0.9141  0.6647
 6882SOL    HW232280   4.363   3.828   2.483 -2.2140 -2.6668  0.4471
 6883SOL     OW32281   1.406   4.569   5.001 -0.1076 -0.5449 -0.6603
 6883SOL    HW132282   1.352   4.506   4.953 -0.8819  1.4435 -2.3979
 6883SOL    HW232283   1.430   4.519   5.079  1.2939  3.3170  1.3686
 6884SOL     OW32284   0.606   2.085   7.842 -0.1420 -0.1531 -1.0183
 6884SOL    HW132285   0.558   2.098   7.924 -0.0329 -1.7926 -0.6812
 6884SOL    HW232286   0.588   2.166   7.795  0.5309 -0.0724 -1.1411
 6885SOL     OW32287   4.261   3.165  12.467  0.0610 -0.1214  0.4114
 6885SOL    HW132288   4.309   3.139  12.545 -0.5353  0.9659  1.1398
 6885SOL    HW232289   4.176   3.132  12.497  0.9290 -2.0294  0.7783
 6886SOL     OW32290   3.407   0.683  10.497 -0.3684 -0.4888 -0.0919
 6886SOL    HW132291   3.419   0.622  10.424  0.5120  0.6478 -0.8982
 6886SOL    HW232292   3.391   0.625  10.572 -2.5206  0.4125  0.1378
 6887SOL     OW32293   0.876   2.974   3.288  0.5424 -0.3992 -0.0269
 6887SOL    HW132294   0.944   2.907   3.281  0.9658 -0.1669  1.8274
 6887SOL    HW232295   0.841   2.955   3.201 -3.1541  0.6098  1.2498
 6888SOL     OW32296   2.400   3.132   4.629  0.6778  0.1862 -0.0949
 6888SOL    HW132297   2.461   3.058   4.633  1.2601  0.6631 -0.2744
 6888SOL    HW232298   2.458   3.193   4.583 -0.6188  1.2056 -0.3691
 6889SOL     OW32299   1.028   1.564   1.999  0.0011  0.1658  0.1658
 6889SOL    HW132300   1.123   1.561   2.002  0.0846 -0.7153 -2.8430
 6889SOL    HW232301   1.015   1.658   2.013  0.5098  0.2375  0.1632
 6890SOL     OW32302   0.068   2.087   0.825 -0.1028  0.1838 -0.1694
 6890SOL    HW132303   0.039   2.045   0.906 -3.4771 -1.0253 -1.9898
 6890SOL    HW232304   4.723   2.134   0.808  0.0184 -0.5065 -2.5699
 6891SOL     OW32305   2.193   4.196   7.115  0.0195  0.4541 -0.6514
 6891SOL    HW132306   2.182   4.289   7.133 -2.1259 -0.0690  0.6964
 6891SOL    HW232307   2.148   4.181   7.032  1.3262 -1.7399 -0.9474
 6892SOL     OW32308   3.805   4.598  13.903 -0.2401  0.3925 -0.0513
 6892SOL    HW132309   3.766   4.612  13.989  0.9559  5.4040 -0.2738
 6892SOL    HW232310   3.891   4.632  13.930 -0.1289 -1.2448  1.6408
 6893SOL     OW32311   4.317   0.115  16.145  0.9192 -0.0295  0.3743
 6893SOL    HW132312   4.234   0.149  16.180  0.4922 -0.2825 -0.4012
 6893SOL    HW232313   4.325   0.028  16.184 -0.4038 -0.3305 -0.0253
 6894SOL     OW32314   2.097   2.852  16.852  0.3836  0.3851  0.3556
 6894SOL    HW132315   2.122   2.865  16.761 -1.4658  0.3268 -0.1569
 6894SOL    HW232316   2.146   2.770  16.859  1.0178  0.5745 -1.8449
 6895SOL     OW32317   3.971   2.974   8.917  0.5330  0.4297  0.3663
 6895SOL    HW132318   3.911   2.972   8.843 -0.5747  1.0162  1.2419
 6895SOL    HW232319   3.959   3.064   8.948  2.1176  0.8711 -0.3126
 6896SOL     OW32320   2.625   3.498   2.247  0.5516 -0.0083 -0.1181
 6896SOL    HW132321   2.676   3.534   2.320 -2.0257 -0.3758  1.8813
 6896SOL    HW232322   2.592   3.582   2.217  0.3721 -0.3021 -0.7308
 6897SOL     OW32323   1.846   2.273  13.624  0.6830 -0.4840  0.1256
 6897SOL    HW132324   1.862   2.179  13.629  2.0794 -0.2499  0.0442
 6897SOL    HW232325   1.759   2.277  13.663  0.1942 -1.6014 -0.8440
 6898SOL     OW32326   1.983   2.475   5.124 -0.7985  0.6037  0.0497
 6898SOL    HW132327   2.041   2.547   5.099  2.0115 -1.6812 -0.0113
 6898SOL    HW232328   2.039   2.399   5.108 -2.8852 -0.5116 -1.9459
 6899SOL     OW32329   2.707   0.227   4.996 -0.6813 -0.1235  0.5332
 6899SOL    HW132330   2.672   0.316   4.989 -1.0911 -0.4444 -1.5513
 6899SOL    HW232331   2.642   0.178   4.946  0.3339 -0.3799 -0.5210
 6900SOL     OW32332   2.006   4.297  13.884  0.0275  0.5509  0.0816
 6900SOL    HW132333   1.999   4.202  13.874  3.0010  0.1985  1.3807
 6900SOL    HW232334   2.072   4.307  13.952 -2.2107 -0.6154  2.4203
 6901SOL     OW32335   3.080   1.759   8.363  0.0374 -0.4779  0.0034
 6901SOL    HW132336   3.075   1.846   8.323  1.4490 -0.9236 -1.1282
 6901SOL    HW232337   2.992   1.753   8.401  1.1820 -2.5785  2.3006
 6902SOL     OW32338   1.483   1.373   9.101 -0.7457  0.2786 -0.3369
 6902SOL    HW132339   1.397   1.411   9.117 -0.1028  1.2408  0.8421
 6902SOL    HW232340   1.468   1.293   9.152 -0.3939  1.3074  1.3919
 6903SOL     OW32341   1.280   1.716  16.790 -0.0912  0.7016  0.5629
 6903SOL    HW132342   1.288   1.630  16.748  0.7418  0.9118  0.2935
 6903SOL    HW232343   1.188   1.739  16.777 -0.2455  0.7680  1.7916
 6904SOL     OW32344   1.579   4.296  14.458  0.3163  0.5633 -0.1686
 6904SOL    HW132345   1.625   4.367  14.501 -0.4968  1.5300 -0.9007
 6904SOL    HW232346   1.484   4.309  14.466  0.4048 -0.3037  2.3209
 6905SOL     OW32347   4.091   0.794   4.571 -0.1296  0.1110 -0.1777
 6905SOL    HW132348   4.045   0.748   4.501  1.0622  0.7237 -1.3500
 6905SOL    HW232349   4.178   0.804   4.533  0.3694 -1.9746  0.4213
 6906SOL     OW32350   1.747   2.496   8.387  0.3646  0.2614  0.2161
 6906SOL    HW132351   1.684   2.522   8.319  1.3823  1.4445 -0.2730
 6906SOL    HW232352   1.702   2.418   8.420  0.3747  1.4467  2.9819
 6907SOL     OW32353   0.171   2.288   5.301 -0.0575  0.6992 -0.4999
 6907SOL    HW132354   0.184   2.382   5.299 -2.4367  1.0165 -1.5057
 6907SOL    HW232355   0.207   2.270   5.388 -2.3681  0.5742  0.4559
 6908SOL     OW32356   0.645   1.289   2.536 -0.3393  0.2261 -0.0315
 6908SOL    HW132357   0.728   1.336   2.535 -0.2653  0.1222  0.7036
 6908SOL    HW232358   0.665   1.205   2.495 -0.7118  0.0377  0.1684
 6909SOL     OW32359   0.826   3.253   7.178 -0.1543  0.0705  0.0232
 6909SOL    HW132360   0.800   3.204   7.256 -3.1943  0.4878 -0.7341
 6909SOL    HW232361   0.771   3.206   7.116  0.2506 -1.7872  1.0580
 6910SOL     OW32362   2.686   3.043  14.683  0.2589  0.2733 -0.1645
 6910SOL    HW132363   2.603   3.012  14.647 -0.2831  1.9848 -0.3970
 6910SOL    HW232364   2.674   3.035  14.778 -0.6945  0.3856 -0.2778
 6911SOL     OW32365   3.279   0.984   3.250  0.2465  0.5515 -0.1668
 6911SOL    HW132366   3.214   1.050   3.227 -1.8799 -1.7316 -0.5330
 6911SOL    HW232367   3.300   0.940   3.168  1.7302 -0.8907  0.9689
 6912SOL     OW32368   2.797   4.689   4.841  0.0523  0.8250 -0.4605
 6912SOL    HW132369   2.813   4.648   4.926 -0.3107  1.4696 -0.0804
 6912SOL    HW232370   2.706   4.718   4.846 -0.7177 -2.2478  3.3258
 6913SOL     OW32371   4.212   3.387   8.227 -0.0495 -0.2622  0.1696
 6913SOL    HW132372   4.277   3.454   8.203 -1.2534  0.6023 -0.6960
 6913SOL    HW232373   4.244   3.336   8.301  0.1044 -1.8487 -1.0034
 6914SOL     OW32374   4.305   1.672   8.312 -0.4845  0.6904 -0.0613
 6914SOL    HW132375   4.391   1.652   8.276 -0.9312 -0.3330 -0.5688
 6914SOL    HW232376   4.259   1.679   8.229  0.2671  1.1353 -0.4360
 6915SOL     OW32377   2.447   2.164   8.633  0.0860 -0.5601 -0.0207
 6915SOL    HW132378   2.389   2.092   8.659 -0.1652 -1.0497 -1.9369
 6915SOL    HW232379   2.516   2.111   8.593  0.6064  0.3346 -0.3074
 6916SOL     OW32380   1.921   2.039   1.631  0.4327  0.4044  0.1580
 6916SOL    HW132381   1.906   2.130   1.655  2.5488  0.7375  0.2108
 6916SOL    HW232382   1.838   1.996   1.650 -0.0107  0.8917 -0.7094
 6917SOL     OW32383   1.979   0.589  15.812  0.6790 -0.8698  0.1535
 6917SOL    HW132384   2.069   0.575  15.784  1.5629  0.9480  2.0577
 6917SOL    HW232385   1.938   0.506  15.791 -0.7891 -0.4713  1.4577
 6918SOL     OW32386   2.250   2.661   9.550 -0.3441 -0.7238  0.3276
 6918SOL    HW132387   2.270   2.635   9.461  0.2927 -0.7043  0.4646
 6918SOL    HW232388   2.323   2.716   9.578 -1.2030  0.3549  0.5014
 6919SOL     OW32389   2.197   0.743   4.026  0.0813  0.0281 -0.3524
 6919SOL    HW132390   2.195   0.791   4.109 -0.4841 -0.0849 -0.3036
 6919SOL    HW232391   2.116   0.768   3.982 -0.3058 -3.0799 -1.3847
 6920SOL     OW32392   4.027   0.507   9.602 -0.1735 -0.7568  0.3691
 6920SOL    HW132393   4.100   0.476   9.655  0.6970 -1.5344 -1.2757
 6920SOL    HW232394   4.067   0.583   9.558 -0.5835 -0.3216  0.7456
 6921SOL     OW32395   0.395   3.210   5.415 -0.1425  0.3469  0.0120
 6921SOL    HW132396   0.384   3.236   5.507 -0.2972 -2.2939  0.7408
 6921SOL    HW232397   0.375   3.292   5.371  0.4188 -0.3985 -1.6303
 6922SOL     OW32398   4.678   4.691   4.882  0.1332  0.0211 -0.1128
 6922SOL    HW132399   4.696   4.671   4.790  1.9751 -0.5538  0.3674
 6922SOL    HW232400   4.584   4.699   4.869  0.2218  0.8673 -0.2547
 6923SOL     OW32401   2.357   0.668   3.452 -0.4116 -0.7158  0.2536
 6923SOL    HW132402   2.445   0.665   3.489  0.9682 -1.8629 -3.2033
 6923SOL    HW232403   2.360   0.595   3.391  0.1949 -0.2867 -0.2307
 6924SOL     OW32404   2.998   3.122   3.328  0.4022  0.4622  0.2704
 6924SOL    HW132405   2.971   3.182   3.258  0.6790  1.8101  1.3236
 6924SOL    HW232406   3.081   3.096   3.288  0.1405 -1.6984  1.1321
 6925SOL     OW32407   3.210   2.678   8.723  0.2435  0.4503  0.4089
 6925SOL    HW132408   3.251   2.756   8.760 -0.2343 -0.0233  1.9423
 6925SOL    HW232409   3.135   2.711   8.675  0.9671 -1.3477 -1.9210
 6926SOL     OW32410   2.557   1.252   4.473  0.8417  0.0690  0.2849
 6926SOL    HW132411   2.520   1.278   4.558 -1.5692 -2.4406 -0.0166
 6926SOL    HW232412   2.634   1.309   4.478 -0.2390  1.3728  2.3122
 6927SOL     OW32413   1.987   2.040  10.818 -0.3294 -0.4659 -0.3195
 6927SOL    HW132414   1.974   2.043  10.913  2.6733  0.8690  0.0443
 6927SOL    HW232415   1.946   2.125  10.802 -2.3106 -1.2201  0.6992
 6928SOL     OW32416   3.982   4.193   7.041 -0.4505  0.3169  0.6594
 6928SOL    HW132417   3.889   4.216   7.048 -0.5389 -0.0851  0.8010
 6928SOL    HW232418   3.973   4.120   6.981 -0.3096  0.1473  0.8443
 6929SOL     OW32419   2.619   0.602   7.649  0.7981 -0.3794  0.2129
 6929SOL    HW132420   2.677   0.672   7.620 -1.1166  1.5182  1.0477
 6929SOL    HW232421   2.535   0.644   7.631  0.3838 -1.0364  0.5880
 6930SOL     OW32422   1.076   1.435   2.834 -0.6455 -0.0792 -0.6816
 6930SOL    HW132423   1.003   1.404   2.889 -0.4472  0.9636  0.1581
 6930SOL    HW232424   1.122   1.352   2.822 -0.1537  0.2618 -1.1462
 6931SOL     OW32425   4.096   0.213   6.495 -0.4334 -0.7505  0.1537
 6931SOL    HW132426   4.129   0.149   6.432  0.6913  1.5059 -1.5339
 6931SOL    HW232427   4.001   0.198   6.497 -0.1757 -2.2343  1.6945
 6932SOL     OW32428   1.372   1.135   6.622  0.0591 -0.2498  0.2479
 6932SOL    HW132429   1.445   1.097   6.572  1.7914  1.2311  1.6474
 6932SOL    HW232430   1.333   1.190   6.555 -4.7248 -1.7828  1.8014
 6933SOL     OW32431   0.156   1.119   8.757 -0.2526 -0.1021 -0.2818
 6933SOL    HW132432   0.193   1.089   8.674  1.4353  0.8871  0.1136
 6933SOL    HW232433   0.212   1.193   8.783  0.8884 -0.3855 -1.9366
 6934SOL     OW32434   0.994   0.634   2.500 -0.0006 -0.1276  0.2958
 6934SOL    HW132435   0.995   0.727   2.478  0.0432 -0.0532  0.6133
 6934SOL    HW232436   0.908   0.624   2.541 -0.3237 -0.5425 -0.4797
 6935SOL     OW32437   2.456   0.568   1.353  0.6631  0.3342 -0.0472
 6935SOL    HW132438   2.387   0.538   1.412 -0.0429 -1.3347 -1.6985
 6935SOL    HW232439   2.409   0.640   1.311 -1.2607 -0.2212  1.1672
 6936SOL     OW32440   0.154   1.750   0.582  0.0939 -0.3994  0.5122
 6936SOL    HW132441   0.213   1.779   0.652 -1.0608  1.4097  0.7152
 6936SOL    HW232442   0.209   1.686   0.536 -0.1678 -0.1655 -0.1143
 6937SOL     OW32443   2.002   2.389   2.127  0.8592 -0.0136  0.7056
 6937SOL    HW132444   1.909   2.370   2.136  1.0585 -1.9771 -1.4808
 6937SOL    HW232445   2.021   2.328   2.055  0.6693  0.8257 -0.0607
 6938SOL     OW32446   0.427   0.283   6.871 -0.0484 -0.2900 -0.3531
 6938SOL    HW132447   0.380   0.350   6.921  0.3298 -1.1028  1.0734
 6938SOL    HW232448   0.372   0.285   6.792 -0.9933  1.1726  0.3301
 6939SOL     OW32449   1.080   3.484   4.856 -0.0637  0.0984 -0.4321
 6939SOL    HW132450   1.146   3.432   4.903 -0.7674 -1.0594 -0.7030
 6939SOL    HW232451   1.008   3.438   4.900 -1.3241 -0.1414 -2.7762
 6940SOL     OW32452   4.050   1.157   8.473 -0.8763  0.1318  0.1807
 6940SOL    HW132453   4.139   1.189   8.489 -0.5915 -0.0610 -1.0387
 6940SOL    HW232454   4.076   1.065   8.464 -0.5697 -0.0169  2.5295
 6941SOL     OW32455   1.903   1.303   3.023  0.0864 -0.7534 -0.2098
 6941SOL    HW132456   1.978   1.349   2.986  0.1313 -1.4957 -1.0548
 6941SOL    HW232457   1.945   1.221   3.050  1.7419  0.3179  0.4714
 6942SOL     OW32458   0.832   0.216   8.507 -0.0232  0.1254 -0.1089
 6942SOL    HW132459   0.861   0.133   8.545 -0.1426 -0.2423 -0.8271
 6942SOL    HW232460   0.812   0.204   8.414 -0.1187 -1.6401  0.1275
 6943SOL     OW32461   0.970   1.312   8.955  0.0887  0.6145  0.5709
 6943SOL    HW132462   0.944   1.375   8.888 -0.8524 -0.4283 -0.0391
 6943SOL    HW232463   0.892   1.258   8.963  0.1883  0.7084  2.3791
 6944SOL     OW32464   0.866   2.913  10.305 -0.6996 -0.4769  0.3632
 6944SOL    HW132465   0.880   2.890  10.213 -1.4101 -4.2687  1.2237
 6944SOL    HW232466   0.923   2.851  10.350  2.9793  1.6670 -1.3732
 6945SOL     OW32467   0.854   1.215  13.468  0.3556  0.4355  0.3106
 6945SOL    HW132468   0.878   1.217  13.375 -0.8140  0.9678  0.0295
 6945SOL    HW232469   0.864   1.120  13.481 -1.4835  0.0354 -1.1619
 6946SOL     OW32470   2.444   0.173   1.365 -0.6270  0.8540  0.1151
 6946SOL    HW132471   2.458   0.185   1.271  3.6915  0.2135  0.6445
 6946SOL    HW232472   2.453   0.080   1.386 -1.5838  1.3822  2.8342
 6947SOL     OW32473   1.630   4.259   3.168 -0.2310  0.6839 -0.3425
 6947SOL    HW132474   1.627   4.297   3.080  0.3778 -1.1749 -1.1597
 6947SOL    HW232475   1.665   4.174   3.141 -0.3913 -0.0343  1.6886
 6948SOL     OW32476   0.247   2.647   2.083  0.4913 -0.0985  0.1181
 6948SOL    HW132477   0.230   2.554   2.095 -1.0753  0.1296 -0.2558
 6948SOL    HW232478   0.340   2.625   2.081  0.6752  0.6724  0.0848
 6949SOL     OW32479   3.175   3.853   8.253 -0.1417 -0.2484  0.1728
 6949SOL    HW132480   3.179   3.806   8.336 -0.8353 -0.4655  0.0876
 6949SOL    HW232481   3.231   3.926   8.281 -0.6930 -0.6154  2.2518
 6950SOL     OW32482   3.997   2.337   1.287 -0.1909  0.0866  0.0478
 6950SOL    HW132483   4.053   2.261   1.301 -0.2966  0.0071  0.0381
 6950SOL    HW232484   3.919   2.304   1.331 -1.3355  1.2873 -1.0584
 6951SOL     OW32485   1.255   0.674   0.368  0.4118 -0.7190 -0.0406
 6951SOL    HW132486   1.319   0.739   0.398  0.8566 -0.6299 -1.1478
 6951SOL    HW232487   1.290   0.647   0.283  0.5305  1.1949 -0.5893
 6952SOL     OW32488   3.236   0.522   3.964 -0.0870 -0.2511  0.5727
 6952SOL    HW132489   3.151   0.565   3.951  0.0502  0.5303  2.2685
 6952SOL    HW232490   3.272   0.579   4.031  0.8303 -0.8597  0.5961
 6953SOL     OW32491   2.808   3.435   6.334 -0.3718 -0.0408 -0.5661
 6953SOL    HW132492   2.785   3.430   6.426 -0.5280  0.5985 -0.5709
 6953SOL    HW232493   2.903   3.438   6.340 -0.4687  0.0989  0.8032
 6954SOL     OW32494   2.475   3.294   8.306 -0.7037 -0.7718  0.1598
 6954SOL    HW132495   2.400   3.271   8.251 -1.4721  0.1242  0.8246
 6954SOL    HW232496   2.446   3.242   8.381  2.8534 -1.4491  1.0701
 6955SOL     OW32497   0.756   0.766   4.426  0.2696  0.0879  0.1738
 6955SOL    HW132498   0.713   0.849   4.446 -1.4611 -0.1496 -2.5068
 6955SOL    HW232499   0.834   0.757   4.481  0.6930 -1.3507 -0.6546
 6956SOL     OW32500   0.931   0.119   6.246  0.0160 -0.8022 -0.7974
 6956SOL    HW132501   0.987   0.192   6.271  0.6909 -0.7188 -2.5240
 6956SOL    HW232502   0.983   0.042   6.271  1.3218 -0.3136 -2.0208
 6957SOL     OW32503   0.078   4.577  11.005  0.1265  0.3256 -0.0602
 6957SOL    HW132504   0.004   4.552  11.060  0.7961 -0.2196  0.5921
 6957SOL    HW232505   0.120   4.493  10.986  0.5266  1.1832 -2.8492
 6958SOL     OW32506   3.063   4.470  13.839  0.1708 -0.3595  0.1549
 6958SOL    HW132507   3.017   4.504  13.763 -1.7017 -0.8661  1.0370
 6958SOL    HW232508   3.131   4.419  13.795  0.5329  0.8786 -0.7239
 6959SOL     OW32509   0.293   3.622   5.590 -0.5442 -0.6192 -0.1705
 6959SOL    HW132510   0.242   3.683   5.537  2.5390  2.6867  0.6779
 6959SOL    HW232511   0.368   3.677   5.613 -0.3602 -1.3660  1.0350
 6960SOL     OW32512   0.860   3.090   8.644  0.4418  1.4897  0.1158
 6960SOL    HW132513   0.865   3.005   8.599 -0.3345  0.6926  1.5174
 6960SOL    HW232514   0.769   3.086   8.674 -0.2002  4.4028 -1.5493
 6961SOL     OW32515   4.591   1.291   0.856 -0.3009  0.5231  0.2499
 6961SOL    HW132516   4.652   1.275   0.927 -1.6850 -1.0646  1.0760
 6961SOL    HW232517   4.641   1.252   0.784 -0.0495  0.0871  0.6594
 6962SOL     OW32518   2.926   1.105  14.318 -0.2325  0.2783 -0.3098
 6962SOL    HW132519   2.970   1.035  14.366  0.1313  0.6482 -0.1076
 6962SOL    HW232520   2.947   1.084  14.227  1.0384  1.8680 -0.3914
 6963SOL     OW32521   4.111   0.882   8.430  0.3894 -0.2066  0.0672
 6963SOL    HW132522   4.066   0.821   8.488 -0.3493  1.8897  1.7080
 6963SOL    HW232523   4.133   0.810   8.371 -0.4631  0.4605 -1.0621
 6964SOL     OW32524   0.865   2.003   5.081  0.2547 -0.2305 -0.6341
 6964SOL    HW132525   0.772   1.989   5.067 -0.2641  2.3124  0.1713
 6964SOL    HW232526   0.868   2.099   5.078  0.6319 -0.2356 -0.5143
 6965SOL     OW32527   4.601   4.583   6.232  0.2155  0.0520  0.3293
 6965SOL    HW132528   4.527   4.531   6.262 -1.0332  1.3180 -0.5338
 6965SOL    HW232529   4.629   4.607   6.320  0.4321 -0.6613  0.4579
 6966SOL     OW32530   0.445   2.709   4.628 -0.3265  0.0676  0.0370
 6966SOL    HW132531   0.358   2.670   4.639  0.0127 -1.2077 -1.7372
 6966SOL    HW232532   0.478   2.695   4.717  0.4113  0.8305 -0.1221
 6967SOL     OW32533   3.318   4.294   4.337 -0.3749  0.8188 -0.2859
 6967SOL    HW132534   3.316   4.199   4.338  0.2654  0.8145  0.3413
 6967SOL    HW232535   3.347   4.313   4.248  0.8793  2.5170  0.4717
 6968SOL     OW32536   2.663   0.075   0.304  0.2449 -0.0481 -0.1990
 6968SOL    HW132537   2.584   0.083   0.357  0.3319  0.9742 -0.2112
 6968SOL    HW232538   2.623   0.060   0.218  1.3532  1.9694 -1.0890
 6969SOL     OW32539   1.306   3.553   8.058  0.0327 -0.3218  0.2107
 6969SOL    HW132540   1.219   3.560   8.019 -1.4776 -2.2992  3.2368
 6969SOL    HW232541   1.352   3.611   7.997  1.3948  0.0331  1.5836
 6970SOL     OW32542   3.642   1.776   4.118  0.2651 -0.0577  0.1624
 6970SOL    HW132543   3.733   1.759   4.141 -0.1328 -2.3848  0.0061
 6970SOL    HW232544   3.624   1.696   4.070 -0.1735  0.1669 -0.0476
 6971SOL     OW32545   4.094   2.973  12.567  0.3276  0.6717 -0.1112
 6971SOL    HW132546   4.018   2.966  12.510 -1.1699 -1.8745  2.1655
 6971SOL    HW232547   4.151   2.904  12.534 -1.2280 -0.8909  0.4337
 6972SOL     OW32548   3.771   4.372  13.044  0.2745  0.2776 -0.0353
 6972SOL    HW132549   3.732   4.460  13.043  0.1834  0.2125 -1.9643
 6972SOL    HW232550   3.741   4.341  13.129  0.1300  1.1915  0.2528
 6973SOL     OW32551   1.333   2.014   8.907  0.2509  0.0806  0.4234
 6973SOL    HW132552   1.323   2.018   9.002 -2.4701 -1.1534  0.1778
 6973SOL    HW232553   1.361   2.104   8.889 -0.2248  0.4496  1.4817
 6974SOL     OW32554   0.384   2.169  13.584  0.2293  0.0487  0.0465
 6974SOL    HW132555   0.313   2.222  13.547  1.0897  1.9640  1.1414
 6974SOL    HW232556   0.455   2.215  13.540  1.3048  1.9524  3.8088
 6975SOL     OW32557   3.351   2.774   6.588  0.3999  0.1649 -0.0732
 6975SOL    HW132558   3.343   2.716   6.664 -0.1625  2.1937  1.4120
 6975SOL    HW232559   3.331   2.855   6.635 -1.4386  0.0419 -0.6801
 6976SOL     OW32560   2.138   0.917   8.518  0.3754  0.7462  0.5617
 6976SOL    HW132561   2.183   0.833   8.522 -0.5384  0.2884  1.2909
 6976SOL    HW232562   2.052   0.899   8.479  1.4998  0.0814 -1.5763
 6977SOL     OW32563   1.207   2.574   4.723  0.2813  0.3740 -0.3062
 6977SOL    HW132564   1.167   2.566   4.636  3.2909  0.7868 -1.7358
 6977SOL    HW232565   1.294   2.607   4.701 -0.1217  0.6178 -1.5504
 6978SOL     OW32566   2.934   0.814  13.772 -0.3452  0.3745 -0.2571
 6978SOL    HW132567   2.861   0.814  13.710 -0.1889  1.3549 -0.4346
 6978SOL    HW232568   2.910   0.882  13.834  0.7246  0.0881  0.4684
 6979SOL     OW32569   1.769   3.281   1.628  0.1223 -0.2528 -0.0671
 6979SOL    HW132570   1.728   3.261   1.545  1.3713  0.8645 -0.9505
 6979SOL    HW232571   1.726   3.220   1.688 -0.4536  1.5034  1.3353
 6980SOL     OW32572   4.033   1.585   7.568  0.1076 -0.3500 -0.6569
 6980SOL    HW132573   4.075   1.514   7.518  1.5710 -1.6142  2.3517
 6980SOL    HW232574   3.948   1.550   7.593 -1.1489  1.6210 -2.1702
 6981SOL     OW32575   3.927   1.987   9.641 -0.5464 -0.2955 -0.1867
 6981SOL    HW132576   3.916   2.006   9.734 -0.7454 -2.6502  0.2607
 6981SOL    HW232577   3.930   1.892   9.642 -1.2979 -0.3613 -4.3078
 6982SOL     OW32578   2.397   2.695  14.025 -0.1895  0.0245  0.1398
 6982SOL    HW132579   2.326   2.741  13.979 -0.6107  0.2351  1.0075
 6982SOL    HW232580   2.421   2.636  13.953  0.4957  0.2757  0.1630
 6983SOL     OW32581   1.469   4.708  15.365  0.0830 -0.0928  0.1325
 6983SOL    HW132582   1.495   4.661  15.444  0.9163 -0.4808 -0.3685
 6983SOL    HW232583   1.451   0.059  15.398 -1.6029 -0.9375  1.4831
 6984SOL     OW32584   0.753   2.379   4.444 -0.4557 -0.2884 -0.7449
 6984SOL    HW132585   0.694   2.306   4.460 -1.7047  0.5046 -1.7414
 6984SOL    HW232586   0.827   2.338   4.400  1.1424  0.4225  1.2735
 6985SOL     OW32587   0.390   4.011   5.017 -0.2288 -0.0400 -0.1730
 6985SOL    HW132588   0.483   4.019   5.039 -0.4482 -0.0178  0.7354
 6985SOL    HW232589   0.373   4.068   4.941  1.1112  0.7975  0.1651
 6986SOL     OW32590   1.012   4.195  17.009 -0.4782 -0.4205 -0.9137
 6986SOL    HW132591   1.081   4.257  16.985 -1.8888  0.2637 -3.2585
 6986SOL    HW232592   0.999   4.164  16.920  1.7534 -1.3625 -0.9012
 6987SOL     OW32593   2.066   2.142   5.733 -0.0298 -0.0083 -0.4627
 6987SOL    HW132594   1.975   2.164   5.754 -0.8431 -0.8345 -3.1018
 6987SOL    HW232595   2.072   2.051   5.760 -0.2860  0.0224 -0.3017
 6988SOL     OW32596   0.189   2.509  14.448  0.0180 -0.8246  0.1065
 6988SOL    HW132597   0.147   2.595  14.458 -0.3217 -1.1709  1.6430
 6988SOL    HW232598   0.182   2.479  14.539 -0.4846  1.4332  0.8184
 6989SOL     OW32599   4.214   1.868   6.201 -0.4701 -0.2279  0.0154
 6989SOL    HW132600   4.228   1.792   6.144  3.8566  0.4171  0.2175
 6989SOL    HW232601   4.255   1.937   6.148 -1.7973  1.5951  1.3468
 6990SOL     OW32602   0.849   4.104   2.259  0.2803  0.3920 -0.2005
 6990SOL    HW132603   0.796   4.173   2.219  0.9384  1.3389  0.5619
 6990SOL    HW232604   0.924   4.100   2.200 -0.3003 -1.1893 -0.8393
 6991SOL     OW32605   4.504   0.100   7.354  0.3877 -0.2169 -0.1709
 6991SOL    HW132606   4.415   0.095   7.389 -0.2381  1.4291 -1.4667
 6991SOL    HW232607   4.489   0.135   7.266  0.0772  0.2426  0.0653
 6992SOL     OW32608   3.267   0.335   5.172 -0.0279  0.0584  0.3167
 6992SOL    HW132609   3.338   0.278   5.141 -0.8345 -0.1849 -1.1093
 6992SOL    HW232610   3.227   0.276   5.236 -0.8340  0.2372 -0.0276
 6993SOL     OW32611   2.913   2.077   6.738 -0.0049  0.4015 -0.2447
 6993SOL    HW132612   2.877   2.068   6.827  1.7764 -1.7939  0.2391
 6993SOL    HW232613   2.871   2.160   6.715 -1.3687 -0.4301 -0.7367
 6994SOL     OW32614   0.273   0.660  12.892  0.0588  0.0529  0.2061
 6994SOL    HW132615   0.234   0.682  12.807 -2.0241  1.3813  1.4934
 6994SOL    HW232616   0.280   0.745  12.935 -0.7891  0.6992 -0.9327
 6995SOL     OW32617   3.939   0.184   5.877 -0.0167 -0.0864  0.4115
 6995SOL    HW132618   3.949   0.090   5.895  0.0379 -0.3421 -0.9295
 6995SOL    HW232619   3.986   0.188   5.794 -1.5647  3.3865 -0.2584
 6996SOL     OW32620   4.569   0.199   8.128 -0.8559 -0.2684 -0.0943
 6996SOL    HW132621   4.562   0.158   8.214  0.3786  0.1636  0.2029
 6996SOL    HW232622   4.617   0.122   8.097  1.0404  0.8588  0.0623
 6997SOL     OW32623   3.801   2.663   5.172  0.4448 -0.3353  0.0270
 6997SOL    HW132624   3.819   2.750   5.136  1.3347 -1.1196 -1.4504
 6997SOL    HW232625   3.875   2.675   5.232  0.5959  3.1589 -0.8752
 6998SOL     OW32626   4.540   1.721   5.685  0.6473  0.4653 -0.2335
 6998SOL    HW132627   4.506   1.641   5.645 -0.0806  0.0865  1.1474
 6998SOL    HW232628   4.625   1.686   5.710  0.2307 -0.9720 -0.8522
 6999SOL     OW32629   2.693   0.275   7.281 -0.3013 -0.2801 -0.1960
 6999SOL    HW132630   2.778   0.281   7.237  0.6129  1.1079  1.7727
 6999SOL    HW232631   2.684   0.344   7.346  1.1835 -0.3346  0.0621
 7000SOL     OW32632   3.976   3.647   6.073 -0.1861 -0.2101  0.1511
 7000SOL    HW132633   3.929   3.669   5.993  1.3262  0.4219 -0.5540
 7000SOL    HW232634   3.980   3.737   6.106  1.9432  0.0638 -0.8550
 7001SOL     OW32635   3.746   0.345   6.407  0.0318  0.1367 -0.1303
 7001SOL    HW132636   3.756   0.346   6.502  1.7398  0.0279 -0.3089
 7001SOL    HW232637   3.664   0.394   6.408  0.4525  0.8042  1.1999
 7002SOL     OW32638   1.418   0.966   9.475 -0.4866 -0.3536  0.6986
 7002SOL    HW132639   1.350   0.913   9.434 -1.0873  0.1909  0.9816
 7002SOL    HW232640   1.364   0.998   9.548 -0.2152 -0.5434  0.9817
 7003SOL     OW32641   1.703   1.700  13.544  0.4810 -0.5165 -0.0972
 7003SOL    HW132642   1.797   1.698  13.526  0.3093 -1.3658 -0.9066
 7003SOL    HW232643   1.677   1.620  13.497 -1.7365  0.5494 -0.6977
 7004SOL     OW32644   1.631   3.417   6.280  0.0574 -0.1386  0.2179
 7004SOL    HW132645   1.577   3.417   6.360  0.2512  0.7214  0.3554
 7004SOL    HW232646   1.611   3.329   6.249  2.1937 -0.1060 -1.2448
 7005SOL     OW32647   4.308   3.612  10.526 -0.5260  0.1146  0.0232
 7005SOL    HW132648   4.331   3.688  10.580  0.3111 -0.2257  0.1361
 7005SOL    HW232649   4.252   3.656  10.462 -1.3495  0.2839  0.8566
 7006SOL     OW32650   1.112   0.634   5.834  0.0444  0.1532  0.4672
 7006SOL    HW132651   1.081   0.718   5.801 -0.8703  0.6909  2.6750
 7006SOL    HW232652   1.026   0.597   5.854 -0.1375 -0.2094 -0.9887
 7007SOL     OW32653   0.277   1.646   6.156  0.0194  0.2724  0.6001
 7007SOL    HW132654   0.314   1.699   6.226  2.1336  0.5502 -0.7264
 7007SOL    HW232655   0.338   1.679   6.090  1.5321  0.9408  2.3628
 7008SOL     OW32656   0.108   0.966   4.925  0.1423  0.4231 -0.3391
 7008SOL    HW132657   0.031   0.909   4.930  0.8981 -0.7020 -1.5077
 7008SOL    HW232658   0.063   1.051   4.924  2.5223  1.6539 -2.6540
 7009SOL     OW32659   0.999   3.732   1.234  0.2231 -0.5552 -0.3579
 7009SOL    HW132660   0.904   3.732   1.223  0.1148  0.7289  0.5425
 7009SOL    HW232661   1.023   3.815   1.192 -4.2057  0.6605 -0.5137
 7010SOL     OW32662   0.166   3.876   1.992 -0.5053  0.6832 -0.1793
 7010SOL    HW132663   0.243   3.909   2.038  0.1689 -0.9771 -0.1007
 7010SOL    HW232664   0.138   3.959   1.955  1.8852  1.9614  0.8958
 7011SOL     OW32665   3.585   0.440   3.746  0.2356  0.1248  0.4261
 7011SOL    HW132666   3.556   0.397   3.827  2.7364 -1.4402  0.5056
 7011SOL    HW232667   3.668   0.479   3.774  0.0206  2.2060 -1.8450
 7012SOL     OW32668   1.035   4.677  16.420  0.9726  1.0608 -0.2542
 7012SOL    HW132669   1.119   4.721  16.405  2.0566 -1.2944 -1.1145
 7012SOL    HW232670   1.010   4.644  16.334  1.9104  2.4638 -1.0695
 7013SOL     OW32671   3.537   0.658   4.062  0.3110  0.5628 -0.5390
 7013SOL    HW132672   3.463   0.698   4.016 -0.8716  0.6338  1.4388
 7013SOL    HW232673   3.566   0.588   4.003  2.2933  0.7676  0.1835
 7014SOL     OW32674   1.230   3.200   3.062 -0.2509 -0.5172 -0.0074
 7014SOL    HW132675   1.146   3.233   3.029 -0.1856 -1.5627 -1.2287
 7014SOL    HW232676   1.215   3.106   3.062 -0.7349 -0.4404  0.6909
 7015SOL     OW32677   2.910   0.244   2.759 -0.7547 -0.4174  0.6140
 7015SOL    HW132678   2.986   0.201   2.800 -1.0250 -1.1974  0.3040
 7015SOL    HW232679   2.922   0.228   2.665  1.8073  2.0136  0.5267
 7016SOL     OW32680   4.383   0.460  16.501  0.3986  0.1012 -0.5850
 7016SOL    HW132681   4.295   0.497  16.502  0.5101  0.3519  0.0938
 7016SOL    HW232682   4.370   0.373  16.464 -1.3543 -0.8158  2.1697
 7017SOL     OW32683   3.637   2.647   4.700 -0.6105 -0.2029  0.3705
 7017SOL    HW132684   3.727   2.681   4.700 -0.5377 -0.3807 -0.5537
 7017SOL    HW232685   3.606   2.655   4.610  2.5393  0.1023 -0.6834
 7018SOL     OW32686   1.073   4.655   3.800  0.3553 -0.0031 -0.3611
 7018SOL    HW132687   1.043   0.004   3.774 -0.9823 -0.1951  0.5348
 7018SOL    HW232688   0.998   4.595   3.804  0.2697  0.1685  0.7784
 7019SOL     OW32689   1.325   3.431   1.120 -0.0211  0.1648  0.0331
 7019SOL    HW132690   1.279   3.513   1.137 -1.9410 -0.7106 -1.0242
 7019SOL    HW232691   1.411   3.456   1.085 -0.4097 -1.5156 -2.1674
 7020SOL     OW32692   3.709   0.508   4.250 -0.4375 -0.3513  0.2154
 7020SOL    HW132693   3.707   0.558   4.332 -0.0685  1.0345 -0.6286
 7020SOL    HW232694   3.652   0.552   4.187  1.2641  0.0582 -1.0372
 7021SOL     OW32695   4.470   2.341   8.832  0.7933 -0.0236  0.2349
 7021SOL    HW132696   4.550   2.349   8.780 -1.2101  0.1082 -2.7965
 7021SOL    HW232697   4.405   2.389   8.781  0.2925 -1.5998 -0.6206
 7022SOL     OW32698   4.709   3.458   2.009 -0.4890 -0.0857  0.4034
 7022SOL    HW132699   4.619   3.451   1.977  0.2116  1.9903 -1.9930
 7022SOL    HW232700   0.013   3.382   1.968 -0.2121  1.1338 -1.5753
 7023SOL     OW32701   3.694   2.419   7.744  0.0346 -0.0989  0.0689
 7023SOL    HW132702   3.729   2.485   7.805 -0.3758 -0.0060  0.1998
 7023SOL    HW232703   3.606   2.411   7.779  1.2143  0.7290  3.2243
 7024SOL     OW32704   4.218   2.616   0.897  0.2695  0.1904 -0.2056
 7024SOL    HW132705   4.290   2.553   0.889 -0.7871 -0.9507 -0.7281
 7024SOL    HW232706   4.211   2.636   0.990 -0.9360 -2.1779  0.2191
 7025SOL     OW32707   1.156   4.342   8.332 -0.2116  0.1371  0.3846
 7025SOL    HW132708   1.149   4.396   8.410 -1.6541  0.6678 -0.1124
 7025SOL    HW232709   1.081   4.376   8.284 -0.3713  1.4025  1.5477
 7026SOL     OW32710   2.797   1.886   9.904  0.0307  0.1906  0.2152
 7026SOL    HW132711   2.891   1.902   9.910  0.2457 -0.6682 -0.8519
 7026SOL    HW232712   2.769   1.904   9.994  1.4676  0.3983  0.6187
 7027SOL     OW32713   2.960   4.101   1.791  0.6316  0.3622  0.1873
 7027SOL    HW132714   2.990   4.075   1.878 -0.5079 -1.2868  0.0856
 7027SOL    HW232715   2.994   4.190   1.790 -1.4514  1.1053 -1.7514
 7028SOL     OW32716   2.660   4.345   3.450  0.3041 -0.1058  0.3513
 7028SOL    HW132717   2.599   4.271   3.447  0.1630  0.0667 -1.0004
 7028SOL    HW232718   2.622   4.407   3.387  1.3682  0.7388  0.5532
 7029SOL     OW32719   3.071   3.571  12.403 -0.4601  0.1443  0.0696
 7029SOL    HW132720   3.032   3.496  12.448 -1.7907  0.5848 -0.3559
 7029SOL    HW232721   3.003   3.582  12.338 -1.1755 -1.4253  0.5575
 7030SOL     OW32722   0.038   1.495   0.573  0.1846  0.2912 -0.4000
 7030SOL    HW132723   0.041   1.571   0.630 -0.4560  0.8925 -1.1742
 7030SOL    HW232724   0.050   1.526   0.483 -0.1240  0.5608 -0.3471
 7031SOL     OW32725   2.388   0.551   5.903 -0.1081 -0.0920 -0.1741
 7031SOL    HW132726   2.479   0.564   5.929 -0.2245  0.3139  0.0285
 7031SOL    HW232727   2.365   0.642   5.918 -1.5099 -0.3750 -0.5694
 7032SOL     OW32728   1.732   2.846   5.474  0.0574  0.3488 -0.2689
 7032SOL    HW132729   1.688   2.764   5.450  0.8946 -0.1480 -0.1105
 7032SOL    HW232730   1.815   2.815   5.438  0.6324  1.7420 -0.1411
 7033SOL     OW32731   1.459   3.739   3.095  0.4081  0.2852  0.5249
 7033SOL    HW132732   1.510   3.774   3.168  0.5907  1.5327 -0.2089
 7033SOL    HW232733   1.378   3.721   3.142  0.3810  0.2289  0.4573
 7034SOL     OW32734   4.601   0.222   3.896 -0.4482 -0.1185 -0.6327
 7034SOL    HW132735   4.684   0.244   3.940 -1.9504  2.7883  0.7648
 7034SOL    HW232736   4.540   0.216   3.969  1.2893 -0.2704  0.8321
 7035SOL     OW32737   3.433   4.428  15.640 -0.2523 -0.3605 -0.3428
 7035SOL    HW132738   3.417   4.383  15.557  0.9723  0.9557 -1.2937
 7035SOL    HW232739   3.456   4.350  15.689 -4.3863 -0.8805  0.7723
 7036SOL     OW32740   1.681   2.847   7.181  0.2039  0.2464 -0.0234
 7036SOL    HW132741   1.644   2.760   7.162  1.4571 -0.7717  2.2086
 7036SOL    HW232742   1.627   2.905   7.128 -0.5885 -0.3139  0.1654
 7037SOL     OW32743   4.216   3.070   3.177 -0.2139 -0.1822  0.2053
 7037SOL    HW132744   4.191   3.103   3.090  1.5612 -1.4581 -0.8050
 7037SOL    HW232745   4.297   3.022   3.156  0.4863  1.3070 -0.5352
 7038SOL     OW32746   4.303   0.972   0.397  0.3477  0.2507  0.6382
 7038SOL    HW132747   4.323   1.047   0.454  1.3679  0.7002 -0.3104
 7038SOL    HW232748   4.364   0.906   0.431 -1.2963 -1.5010  0.1303
 7039SOL     OW32749   4.099   2.521   3.416 -0.3824  0.0416 -0.5456
 7039SOL    HW132750   4.086   2.559   3.329 -2.4793 -0.4938 -0.4591
 7039SOL    HW232751   4.068   2.434   3.393  0.1981 -0.7262  1.6001
 7040SOL     OW32752   0.406   2.086  16.228  0.3377  0.0819 -0.0434
 7040SOL    HW132753   0.410   2.179  16.250  2.3904  0.0909 -0.3940
 7040SOL    HW232754   0.468   2.062  16.297  2.3276 -0.0680 -1.8697
 7041SOL     OW32755   3.493   4.243   3.871  0.0900  0.2951 -0.2477
 7041SOL    HW132756   3.535   4.224   3.787  1.2968  2.5825 -0.1607
 7041SOL    HW232757   3.427   4.174   3.871  0.6938 -0.2868  0.4353
 7042SOL     OW32758   1.212   1.848   2.768 -0.2273 -0.1091  0.4319
 7042SOL    HW132759   1.199   1.761   2.807  2.6337 -0.3519  0.8194
 7042SOL    HW232760   1.297   1.875   2.803  1.9667 -1.2221 -4.1211
 7043SOL     OW32761   1.288   4.201   5.081 -0.3330 -0.0104 -0.4056
 7043SOL    HW132762   1.219   4.251   5.038  0.9121  1.6292 -0.4641
 7043SOL    HW232763   1.322   4.264   5.145  0.0249  1.1259 -1.7200
 7044SOL     OW32764   2.413   0.651   8.780  0.1767  0.0359 -0.3613
 7044SOL    HW132765   2.442   0.719   8.841 -1.5137  1.2907 -0.9599
 7044SOL    HW232766   2.338   0.618   8.830 -0.5055  0.3542 -1.1670
 7045SOL     OW32767   4.697   3.329  11.521  0.0759 -0.2611  0.6530
 7045SOL    HW132768   0.002   3.325  11.607 -0.4709 -2.1458  0.8371
 7045SOL    HW232769   4.688   3.424  11.515  0.1824 -0.2996 -0.0944
 7046SOL     OW32770   0.100   2.699  16.985  0.0171  0.0259 -0.1294
 7046SOL    HW132771   0.112   2.769  16.920 -2.8797 -0.4143 -1.1340
 7046SOL    HW232772   0.012   2.675  16.955  0.0058  1.2160 -1.0667
 7047SOL     OW32773   3.283   3.772   8.923 -0.7023 -0.3048  0.4944
 7047SOL    HW132774   3.199   3.802   8.889 -0.1377 -0.2424 -0.8083
 7047SOL    HW232775   3.273   3.679   8.943 -0.2834 -0.7774 -1.5440
 7048SOL     OW32776   1.841   4.319  17.217 -0.3177 -0.4051 -0.0754
 7048SOL    HW132777   1.846   4.412  17.238 -0.1676 -0.6272  0.8651
 7048SOL    HW232778   1.934   4.316  17.196 -0.2563  3.0939 -0.3328
 7049SOL     OW32779   3.892   1.673   8.289  0.4567 -0.7485 -0.0126
 7049SOL    HW132780   3.886   1.767   8.307  3.2847 -0.1354 -2.2469
 7049SOL    HW232781   3.972   1.677   8.236  1.8095  1.0650  2.1463
 7050SOL     OW32782   0.397   1.853   0.669  0.4422 -0.3835 -0.4883
 7050SOL    HW132783   0.481   1.833   0.627  0.1484 -1.8467 -0.3584
 7050SOL    HW232784   0.430   1.827   0.755  1.8712  0.3067 -0.8157
 7051SOL     OW32785   1.687   0.180   9.381 -0.2333  0.4364  0.5106
 7051SOL    HW132786   1.610   0.127   9.363  0.3328  0.6746 -2.6470
 7051SOL    HW232787   1.730   0.134   9.452  1.9468 -0.7520 -1.5742
 7052SOL     OW32788   1.111   2.812   4.141  0.6185 -0.0721  0.1179
 7052SOL    HW132789   1.021   2.835   4.166  0.1904 -0.7518 -0.8141
 7052SOL    HW232790   1.163   2.803   4.221 -0.7061 -0.8170  0.8978
 7053SOL     OW32791   3.692   1.181   4.603  0.6467  0.0065  0.3663
 7053SOL    HW132792   3.777   1.137   4.595  0.0290 -0.7580 -1.8324
 7053SOL    HW232793   3.686   1.181   4.699  0.9458 -0.7415  0.3846
 7054SOL     OW32794   2.379   0.162   9.271 -0.0246 -0.3372  0.1139
 7054SOL    HW132795   2.361   0.202   9.186 -0.0455  0.8566  0.6749
 7054SOL    HW232796   2.292   0.145   9.305  0.3935  1.1290  1.8896
 7055SOL     OW32797   3.679   4.093  10.192  0.0634 -0.2581  0.1753
 7055SOL    HW132798   3.610   4.069  10.253  0.0897 -2.5440 -0.7291
 7055SOL    HW232799   3.701   4.011  10.148 -0.0670 -0.1351 -0.1161
 7056SOL     OW32800   3.662   1.894  10.209  0.3816 -0.1329 -0.4358
 7056SOL    HW132801   3.648   1.834  10.136 -1.5370 -0.9126  0.5832
 7056SOL    HW232802   3.678   1.978  10.165  3.2636 -0.6448 -0.4035
 7057SOL     OW32803   0.669   4.688   4.699  0.0033  0.2908  0.1500
 7057SOL    HW132804   0.726   4.616   4.727  2.0510  2.8723  2.6380
 7057SOL    HW232805   0.727   0.026   4.715  1.0565 -0.3871 -0.5232
 7058SOL     OW32806   3.137   4.249   9.028  0.6217 -0.1347 -0.5245
 7058SOL    HW132807   3.181   4.291   9.101 -0.8785 -0.4995  0.5752
 7058SOL    HW232808   3.136   4.320   8.964  1.0458  0.1615 -0.2011
 7059SOL     OW32809   2.741   1.383   8.730  0.4641 -0.1822  0.5916
 7059SOL    HW132810   2.704   1.359   8.815 -0.6705 -0.9929 -0.1431
 7059SOL    HW232811   2.731   1.301   8.683 -1.9376  1.0012 -0.9253
 7060SOL     OW32812   2.771   2.438   5.767  0.2138 -0.2331 -0.2856
 7060SOL    HW132813   2.713   2.412   5.839 -0.8006  1.3007 -0.5559
 7060SOL    HW232814   2.741   2.528   5.756  2.5409  0.8693  2.2797
 7061SOL     OW32815   2.406   1.226   5.625 -0.0374 -0.4944 -0.4000
 7061SOL    HW132816   2.461   1.199   5.699  0.4014  1.2133 -0.1200
 7061SOL    HW232817   2.385   1.313   5.657 -0.3879 -1.3774  1.7998
 7062SOL     OW32818   4.719   3.628  13.271 -0.6067 -0.4474  0.0905
 7062SOL    HW132819   0.046   3.561  13.294 -0.7453 -1.0010 -1.0893
 7062SOL    HW232820   4.671   3.633  13.353  1.5674 -1.7189  1.4230
 7063SOL     OW32821   3.289   1.593   4.278  0.1330 -0.5347 -0.3183
 7063SOL    HW132822   3.315   1.650   4.351 -1.3466 -0.8023  0.4400
 7063SOL    HW232823   3.234   1.534   4.329 -0.2293  0.5414  0.5494
 7064SOL     OW32824   3.812   0.263   4.230 -0.1545 -0.2471  0.1620
 7064SOL    HW132825   3.773   0.346   4.257 -0.4302 -0.7997  1.4608
 7064SOL    HW232826   3.872   0.244   4.302 -0.6127  1.0664  0.9067
 7065SOL     OW32827   2.517   0.303   6.884 -0.4818  0.3127 -0.2148
 7065SOL    HW132828   2.434   0.313   6.932  0.7538  0.7944  1.8128
 7065SOL    HW232829   2.483   0.288   6.796  0.5413  1.2111 -0.7564
 7066SOL     OW32830   0.978   2.859   1.635 -0.2034  0.6573 -0.3525
 7066SOL    HW132831   0.997   2.871   1.542  0.8254 -0.5602 -0.3080
 7066SOL    HW232832   1.066   2.872   1.671  0.5549  2.9500 -3.0336
 7067SOL     OW32833   0.626   1.363   0.742 -0.5664  0.1669 -0.1475
 7067SOL    HW132834   0.669   1.370   0.827  1.2769  1.1113 -1.1517
 7067SOL    HW232835   0.544   1.316   0.758  0.3460 -0.9757  1.1545
 7068SOL     OW32836   2.305   2.527  10.650 -0.4553 -0.1958  0.3765
 7068SOL    HW132837   2.286   2.551  10.559 -0.4102  0.1981  0.4678
 7068SOL    HW232838   2.355   2.605  10.675  0.6982 -1.5880  2.3614
 7069SOL     OW32839   4.706   2.355   7.636 -0.0618 -0.0081 -0.2595
 7069SOL    HW132840   4.633   2.416   7.634  0.4584  0.6125 -0.4862
 7069SOL    HW232841   0.034   2.424   7.620  0.4919 -0.8941 -1.8534
 7070SOL     OW32842   3.821   1.765   6.763  0.2537  0.5878  0.5920
 7070SOL    HW132843   3.883   1.805   6.701  1.2983 -1.5558  0.2676
 7070SOL    HW232844   3.862   1.778   6.848  0.4513 -1.7428  0.8284
 7071SOL     OW32845   4.591   1.899   3.423  0.5778 -0.0273  0.3572
 7071SOL    HW132846   4.583   1.879   3.330 -0.4615  0.9651  0.2200
 7071SOL    HW232847   4.532   1.829   3.452  0.0351 -0.5184 -1.9307
 7072SOL     OW32848   1.661   2.315   3.565  0.4329 -0.1857  0.2046
 7072SOL    HW132849   1.631   2.355   3.647 -0.5903  0.5027 -0.5108
 7072SOL    HW232850   1.714   2.391   3.541  1.3715 -0.4605  1.3883
 7073SOL     OW32851   1.843   1.447  15.026 -0.3478  0.0170 -0.7202
 7073SOL    HW132852   1.855   1.513  15.095 -0.1639 -1.1479  0.3554
 7073SOL    HW232853   1.897   1.483  14.955  1.1035  0.6987  0.7327
 7074SOL     OW32854   1.019   4.409   1.993 -0.4454 -0.1286 -0.0470
 7074SOL    HW132855   1.099   4.357   1.987 -0.7163 -0.6782  1.1084
 7074SOL    HW232856   0.965   4.355   1.935 -1.3599  1.1930 -0.4265
 7075SOL     OW32857   1.122   0.979   7.466 -0.1273  0.0823 -0.1461
 7075SOL    HW132858   1.059   0.952   7.399 -1.3001 -0.0042  0.9980
 7075SOL    HW232859   1.203   0.960   7.419  0.9913 -1.0214  2.2739
 7076SOL     OW32860   4.061   0.476   3.651 -0.0697 -0.4979 -0.1975
 7076SOL    HW132861   4.144   0.515   3.679  1.3217 -3.6723  0.0242
 7076SOL    HW232862   4.050   0.519   3.566 -0.6675 -0.5521 -0.1419
 7077SOL     OW32863   1.692   2.344   1.922 -0.2064  0.1391  0.0214
 7077SOL    HW132864   1.597   2.345   1.933 -0.5214  1.9776 -3.1363
 7077SOL    HW232865   1.706   2.261   1.876 -1.0881  0.1803 -0.3148
 7078SOL     OW32866   2.268   1.509   7.704 -0.5836 -0.1848  0.3727
 7078SOL    HW132867   2.317   1.570   7.650  0.1513  0.4937  1.8168
 7078SOL    HW232868   2.305   1.423   7.684  0.8194  0.7420 -0.9793
 7079SOL     OW32869   3.276   3.641   9.518  0.2869  0.0032  0.2144
 7079SOL    HW132870   3.250   3.643   9.426  2.1169 -0.3415 -0.3271
 7079SOL    HW232871   3.359   3.594   9.508  1.0518  1.4006  0.0794
 7080SOL     OW32872   0.931   1.463  13.567 -0.1030  0.2612  0.2979
 7080SOL    HW132873   0.875   1.389  13.544  0.8268 -0.3398 -0.0179
 7080SOL    HW232874   1.017   1.421  13.560  0.3937  1.2685  0.3413
 7081SOL     OW32875   2.955   0.967   5.045 -0.3862 -0.2792  0.0203
 7081SOL    HW132876   3.039   0.949   5.003 -1.0283 -4.0328  0.3424
 7081SOL    HW232877   2.914   1.029   4.985 -1.5995 -0.7783  0.3134
 7082SOL     OW32878   2.884   4.445   3.018 -0.0797  0.8354 -0.2259
 7082SOL    HW132879   2.913   4.525   2.974 -1.0434  2.4549  2.1211
 7082SOL    HW232880   2.826   4.413   2.949 -1.5290 -0.5472  1.6375
 7083SOL     OW32881   2.371   2.296   7.971  0.3666  0.3626  0.1328
 7083SOL    HW132882   2.434   2.360   8.004  2.7215 -2.2977  0.7586
 7083SOL    HW232883   2.420   2.215   7.983 -1.3443 -0.7567 -0.3765
 7084SOL     OW32884   4.233   3.211  11.467  0.0005 -0.1942  0.2423
 7084SOL    HW132885   4.282   3.268  11.527 -1.1869  0.9361  0.1632
 7084SOL    HW232886   4.269   3.246  11.386  2.5518  0.8205  1.8082
 7085SOL     OW32887   4.578   0.814   3.385  0.3055 -0.1607  0.1218
 7085SOL    HW132888   4.661   0.767   3.392 -0.1636 -0.8291  1.1274
 7085SOL    HW232889   4.516   0.744   3.404 -1.0600  0.0408 -3.6576
 7086SOL     OW32890   3.817   4.023   1.990  0.2913 -0.3030  0.0061
 7086SOL    HW132891   3.827   4.118   1.990 -1.3919 -0.1252 -0.5537
 7086SOL    HW232892   3.759   4.020   2.066 -0.7588  2.0974 -0.6929
 7087SOL     OW32893   0.507   2.112   9.952 -0.8475  0.1451 -0.4382
 7087SOL    HW132894   0.471   2.055   9.883  1.7742 -2.4485  0.3124
 7087SOL    HW232895   0.575   2.161   9.906  0.7872 -0.4983  1.3116
 7088SOL     OW32896   4.621   4.098  10.258 -0.2979  0.0957 -0.6580
 7088SOL    HW132897   4.673   4.174  10.231  1.4152 -1.4199 -1.6538
 7088SOL    HW232898   4.626   4.047  10.178  1.9849  0.7734 -0.9726
 7089SOL     OW32899   3.550   3.803   2.055  0.3802  0.0164  0.4576
 7089SOL    HW132900   3.465   3.759   2.050  0.7172 -0.4375 -1.1239
 7089SOL    HW232901   3.594   3.759   2.127  1.5480  3.5045  1.8677
 7090SOL     OW32902   0.882   3.112   1.762  0.2501 -0.0932  0.1497
 7090SOL    HW132903   0.966   3.152   1.785  0.7833 -0.9413 -0.3158
 7090SOL    HW232904   0.912   3.033   1.718  1.9749  0.6370 -0.0084
 7091SOL     OW32905   3.793   3.040  13.184  0.4369  0.1013 -0.0439
 7091SOL    HW132906   3.750   3.020  13.267 -0.6595  1.7124 -0.2221
 7091SOL    HW232907   3.830   2.958  13.151 -0.4061 -0.8841  1.4855
 7092SOL     OW32908   1.733   2.017   4.375 -0.0890 -0.0785  0.7694
 7092SOL    HW132909   1.708   2.055   4.292  1.4777  0.5939  0.6032
 7092SOL    HW232910   1.758   2.093   4.428  1.2226  0.2626 -0.3504
 7093SOL     OW32911   3.829   2.753   6.815  0.2937  0.1038  0.1265
 7093SOL    HW132912   3.909   2.701   6.818  1.1530  1.3903 -0.4636
 7093SOL    HW232913   3.821   2.742   6.720  1.6320  1.4492 -0.1441
 7094SOL     OW32914   0.821   3.855   5.903 -0.1377 -0.0969  0.7348
 7094SOL    HW132915   0.799   3.864   5.996  2.4503 -1.5190  1.4666
 7094SOL    HW232916   0.806   3.941   5.863  0.3856 -1.4930 -2.4430
 7095SOL     OW32917   3.379   0.110   3.723 -0.3807 -0.1855 -0.1973
 7095SOL    HW132918   3.423   0.082   3.803 -1.1963  0.0613  0.3358
 7095SOL    HW232919   3.320   0.182   3.748  0.5543  0.8792 -1.0355
 7096SOL     OW32920   0.789   3.054   1.369 -0.0649 -0.6136 -0.1674
 7096SOL    HW132921   0.833   3.071   1.453 -0.1979 -1.1164  0.0007
 7096SOL    HW232922   0.803   3.132   1.316  0.8250 -0.9587 -0.4449
 7097SOL     OW32923   3.237   0.855  13.454 -0.0584 -1.2331 -0.6251
 7097SOL    HW132924   3.284   0.937  13.436  0.7943 -1.2578  1.4678
 7097SOL    HW232925   3.286   0.825  13.530  0.6689  1.4303 -0.0456
 7098SOL     OW32926   2.087   0.205   2.821 -0.0946 -0.5102  0.2851
 7098SOL    HW132927   2.044   0.280   2.779  3.7261  1.4503 -0.0786
 7098SOL    HW232928   2.051   0.135   2.767 -0.6965  1.0798 -1.3680
 7099SOL     OW32929   0.153   2.028   1.822 -0.0247  0.0846 -0.1693
 7099SOL    HW132930   0.236   2.030   1.774  0.3534  0.3636  0.4993
 7099SOL    HW232931   0.105   2.091   1.768  0.2276  0.0636 -0.4146
 7100SOL     OW32932   2.919   3.730   7.634 -0.0010 -0.2144 -0.5311
 7100SOL    HW132933   2.964   3.646   7.625 -1.1444 -0.8388 -0.4593
 7100SOL    HW232934   2.997   3.783   7.619  0.1270 -0.2885 -0.1150
 7101SOL     OW32935   1.136   4.562   7.816  0.4325  0.1052 -0.1542
 7101SOL    HW132936   1.185   4.629   7.768  1.9939 -0.3734  0.7950
 7101SOL    HW232937   1.094   4.514   7.744  1.0378  0.6062 -0.8448
 7102SOL     OW32938   4.601   1.773  17.234 -0.2313  0.0527  0.0162
 7102SOL    HW132939   4.602   1.699  17.173 -0.3841 -1.1582  1.4886
 7102SOL    HW232940   4.537   1.746  17.300  1.0492 -0.1747  1.1649
 7103SOL     OW32941   0.320   1.987   6.567 -0.0851  0.5006 -0.7698
 7103SOL    HW132942   0.398   1.943   6.600 -0.9691  0.4035  1.1979
 7103SOL    HW232943   0.351   2.065   6.519  2.9897 -0.2442 -0.0068
 7104SOL     OW32944   3.456   3.417   3.307  0.0934 -0.1135  0.3335
 7104SOL    HW132945   3.469   3.397   3.399 -0.4030  0.5330  0.5416
 7104SOL    HW232946   3.509   3.497   3.297  2.8237 -2.0666 -0.8469
 7105SOL     OW32947   1.215   3.044   9.385 -0.1284 -0.2419  0.0922
 7105SOL    HW132948   1.245   3.133   9.364 -0.6030 -0.0886  0.0536
 7105SOL    HW232949   1.127   3.059   9.418 -0.1936 -1.4850  0.4711
 7106SOL     OW32950   3.419   0.585  10.091 -0.1141  0.3216  0.4947
 7106SOL    HW132951   3.423   0.527  10.167 -1.6753 -0.7489 -0.2310
 7106SOL    HW232952   3.511   0.582  10.065  0.5101 -0.9224  2.8505
 7107SOL     OW32953   3.384   4.700  15.276  0.3164 -0.2873  0.3103
 7107SOL    HW132954   3.437   4.624  15.249 -0.4366 -0.7613  0.1564
 7107SOL    HW232955   3.458   0.018  15.301  0.9228 -0.3729 -1.3207
 7108SOL     OW32956   1.513   2.699   2.791 -0.5265 -0.1093  0.0608
 7108SOL    HW132957   1.430   2.702   2.839 -0.9201  1.6086 -0.7333
 7108SOL    HW232958   1.537   2.608   2.809 -0.7028 -0.0695  0.4900
 7109SOL     OW32959   2.337   0.798   5.999  0.0579  0.2418 -0.5869
 7109SOL    HW132960   2.244   0.784   6.017  0.0223  0.3452 -0.6917
 7109SOL    HW232961   2.339   0.884   5.958  1.6395  0.0974 -0.8195
 7110SOL     OW32962   1.697   0.393   5.802 -0.1761  0.1526  0.6317
 7110SOL    HW132963   1.716   0.475   5.848 -2.1723  2.0553 -1.9752
 7110SOL    HW232964   1.671   0.344   5.881  0.8598 -0.7941  0.3805
 7111SOL     OW32965   3.507   1.937  16.054  0.1927 -1.0000 -0.5176
 7111SOL    HW132966   3.501   1.920  15.960  1.5344 -3.5431 -0.1575
 7111SOL    HW232967   3.427   1.990  16.057  1.2417  0.4320  2.4821
 7112SOL     OW32968   0.016   0.116   2.685 -0.1864  0.1919  0.5932
 7112SOL    HW132969   0.015   0.029   2.645  0.0159  0.8843 -0.9036
 7112SOL    HW232970   4.669   0.105   2.729 -0.9244 -0.1931 -0.9008
 7113SOL     OW32971   4.695   2.747   8.655  0.0093 -0.1026 -0.3540
 7113SOL    HW132972   0.045   2.766   8.689 -0.1770  0.7682 -0.3611
 7113SOL    HW232973   4.653   2.831   8.633 -0.8919 -0.2197  0.8992
 7114SOL     OW32974   2.711   3.395   6.575 -0.1880  0.7381  0.4127
 7114SOL    HW132975   2.743   3.445   6.650 -1.2494  0.9527  0.7202
 7114SOL    HW232976   2.756   3.313   6.591  0.3661  0.5199 -2.1965
 7115SOL     OW32977   3.624   2.089   5.826 -0.0470  0.1373 -0.5615
 7115SOL    HW132978   3.634   2.081   5.732 -3.2577 -0.7983 -0.8071
 7115SOL    HW232979   3.713   2.061   5.849 -0.4900  0.4998  1.6824
 7116SOL     OW32980   0.221   4.504   4.798 -0.5491  0.4343 -0.6674
 7116SOL    HW132981   0.153   4.545   4.746 -0.6947 -0.2199 -0.9941
 7116SOL    HW232982   0.287   4.573   4.793 -0.9015  0.6300 -2.4690
 7117SOL     OW32983   3.523   2.840   7.771  0.6261 -0.1000 -0.2074
 7117SOL    HW132984   3.504   2.913   7.713  1.3095  1.2265  1.2422
 7117SOL    HW232985   3.457   2.775   7.746  0.5253 -0.4173  0.8812
 7118SOL     OW32986   2.546   4.667   5.132 -0.4145  0.3495 -0.0041
 7118SOL    HW132987   2.550   4.584   5.084 -1.2504  0.0245  0.4854
 7118SOL    HW232988   2.626   4.706   5.099 -0.0653 -1.6168 -1.4963
 7119SOL     OW32989   0.657   0.631   6.748  0.0780 -0.3461  0.0249
 7119SOL    HW132990   0.742   0.634   6.706  0.1744 -1.1413  0.1579
 7119SOL    HW232991   0.678   0.609   6.839  0.2129  1.4821  0.4232
 7120SOL     OW32992   1.279   2.316   2.072 -0.1055 -0.3596  0.2000
 7120SOL    HW132993   1.373   2.304   2.085  0.3935  2.3324 -0.7346
 7120SOL    HW232994   1.272   2.407   2.043 -2.4652 -0.7863 -0.5674
 7121SOL     OW32995   1.456   2.559  11.428  0.3149  0.2554  0.2313
 7121SOL    HW132996   1.392   2.490  11.412 -1.3995  1.4426  2.0462
 7121SOL    HW232997   1.507   2.519  11.499  1.3607  2.8293  0.9425
 7122SOL     OW32998   0.586   2.786   0.748  0.0784 -0.5249 -0.1558
 7122SOL    HW132999   0.535   2.866   0.761 -1.9132 -1.5415 -1.6705
 7122SOL    HW233000   0.642   2.788   0.826  0.8483  0.3153 -0.7302
 7123SOL     OW33001   4.368   0.956   8.363 -0.3295  0.4309  0.0099
 7123SOL    HW133002   4.298   0.955   8.428  0.4392  0.1308  0.8137
 7123SOL    HW233003   4.400   0.868   8.382 -0.6482 -0.3435 -2.9414
 7124SOL     OW33004   1.458   0.493  15.604 -0.3004 -0.2876  0.1188
 7124SOL    HW133005   1.406   0.552  15.659 -0.9056 -1.4495  0.7739
 7124SOL    HW233006   1.550   0.520  15.608  0.2059 -1.7537 -1.6369
 7125SOL     OW33007   1.488   2.740  13.590  0.5201  0.3851 -0.1542
 7125SOL    HW133008   1.407   2.747  13.540 -0.3147 -2.3470  0.8703
 7125SOL    HW233009   1.513   2.833  13.589  3.8249 -0.4625  1.2066
 7126SOL     OW33010   3.604   0.641   6.545 -0.0070 -0.2614  0.3192
 7126SOL    HW133011   3.566   0.557   6.521  0.6192 -0.3312 -0.4012
 7126SOL    HW233012   3.587   0.687   6.463 -0.4271 -1.4666 -0.2595
 7127SOL     OW33013   1.687   3.420   3.528 -1.0428  0.4007 -0.1482
 7127SOL    HW133014   1.616   3.368   3.490  0.6790 -1.8825 -0.2476
 7127SOL    HW233015   1.763   3.394   3.476 -0.7885 -0.7428  0.8006
 7128SOL     OW33016   3.422   2.560   8.540  0.0088  0.2325 -0.0350
 7128SOL    HW133017   3.344   2.603   8.575  0.6647  1.5756 -0.2263
 7128SOL    HW233018   3.388   2.509   8.466  0.8997  0.5635 -0.6663
 7129SOL     OW33019   2.683   3.003   2.046 -0.4185  0.0254 -0.2663
 7129SOL    HW133020   2.676   3.091   2.010  0.6481 -1.1821 -3.4997
 7129SOL    HW233021   2.749   3.010   2.115 -1.2640 -1.5480  0.7148
 7130SOL     OW33022   4.330   3.006   8.271  0.2551 -0.5747  0.0438
 7130SOL    HW133023   4.410   2.989   8.221 -0.4832 -0.4465 -1.1944
 7130SOL    HW233024   4.352   3.044   8.356 -1.3086 -0.5229  0.4388
 7131SOL     OW33025   0.605   0.816   2.226 -0.1693  0.0462 -0.1886
 7131SOL    HW133026   0.610   0.905   2.190 -0.3677  0.0641 -0.1728
 7131SOL    HW233027   0.689   0.774   2.208 -0.0240 -0.0073  0.6427
 7132SOL     OW33028   0.992   2.535   9.089 -0.1114  0.0289  0.1935
 7132SOL    HW133029   1.071   2.575   9.125  0.6244 -0.8950 -0.3885
 7132SOL    HW233030   1.021   2.511   9.001 -1.9138 -0.3386 -0.3013
 7133SOL     OW33031   1.492   3.429   9.318  0.1976 -0.6722 -0.5193
 7133SOL    HW133032   1.401   3.425   9.289 -0.3870  1.0010  1.0276
 7133SOL    HW233033   1.496   3.520   9.347 -0.7851 -1.1719  1.2454
 7134SOL     OW33034   3.606   2.013   8.483  0.3265  0.3808 -0.5831
 7134SOL    HW133035   3.602   2.108   8.478  0.3865  0.3752 -0.7416
 7134SOL    HW233036   3.625   2.002   8.576  0.9913  1.8308 -0.5520
 7135SOL     OW33037   1.351   2.437   8.072 -0.5226 -0.3073 -0.6597
 7135SOL    HW133038   1.350   2.418   7.978  0.0028 -2.3874 -0.2497
 7135SOL    HW233039   1.266   2.405   8.104  0.2073  1.1952  2.8274
 7136SOL     OW33040   0.610   1.763  15.061 -0.3862  0.9018  0.1369
 7136SOL    HW133041   0.517   1.749  15.079 -0.7089  1.8925 -0.8099
 7136SOL    HW233042   0.618   1.848  15.019  0.0239 -0.2164 -1.9973
 7137SOL     OW33043   3.801   4.019   1.607 -0.1726  0.1331  0.6379
 7137SOL    HW133044   3.747   3.996   1.683  0.2385  0.0985  0.9216
 7137SOL    HW233045   3.878   3.963   1.613  0.0352  0.2075 -1.2895
 7138SOL     OW33046   4.305   0.020   3.783 -0.4270 -0.4337  0.4220
 7138SOL    HW133047   4.304   4.698   3.858 -0.7752  1.3739  1.8555
 7138SOL    HW233048   4.259   0.094   3.824  0.2270  0.0757  0.2400
 7139SOL     OW33049   2.108   4.567   6.101 -0.2604  0.0545  0.2353
 7139SOL    HW133050   2.021   4.606   6.087  0.3830  1.4669  0.1052
 7139SOL    HW233051   2.084   4.496   6.160 -0.8304 -0.2144 -0.3171
 7140SOL     OW33052   1.946   1.599   5.135  0.1161  0.3648 -0.0361
 7140SOL    HW133053   1.851   1.588   5.127 -0.0002  1.7590 -0.6028
 7140SOL    HW233054   1.967   1.631   5.223  1.3038 -0.9927  0.1769
 7141SOL     OW33055   2.746   3.367   5.654 -0.0126 -0.1485  0.7819
 7141SOL    HW133056   2.695   3.413   5.721 -1.3907  2.9862 -2.4310
 7141SOL    HW233057   2.714   3.277   5.663  0.5666 -0.3469  0.8376
 7142SOL     OW33058   2.693   0.576   5.368  0.0888 -0.4050 -0.4615
 7142SOL    HW133059   2.781   0.609   5.387 -0.6346  0.0718  2.1468
 7142SOL    HW233060   2.675   0.627   5.290 -2.7140  1.9615  1.7354
 7143SOL     OW33061   3.880   1.163   3.523 -0.3329  0.1149  0.8423
 7143SOL    HW133062   3.883   1.140   3.430  0.9642 -0.0413  0.9183
 7143SOL    HW233063   3.794   1.127   3.544  0.2357 -0.1799  2.7014
 7144SOL     OW33064   2.080   0.365   5.776 -0.1091  0.5025  0.2444
 7144SOL    HW133065   2.078   0.276   5.811  0.6093  0.8248  1.1205
 7144SOL    HW233066   2.094   0.398   5.865  1.1620 -0.2251  0.3184
 7145SOL     OW33067   1.639   4.378   0.034 -0.0150  0.0105  0.1873
 7145SOL    HW133068   1.664   4.315  17.713 -2.2255 -0.0577 -0.5391
 7145SOL    HW233069   1.586   4.437  17.727  0.5619  0.4434  0.0966
 7146SOL     OW33070   1.150   1.462   6.218 -0.2197  0.0949  0.2883
 7146SOL    HW133071   1.134   1.391   6.281 -1.6165  0.4369  0.3334
 7146SOL    HW233072   1.062   1.501   6.214  0.7002  2.1068 -0.0135
 7147SOL     OW33073   0.609   1.264   4.991  0.1059 -0.5516  0.0612
 7147SOL    HW133074   0.540   1.321   4.957 -1.1749 -0.0550  3.5430
 7147SOL    HW233075   0.554   1.223   5.057  1.9526 -0.9387  1.3729
 7148SOL     OW33076   0.304   3.258   6.458 -0.1622 -0.2010  0.8073
 7148SOL    HW133077   0.291   3.163   6.448 -2.6887  0.4384 -2.0954
 7148SOL    HW233078   0.224   3.280   6.506 -2.7030 -1.2570 -2.8813
 7149SOL     OW33079   3.415   3.594   5.962 -0.1622  0.5455  0.7048
 7149SOL    HW133080   3.332   3.588   6.009 -0.7784  0.2652 -0.4095
 7149SOL    HW233081   3.398   3.539   5.885  0.8206 -0.3249  1.1074
 7150SOL     OW33082   2.663   2.952  15.105 -0.4742  0.3894  0.2318
 7150SOL    HW133083   2.609   2.947  15.183  1.0075 -2.0847  1.1146
 7150SOL    HW233084   2.693   2.863  15.089  0.4134  0.5007  1.2669
 7151SOL     OW33085   2.961   2.938   6.126 -0.3179 -0.7005  0.2661
 7151SOL    HW133086   3.023   2.940   6.199  0.4745 -1.5388 -0.3771
 7151SOL    HW233087   2.882   2.906   6.169 -0.4724 -1.2847 -0.4512
 7152SOL     OW33088   2.488   1.370  10.589 -0.2961  0.4250 -0.1805
 7152SOL    HW133089   2.579   1.338  10.586  0.2363  1.8202  0.8901
 7152SOL    HW233090   2.480   1.411  10.675  2.1593 -0.2678  0.3900
 7153SOL     OW33091   4.321   1.219   5.258  0.4107 -0.4930 -0.0769
 7153SOL    HW133092   4.343   1.230   5.350  0.4501 -1.5424  0.0367
 7153SOL    HW233093   4.252   1.153   5.265  0.5910 -0.7383 -0.6274
 7154SOL     OW33094   0.763   0.231  12.363  0.0471 -0.2084  0.1150
 7154SOL    HW133095   0.816   0.165  12.319 -0.2997  0.6176 -1.5722
 7154SOL    HW233096   0.701   0.259  12.295  0.1755  1.6238  0.7449
 7155SOL     OW33097   2.837   3.254   9.724  0.7980  0.9053  0.0418
 7155SOL    HW133098   2.928   3.252   9.697  0.5155 -0.4502 -0.8256
 7155SOL    HW233099   2.810   3.345   9.708 -4.1166 -0.3732  0.8694
 7156SOL     OW33100   1.327   1.786   3.134 -0.1468  0.2190 -0.1229
 7156SOL    HW133101   1.385   1.816   3.204 -1.5123  0.1176  1.0456
 7156SOL    HW233102   1.355   1.694   3.134 -0.2624  0.1894  2.5473
 7157SOL     OW33103   4.384   2.750  12.780 -0.7062 -0.2644 -0.4293
 7157SOL    HW133104   4.441   2.756  12.703 -0.1139  1.3977  0.1405
 7157SOL    HW233105   4.295   2.740  12.747 -1.3277 -0.2104  1.2735
 7158SOL     OW33106   1.723   1.112   1.023  0.4536  0.4333 -1.0602
 7158SOL    HW133107   1.742   1.194   0.978  1.3733  0.0246 -1.4390
 7158SOL    HW233108   1.761   1.135   1.108  0.4308 -1.5190 -0.5246
 7159SOL     OW33109   3.326   2.457   8.285 -0.1877 -0.6645 -0.1144
 7159SOL    HW133110   3.410   2.460   8.239 -0.2976  1.0120 -0.2113
 7159SOL    HW233111   3.264   2.515   8.240 -1.4262 -1.5684  0.4209
 7160SOL     OW33112   1.545   2.378   7.288  0.0098  0.2750 -0.0621
 7160SOL    HW133113   1.524   2.423   7.369  0.8075 -1.0015  0.8424
 7160SOL    HW233114   1.565   2.457   7.238  2.3261  0.3149  0.9469
 7161SOL     OW33115   0.324   3.371  15.820  0.0166 -0.0098 -0.3562
 7161SOL    HW133116   0.330   3.466  15.813 -2.2393  0.0192 -1.6921
 7161SOL    HW233117   0.231   3.350  15.820 -0.2713  1.2397  2.7541
 7162SOL     OW33118   2.905   2.063   2.235  0.0072 -0.3221  0.2984
 7162SOL    HW133119   2.879   2.010   2.311  1.7752 -1.1625  0.3212
 7162SOL    HW233120   2.822   2.103   2.209 -0.1782 -1.0693 -0.2573
 7163SOL     OW33121   2.276   1.747   8.406 -0.1502 -0.6234 -0.4127
 7163SOL    HW133122   2.215   1.802   8.357 -1.6083 -0.2166  1.9003
 7163SOL    HW233123   2.280   1.788   8.492 -2.0473 -2.4524  0.5484
 7164SOL     OW33124   0.661   1.806   3.954  0.0411  0.2661 -0.1288
 7164SOL    HW133125   0.570   1.825   3.979 -0.0260 -1.4083  0.9123
 7164SOL    HW233126   0.708   1.885   3.981 -1.7065  1.3723 -0.3270
 7165SOL     OW33127   4.182   1.595   3.628  0.0812 -0.0062 -0.2997
 7165SOL    HW133128   4.096   1.554   3.615  0.0866 -0.2153  0.3156
 7165SOL    HW233129   4.146   1.679   3.600 -0.5847 -1.0023 -2.4413
 7166SOL     OW33130   4.648   0.016  13.513  0.2899  0.4757  0.4846
 7166SOL    HW133131   4.617   4.700  13.439  0.0341 -0.6395  1.3931
 7166SOL    HW233132   4.699   4.685  13.556 -1.1911  0.3366  2.0297
 7167SOL     OW33133   3.780   0.979   6.250  0.8363  0.9292 -0.8211
 7167SOL    HW133134   3.810   0.902   6.202 -0.2100 -0.0551  0.0949
 7167SOL    HW233135   3.843   0.983   6.322 -1.2205  1.0450  0.9699
 7168SOL     OW33136   0.337   4.428   2.135  0.2578 -0.1380  0.8130
 7168SOL    HW133137   0.295   4.423   2.221  1.5984 -2.1646  1.3600
 7168SOL    HW233138   0.396   4.498   2.163  1.0078  0.0896 -1.3388
 7169SOL     OW33139   3.062   3.718   0.921 -0.0376  0.0749  0.1090
 7169SOL    HW133140   3.092   3.649   0.862 -2.2379 -0.7197 -0.0993
 7169SOL    HW233141   3.135   3.778   0.911  1.4974 -1.7491  0.2623
 7170SOL     OW33142   1.709   2.510   8.989 -0.1711 -0.4286  0.5022
 7170SOL    HW133143   1.787   2.527   9.041  0.6432  0.8742 -1.1379
 7170SOL    HW233144   1.652   2.587   8.984  0.3092 -0.1948 -1.4641
 7171SOL     OW33145   1.239   3.035   7.789 -0.2937  0.3462 -0.0018
 7171SOL    HW133146   1.323   3.000   7.760  0.4287  2.5907 -0.6690
 7171SOL    HW233147   1.180   2.979   7.738 -1.9345  2.2469 -0.2157
 7172SOL     OW33148   1.622   0.835  12.231  0.5648 -0.7146 -0.0771
 7172SOL    HW133149   1.532   0.846  12.201  1.0157 -1.7113 -1.7990
 7172SOL    HW233150   1.658   0.881  12.155 -1.1064  1.0245  0.1901
 7173SOL     OW33151   2.138   2.571   9.002  0.2770 -0.0405 -0.4786
 7173SOL    HW133152   2.113   2.608   9.087 -1.0874  0.4818 -1.1011
 7173SOL    HW233153   2.212   2.628   8.984  1.7765 -2.0976 -0.8282
 7174SOL     OW33154   1.391   2.247   4.027 -0.2752  0.1682  0.0985
 7174SOL    HW133155   1.337   2.181   4.070 -1.3507 -0.7689 -2.6730
 7174SOL    HW233156   1.337   2.279   3.954  0.4424  1.8186  0.2875
 7175SOL     OW33157   3.160   2.101   1.338 -0.0649 -0.3841 -0.2418
 7175SOL    HW133158   3.249   2.128   1.362 -0.1955 -2.0400  2.0386
 7175SOL    HW233159   3.126   2.063   1.418  2.8639 -0.4014  1.0142
 7176SOL     OW33160   3.378   4.531   8.509 -0.1968 -0.0922 -0.2151
 7176SOL    HW133161   3.439   4.584   8.560  0.3903 -2.0197  1.1082
 7176SOL    HW233162   3.387   4.445   8.550  1.1826  0.5584  0.8385
 7177SOL     OW33163   0.597   0.131   9.819  0.0943  0.2319 -0.3749
 7177SOL    HW133164   0.507   0.100   9.832  0.5481 -0.6977  0.5235
 7177SOL    HW233165   0.623   0.166   9.904  1.5060 -1.5135 -0.0918
 7178SOL     OW33166   1.166   4.678   7.405 -0.4888 -0.4400  0.3168
 7178SOL    HW133167   1.214   4.647   7.482 -1.0712 -0.8338  0.5272
 7178SOL    HW233168   1.156   4.594   7.361 -0.4507 -1.4584  2.2416
 7179SOL     OW33169   1.455   2.119   7.962  0.0446  0.2539  0.0233
 7179SOL    HW133170   1.449   2.175   7.885  0.5607 -0.5336 -0.5944
 7179SOL    HW233171   1.499   2.179   8.022 -0.4146  1.2525 -0.6509
 7180SOL     OW33172   3.530   3.793   6.284  0.1434 -0.3016  0.4150
 7180SOL    HW133173   3.538   3.888   6.288 -1.1267 -0.1387 -1.3830
 7180SOL    HW233174   3.612   3.763   6.324  1.5904  0.0341 -2.2817
 7181SOL     OW33175   2.955   2.531   8.566 -0.0201 -0.2856 -0.4394
 7181SOL    HW133176   3.000   2.471   8.507  0.0402  0.1774 -0.8642
 7181SOL    HW233177   2.938   2.474   8.641  0.8012  1.4846  1.0980
 7182SOL     OW33178   4.377   3.257   6.426  0.4703  0.1238  0.1912
 7182SOL    HW133179   4.382   3.249   6.521  2.3472  0.3978  0.1138
 7182SOL    HW233180   4.302   3.316   6.417 -0.1781 -0.4879  1.5604
 7183SOL     OW33181   0.384   1.643   9.139 -0.0502  0.3303 -0.1359
 7183SOL    HW133182   0.404   1.605   9.053  1.0490 -1.5956  0.9567
 7183SOL    HW233183   0.323   1.714   9.122  0.4293  0.7544 -0.0743
 7184SOL     OW33184   3.243   0.113  15.109 -0.1490 -0.0167 -0.1597
 7184SOL    HW133185   3.290   0.078  15.185 -0.4946 -0.8326 -0.3234
 7184SOL    HW233186   3.162   0.063  15.119 -0.3899  0.4781  0.4393
 7185SOL     OW33187   2.912   3.860   7.286 -0.5490  0.3154  0.2621
 7185SOL    HW133188   2.838   3.901   7.331 -0.2425 -0.6242  1.6169
 7185SOL    HW233189   2.893   3.767   7.289  0.1727  0.1990  1.3577
 7186SOL     OW33190   0.056   2.040   6.409 -0.2966  0.4539 -0.0128
 7186SOL    HW133191   0.043   2.023   6.502 -2.3432 -2.0036 -0.7468
 7186SOL    HW233192   4.707   2.016   6.376 -0.8116  1.5844  0.5133
 7187SOL     OW33193   1.932   0.146   6.743  0.4058  0.1197  0.3189
 7187SOL    HW133194   1.983   0.225   6.725  0.5592 -0.2201 -0.7456
 7187SOL    HW233195   1.880   0.141   6.663 -0.1716  0.7947  0.6496
 7188SOL     OW33196   0.718   2.873   2.971  0.1114 -0.3235  0.0277
 7188SOL    HW133197   0.716   2.804   3.037  1.0449 -0.0748  0.3040
 7188SOL    HW233198   0.717   2.818   2.892 -1.1995  0.0412 -0.2167
 7189SOL     OW33199   3.525   4.495  15.157  0.5895  0.1321 -0.2813
 7189SOL    HW133200   3.614   4.517  15.128  0.9423 -2.0447 -0.8038
 7189SOL    HW233201   3.481   4.536  15.083  0.7191  1.8644  0.5891
 7190SOL     OW33202   2.872   0.536   6.227 -0.3912  0.1638 -0.9344
 7190SOL    HW133203   2.901   0.446   6.212 -0.5078  0.0192 -0.2737
 7190SOL    HW233204   2.939   0.584   6.179  0.2461  0.0701 -0.1351
 7191SOL     OW33205   0.337   3.566   2.473 -0.2620  0.0018 -0.5513
 7191SOL    HW133206   0.251   3.529   2.454  0.0211 -0.8246 -0.2259
 7191SOL    HW233207   0.363   3.588   2.383  0.4180 -1.1992 -0.6457
 7192SOL     OW33208   1.756   0.811   2.447  0.6847 -0.3575  0.1315
 7192SOL    HW133209   1.754   0.718   2.470 -0.6235 -1.1716 -3.2395
 7192SOL    HW233210   1.811   0.818   2.369  0.5711 -1.7357 -0.0772
 7193SOL     OW33211   0.559   4.422  13.814 -0.1450 -0.3923  0.4772
 7193SOL    HW133212   0.510   4.428  13.896 -0.7137 -1.2837  0.2039
 7193SOL    HW233213   0.650   4.431  13.842 -0.1055 -1.1701  0.5936
 7194SOL     OW33214   3.093   3.284   9.660  1.0165  0.1413  0.4765
 7194SOL    HW133215   3.099   3.378   9.678  0.0365 -0.0079  1.5796
 7194SOL    HW233216   3.187   3.270   9.667  0.4222 -3.0722  1.9702
 7195SOL     OW33217   2.533   3.324   3.194  0.4337  0.2006  0.1984
 7195SOL    HW133218   2.627   3.344   3.192  0.8477 -1.8104 -0.1612
 7195SOL    HW233219   2.492   3.371   3.121 -0.0919 -0.5300  0.0271
 7196SOL     OW33220   3.040   0.021   6.631  0.1247  0.1740  0.4641
 7196SOL    HW133221   3.035   0.099   6.686  0.2027  1.3111 -1.1529
 7196SOL    HW233222   3.023   0.054   6.543 -1.6075  2.3303  1.6125
 7197SOL     OW33223   1.238   3.395   6.631 -0.1393 -0.4933  0.3326
 7197SOL    HW133224   1.241   3.310   6.588 -1.4457 -1.6485  2.4853
 7197SOL    HW233225   1.327   3.414   6.602  0.2693 -2.6798  0.1542
 7198SOL     OW33226   0.584   4.018   0.718  0.1756 -0.7870  0.0804
 7198SOL    HW133227   0.505   4.067   0.741 -0.4146 -0.9949 -1.5239
 7198SOL    HW233228   0.639   4.082   0.764  0.3102 -0.9859  0.1973
 7199SOL     OW33229   4.639   2.578   4.573  0.0511 -0.0020 -0.0679
 7199SOL    HW133230   4.561   2.582   4.517 -1.5448 -1.2697  2.0933
 7199SOL    HW233231   4.600   2.633   4.640 -1.4121 -0.6358 -0.3872
 7200SOL     OW33232   1.133   1.012   5.471 -0.3328 -0.2921  0.1307
 7200SOL    HW133233   1.149   0.923   5.441 -1.2042 -0.0490 -1.0548
 7200SOL    HW233234   1.166   1.062   5.397  0.3432 -2.8286 -1.2712
 7201SOL     OW33235   0.120   3.674   6.586  0.5530 -0.8112 -0.2670
 7201SOL    HW133236   0.170   3.663   6.668 -1.0044  1.7429  1.0399
 7201SOL    HW233237   0.136   3.762   6.551  2.6197 -1.1902 -0.2731
 7202SOL     OW33238   0.820   4.594  13.612 -0.4859  0.4824 -0.8228
 7202SOL    HW133239   0.830   4.603  13.707 -3.7680  0.2576 -0.4677
 7202SOL    HW233240   0.867   4.512  13.592  1.3081  0.8731  1.7668
 7203SOL     OW33241   1.498   2.125   2.127 -0.0547  0.2459 -0.3423
 7203SOL    HW133242   1.497   2.067   2.204  0.3029 -0.2918 -0.7412
 7203SOL    HW233243   1.418   2.095   2.084 -0.4474  0.4005  0.2881
 7204SOL     OW33244   4.362   3.015   0.553  0.1975 -0.2258 -0.3344
 7204SOL    HW133245   4.294   3.072   0.588 -1.6288 -3.6982  1.7529
 7204SOL    HW233246   4.335   2.942   0.610  0.0895  1.8289  2.2287
 7205SOL     OW33247   1.309   0.099   8.921  0.4914  0.2854  0.1276
 7205SOL    HW133248   1.388   0.044   8.912  0.4977  0.4307 -0.7364
 7205SOL    HW233249   1.270   0.047   8.991  0.9170 -0.1646  0.0344
 7206SOL     OW33250   1.204   4.641   1.815 -0.3277  0.1554 -0.1161
 7206SOL    HW133251   1.168   4.730   1.813  0.6411  0.5478 -0.1669
 7206SOL    HW233252   1.136   4.598   1.866  0.6795  0.4638  1.4837
 7207SOL     OW33253   2.839   3.155   6.633 -0.1112 -0.2363  0.0955
 7207SOL    HW133254   2.887   3.182   6.554 -2.0241 -1.3740 -1.4560
 7207SOL    HW233255   2.913   3.139   6.692  0.3488  0.2121 -0.3649
 7208SOL     OW33256   0.300   0.877  15.503  0.3503 -0.1694 -0.3437
 7208SOL    HW133257   0.375   0.826  15.472 -1.0114 -1.4068 -1.5457
 7208SOL    HW233258   0.268   0.904  15.417 -0.0927 -0.4337 -0.2637
 7209SOL     OW33259   0.065   0.626   8.694 -0.4993  0.0361  0.7457
 7209SOL    HW133260   0.002   0.559   8.719 -0.3838  0.8518  3.2215
 7209SOL    HW233261   0.002   0.675   8.641 -0.0711  0.2372  0.4244
 7210SOL     OW33262   1.237   0.084   0.810  0.0673  0.3359  0.0768
 7210SOL    HW133263   1.297   0.094   0.736  0.1153  0.5782  0.1473
 7210SOL    HW233264   1.296   0.067   0.884  0.0004 -1.1127 -0.2033
 7211SOL     OW33265   4.349   2.240  14.070  0.4153  0.2718  0.0374
 7211SOL    HW133266   4.305   2.323  14.054 -0.2198  0.2830  1.8010
 7211SOL    HW233267   4.342   2.202  13.982 -0.8090  1.4874 -0.3822
 7212SOL     OW33268   1.384   1.709  10.857 -0.1985  0.1360 -0.5045
 7212SOL    HW133269   1.434   1.773  10.908 -1.7364  1.4096 -0.5856
 7212SOL    HW233270   1.293   1.739  10.847  0.0796  0.3947 -2.2189
 7213SOL     OW33271   1.131   0.256   6.790  0.0833 -0.4828  0.2338
 7213SOL    HW133272   1.216   0.268   6.747 -1.1555 -0.9214 -2.3288
 7213SOL    HW233273   1.160   0.191   6.855  1.2198  0.0926  0.3059
 7214SOL     OW33274   4.539   3.208   0.737 -0.1660  0.5596  0.1700
 7214SOL    HW133275   4.481   3.284   0.732  1.4599  1.4866 -3.9400
 7214SOL    HW233276   4.575   3.214   0.826  0.4112  1.0917 -0.1022
 7215SOL     OW33277   0.080   1.821   3.549 -0.1441  0.2022 -0.0252
 7215SOL    HW133278   4.727   1.836   3.522 -0.2010  0.6650  0.4298
 7215SOL    HW233279   0.101   1.904   3.590 -0.5852  0.6107 -0.6225
 7216SOL     OW33280   0.755   1.655   4.334 -0.2996 -0.3171  0.2720
 7216SOL    HW133281   0.817   1.655   4.261 -0.5833  1.7862  0.0179
 7216SOL    HW233282   0.768   1.738   4.380  0.8583  0.3202 -1.1928
 7217SOL     OW33283   3.699   4.104   2.230  0.0554  0.7789  0.6206
 7217SOL    HW133284   3.743   4.148   2.303 -2.2304  3.1191  0.6226
 7217SOL    HW233285   3.647   4.040   2.279 -0.4227  1.0862  0.5159
 7218SOL     OW33286   0.976   2.767   3.624 -0.1976 -0.1946 -0.0328
 7218SOL    HW133287   1.058   2.816   3.631 -1.4094  2.3210 -3.3941
 7218SOL    HW233288   0.975   2.722   3.708 -1.8155  1.4820  0.8361
 7219SOL     OW33289   1.063   0.128   1.504  0.4026 -0.0050 -0.1002
 7219SOL    HW133290   1.147   0.084   1.519 -0.3675 -1.4598 -0.0948
 7219SOL    HW233291   1.015   0.057   1.462  0.9873  1.2353 -2.8185
 7220SOL     OW33292   0.383   3.869   4.139  0.0218  0.2042  0.0294
 7220SOL    HW133293   0.410   3.829   4.057  1.9608  0.0664  0.7319
 7220SOL    HW233294   0.436   3.948   4.138 -0.5135  0.5669  0.2311
 7221SOL     OW33295   3.446   3.690  16.257 -0.1464 -0.2752  0.1820
 7221SOL    HW133296   3.436   3.646  16.172 -0.1150  2.9766 -1.5136
 7221SOL    HW233297   3.536   3.723  16.258 -0.5012  0.6488  0.7067
 7222SOL     OW33298   2.760   2.846   5.158 -0.4614  0.6012 -0.3377
 7222SOL    HW133299   2.709   2.927   5.146 -0.6897  0.3602 -0.9942
 7222SOL    HW233300   2.726   2.789   5.089 -1.3092  0.9655 -0.2165
 7223SOL     OW33301   1.682   4.056  16.164 -0.1951 -0.6807 -0.1139
 7223SOL    HW133302   1.631   4.008  16.099  1.2710 -0.7856 -1.2007
 7223SOL    HW233303   1.632   4.137  16.150 -0.2341 -0.6465  0.2202
 7224SOL     OW33304   2.337   1.005   2.919 -0.3970  0.1776  0.4585
 7224SOL    HW133305   2.418   1.043   2.953  0.5130 -1.8786  0.6275
 7224SOL    HW233306   2.325   0.917   2.956 -0.7086 -0.0655 -0.2292
 7225SOL     OW33307   4.494   3.416   1.465 -0.3753  0.7551  0.3258
 7225SOL    HW133308   4.449   3.354   1.408  4.1529 -2.6638  0.4708
 7225SOL    HW233309   4.424   3.436   1.527 -1.8510  0.2039 -1.1579
 7226SOL     OW33310   0.321   2.091  10.973 -0.7229  0.2318  0.0396
 7226SOL    HW133311   0.294   2.132  11.055  0.9590  1.9872 -0.2904
 7226SOL    HW233312   0.340   2.172  10.925  0.6075  0.4796  1.0018
 7227SOL     OW33313   1.990   4.404   2.218 -0.6918  0.1986  0.0902
 7227SOL    HW133314   2.056   4.351   2.174 -0.4636 -0.2129  0.9219
 7227SOL    HW233315   1.914   4.350   2.194  0.9088 -0.7736 -2.7766
 7228SOL     OW33316   2.419   1.915   3.791 -0.2659 -0.2449  0.2391
 7228SOL    HW133317   2.367   1.973   3.847 -0.0784  1.9637 -1.8416
 7228SOL    HW233318   2.368   1.836   3.807 -1.5244  0.4241 -0.4077
 7229SOL     OW33319   0.198   4.177   8.238 -0.1725  0.2728 -0.3652
 7229SOL    HW133320   0.161   4.167   8.151 -0.9633 -1.0454  0.1125
 7229SOL    HW233321   0.169   4.265   8.259 -3.1766 -0.6520 -0.6810
 7230SOL     OW33322   1.625   1.012   7.353  0.0686  0.4695  0.6228
 7230SOL    HW133323   1.627   0.917   7.358  1.8096  0.4611 -0.1479
 7230SOL    HW233324   1.644   1.018   7.260 -1.3031 -0.7515  0.2784
 7231SOL     OW33325   0.344   4.078   7.577  0.0436  0.0101  0.3910
 7231SOL    HW133326   0.390   4.122   7.649 -0.7068  1.5798 -0.0968
 7231SOL    HW233327   0.275   4.141   7.560  0.0841  0.0312  0.3056
 7232SOL     OW33328   3.721   0.197   3.642 -0.0111 -0.0914 -0.4996
 7232SOL    HW133329   3.703   0.103   3.646  0.0592 -0.0136  1.4707
 7232SOL    HW233330   3.671   0.233   3.715  0.1082 -1.9026  0.4567
 7233SOL     OW33331   0.875   2.969   7.798  0.9784  0.0907 -0.2781
 7233SOL    HW133332   0.910   3.003   7.880  1.9732  0.4162 -0.8347
 7233SOL    HW233333   0.946   2.917   7.758  0.8525 -0.4384  0.1853
 7234SOL     OW33334   1.066   3.709  14.933 -0.1210 -0.6879  0.1170
 7234SOL    HW133335   1.005   3.748  14.870  1.2090 -2.7314 -2.3947
 7234SOL    HW233336   1.081   3.785  14.990  0.1896 -0.9536  0.3865
 7235SOL     OW33337   3.454   1.726   4.851 -0.6063  0.6226  0.7014
 7235SOL    HW133338   3.547   1.737   4.835 -1.0223 -0.0953 -2.2329
 7235SOL    HW233339   3.416   1.802   4.807  0.0914  2.0180  2.5088
 7236SOL     OW33340   1.333   1.309  12.667  0.1907 -0.2679 -0.7869
 7236SOL    HW133341   1.302   1.222  12.691 -0.7282  0.0389 -0.8879
 7236SOL    HW233342   1.281   1.325  12.589 -2.0924 -1.0513  0.5751
 7237SOL     OW33343   1.284   4.614  16.763  0.4017 -0.1628 -0.3092
 7237SOL    HW133344   1.350   4.653  16.822  1.2447  0.9503 -1.9607
 7237SOL    HW233345   1.267   4.528  16.799 -0.2373  0.7757  1.6251
 7238SOL     OW33346   4.069   2.216   4.093 -0.4958  0.0687 -0.1120
 7238SOL    HW133347   3.975   2.195   4.086 -0.0605 -1.6569 -0.7431
 7238SOL    HW233348   4.062   2.290   4.154 -2.9818  0.4619 -0.8445
 7239SOL     OW33349   0.378   0.225   4.015 -0.1819 -0.5069  0.0963
 7239SOL    HW133350   0.413   0.136   4.020 -2.1096 -1.1855  1.4876
 7239SOL    HW233351   0.455   0.278   3.991 -0.6585 -0.4215 -1.2482
 7240SOL     OW33352   1.768   0.749   5.722 -0.2431  0.4291  0.1509
 7240SOL    HW133353   1.735   0.685   5.785  0.4051  0.1399  0.1920
 7240SOL    HW233354   1.859   0.722   5.707  0.1886  2.1114 -0.2506
 7241SOL     OW33355   4.703   4.286   4.082 -0.7920  0.6380 -0.1513
 7241SOL    HW133356   4.705   4.378   4.055 -0.8199  0.8097  0.4297
 7241SOL    HW233357   4.709   4.297   4.177 -1.2748  0.4324 -0.0935
 7242SOL     OW33358   2.590   4.507   3.253  0.5434 -0.0872  0.5961
 7242SOL    HW133359   2.506   4.531   3.292 -0.7276  0.4043 -2.4414
 7242SOL    HW233360   2.568   4.539   3.166 -2.0240  1.1121  1.6936
 7243SOL     OW33361   1.593   3.160   6.556  0.2715  0.2102  0.2506
 7243SOL    HW133362   1.661   3.151   6.624  0.2136 -3.4791 -0.1669
 7243SOL    HW233363   1.605   3.082   6.503 -0.6857  1.1532 -1.3447
 7244SOL     OW33364   3.924   0.091  16.369  0.1687 -0.1958 -0.2044
 7244SOL    HW133365   3.870   0.168  16.350 -0.2420 -0.7189 -1.1591
 7244SOL    HW233366   3.950   0.070  16.279 -0.8508 -0.9205 -0.3182
 7245SOL     OW33367   0.388   1.452   4.992  0.1691  0.4035 -0.2921
 7245SOL    HW133368   0.319   1.518   4.986  0.3655  0.8569  2.3928
 7245SOL    HW233369   0.469   1.502   4.984  0.7518 -0.0422  2.8601
 7246SOL     OW33370   3.291   0.449   8.675  0.4715  1.1134 -0.0900
 7246SOL    HW133371   3.259   0.540   8.672  1.2499  1.3699 -0.4337
 7246SOL    HW233372   3.304   0.446   8.770 -1.0387 -1.2147  0.0281
 7247SOL     OW33373   4.485   1.896  15.931  0.3415  0.1145  0.0512
 7247SOL    HW133374   4.539   1.960  15.978  0.4292  1.2231 -1.5928
 7247SOL    HW233375   4.510   1.928  15.845 -0.3209 -1.0586 -0.5798
 7248SOL     OW33376   0.734   4.359   9.115 -0.3934 -0.7491 -0.3866
 7248SOL    HW133377   0.801   4.292   9.097  0.3959 -0.0957  0.1128
 7248SOL    HW233378   0.679   4.311   9.177 -0.9547  0.2549 -0.1155
 7249SOL     OW33379   2.101   2.032   7.616  0.2860  0.0511 -0.0588
 7249SOL    HW133380   2.089   2.127   7.616  1.4250  0.1972 -1.0127
 7249SOL    HW233381   2.013   1.998   7.597  0.6440 -1.1152  0.3287
 7250SOL     OW33382   1.965   1.157   6.384 -0.2186 -0.1462  0.3072
 7250SOL    HW133383   1.950   1.084   6.444  0.6827  0.0853  0.8116
 7250SOL    HW233384   2.037   1.211   6.414 -2.0342  1.9937  0.8208
 7251SOL     OW33385   2.677   0.245  15.097 -0.2143 -0.2229  0.1365
 7251SOL    HW133386   2.744   0.301  15.138  0.5706 -0.1851 -1.2088
 7251SOL    HW233387   2.599   0.300  15.095 -0.3190 -0.4390 -1.5302
 7252SOL     OW33388   0.428   2.947  11.241 -0.6712  0.3092  0.6901
 7252SOL    HW133389   0.427   3.039  11.266  0.8269  0.5917 -0.2988
 7252SOL    HW233390   0.377   2.906  11.312  1.0712  1.9997  2.9055
 7253SOL     OW33391   0.098   4.079   5.588  0.4217 -0.7433  0.1629
 7253SOL    HW133392   0.175   4.131   5.613 -0.0110 -1.0848  2.1834
 7253SOL    HW233393   0.033   4.145   5.567  2.1481  1.5139  1.8539
 7254SOL     OW33394   0.337   2.140   2.558 -0.1362  0.3839 -0.5911
 7254SOL    HW133395   0.358   2.219   2.607  0.5444 -0.5273  0.5981
 7254SOL    HW233396   0.290   2.088   2.623 -0.4567  0.0390 -1.0981
 7255SOL     OW33397   1.105   2.375   5.458 -0.0752  0.6663  0.6152
 7255SOL    HW133398   1.158   2.358   5.535 -2.7917 -0.1664  2.2757
 7255SOL    HW233399   1.021   2.346   5.493 -0.1819 -0.3819 -0.5235
 7256SOL     OW33400   3.242   1.295   0.564  0.1015 -0.0783 -0.0855
 7256SOL    HW133401   3.164   1.298   0.509  0.3869 -0.4689 -0.5094
 7256SOL    HW233402   3.225   1.219   0.619 -2.1481  1.5071  1.4016
 7257SOL     OW33403   3.658   2.753  11.974  0.0201  0.7183 -0.5695
 7257SOL    HW133404   3.644   2.806  11.896  0.2846 -0.8107 -1.6381
 7257SOL    HW233405   3.750   2.775  11.989  0.1272  0.5433 -0.9927
 7258SOL     OW33406   4.588   4.161  11.767  0.4054  0.5732  0.4494
 7258SOL    HW133407   4.518   4.214  11.805 -1.8172 -0.7657 -1.8019
 7258SOL    HW233408   4.653   4.227  11.742  0.3553 -0.0568 -1.3513
 7259SOL     OW33409   1.773   0.553  10.733 -0.4513  0.1733 -0.4348
 7259SOL    HW133410   1.825   0.632  10.746  0.2764 -0.1241 -1.5601
 7259SOL    HW233411   1.722   0.554  10.814 -1.7591  2.0479 -1.2908
 7260SOL     OW33412   3.598   2.994   5.150  0.2225  0.3289  0.1855
 7260SOL    HW133413   3.665   2.926   5.158  0.4750  0.5761  0.1957
 7260SOL    HW233414   3.648   3.076   5.156  0.4352  0.0910  1.7093
 7261SOL     OW33415   4.723   2.992   6.315  0.2282  0.5654  0.1572
 7261SOL    HW133416   4.671   3.071   6.327 -0.4593 -0.4300  3.5803
 7261SOL    HW233417   4.684   2.952   6.237 -0.3505 -0.6461  1.0728
 7262SOL     OW33418   4.596   2.119   5.713 -0.2507  0.5075 -0.1020
 7262SOL    HW133419   4.650   2.197   5.726  2.5840 -1.3469 -0.7915
 7262SOL    HW233420   4.567   2.094   5.801  2.4051 -1.1076  0.3205
 7263SOL     OW33421   4.160   4.700  11.405 -0.0797 -0.7467 -0.9969
 7263SOL    HW133422   4.094   0.032  11.402  1.5524  0.7896 -1.1625
 7263SOL    HW233423   4.110   4.634  11.454 -1.0482  0.4666 -0.3518
 7264SOL     OW33424   1.675   2.723  11.384  0.2919 -0.1963 -0.0984
 7264SOL    HW133425   1.598   2.694  11.433 -0.0719 -2.4258 -1.9918
 7264SOL    HW233426   1.646   2.813  11.372 -0.6789 -1.0009 -3.8733
 7265SOL     OW33427   4.150   3.735   2.693 -0.0228  0.5412  0.0696
 7265SOL    HW133428   4.193   3.755   2.610  1.4905  0.0863  0.7387
 7265SOL    HW233429   4.122   3.646   2.671  0.1796  0.8328 -1.3639
 7266SOL     OW33430   3.511   3.407   2.899  0.4882 -0.5150 -0.1123
 7266SOL    HW133431   3.599   3.372   2.910  0.7544 -0.2811 -1.4400
 7266SOL    HW233432   3.461   3.328   2.916 -3.5773  2.2914  1.1525
 7267SOL     OW33433   0.487   0.917   7.885 -0.2490 -0.3065  0.0518
 7267SOL    HW133434   0.486   0.960   7.800 -1.4990 -1.2494 -0.4033
 7267SOL    HW233435   0.575   0.879   7.885 -0.3230 -0.4734  0.6308
 7268SOL     OW33436   4.325   0.288   6.040 -0.0586 -0.2930 -0.0861
 7268SOL    HW133437   4.293   0.207   6.001 -2.5100  1.2201 -1.1783
 7268SOL    HW233438   4.308   0.279   6.134  1.7918 -1.2664  0.1626
 7269SOL     OW33439   0.619   3.951   2.209  0.0508 -0.6667  0.1612
 7269SOL    HW133440   0.701   4.001   2.217 -0.6067  0.3046  0.8390
 7269SOL    HW233441   0.655   3.872   2.168  1.1252 -0.6066  0.9686
 7270SOL     OW33442   2.076   3.095   1.161 -0.0852  0.0905 -0.1489
 7270SOL    HW133443   2.063   3.186   1.135 -0.2378  0.8636  2.6921
 7270SOL    HW233444   2.169   3.080   1.142  0.1343  1.1015  0.1037
 7271SOL     OW33445   2.123   2.912   7.733 -0.5773  0.5765  0.1184
 7271SOL    HW133446   2.070   2.985   7.764  0.6932  2.3771 -1.9407
 7271SOL    HW233447   2.062   2.839   7.745 -2.7110  2.3237  0.0073
 7272SOL     OW33448   0.011   2.382   3.606  0.9043 -0.0923 -0.3182
 7272SOL    HW133449   4.678   2.352   3.664  1.8431 -0.4268  0.6249
 7272SOL    HW233450   0.060   2.301   3.619  0.1029 -0.4834  0.3346
 7273SOL     OW33451   4.001   4.682   3.888 -1.0980 -0.3089 -0.3756
 7273SOL    HW133452   4.023   4.602   3.840 -1.2072  0.6537 -2.0303
 7273SOL    HW233453   4.081   4.704   3.936  1.0836 -0.7149 -3.8129
 7274SOL     OW33454   2.775   1.297  14.452  0.1237  0.0325  0.4363
 7274SOL    HW133455   2.824   1.232  14.401  1.6572  1.2543  0.3714
 7274SOL    HW233456   2.841   1.366  14.456 -1.1806  1.4294 -1.8407
 7275SOL     OW33457   2.499   1.024   7.848 -0.3878  0.5006 -0.5408
 7275SOL    HW133458   2.455   0.939   7.840 -0.6785  0.2831  2.9751
 7275SOL    HW233459   2.528   1.010   7.939  0.0860 -0.8881 -0.8948
 7276SOL     OW33460   1.515   0.251  12.699  0.6480  0.4789  0.0902
 7276SOL    HW133461   1.523   0.324  12.638 -1.9384 -0.6910 -1.6838
 7276SOL    HW233462   1.487   0.183  12.637  0.4002  0.8029 -0.1555
 7277SOL     OW33463   4.581   2.768  12.995  0.2126  0.0670 -0.2131
 7277SOL    HW133464   4.558   2.736  13.082  0.6281  1.3846  0.3798
 7277SOL    HW233465   4.501   2.745  12.948  0.1679 -2.5788  1.1657
 7278SOL     OW33466   1.480   2.016  11.945  1.3370 -0.3022 -0.4049
 7278SOL    HW133467   1.505   1.948  12.008  0.0786 -1.2282 -0.8992
 7278SOL    HW233468   1.554   2.074  11.964  0.7551  0.8737 -1.7633
 7279SOL     OW33469   3.160   1.140   7.140 -0.2265 -0.5678 -0.0543
 7279SOL    HW133470   3.195   1.223   7.172 -0.5497 -0.8503  1.0220
 7279SOL    HW233471   3.245   1.099   7.123 -0.9130 -1.1628 -2.0915
 7280SOL     OW33472   1.711   1.464  16.484 -0.5168  0.0891  0.0345
 7280SOL    HW133473   1.618   1.462  16.459 -1.0310 -1.0606  1.9947
 7280SOL    HW233474   1.726   1.542  16.537 -0.9150 -2.1374  3.4854
 7281SOL     OW33475   4.223   3.666   9.793  0.3117 -0.0236  0.0975
 7281SOL    HW133476   4.266   3.584   9.817  2.2615  1.1476  0.6616
 7281SOL    HW233477   4.292   3.729   9.774  0.2244  0.7260  2.2163
 7282SOL     OW33478   2.291   3.312   4.828  0.0643  0.5031  0.5036
 7282SOL    HW133479   2.215   3.302   4.770  0.2724  2.4796 -0.1189
 7282SOL    HW233480   2.352   3.244   4.796 -0.0650  1.0541 -0.9257
 7283SOL     OW33481   3.635   2.966   9.106 -0.1763  0.2012 -0.2345
 7283SOL    HW133482   3.703   3.028   9.132 -1.6860  1.4873  0.6149
 7283SOL    HW233483   3.580   2.949   9.181 -0.2333 -0.7293 -0.4844
 7284SOL     OW33484   0.543   1.838   6.503 -0.5455  0.7741 -0.5798
 7284SOL    HW133485   0.611   1.889   6.458  2.6249 -4.1868 -1.3737
 7284SOL    HW233486   0.566   1.874   6.588 -0.7808 -1.2030  0.3211
 7285SOL     OW33487   3.535   3.222  13.053 -0.4256 -0.3284 -0.6633
 7285SOL    HW133488   3.560   3.133  13.075  1.9544  1.0075  2.1241
 7285SOL    HW233489   3.481   3.217  12.974 -0.3884 -0.6466 -0.6682
 7286SOL     OW33490   2.854   2.461   3.719 -0.0166  0.0635 -0.4760
 7286SOL    HW133491   2.820   2.450   3.808 -0.6372 -3.4040 -1.1689
 7286SOL    HW233492   2.845   2.556   3.708  0.4538  0.3825  2.0290
 7287SOL     OW33493   3.431   2.655   3.742  0.4116  0.0158  0.2825
 7287SOL    HW133494   3.437   2.567   3.779  0.3047 -0.1960 -0.1957
 7287SOL    HW233495   3.458   2.632   3.653  1.2499 -0.5591  0.6865
 7288SOL     OW33496   3.501   3.040   1.411 -0.5235  0.4498 -0.0889
 7288SOL    HW133497   3.414   3.005   1.428 -0.4546  0.8136  1.0141
 7288SOL    HW233498   3.552   3.029   1.492  0.6002  2.0962 -0.5550
 7289SOL     OW33499   3.549   1.837  17.484  0.1600  0.3987 -0.2597
 7289SOL    HW133500   3.496   1.772  17.530  0.9546  0.9370  1.3923
 7289SOL    HW233501   3.625   1.784  17.458 -0.8895 -0.2077 -2.0892
 7290SOL     OW33502   4.552   2.728   4.899 -0.3859  0.2214  0.1822
 7290SOL    HW133503   4.475   2.749   4.952  1.0254  1.2529  1.8180
 7290SOL    HW233504   4.519   2.758   4.814  1.2968 -0.1907 -0.6174
 7291SOL     OW33505   2.236   3.450   3.633 -0.5806 -0.0870  0.1543
 7291SOL    HW133506   2.272   3.428   3.546 -2.6842  0.4855 -0.8539
 7291SOL    HW233507   2.172   3.379   3.629 -0.4899 -0.0611 -1.7952
 7292SOL     OW33508   4.503   4.537   2.664 -0.0174  0.7726 -0.2442
 7292SOL    HW133509   4.587   4.583   2.673  1.1766 -1.4444  0.0257
 7292SOL    HW233510   4.525   4.448   2.637 -1.4936 -0.6187  3.0997
 7293SOL     OW33511   2.744   4.331   1.798  0.2056  0.0814 -0.4417
 7293SOL    HW133512   2.664   4.367   1.836  0.5572  1.4318 -0.9975
 7293SOL    HW233513   2.749   4.248   1.845 -2.5363  0.5035  0.5835
 7294SOL     OW33514   2.369   0.016   7.971  0.1436  0.3459  0.6342
 7294SOL    HW133515   2.352   0.074   7.896 -1.4342 -0.0898  0.6550
 7294SOL    HW233516   2.418   0.076   8.027  1.6931  1.6638 -2.1039
 7295SOL     OW33517   1.107   3.924   1.089  0.0104 -1.0488  0.2207
 7295SOL    HW133518   1.187   3.957   1.048  0.4596 -0.6065  1.4746
 7295SOL    HW233519   1.044   3.986   1.051 -1.0407 -2.6046 -0.5579
 7296SOL     OW33520   1.498   0.158   2.931  0.1725 -0.3968 -0.0125
 7296SOL    HW133521   1.477   0.182   2.841 -0.2571  1.0538  0.4782
 7296SOL    HW233522   1.563   0.090   2.911  1.2164  0.7300 -0.4500
 7297SOL     OW33523   3.236   3.843   5.171 -0.0393  0.3654  0.0417
 7297SOL    HW133524   3.326   3.813   5.179  0.5741  1.2693 -3.0998
 7297SOL    HW233525   3.199   3.788   5.240 -1.8391  1.6861  0.1512
 7298SOL     OW33526   0.316   1.374   1.775 -0.0909  0.0545 -0.3297
 7298SOL    HW133527   0.244   1.405   1.719 -0.9798 -0.6648  0.4240
 7298SOL    HW233528   0.358   1.316   1.711 -1.3267 -1.2979  0.1024
 7299SOL     OW33529   3.361   1.761   4.466 -0.2293  0.3092 -0.2594
 7299SOL    HW133530   3.340   1.782   4.557 -2.0390 -1.4450 -0.2674
 7299SOL    HW233531   3.448   1.798   4.450 -0.4910  0.4435 -1.3769
 7300SOL     OW33532   0.402   2.856  12.055  0.2382  0.2069 -0.0467
 7300SOL    HW133533   0.492   2.857  12.088  0.2334 -0.8947 -0.0035
 7300SOL    HW233534   0.372   2.766  12.064  2.1608 -0.5573 -1.3060
 7301SOL     OW33535   3.912   0.783   5.750 -0.0615  0.2379 -0.0009
 7301SOL    HW133536   3.877   0.834   5.677  0.2602  2.1984  1.2016
 7301SOL    HW233537   3.903   0.854   5.814 -0.8714  2.3662 -2.5248
 7302SOL     OW33538   3.544   4.508   4.690 -0.0907 -0.4419  0.3659
 7302SOL    HW133539   3.451   4.488   4.706  0.0316 -1.8427 -0.6571
 7302SOL    HW233540   3.537   4.530   4.598 -2.1253 -0.8424  0.4161
 7303SOL     OW33541   2.572   3.398   5.857  0.6045 -0.3431 -0.3140
 7303SOL    HW133542   2.638   3.377   5.923 -1.5460 -0.1068  1.9408
 7303SOL    HW233543   2.524   3.469   5.901  0.8355  0.5807 -1.5477
 7304SOL     OW33544   0.741   3.914   9.581  0.5377 -0.0060 -0.0251
 7304SOL    HW133545   0.646   3.903   9.583  0.5661 -0.4266 -0.8482
 7304SOL    HW233546   0.757   3.858   9.505 -0.6372 -1.7393  1.0068
 7305SOL     OW33547   2.146   2.968  10.637  0.4843 -0.3926  0.0958
 7305SOL    HW133548   2.143   2.970  10.541  0.6164  0.1887  0.1008
 7305SOL    HW233549   2.055   2.975  10.664  0.0499 -1.8967 -0.9643
 7306SOL     OW33550   3.026   3.531   2.275  0.1101 -0.6778  0.1983
 7306SOL    HW133551   2.992   3.566   2.192 -0.4171  1.3290  1.2670
 7306SOL    HW233552   2.954   3.472   2.300  2.2543 -2.3785  2.3434
 7307SOL     OW33553   2.463   2.097   3.212  0.2159 -0.4795 -0.8283
 7307SOL    HW133554   2.511   2.027   3.257  0.6741 -0.6616 -1.6090
 7307SOL    HW233555   2.534   2.142   3.167  1.7994 -0.2615  1.8686
 7308SOL     OW33556   2.965   2.376  14.590 -0.3551 -0.4400  0.1382
 7308SOL    HW133557   2.948   2.426  14.669 -0.1801  1.9372 -1.3234
 7308SOL    HW233558   3.014   2.443  14.543  0.9098 -0.0678  2.0286
 7309SOL     OW33559   0.330   2.353  16.018 -0.5613  0.2638  0.0893
 7309SOL    HW133560   0.363   2.334  16.106 -2.5003  0.7416  0.9339
 7309SOL    HW233561   0.260   2.415  16.039 -2.8783 -1.7155 -1.8204
 7310SOL     OW33562   4.132   0.750   9.475  0.0883  0.1157 -0.3603
 7310SOL    HW133563   4.220   0.743   9.512  0.4659 -1.8529 -1.6557
 7310SOL    HW233564   4.110   0.841   9.493 -0.8624  0.0503 -1.2084
 7311SOL     OW33565   4.391   3.224   1.327 -0.2702 -0.3057  0.1251
 7311SOL    HW133566   4.318   3.191   1.275 -0.3244  1.1525 -0.7165
 7311SOL    HW233567   4.443   3.224   1.247 -0.9737 -1.0282 -0.3405
 7312SOL     OW33568   4.517   0.066  10.448  0.2308  0.9084  0.2497
 7312SOL    HW133569   4.610   0.080  10.468  1.2352 -1.3623 -2.8309
 7312SOL    HW233570   4.477   0.035  10.529 -0.6806 -2.2228 -1.3943
 7313SOL     OW33571   4.634   0.429   8.806  0.5522 -0.2925 -0.1389
 7313SOL    HW133572   4.570   0.381   8.859 -0.1086  1.6890  0.9015
 7313SOL    HW233573   4.704   0.364   8.810  0.3304 -0.7120 -3.4158
 7314SOL     OW33574   0.044   2.194   1.642 -0.4065  0.0224  0.1679
 7314SOL    HW133575   0.114   2.259   1.639  0.5545 -1.0658 -0.8454
 7314SOL    HW233576   0.006   2.195   1.554  0.2802  0.4620 -0.1211
 7315SOL     OW33577   2.901   0.559   2.654  0.6114  0.3889  0.2853
 7315SOL    HW133578   2.922   0.475   2.696 -0.1335  1.5067  2.8861
 7315SOL    HW233579   2.988   0.596   2.640  0.9925 -1.1034 -1.4316
 7316SOL     OW33580   1.238   0.027   2.114 -0.5100 -0.4311  0.3828
 7316SOL    HW133581   1.143   0.030   2.123 -0.5068  1.7473 -0.0671
 7316SOL    HW233582   1.245   4.729   2.025 -0.0799  0.3704  0.0903
 7317SOL     OW33583   4.571   2.392  17.721  0.3555 -0.1982  0.2680
 7317SOL    HW133584   4.658   2.417   0.004  0.2873  0.0223  0.2822
 7317SOL    HW233585   4.536   2.479  17.702 -2.1446 -0.8964  1.6261
 7318SOL     OW33586   2.392   2.935   3.071  0.2351 -0.2796 -0.6293
 7318SOL    HW133587   2.447   2.974   3.003 -2.6336  2.3062 -1.5018
 7318SOL    HW233588   2.421   2.980   3.149 -0.6901  0.3809 -0.6632
 7319SOL     OW33589   3.046   2.630   6.652 -0.1673  0.1690 -0.0275
 7319SOL    HW133590   3.059   2.571   6.726 -1.1370  0.6670  0.5473
 7319SOL    HW233591   3.079   2.567   6.588 -0.8196  0.2746 -0.4628
 7320SOL     OW33592   3.769   1.496  10.987  0.4015 -0.2460  0.5114
 7320SOL    HW133593   3.790   1.416  10.939  0.9217  0.2359 -0.0827
 7320SOL    HW233594   3.674   1.485  10.979  0.3317  0.8325 -0.1738
 7321SOL     OW33595   2.083   0.818  12.340 -0.6827 -0.1397  0.2420
 7321SOL    HW133596   2.001   0.857  12.369 -1.3495 -1.9403  0.7944
 7321SOL    HW233597   2.063   0.757  12.269 -0.7981  0.8794 -0.5909
 7322SOL     OW33598   3.041   4.590  13.547 -0.1104  0.5510  0.2654
 7322SOL    HW133599   3.107   4.605  13.480 -0.6097  0.4459 -0.2460
 7322SOL    HW233600   3.010   4.678  13.567  0.3535  0.4863  1.2800
 7323SOL     OW33601   4.427   4.570  10.069  0.2598  0.3802 -0.3717
 7323SOL    HW133602   4.358   4.588  10.006  0.9359  3.0830 -0.3224
 7323SOL    HW233603   4.453   4.658  10.098  2.4225  0.6192 -2.9675
 7324SOL     OW33604   1.052   1.596   3.994  0.2184 -0.0306  0.2717
 7324SOL    HW133605   1.125   1.589   4.055  0.5156 -0.3984 -0.1246
 7324SOL    HW233606   1.019   1.685   4.008 -1.9294 -0.9900  1.2933
 7325SOL     OW33607   3.625   0.791   2.394 -0.3279 -0.2510  0.7247
 7325SOL    HW133608   3.594   0.880   2.378  3.3007  0.8537 -0.2633
 7325SOL    HW233609   3.619   0.766   2.302 -1.2032  0.1384  0.6829
 7326SOL     OW33610   4.303   0.041   6.746 -0.3563 -0.5339  0.6067
 7326SOL    HW133611   4.296   4.701   6.802  2.1297 -2.5299 -1.8437
 7326SOL    HW233612   4.248   0.025   6.670  0.0666  1.4438 -0.1317
 7327SOL     OW33613   0.443   0.919   3.026  0.1848 -0.2059 -0.3979
 7327SOL    HW133614   0.399   0.870   3.096 -1.5015 -0.9825 -1.9948
 7327SOL    HW233615   0.483   0.989   3.077 -1.2351 -1.5049  2.5182
 7328SOL     OW33616   0.186   3.269   4.128 -0.5299  0.1956 -0.8529
 7328SOL    HW133617   0.095   3.262   4.158 -0.2538 -0.1103 -0.0816
 7328SOL    HW233618   0.230   3.316   4.199 -1.2271  1.8159 -1.4890
 7329SOL     OW33619   1.722   1.215   3.837  0.3044 -0.2332  0.3090
 7329SOL    HW133620   1.662   1.143   3.853  0.3033 -0.3051 -0.0297
 7329SOL    HW233621   1.754   1.190   3.750  2.3595 -0.2820  1.0744
 7330SOL     OW33622   3.906   2.197  10.226 -0.1287  0.4130  0.1432
 7330SOL    HW133623   3.997   2.202  10.199  0.3716  0.5933  1.8502
 7330SOL    HW233624   3.862   2.262  10.172  0.3478 -0.7788 -1.6997
 7331SOL     OW33625   4.638   1.525  11.307 -0.0813  0.6664 -0.1968
 7331SOL    HW133626   4.553   1.480  11.312 -0.9051  2.3508  1.0686
 7331SOL    HW233627   4.665   1.498  11.219 -0.0744  0.3157 -0.0893
 7332SOL     OW33628   3.492   3.475  16.065  0.0971  0.4497  0.2349
 7332SOL    HW133629   3.480   3.437  15.978  0.9109 -0.1957  0.4083
 7332SOL    HW233630   3.473   3.403  16.124 -0.5232 -0.3146 -0.8905
 7333SOL     OW33631   0.770   4.560   0.538  0.8297  0.5600  0.5400
 7333SOL    HW133632   0.816   4.644   0.539  0.2653  0.8803 -0.5445
 7333SOL    HW233633   0.706   4.570   0.468  1.3682 -0.4132 -0.0917
 7334SOL     OW33634   2.550   3.153  14.937 -0.1292 -0.0977 -0.5728
 7334SOL    HW133635   2.470   3.101  14.933 -0.3321  0.2659 -1.2087
 7334SOL    HW233636   2.592   3.104  15.007 -1.4626 -0.5622 -0.0942
 7335SOL     OW33637   4.014   2.690   7.709  0.4070  0.6192 -1.1787
 7335SOL    HW133638   3.968   2.717   7.630 -2.9061  1.7727  1.1041
 7335SOL    HW233639   3.936   2.666   7.760  0.3766  0.4518 -1.3048
 7336SOL     OW33640   3.233   2.651   4.908  0.6413  0.5691  0.0756
 7336SOL    HW133641   3.196   2.728   4.951  1.7119  1.6623 -0.9497
 7336SOL    HW233642   3.257   2.685   4.821 -2.1233  2.3961  0.0253
 7337SOL     OW33643   0.217   1.668  13.894  0.3973 -0.3749  0.1177
 7337SOL    HW133644   0.209   1.627  13.979 -0.9104 -0.5732 -0.1097
 7337SOL    HW233645   0.151   1.622  13.842 -0.2155  0.4761  0.1505
 7338SOL     OW33646   3.283   1.432   2.541 -0.5655 -0.6987  0.0522
 7338SOL    HW133647   3.236   1.361   2.496 -2.8392  1.0300 -0.3127
 7338SOL    HW233648   3.219   1.503   2.533  0.7011  0.5657  1.2252
 7339SOL     OW33649   0.777   1.445   9.230  0.3482  0.3478 -0.0278
 7339SOL    HW133650   0.690   1.473   9.257  0.8253  1.9115 -0.0992
 7339SOL    HW233651   0.803   1.512   9.167 -0.8497 -0.4991 -1.4170
 7340SOL     OW33652   1.999   2.792   5.359  0.4657  0.6441  0.0811
 7340SOL    HW133653   2.094   2.789   5.343  0.5717  0.6640  0.7258
 7340SOL    HW233654   1.978   2.803   5.266 -1.5066  0.5516  0.5173
 7341SOL     OW33655   3.681   1.693  15.581 -0.1719  0.5205 -0.3659
 7341SOL    HW133656   3.635   1.642  15.647 -2.5673  1.8170 -1.0577
 7341SOL    HW233657   3.690   1.769  15.638 -0.2665 -0.3024  0.7411
 7342SOL     OW33658   2.172   2.329   8.709  0.0027  0.0777  0.6961
 7342SOL    HW133659   2.263   2.349   8.731 -0.2604 -0.2056  2.0446
 7342SOL    HW233660   2.169   2.240   8.673  1.0865  0.6639 -0.8185
 7343SOL     OW33661   3.553   1.574   2.764  0.3819 -0.4018  0.7216
 7343SOL    HW133662   3.473   1.627   2.754  0.7655 -0.1841 -1.1488
 7343SOL    HW233663   3.520   1.493   2.725  0.7834  0.6422 -1.7198
 7344SOL     OW33664   1.573   3.817   4.071  0.0062  0.0653 -0.1192
 7344SOL    HW133665   1.582   3.750   4.003 -0.2217  1.2714 -1.3408
 7344SOL    HW233666   1.559   3.900   4.027  1.3285 -0.3512 -1.3458
 7345SOL     OW33667   3.804   4.497  14.952 -0.2306  0.2086  0.1065
 7345SOL    HW133668   3.794   4.566  15.017  0.7109 -0.0486  0.5363
 7345SOL    HW233669   3.856   4.436  15.005 -0.3524 -0.4270 -0.4985
 7346SOL     OW33670   0.283   0.507   8.541 -0.1563 -0.2876  0.6107
 7346SOL    HW133671   0.265   0.543   8.454  1.2314  1.0134  0.8735
 7346SOL    HW233672   0.215   0.546   8.596 -0.8556  1.5705 -1.5991
 7347SOL     OW33673   4.636   1.403   7.434 -0.2869 -0.2892  0.1656
 7347SOL    HW133674   4.617   1.349   7.510  1.3767 -0.8059  0.2014
 7347SOL    HW233675   4.567   1.376   7.373 -2.0229 -0.2007  2.0950
 7348SOL     OW33676   0.886   1.948   6.669  0.1073 -0.2012  0.0916
 7348SOL    HW133677   0.955   1.977   6.729 -0.0673 -0.2970  0.3395
 7348SOL    HW233678   0.887   1.853   6.660  1.8813 -0.2239  0.5938
 7349SOL     OW33679   0.350   1.076   4.888  0.1826  0.3913 -0.0468
 7349SOL    HW133680   0.377   1.092   4.979  1.4111  1.6877 -0.6400
 7349SOL    HW233681   0.263   1.038   4.893  1.1702 -2.0662 -1.8863
 7350SOL     OW33682   3.326   1.916   4.720  0.1408  0.4074 -0.2616
 7350SOL    HW133683   3.369   1.999   4.700 -1.1837  0.9796 -0.7347
 7350SOL    HW233684   3.242   1.920   4.675 -0.6749  0.5076  1.2666
 7351SOL     OW33685   0.877   3.411   4.020  0.8092  0.5685 -0.1909
 7351SOL    HW133686   0.918   3.326   4.036  0.2096  0.3563  0.2295
 7351SOL    HW233687   0.801   3.398   4.077  1.3778 -0.4365  0.3419
 7352SOL     OW33688   0.093   2.922   7.765 -0.4631 -0.2392 -0.0179
 7352SOL    HW133689   0.112   3.010   7.731  0.7935 -0.2987  0.5423
 7352SOL    HW233690   0.132   2.923   7.852  0.2356  0.4058 -0.3404
 7353SOL     OW33691   2.638   2.719   0.773  0.1686 -0.2298  0.4371
 7353SOL    HW133692   2.708   2.752   0.830 -0.0902  1.2008 -0.0784
 7353SOL    HW233693   2.565   2.704   0.834  0.1291 -0.6629  0.2834
 7354SOL     OW33694   2.117   3.682  11.525  0.0126 -0.3338 -0.4080
 7354SOL    HW133695   2.200   3.647  11.559  0.1653 -0.2478 -0.6898
 7354SOL    HW233696   2.157   3.721  11.447  2.8182 -0.5776  0.8935
 7355SOL     OW33697   3.109   3.685   3.510  0.4694  0.5380 -0.1888
 7355SOL    HW133698   3.200   3.696   3.538 -0.1223 -0.2421  2.1204
 7355SOL    HW233699   3.108   3.592   3.487 -1.8697  0.6835 -0.6457
 7356SOL     OW33700   2.261   2.874  13.832  0.1430 -0.0086  0.3551
 7356SOL    HW133701   2.276   2.820  13.754 -1.3916  0.3010 -0.1504
 7356SOL    HW233702   2.168   2.855  13.840 -0.0089  0.1627 -0.9629
 7357SOL     OW33703   1.007   0.063   2.631  0.4700 -0.1757  0.0979
 7357SOL    HW133704   0.921   0.032   2.602  0.8509  0.7734 -2.0462
 7357SOL    HW233705   1.021   0.002   2.703  2.4475  1.5182  1.1560
 7358SOL     OW33706   0.803   0.004   9.674 -0.3345 -0.0495  0.2390
 7358SOL    HW133707   0.732   0.031   9.732  0.7969  0.9722  1.1616
 7358SOL    HW233708   0.770   4.654   9.652 -0.7315  0.0534  0.4239
 7359SOL     OW33709   2.738   2.792   6.299  0.0275  0.3126  0.3138
 7359SOL    HW133710   2.679   2.861   6.329  1.1004  2.1208 -1.7129
 7359SOL    HW233711   2.771   2.751   6.379 -3.4578 -1.5007  0.8176
 7360SOL     OW33712   1.491   2.113  10.024  0.6021  0.2577 -0.0554
 7360SOL    HW133713   1.524   2.062   9.950 -1.0313 -0.3055 -0.3994
 7360SOL    HW233714   1.560   2.087  10.084 -2.2108 -1.6602  2.3820
 7361SOL     OW33715   1.909   0.524   7.909 -0.4445  0.4159  0.6813
 7361SOL    HW133716   1.881   0.433   7.901  2.1303 -0.1699 -1.7499
 7361SOL    HW233717   1.968   0.527   7.833  0.3600  0.4651  1.3008
 7362SOL     OW33718   2.256   0.889   7.658 -0.0692 -0.0288 -0.4867
 7362SOL    HW133719   2.289   0.799   7.647 -0.9740 -0.4473  0.1712
 7362SOL    HW233720   2.190   0.885   7.589 -0.3257  0.7557 -0.2811
 7363SOL     OW33721   1.941   0.883  15.781 -0.1017  0.2700  0.3081
 7363SOL    HW133722   1.951   0.790  15.759 -3.7074 -0.1995  0.5911
 7363SOL    HW233723   1.897   0.926  15.708  0.7829  1.3607  0.4247
 7364SOL     OW33724   4.504   1.161  13.317  0.5697  1.0335  0.6576
 7364SOL    HW133725   4.492   1.229  13.250 -0.0632 -0.6744 -0.9753
 7364SOL    HW233726   4.418   1.140  13.353  1.6366 -1.9275  1.4771
 7365SOL     OW33727   1.596   3.344   7.373  0.7347  0.2279 -0.0631
 7365SOL    HW133728   1.519   3.398   7.391  0.9965  0.6769 -0.2845
 7365SOL    HW233729   1.641   3.418   7.332 -0.2485 -0.2186 -1.9610
 7366SOL     OW33730   2.020   1.645   6.878  0.2476  0.0830 -0.0889
 7366SOL    HW133731   1.947   1.617   6.823 -0.4940 -0.2631  1.0672
 7366SOL    HW233732   1.986   1.608   6.960 -1.0148 -0.6595 -0.9619
 7367SOL     OW33733   3.022   0.322   1.233 -0.3167 -0.4659 -0.1124
 7367SOL    HW133734   3.041   0.412   1.207 -1.3177 -1.0097 -2.7920
 7367SOL    HW233735   2.954   0.325   1.300  1.3195 -1.0973  1.5866
 7368SOL     OW33736   0.708   0.408   8.637  0.1128 -0.2113 -0.6585
 7368SOL    HW133737   0.612   0.403   8.641  0.1044 -0.0246 -0.6184
 7368SOL    HW233738   0.738   0.325   8.599 -0.7305 -0.8230  0.0130
 7369SOL     OW33739   1.708   4.638   7.646 -0.8833 -0.5281 -0.0016
 7369SOL    HW133740   1.623   4.607   7.614 -0.0166 -1.9627 -0.9340
 7369SOL    HW233741   1.680   4.672   7.730 -3.7828 -0.8413 -0.8624
 7370SOL     OW33742   0.353   3.429   5.265 -0.5498 -0.5690 -0.5064
 7370SOL    HW133743   0.359   3.392   5.177 -0.4649 -1.7309 -0.0179
 7370SOL    HW233744   0.309   3.513   5.249  1.4232  0.4528 -0.5718
 7371SOL     OW33745   1.340   4.500   4.250 -0.0097  0.1586  0.3695
 7371SOL    HW133746   1.287   4.566   4.295 -0.9545  1.0638 -2.0561
 7371SOL    HW233747   1.393   4.463   4.321 -0.0732  0.7950  0.7489
 7372SOL     OW33748   2.118   1.068   3.578  0.3872  0.0492  0.4685
 7372SOL    HW133749   2.042   1.055   3.522  0.5636  0.8388  0.0423
 7372SOL    HW233750   2.188   1.058   3.514  0.4586 -3.4575  1.0837
 7373SOL     OW33751   2.335   2.336   5.912 -0.1095  0.1590  0.2634
 7373SOL    HW133752   2.350   2.249   5.949  5.2834  0.1042 -1.9469
 7373SOL    HW233753   2.292   2.327   5.827  0.0497  0.9387  0.1012
 7374SOL     OW33754   0.951   0.505   7.632  0.0700 -0.1339  0.2185
 7374SOL    HW133755   0.996   0.579   7.673 -1.5047  0.9652 -0.0514
 7374SOL    HW233756   0.968   0.443   7.702  0.9880 -0.2307 -0.0849
 7375SOL     OW33757   0.644   0.400  16.818  0.2534  0.1748 -0.0086
 7375SOL    HW133758   0.571   0.421  16.876 -0.0778  0.2089 -0.4399
 7375SOL    HW233759   0.618   0.313  16.787 -1.2002  1.3284 -1.9739
 7376SOL     OW33760   4.365   1.909   8.636 -0.0154 -0.0814  0.2069
 7376SOL    HW133761   4.401   1.859   8.709  1.2900 -1.1149 -1.1247
 7376SOL    HW233762   4.438   1.969   8.617 -0.4152 -0.3246 -2.1196
 7377SOL     OW33763   0.108   0.347  15.549  0.4535  0.2119  0.1200
 7377SOL    HW133764   0.139   0.361  15.639  0.8920 -1.6406  0.2625
 7377SOL    HW233765   0.181   0.297  15.513 -0.4707  0.3052 -1.8830
 7378SOL     OW33766   3.705   0.251  10.265  0.0330  0.2547 -0.5826
 7378SOL    HW133767   3.699   0.316  10.195 -0.7464 -1.6659 -2.3161
 7378SOL    HW233768   3.761   0.296  10.328  0.6518  0.7089 -1.4598
 7379SOL     OW33769   3.081   1.698  13.721  0.6777  0.0120 -0.4498
 7379SOL    HW133770   2.989   1.672  13.724  0.5993  0.2783 -0.5232
 7379SOL    HW233771   3.088   1.786  13.684 -2.0777  0.0155 -0.9476
 7380SOL     OW33772   1.948   0.770   7.762  0.2626  0.1185  0.3712
 7380SOL    HW133773   2.025   0.816   7.796  0.3436 -0.7470  1.3608
 7380SOL    HW233774   1.988   0.727   7.687 -2.0668 -0.1856 -0.7078
 7381SOL     OW33775   3.520   3.413   8.838  0.2205  0.0425  1.2349
 7381SOL    HW133776   3.532   3.428   8.744  0.5017 -0.7614  1.1421
 7381SOL    HW233777   3.546   3.322   8.852  0.7167 -0.0793 -0.5254
 7382SOL     OW33778   2.788   0.898   6.312  0.0326  0.1319 -0.7083
 7382SOL    HW133779   2.744   0.867   6.232  0.5829 -1.8294 -0.2512
 7382SOL    HW233780   2.758   0.989   6.313 -1.7066 -0.4347 -0.0777
 7383SOL     OW33781   1.996   3.059   6.993 -0.0303  0.1156  0.5363
 7383SOL    HW133782   1.960   2.976   6.960 -0.8718  1.6133 -2.3061
 7383SOL    HW233783   1.919   3.101   7.032 -0.2137  0.1549  0.1327
 7384SOL     OW33784   0.525   3.729   4.947  0.1463  0.2566  0.1383
 7384SOL    HW133785   0.512   3.705   5.039 -1.6462  1.0231  0.0858
 7384SOL    HW233786   0.448   3.781   4.923  2.0074  3.6140  1.4156
 7385SOL     OW33787   4.726   2.885   9.413  0.5207 -0.3596  0.7465
 7385SOL    HW133788   0.055   2.859   9.349  0.5384  0.1768  0.5452
 7385SOL    HW233789   4.711   2.980   9.405 -2.6913 -0.9272 -0.1950
 7386SOL     OW33790   2.201   1.394   4.525 -0.2002 -0.1661 -0.3296
 7386SOL    HW133791   2.131   1.340   4.490 -0.0092 -0.2375 -0.5956
 7386SOL    HW233792   2.233   1.453   4.456  1.2814  0.3122  0.7593
 7387SOL     OW33793   4.334   2.234   3.339  0.4467  0.0737 -0.2715
 7387SOL    HW133794   4.408   2.204   3.286  0.2748 -1.1214  0.1674
 7387SOL    HW233795   4.265   2.182   3.298 -0.0586 -0.0888  0.7736
 7388SOL     OW33796   0.007   3.323   8.709  0.0182 -0.0923 -0.3831
 7388SOL    HW133797   4.649   3.330   8.710  0.0383  0.1833 -0.3811
 7388SOL    HW233798   0.025   3.230   8.725 -1.3935 -0.5089 -1.1902
 7389SOL     OW33799   2.574   1.324   3.049  0.4608  0.2464  0.1733
 7389SOL    HW133800   2.604   1.239   3.017 -1.4828 -0.9122  1.4419
 7389SOL    HW233801   2.507   1.354   2.987  2.2573  1.4320 -1.2010
 7390SOL     OW33802   2.264   3.010  17.472 -0.1435 -0.2187  0.4129
 7390SOL    HW133803   2.356   3.017  17.444  0.4072 -0.4428  2.1539
 7390SOL    HW233804   2.238   2.933  17.421  0.1068 -0.9757  1.4249
 7391SOL     OW33805   1.012   2.553   4.231  0.4825  0.2919  0.3133
 7391SOL    HW133806   0.917   2.542   4.230  0.3944  0.6514  3.1250
 7391SOL    HW233807   1.004   2.645   4.256 -2.7315  0.0606  0.1062
 7392SOL     OW33808   2.960   2.963   9.374 -0.1137 -1.0685  0.4646
 7392SOL    HW133809   2.877   2.938   9.333  0.2107  0.0446 -0.8771
 7392SOL    HW233810   2.950   3.056   9.397 -1.2730 -1.3158  0.9681
 7393SOL     OW33811   1.549   0.448   2.948  0.0106 -0.6314 -0.0280
 7393SOL    HW133812   1.507   0.476   2.868 -0.0954  1.8133  0.9034
 7393SOL    HW233813   1.521   0.357   2.961  0.5930 -0.8146 -0.0123
 7394SOL     OW33814   3.749   0.852   8.286  0.6111 -0.1040  0.1692
 7394SOL    HW133815   3.779   0.940   8.263  2.0141 -0.4812  0.5776
 7394SOL    HW233816   3.767   0.854   8.380 -0.0748 -1.1259  0.3244
 7395SOL     OW33817   1.418   1.598   5.002 -1.0002 -0.4799  0.0725
 7395SOL    HW133818   1.404   1.689   5.030 -2.9790 -0.0274 -2.3783
 7395SOL    HW233819   1.419   1.590   4.907 -0.8585 -0.3356  0.0618
 7396SOL     OW33820   2.572   0.507  16.566 -0.0497  0.6075 -0.4249
 7396SOL    HW133821   2.629   0.497  16.643  1.4971 -0.6838 -1.7365
 7396SOL    HW233822   2.598   0.596  16.545  2.8491  0.0116  0.5690
 7397SOL     OW33823   3.200   0.466   4.495 -0.2851 -0.2047  0.2481
 7397SOL    HW133824   3.151   0.520   4.557  1.0506  0.5120  0.6775
 7397SOL    HW233825   3.133   0.462   4.427 -0.7336  1.6427  0.5804
 7398SOL     OW33826   1.618   3.159   2.666 -0.1984 -0.1208  0.1333
 7398SOL    HW133827   1.557   3.172   2.594  0.7505 -0.0048 -0.6470
 7398SOL    HW233828   1.572   3.206   2.736 -2.7683  1.8644 -2.8859
 7399SOL     OW33829   0.763   0.736   5.037  0.4732 -0.5662  1.1772
 7399SOL    HW133830   0.854   0.745   5.008  0.5495 -1.1683  1.2144
 7399SOL    HW233831   0.732   0.825   5.054 -1.6505 -0.4346 -3.6857
 7400SOL     OW33832   0.554   4.716   9.183  0.1312 -0.0949 -1.0222
 7400SOL    HW133833   0.530   0.057   9.233 -0.2292 -0.4587 -0.6302
 7400SOL    HW233834   0.637   4.699   9.226  0.9244  0.9749 -2.1431
 7401SOL     OW33835   4.240   1.063   2.303 -0.6753  0.0116 -0.2722
 7401SOL    HW133836   4.333   1.044   2.299 -0.6529  0.0803 -0.0325
 7401SOL    HW233837   4.210   1.083   2.214  0.8854 -0.2496 -0.8413
 7402SOL     OW33838   4.049   2.608   4.092 -0.3389  0.1229  0.0500
 7402SOL    HW133839   4.033   2.530   4.146  3.2799  0.5246  1.6925
 7402SOL    HW233840   4.143   2.620   4.106 -0.2144  0.6795 -1.2045
 7403SOL     OW33841   1.546   0.495   5.594  0.3599  0.1699  0.1433
 7403SOL    HW133842   1.468   0.518   5.644  0.2213 -0.6161  0.2821
 7403SOL    HW233843   1.611   0.454   5.651 -0.9029 -2.0328 -0.0065
 7404SOL     OW33844   2.464   4.413   1.803 -0.0482  0.1251 -0.3394
 7404SOL    HW133845   2.440   4.444   1.890  0.6841  2.2511 -0.9027
 7404SOL    HW233846   2.471   4.498   1.759  0.0722  1.5228  2.4259
 7405SOL     OW33847   1.920   1.519   7.148 -0.3280 -0.6900  0.4110
 7405SOL    HW133848   1.983   1.479   7.207 -1.1590 -1.0756  1.0468
 7405SOL    HW233849   1.847   1.458   7.161 -2.3826  1.2726 -1.8045
 7406SOL     OW33850   4.492   2.489   7.596 -0.0058  0.0021 -0.2979
 7406SOL    HW133851   4.423   2.425   7.582  0.2456  0.2615 -2.6479
 7406SOL    HW233852   4.458   2.537   7.673 -1.2223  1.4454 -1.7287
 7407SOL     OW33853   3.115   0.221   7.606  0.0485  0.1988 -0.1626
 7407SOL    HW133854   3.145   0.201   7.694 -0.5447  0.2353  0.0501
 7407SOL    HW233855   3.085   0.312   7.613 -0.9702 -0.2145  0.8827
 7408SOL     OW33856   2.287   4.005   6.798  0.5586 -0.3753  0.2927
 7408SOL    HW133857   2.324   4.092   6.784 -0.8037  0.2408  0.5341
 7408SOL    HW233858   2.217   4.007   6.732  0.1882 -0.7034  0.6756
 7409SOL     OW33859   3.185   3.787   2.836  0.0810 -0.1011  0.6739
 7409SOL    HW133860   3.270   3.797   2.879  1.1443 -1.9276 -1.0341
 7409SOL    HW233861   3.210   3.703   2.799 -0.5007  0.9825 -2.1583
 7410SOL     OW33862   2.964   3.736   7.954  0.1103  0.4257  0.1114
 7410SOL    HW133863   2.966   3.766   7.863 -0.2274 -1.8038 -0.6229
 7410SOL    HW233864   2.875   3.701   7.952  0.7044 -0.8728 -2.9123
 7411SOL     OW33865   3.875   0.950   2.269  0.0601  0.2940 -0.0295
 7411SOL    HW133866   3.894   0.952   2.175  1.1330  1.8885  0.2209
 7411SOL    HW233867   3.821   1.029   2.280 -2.1859 -1.6522  3.0385
 7412SOL     OW33868   1.121   2.882   5.289  0.2883 -0.6062 -0.0541
 7412SOL    HW133869   1.137   2.792   5.319  0.8043 -0.4335  0.1983
 7412SOL    HW233870   1.198   2.894   5.234 -0.9798  0.0855 -1.6602
 7413SOL     OW33871   4.238   4.175   3.552  0.0264  0.1052  0.4925
 7413SOL    HW133872   4.319   4.225   3.559 -1.0390  1.3978  3.3348
 7413SOL    HW233873   4.180   4.250   3.558 -2.2473 -1.6780  0.9990
 7414SOL     OW33874   3.659   1.219  13.827 -0.2172 -0.1873  0.0096
 7414SOL    HW133875   3.589   1.193  13.887  1.7362  1.1434  2.8742
 7414SOL    HW233876   3.604   1.277  13.773 -3.2338 -0.0716  3.1852
 7415SOL     OW33877   4.444   0.383  13.348  0.3383 -0.4466  0.2806
 7415SOL    HW133878   4.502   0.391  13.272  0.9652 -0.3331  0.7696
 7415SOL    HW233879   4.511   0.344  13.404 -0.0331  1.0907  1.7696
 7416SOL     OW33880   3.460   1.263   7.452  0.0063  0.2467  0.2866
 7416SOL    HW133881   3.517   1.189   7.430 -2.2489 -1.3449 -0.1853
 7416SOL    HW233882   3.435   1.282   7.361 -1.5920  0.5233  0.7931
 7417SOL     OW33883   1.371   0.363   2.467  0.5011  0.7165  0.2630
 7417SOL    HW133884   1.334   0.368   2.379 -0.1087 -0.6097  0.4502
 7417SOL    HW233885   1.466   0.379   2.458  0.4951  0.5844 -0.0128
 7418SOL     OW33886   1.583   2.993  12.201 -0.5283 -0.1664 -0.0915
 7418SOL    HW133887   1.667   3.029  12.230  0.2139 -0.1350 -2.3426
 7418SOL    HW233888   1.613   2.921  12.146 -0.6457 -0.7600  0.6132
 7419SOL     OW33889   1.433   3.477   1.815 -0.3537 -0.1313  0.3122
 7419SOL    HW133890   1.498   3.422   1.859 -0.1141 -0.6159 -0.6532
 7419SOL    HW233891   1.470   3.480   1.727 -0.4245  1.9803  0.3582
 7420SOL     OW33892   2.505   2.052   5.877 -0.4983 -0.4428 -0.2811
 7420SOL    HW133893   2.518   2.061   5.782 -2.1632  1.6514 -0.3003
 7420SOL    HW233894   2.590   2.066   5.919 -0.5577 -0.6712 -0.0834
 7421SOL     OW33895   3.240   1.252  14.256  0.5267  0.1348  0.1154
 7421SOL    HW133896   3.181   1.311  14.210 -0.7982 -2.9085 -2.0990
 7421SOL    HW233897   3.263   1.299  14.337  0.2702 -0.8620  0.7689
 7422SOL     OW33898   0.907   0.379   3.580  0.3591  0.0593 -0.6750
 7422SOL    HW133899   0.998   0.407   3.589 -0.3117  1.4723  1.6025
 7422SOL    HW233900   0.873   0.436   3.510  1.0246  1.0737 -0.1714
 7423SOL     OW33901   0.828   1.673   0.452  0.2273 -0.2541 -0.4028
 7423SOL    HW133902   0.834   1.760   0.414 -2.2044  0.6578  1.3225
 7423SOL    HW233903   0.916   1.641   0.434 -0.2624 -1.6257 -0.3765
 7424SOL     OW33904   1.357   4.071   9.992  0.1894 -0.1363  0.0553
 7424SOL    HW133905   1.389   4.031   9.911 -0.9185  1.0733 -0.9813
 7424SOL    HW233906   1.306   4.141   9.949  2.1249  0.8942 -0.5527
 7425SOL     OW33907   3.491   4.262   2.139  0.2677 -0.1055 -0.4390
 7425SOL    HW133908   3.556   4.203   2.178  1.8672  2.5131  0.8975
 7425SOL    HW233909   3.505   4.248   2.046  1.6650  0.6133 -0.3350
 7426SOL     OW33910   1.192   1.025  11.633 -0.7184  0.2160 -0.5421
 7426SOL    HW133911   1.144   0.973  11.569  1.4849 -1.1103 -1.1416
 7426SOL    HW233912   1.174   0.969  11.709  0.0671 -0.8646 -1.1469
 7427SOL     OW33913   3.229   1.968   7.691 -0.2781  0.0798  0.2756
 7427SOL    HW133914   3.227   1.884   7.645  3.1819  1.3858 -2.2812
 7427SOL    HW233915   3.200   1.948   7.780  0.3348  0.7155  0.6169
 7428SOL     OW33916   3.992   2.942   4.427 -0.4132  0.2179  0.2094
 7428SOL    HW133917   4.076   2.943   4.381 -0.7769  1.0730 -0.4288
 7428SOL    HW233918   3.980   3.035   4.445 -0.0988  0.2229  0.3915
 7429SOL     OW33919   0.566   0.358   2.429  0.2277  0.1167  0.6865
 7429SOL    HW133920   0.652   0.363   2.386 -0.5159  2.1311 -0.6052
 7429SOL    HW233921   0.574   0.433   2.488 -1.0374 -0.6827  1.8623
 7430SOL     OW33922   1.123   0.255   4.028 -0.3473 -0.5624  0.0641
 7430SOL    HW133923   1.035   0.250   3.991 -0.1625 -0.7516 -0.3393
 7430SOL    HW233924   1.110   0.216   4.115  0.6700  1.8786  1.3339
 7431SOL     OW33925   3.161   2.989   8.029  0.3177 -0.2917 -0.4790
 7431SOL    HW133926   3.139   3.063   7.972 -0.0422  0.3706  0.5183
 7431SOL    HW233927   3.130   2.924   7.966 -2.0641 -1.3699  1.8141
 7432SOL     OW33928   4.588   0.361  16.011  0.1952 -0.3036  0.3685
 7432SOL    HW133929   4.682   0.341  16.015  0.0259 -1.2460 -0.4649
 7432SOL    HW233930   4.556   0.272  15.997 -0.5685  0.0725 -0.2903
 7433SOL     OW33931   2.150   3.549   1.887 -0.5558 -0.4909 -0.1527
 7433SOL    HW133932   2.115   3.503   1.811 -0.9750 -0.7321  0.1909
 7433SOL    HW233933   2.243   3.538   1.867 -0.3211 -0.3111  0.8222
 7434SOL     OW33934   2.139   3.662  10.115  0.0923 -0.4435 -0.4048
 7434SOL    HW133935   2.107   3.656  10.205 -0.0826 -2.3993 -0.5887
 7434SOL    HW233936   2.141   3.568  10.094  0.8139 -0.6812  0.6997
 7435SOL     OW33937   0.932   0.714   6.676  0.3926  0.1511 -0.5040
 7435SOL    HW133938   0.913   0.807   6.668  0.0956  0.3296  2.2072
 7435SOL    HW233939   1.027   0.715   6.677  0.3417  2.1898  1.7021
 7436SOL     OW33940   4.129   0.770  13.636 -0.2173 -0.2220 -0.5166
 7436SOL    HW133941   4.074   0.693  13.643 -1.4703  0.3979 -3.4031
 7436SOL    HW233942   4.192   0.737  13.572  1.3805  3.3922 -0.8005
 7437SOL     OW33943   1.868   3.764  10.661 -0.4719 -0.1123 -0.4416
 7437SOL    HW133944   1.827   3.702  10.721 -0.9728 -0.9383 -1.6270
 7437SOL    HW233945   1.825   3.733  10.581  1.7701 -1.6618 -1.0363
 7438SOL     OW33946   4.253   4.148   7.642  0.0182 -0.0870 -0.0542
 7438SOL    HW133947   4.328   4.205   7.625 -0.5617  0.4123 -0.9289
 7438SOL    HW233948   4.281   4.070   7.596  0.5603  0.3801 -0.5181
 7439SOL     OW33949   0.651   3.129   5.513 -0.2453 -0.3307  1.0784
 7439SOL    HW133950   0.644   3.160   5.603  1.5467  0.1397  1.0596
 7439SOL    HW233951   0.643   3.211   5.464 -0.9149 -1.2568 -0.3899
 7440SOL     OW33952   1.623   0.130   1.875 -0.5737 -0.1093  0.6182
 7440SOL    HW133953   1.548   0.146   1.818  0.2906  1.8091  0.0089
 7440SOL    HW233954   1.600   0.164   1.962 -1.0303 -0.3243  0.5776
 7441SOL     OW33955   3.358   2.657   5.887  0.0609 -0.3540  0.3291
 7441SOL    HW133956   3.272   2.661   5.843 -0.4316 -1.1202  1.2284
 7441SOL    HW233957   3.405   2.596   5.831 -0.2059  0.4912 -0.8243
 7442SOL     OW33958   1.737   1.118   3.566  0.2514 -0.0347  0.3609
 7442SOL    HW133959   1.643   1.117   3.546  0.7304  0.8969 -1.8855
 7442SOL    HW233960   1.777   1.084   3.486 -2.9639 -1.8719 -0.4503
 7443SOL     OW33961   4.169   2.378   2.098 -0.6531  0.3135  0.1504
 7443SOL    HW133962   4.228   2.303   2.112 -1.1945 -0.4169 -1.5358
 7443SOL    HW233963   4.232   2.444   2.069  0.4131 -1.5986 -1.9184
 7444SOL     OW33964   3.886   4.427   5.575 -0.1828 -0.3267  0.5701
 7444SOL    HW133965   3.864   4.335   5.564  1.4539 -1.0423  3.2590
 7444SOL    HW233966   3.806   4.471   5.547  0.8221 -0.1921 -2.1175
 7445SOL     OW33967   2.921   4.661  12.889  0.3263 -0.0962  0.0858
 7445SOL    HW133968   2.943   4.579  12.843 -2.5009 -0.9760  0.3016
 7445SOL    HW233969   2.827   4.646  12.892  0.4536 -0.6452  1.3234
 7446SOL     OW33970   0.779   1.241   1.793 -0.1235  0.4710 -0.0171
 7446SOL    HW133971   0.781   1.319   1.737 -0.5524  1.0868  0.8189
 7446SOL    HW233972   0.702   1.265   1.845 -0.1775 -2.3522  1.1847
 7447SOL     OW33973   2.653   4.150   6.913  0.0545 -0.3456 -0.0783
 7447SOL    HW133974   2.677   4.223   6.971  1.3733 -1.1349  0.3506
 7447SOL    HW233975   2.604   4.088   6.967 -1.1703  0.3691 -0.3565
 7448SOL     OW33976   0.720   0.557   6.116 -0.3101  0.3822  0.1705
 7448SOL    HW133977   0.715   0.502   6.194 -0.2268  0.4278  0.2083
 7448SOL    HW233978   0.631   0.591   6.119 -0.3564  0.1448  1.5198
 7449SOL     OW33979   0.811   1.213   7.015 -0.1565 -0.3119  0.8154
 7449SOL    HW133980   0.815   1.272   7.091  0.6747 -0.5746  0.9773
 7449SOL    HW233981   0.774   1.140   7.064 -1.4169  0.6108  1.2408
 7450SOL     OW33982   2.308   2.584   8.457  0.1566 -0.6275  0.0692
 7450SOL    HW133983   2.297   2.595   8.551 -1.8013 -1.9119 -0.0224
 7450SOL    HW233984   2.321   2.490   8.456  2.9823 -0.2408 -0.0064
 7451SOL     OW33985   2.268   2.302  10.838  0.5576  0.6789  0.2487
 7451SOL    HW133986   2.265   2.371  10.771  2.0351  1.2665  0.7885
 7451SOL    HW233987   2.176   2.276  10.833  1.6377 -2.1864 -4.6066
 7452SOL     OW33988   2.117   4.617   6.908 -0.0851  0.3392  0.7549
 7452SOL    HW133989   2.032   4.592   6.873  0.2358  1.0673 -0.5440
 7452SOL    HW233990   2.131   4.541   6.964 -0.5255  1.4950  2.4635
 7453SOL     OW33991   3.317   1.745   9.833  0.0775  0.2190  0.0354
 7453SOL    HW133992   3.366   1.798   9.771  0.7306  1.1919  1.3768
 7453SOL    HW233993   3.378   1.736   9.906 -0.3137 -0.9360  0.2219
 7454SOL     OW33994   3.423   2.473   4.995  0.0517  0.3985 -0.1368
 7454SOL    HW133995   3.482   2.548   5.001 -1.1919  1.3571  0.0072
 7454SOL    HW233996   3.343   2.523   4.981 -0.2592  0.0746  0.4487
 7455SOL     OW33997   0.925   1.878   7.161  0.7658 -0.3501  0.0442
 7455SOL    HW133998   0.893   1.923   7.238  1.0969  1.2241 -0.7505
 7455SOL    HW233999   0.900   1.789   7.186  0.2376 -0.0295  0.6413
 7456SOL     OW34000   3.583   0.934   9.025  0.5706 -0.0358  0.3786
 7456SOL    HW134001   3.593   0.998   9.095  0.4271  0.4785 -0.0728
 7456SOL    HW234002   3.629   0.976   8.952 -2.6395 -0.2729 -1.7593
 7457SOL     OW34003   0.457   3.310  11.185 -0.5370 -0.0908 -0.5757
 7457SOL    HW134004   0.498   3.344  11.264 -0.3401 -2.5215  0.3939
 7457SOL    HW234005   0.438   3.391  11.139 -2.6190 -0.2887 -0.1007
 7458SOL     OW34006   1.992   2.770  17.645  0.0905 -0.3809 -0.0496
 7458SOL    HW134007   1.939   2.736  17.572 -0.5829 -0.3786  0.4394
 7458SOL    HW234008   2.009   2.688  17.691  3.7255  0.2605 -0.3105
 7459SOL     OW34009   4.126   1.602   1.157 -0.0300 -0.0983 -0.7086
 7459SOL    HW134010   4.099   1.561   1.074 -1.9287  0.2434 -0.2408
 7459SOL    HW234011   4.075   1.682   1.148 -2.0650 -1.2986  0.1479
 7460SOL     OW34012   1.896   1.533   8.509 -0.7542 -0.4159  0.3616
 7460SOL    HW134013   1.967   1.538   8.444 -3.2496 -0.5660 -2.3516
 7460SOL    HW234014   1.831   1.564   8.447 -1.1274  1.2978  1.6306
 7461SOL     OW34015   3.460   3.665  12.425  0.2598  0.1173  0.3614
 7461SOL    HW134016   3.485   3.746  12.468  1.9433 -0.8401  1.1700
 7461SOL    HW234017   3.417   3.699  12.346  0.0798 -2.3950 -0.6497
 7462SOL     OW34018   0.570   3.571   3.727 -0.0826  0.1075 -0.2118
 7462SOL    HW134019   0.544   3.654   3.686  0.4530  0.7858  0.8295
 7462SOL    HW234020   0.540   3.502   3.669 -0.7156  1.2705 -1.2723
 7463SOL     OW34021   2.346   2.049   3.476  0.1795 -0.0641 -0.0554
 7463SOL    HW134022   2.377   1.985   3.540 -0.7573  1.6982  2.1638
 7463SOL    HW234023   2.400   2.046   3.398  1.8542 -0.1205  1.1036
 7464SOL     OW34024   3.792   3.289   8.777 -0.2564 -0.3949  0.0757
 7464SOL    HW134025   3.816   3.343   8.852 -2.6786  0.9705 -0.1645
 7464SOL    HW234026   3.730   3.224   8.810 -1.0264  0.8690  1.1041
 7465SOL     OW34027   0.094   1.016   1.029 -0.1550  0.2730  0.0257
 7465SOL    HW134028   0.095   0.937   0.974  1.6839 -1.0537  1.9838
 7465SOL    HW234029   0.006   1.052   1.015  1.1506  3.6987  0.7609
 7466SOL     OW34030   4.702   4.527  16.399 -0.0219 -0.2899 -0.1549
 7466SOL    HW134031   4.624   4.472  16.394  0.3672 -0.8963  0.3216
 7466SOL    HW234032   4.695   4.580  16.320  2.5123  0.1971 -0.0778
 7467SOL     OW34033   0.735   1.174  14.966  0.2575 -0.0096  0.1537
 7467SOL    HW134034   0.688   1.105  14.919 -1.1711  1.1745 -0.1535
 7467SOL    HW234035   0.758   1.127  15.046 -0.4679  1.4963  1.2442
 7468SOL     OW34036   0.209   2.393  13.497  0.6207  0.2397 -0.6466
 7468SOL    HW134037   0.130   2.361  13.539 -0.6071 -0.6181 -3.5981
 7468SOL    HW234038   0.184   2.481  13.468 -0.7530 -0.0396 -0.2705
 7469SOL     OW34039   2.821   2.165   3.631  0.0588  0.2081 -0.2390
 7469SOL    HW134040   2.848   2.220   3.557  3.0640 -1.0675 -0.0855
 7469SOL    HW234041   2.868   2.208   3.703  0.8350 -0.9594 -0.0513
 7470SOL     OW34042   3.774   3.636   6.339  0.3698  0.1392 -0.1565
 7470SOL    HW134043   3.788   3.542   6.331 -1.2657 -0.2733  2.0466
 7470SOL    HW234044   3.862   3.657   6.370 -0.3277  1.1043  1.1471
 7471SOL     OW34045   2.942   2.704   5.388  0.0481  1.0359  0.4712
 7471SOL    HW134046   2.961   2.776   5.448  0.3887 -0.7116  2.4627
 7471SOL    HW234047   2.908   2.758   5.316  0.8474 -0.3011 -0.9218
 7472SOL     OW34048   1.110   3.518   7.875 -0.0715  0.1053 -0.1768
 7472SOL    HW134049   1.060   3.506   7.794 -1.1168  0.7403  0.3683
 7472SOL    HW234050   1.151   3.432   7.870 -0.7526 -0.1753 -0.8498
 7473SOL     OW34051   4.168   1.545  11.637  0.9473  0.3421  0.2403
 7473SOL    HW134052   4.114   1.586  11.569 -0.2319 -3.4903 -1.1014
 7473SOL    HW234053   4.261   1.567  11.629  1.1873 -0.8844 -0.2439
 7474SOL     OW34054   2.436   0.594   4.513  0.0275 -0.0545  0.3415
 7474SOL    HW134055   2.530   0.605   4.502  0.2057 -1.3052  0.6755
 7474SOL    HW234056   2.418   0.501   4.501  1.7493  0.0535 -2.9606
 7475SOL     OW34057   3.978   0.368   6.825  0.5156 -0.6525 -0.0085
 7475SOL    HW134058   3.900   0.422   6.813  0.1626 -1.0616  0.4324
 7475SOL    HW234059   3.941   0.284   6.853  0.9816 -1.2152 -1.0636
 7476SOL     OW34060   2.146   1.062   6.961 -0.3679  0.5061 -0.0028
 7476SOL    HW134061   2.176   1.151   6.943  0.0402 -0.2823 -3.1915
 7476SOL    HW234062   2.160   1.018   6.877  1.7323 -0.2481  0.7475
 7477SOL     OW34063   2.408   2.868  10.542  0.3316  0.2477  0.1618
 7477SOL    HW134064   2.354   2.835  10.614  2.8336 -1.6327  1.1394
 7477SOL    HW234065   2.418   2.791  10.486 -0.1329 -0.2436  0.7549
 7478SOL     OW34066   0.263   1.734   8.397  0.1835 -0.2272  0.2632
 7478SOL    HW134067   0.304   1.811   8.435  0.4611 -0.7462  0.9958
 7478SOL    HW234068   0.171   1.756   8.411  0.7543  2.3130  0.1568
 7479SOL     OW34069   2.110   0.200   4.826  0.5389 -0.0231  0.2226
 7479SOL    HW134070   2.126   0.184   4.918  1.7141 -1.4706 -0.2320
 7479SOL    HW234071   2.181   0.146   4.791 -0.1782 -0.7059 -0.1634
 7480SOL     OW34072   3.559   2.309  14.237  0.1785  0.2234 -0.4460
 7480SOL    HW134073   3.486   2.320  14.177 -1.1220  0.6802  1.2036
 7480SOL    HW234074   3.624   2.280  14.173  1.4113  2.5099 -0.2207
 7481SOL     OW34075   4.705   0.395   2.712 -0.0125  0.4766  0.2618
 7481SOL    HW134076   0.050   0.431   2.679  0.0622  0.2030  0.1417
 7481SOL    HW234077   4.724   0.301   2.719 -2.1546 -0.1066 -1.6874
 7482SOL     OW34078   2.887   0.728   4.194  0.3401 -0.8589  0.0020
 7482SOL    HW134079   2.801   0.767   4.207  0.5090 -0.1201 -1.0556
 7482SOL    HW234080   2.931   0.800   4.149 -1.1743  0.2885  0.3554
 7483SOL     OW34081   2.661   2.980  10.674  0.1060 -0.5897 -0.4031
 7483SOL    HW134082   2.664   3.006  10.766  1.6618 -1.3017 -0.2516
 7483SOL    HW234083   2.573   2.947  10.659 -0.5918  0.8300  0.6108
 7484SOL     OW34084   2.265   2.718  17.691 -0.5964 -0.1819 -0.0620
 7484SOL    HW134085   2.211   2.781  17.642  1.8494  1.3231 -0.8059
 7484SOL    HW234086   2.309   2.667  17.623  0.2337  0.3171  0.1048
 7485SOL     OW34087   1.454   4.203   2.917 -0.0615  0.4849  0.5271
 7485SOL    HW134088   1.488   4.125   2.874 -1.4994 -0.3932  0.9677
 7485SOL    HW234089   1.528   4.261   2.899 -0.8613  1.7701  1.3277
 7486SOL     OW34090   2.241   2.667   5.931  0.0867 -0.6381 -0.2518
 7486SOL    HW134091   2.236   2.595   5.994 -0.4015 -1.0854 -0.7994
 7486SOL    HW234092   2.262   2.741   5.988  1.6769  0.5378 -2.3892
 7487SOL     OW34093   3.065   1.811  10.774 -0.7091 -0.2160  0.0750
 7487SOL    HW134094   2.996   1.807  10.707  1.3591  2.8011 -2.2454
 7487SOL    HW234095   3.040   1.736  10.828  0.2177 -0.4104  0.2190
 7488SOL     OW34096   2.063   0.152   7.023 -0.1702  0.2504 -0.7499
 7488SOL    HW134097   2.020   0.154   6.938  0.0821  1.0371 -0.8638
 7488SOL    HW234098   2.111   0.071   7.012  0.4421  0.4290  0.5765
 7489SOL     OW34099   4.120   4.410  16.380 -0.6093  0.2305  0.2581
 7489SOL    HW134100   4.142   4.343  16.314 -0.9186  0.5136 -0.1309
 7489SOL    HW234101   4.173   4.370  16.449  1.2658 -2.3467 -2.6387
 7490SOL     OW34102   3.046   3.239   3.064  0.1871 -0.6980 -0.5647
 7490SOL    HW134103   3.067   3.179   2.992 -1.7578 -1.6979 -0.2995
 7490SOL    HW234104   3.131   3.280   3.076 -1.2310  1.7068  1.2367
 7491SOL     OW34105   1.032   3.131   4.735 -0.2899 -0.7270 -0.2506
 7491SOL    HW134106   1.029   3.145   4.829 -0.8526 -2.0320 -0.0776
 7491SOL    HW234107   1.049   3.038   4.725 -2.0829 -0.8228 -2.4789
 7492SOL     OW34108   3.298   0.317   4.187  0.1459 -0.8507  0.6088
 7492SOL    HW134109   3.328   0.361   4.108 -0.8965 -0.7532  0.2695
 7492SOL    HW234110   3.378   0.277   4.223  0.9477  0.2494  0.0270
 7493SOL     OW34111   2.017   0.647   2.277 -0.2600  0.3358 -0.6457
 7493SOL    HW134112   2.102   0.616   2.307 -0.8596  1.6528  2.4045
 7493SOL    HW234113   2.036   0.737   2.251 -0.8447  1.1088  1.6022
 7494SOL     OW34114   2.666   2.075   7.411  0.4398  0.0413  0.1866
 7494SOL    HW134115   2.573   2.059   7.425 -0.1720  1.0911 -2.6584
 7494SOL    HW234116   2.700   2.089   7.499 -0.5273 -1.8715  0.8506
 7495SOL     OW34117   2.820   1.237   4.091  0.0634 -0.0300 -0.3892
 7495SOL    HW134118   2.860   1.172   4.149 -0.8964 -2.0779 -2.0710
 7495SOL    HW234119   2.767   1.182   4.034  2.6271  0.0162 -2.8198
 7496SOL     OW34120   4.704   3.603   7.433  0.2091  1.1821 -0.3722
 7496SOL    HW134121   4.707   3.685   7.483 -0.1896  0.6721  0.4783
 7496SOL    HW234122   0.017   3.546   7.491 -0.2156  1.5447  0.3547
 7497SOL     OW34123   1.517   0.921  10.590  0.2098  0.3861 -0.3783
 7497SOL    HW134124   1.524   0.912  10.685 -0.8668  1.7609 -0.1744
 7497SOL    HW234125   1.496   1.014  10.595 -0.1941  0.2683  0.1089
 7498SOL     OW34126   4.316   3.078  14.559 -0.0426  0.0656 -0.4237
 7498SOL    HW134127   4.238   3.129  14.537 -0.8307 -1.4770 -1.1885
 7498SOL    HW234128   4.271   3.001  14.595 -0.9201  0.1136 -1.4144
 7499SOL     OW34129   4.546   2.813   2.463 -0.1429  0.2374 -0.1370
 7499SOL    HW134130   4.579   2.831   2.551 -3.1223  1.2948  0.7783
 7499SOL    HW234131   4.454   2.793   2.479  0.3284 -0.9449  1.1176
 7500SOL     OW34132   3.073   4.287   4.712 -0.3712  0.1156 -0.0497
 7500SOL    HW134133   3.083   4.361   4.772 -1.2950  0.5747 -0.4618
 7500SOL    HW234134   2.991   4.248   4.743 -2.0164  1.8111 -2.2575
 7501SOL     OW34135   1.700   3.369   5.908  0.8060  0.2574  0.1423
 7501SOL    HW134136   1.629   3.368   5.972  0.3754 -0.8716 -0.3650
 7501SOL    HW234137   1.736   3.458   5.912 -0.4974  0.8101 -0.5321
 7502SOL     OW34138   3.189   3.860   2.560  0.5585  0.1625  0.4788
 7502SOL    HW134139   3.178   3.818   2.645 -0.9174  0.6104  0.5194
 7502SOL    HW234140   3.229   3.941   2.593 -0.9242  0.4611  1.5769
 7503SOL     OW34141   3.552   1.984  16.446  0.2136 -0.2049 -0.0624
 7503SOL    HW134142   3.614   1.916  16.419  1.9385 -0.0375  3.5466
 7503SOL    HW234143   3.549   2.052  16.378 -1.3864 -0.5897 -0.3955
 7504SOL     OW34144   2.404   1.815   1.855  0.7785 -0.7438  0.1064
 7504SOL    HW134145   2.400   1.905   1.824  0.2977 -1.0276 -0.6591
 7504SOL    HW234146   2.368   1.829   1.943 -2.0995 -1.6238 -0.9432
 7505SOL     OW34147   0.880   2.888   7.288  0.0239 -0.2953  0.3671
 7505SOL    HW134148   0.908   2.811   7.338  1.2592 -0.4011 -0.4910
 7505SOL    HW234149   0.801   2.905   7.341  0.7214  2.1530  0.5945
 7506SOL     OW34150   1.679   0.084   5.735 -0.0902  0.7743  0.2204
 7506SOL    HW134151   1.624   0.048   5.805  0.7108 -0.2278  0.3235
 7506SOL    HW234152   1.659   0.177   5.743  1.4447  0.9803  1.5065
 7507SOL     OW34153   3.160   4.717   8.410 -0.6160 -0.8600  0.0991
 7507SOL    HW134154   3.170   0.031   8.491 -0.2202  1.3213 -1.3398
 7507SOL    HW234155   3.217   4.644   8.432  1.7460  1.2778  1.1487
 7508SOL     OW34156   2.622   2.887   3.966  0.1063  0.3316  0.7922
 7508SOL    HW134157   2.611   2.803   3.922  2.1912  0.8199 -0.6661
 7508SOL    HW234158   2.579   2.947   3.905 -0.7983  0.8169  1.9162
 7509SOL     OW34159   2.087   4.681   5.156 -0.7240  0.1632 -0.5732
 7509SOL    HW134160   2.174   4.719   5.142 -0.1497 -0.5181  1.1535
 7509SOL    HW234161   2.106   4.592   5.127  1.3040  0.8028 -1.1760
 7510SOL     OW34162   2.996   2.899   7.441 -0.2735  0.4236 -0.4743
 7510SOL    HW134163   3.048   2.826   7.407 -0.3824 -0.0870  0.4453
 7510SOL    HW234164   3.062   2.967   7.431 -0.1581 -0.0023 -2.6181
 7511SOL     OW34165   2.433   4.614   1.451  0.2695  0.2780 -0.0330
 7511SOL    HW134166   2.459   4.523   1.437  0.9985  0.6293 -0.9657
 7511SOL    HW234167   2.349   4.602   1.495 -0.2217  0.6019 -0.8799
 7512SOL     OW34168   3.935   0.511   4.624  0.2748  0.3364  0.2945
 7512SOL    HW134169   3.896   0.564   4.555  2.1246  0.5379 -0.6006
 7512SOL    HW234170   3.949   0.427   4.580  0.9745  2.0473 -2.7325
 7513SOL     OW34171   4.528   2.742   1.577 -0.0083 -0.7859 -0.3848
 7513SOL    HW134172   4.572   2.802   1.637 -2.1287 -0.8375  1.2563
 7513SOL    HW234173   4.604   2.717   1.524  1.6854 -0.1313  1.7571
 7514SOL     OW34174   4.027   4.321   5.782  0.3337 -0.3371  0.1128
 7514SOL    HW134175   3.980   4.340   5.701 -0.8341 -1.1412  0.6035
 7514SOL    HW234176   4.034   4.409   5.820  0.7166 -0.2668 -0.1236
 7515SOL     OW34177   2.771   0.908   7.823  0.2408  0.5519 -0.1801
 7515SOL    HW134178   2.704   0.846   7.854  0.7963 -0.7985 -1.7027
 7515SOL    HW234179   2.760   0.900   7.729  0.2140 -0.1845 -0.1137
 7516SOL     OW34180   4.275   0.150   5.172  0.1855  0.1200  0.0410
 7516SOL    HW134181   4.287   0.193   5.087 -0.1586 -0.8803 -0.5184
 7516SOL    HW234182   4.207   0.211   5.201  0.6813  0.3183  0.7764
 7517SOL     OW34183   3.394   3.376   8.159  0.1270  0.4873  0.7321
 7517SOL    HW134184   3.377   3.366   8.065  1.6336 -2.9935  0.8407
 7517SOL    HW234185   3.456   3.449   8.163 -1.3288  1.7953 -0.7429
 7518SOL     OW34186   4.566   3.181  14.597 -0.0828 -0.0814  0.7550
 7518SOL    HW134187   4.472   3.167  14.591  0.3575 -1.8775 -2.1293
 7518SOL    HW234188   4.590   3.262  14.552 -2.4372 -1.7273 -3.4378
 7519SOL     OW34189   4.179   3.197   2.946  0.0095  0.2450  0.8320
 7519SOL    HW134190   4.238   3.157   2.882 -0.9328 -1.3042  0.9251
 7519SOL    HW234191   4.232   3.274   2.962  1.6047 -0.7043  0.1584
 7520SOL     OW34192   3.043   3.451   7.376  0.0880 -0.1778 -0.4478
 7520SOL    HW134193   3.071   3.536   7.409 -0.3295 -1.1379  2.4062
 7520SOL    HW234194   3.057   3.453   7.281  0.4708 -0.3250 -0.3983
 7521SOL     OW34195   3.232   1.032   1.453 -0.1708  0.2249  0.3570
 7521SOL    HW134196   3.257   1.026   1.361 -0.8711  0.4076  0.1606
 7521SOL    HW234197   3.308   0.980   1.480 -0.4912 -1.5890 -2.1867
 7522SOL     OW34198   0.841   1.274   8.476 -0.3532  0.0641  0.1161
 7522SOL    HW134199   0.867   1.364   8.496 -0.7091  0.0582  0.5886
 7522SOL    HW234200   0.922   1.235   8.442 -1.6239 -1.8302 -0.7503
 7523SOL     OW34201   0.448   3.238   7.018  0.1228  0.5074  0.1300
 7523SOL    HW134202   0.516   3.188   6.973  2.5674  2.6903  1.3658
 7523SOL    HW234203   0.420   3.169   7.079  0.6616  0.0249 -0.1701
 7524SOL     OW34204   2.750   2.629  15.904 -0.0246 -0.2213  1.0411
 7524SOL    HW134205   2.825   2.669  15.861 -0.7184 -0.6833 -0.6053
 7524SOL    HW234206   2.744   2.550  15.850  0.4848  1.1999 -1.0699
 7525SOL     OW34207   3.840   1.836   4.356 -0.0171  0.1179 -0.1024
 7525SOL    HW134208   3.859   1.752   4.398 -4.1326  0.3907  2.2713
 7525SOL    HW234209   3.873   1.822   4.267  1.4650  1.4188  0.2522
 7526SOL     OW34210   1.359   2.750   0.676 -0.5742  0.1193 -0.0251
 7526SOL    HW134211   1.277   2.790   0.706 -0.9011 -0.6022  0.0345
 7526SOL    HW234212   1.427   2.812   0.703  2.9067 -3.5978 -0.3382
 7527SOL     OW34213   2.904   3.625   5.175 -0.3432 -0.2626  0.0695
 7527SOL    HW134214   2.991   3.645   5.210 -0.2310  1.7162 -1.3541
 7527SOL    HW234215   2.866   3.577   5.248  0.7872  1.1754  1.5910
 7528SOL     OW34216   1.791   2.225   4.521 -0.1002 -0.2481 -0.2438
 7528SOL    HW134217   1.759   2.315   4.514  1.3638  0.2168 -1.0824
 7528SOL    HW234218   1.886   2.224   4.508  0.0269  0.9272  0.5745
 7529SOL     OW34219   3.313   3.855   4.913  0.4435  0.2084 -0.1025
 7529SOL    HW134220   3.387   3.907   4.944 -0.5368  0.0248  2.4969
 7529SOL    HW234221   3.269   3.850   4.997  0.5975  2.2605  0.0955
 7530SOL     OW34222   3.591   3.441   2.445  0.6445 -0.4076 -0.1169
 7530SOL    HW134223   3.633   3.360   2.417  1.0820 -0.7573  1.4972
 7530SOL    HW234224   3.669   3.488   2.476  0.3807  0.2979 -0.5299
 7531SOL     OW34225   1.836   4.596   1.039 -0.0611 -0.2628  0.4067
 7531SOL    HW134226   1.746   4.566   1.052  0.0205 -1.4421 -1.8201
 7531SOL    HW234227   1.880   4.544   1.106 -0.3052  1.0345  1.5885
 7532SOL     OW34228   1.640   1.208   8.587  0.6355  0.3190 -0.0746
 7532SOL    HW134229   1.555   1.248   8.571 -0.1945 -1.4830 -0.0828
 7532SOL    HW234230   1.654   1.251   8.672  0.7332  0.6784 -0.2731
 7533SOL     OW34231   1.745   0.123   4.914 -0.0724 -0.8900  0.2601
 7533SOL    HW134232   1.821   0.158   4.961 -0.4145 -1.6542  1.4028
 7533SOL    HW234233   1.685   0.094   4.983 -0.6282 -0.8804 -0.2253
 7534SOL     OW34234   4.499   1.541   4.288 -0.3676 -0.0184  0.3542
 7534SOL    HW134235   4.460   1.478   4.228 -3.8225  2.3496  0.0869
 7534SOL    HW234236   4.586   1.515   4.316 -0.8705 -0.6621  1.3381
 7535SOL     OW34237   2.228   1.218   0.011  0.1544 -0.0383  0.2200
 7535SOL    HW134238   2.289   1.169   0.067 -1.1777 -2.9318 -0.8888
 7535SOL    HW234239   2.244   1.308   0.041 -0.5355  0.6694 -1.5304
 7536SOL     OW34240   2.109   1.740   6.553 -0.1370 -0.1312  0.3428
 7536SOL    HW134241   2.131   1.783   6.636 -0.5368  0.2575  0.2470
 7536SOL    HW234242   2.033   1.789   6.520  0.9241 -0.5781 -2.7664
 7537SOL     OW34243   4.714   1.473   7.890  0.2411  0.4470  0.2910
 7537SOL    HW134244   4.699   1.425   7.972 -0.9278 -0.3716 -0.4089
 7537SOL    HW234245   4.662   1.554   7.891 -0.9795 -0.3524  4.4707
 7538SOL     OW34246   3.255   1.461   5.270 -0.1730 -0.6555 -0.2857
 7538SOL    HW134247   3.241   1.508   5.353 -0.2260 -0.5540 -0.3517
 7538SOL    HW234248   3.279   1.534   5.213  1.7893 -1.3053 -0.3043
 7539SOL     OW34249   2.997   2.894  15.113 -0.2057 -1.0343  0.3292
 7539SOL    HW134250   3.045   2.954  15.056  0.5009 -1.2336  0.7089
 7539SOL    HW234251   3.020   2.807  15.080  2.2674 -1.1937  2.5060
 7540SOL     OW34252   3.881   2.837   9.894  0.3569  0.3397 -0.2233
 7540SOL    HW134253   3.848   2.750   9.872  2.1945  0.2227 -2.4353
 7540SOL    HW234254   3.964   2.847   9.847 -0.6164  0.3050 -1.9536
 7541SOL     OW34255   3.629   0.243   5.138  0.4766 -0.4495 -0.1369
 7541SOL    HW134256   3.664   0.173   5.083  1.9224  0.3942 -0.2947
 7541SOL    HW234257   3.543   0.208   5.161  0.3390 -1.9127 -2.8464
 7542SOL     OW34258   4.555   4.528   8.060 -0.1309  0.2974 -0.3626
 7542SOL    HW134259   4.527   4.453   8.007 -2.6808  0.5722  0.5638
 7542SOL    HW234260   4.471   4.533   8.106 -0.6971 -0.9921 -1.2532
 7543SOL     OW34261   0.117   3.465   5.805  0.7527  0.1835 -0.0324
 7543SOL    HW134262   0.159   3.524   5.742 -0.3874  1.0555  0.0173
 7543SOL    HW234263   0.147   3.509   5.885  0.6191 -0.5939  0.4434
 7544SOL     OW34264   3.141   2.342  10.923  0.3587 -0.1806 -0.3952
 7544SOL    HW134265   3.159   2.416  10.981 -0.8745 -1.3368  1.4610
 7544SOL    HW234266   3.222   2.290  10.923 -0.3550 -1.2887 -2.4195
 7545SOL     OW34267   2.780   0.842   7.278  0.1393 -0.3800 -0.6925
 7545SOL    HW134268   2.751   0.933   7.286  0.6129 -0.4176  1.4401
 7545SOL    HW234269   2.865   0.850   7.233  0.5384 -1.5307 -0.1333
 7546SOL     OW34270   4.157   0.150   8.210 -0.0364 -0.4412  0.1676
 7546SOL    HW134271   4.226   0.112   8.264  0.9968 -1.1592 -1.6655
 7546SOL    HW234272   4.123   0.074   8.162 -1.0374 -0.9996  1.7433
 7547SOL     OW34273   2.548   2.820   1.738 -0.6013 -0.0879 -0.7167
 7547SOL    HW134274   2.603   2.780   1.806 -1.6005 -1.2152 -0.5797
 7547SOL    HW234275   2.601   2.813   1.659 -0.7579 -0.5134 -0.7852
 7548SOL     OW34276   0.717   2.029   3.222  0.3223  0.5080  0.1695
 7548SOL    HW134277   0.758   2.018   3.136  2.0581 -2.0535  1.3158
 7548SOL    HW234278   0.715   1.938   3.251 -0.1278  1.0053  1.6758
 7549SOL     OW34279   2.295   3.848   4.238 -0.3124 -0.4440  0.2472
 7549SOL    HW134280   2.242   3.772   4.215  0.7819 -1.4768  1.0883
 7549SOL    HW234281   2.365   3.813   4.293  0.1869  0.4304  0.1698
 7550SOL     OW34282   3.191   1.772  10.484  0.1606  0.2215 -0.5757
 7550SOL    HW134283   3.142   1.841  10.440 -1.9327 -2.2561 -2.0871
 7550SOL    HW234284   3.264   1.770  10.421 -0.9105 -1.2117 -1.7692
 7551SOL     OW34285   2.681   3.323   9.418 -0.3052 -0.3141 -0.1688
 7551SOL    HW134286   2.762   3.278   9.440  0.2188 -0.0606 -1.5840
 7551SOL    HW234287   2.717   3.402   9.378  0.6368 -1.2618 -1.1990
 7552SOL     OW34288   0.636   4.351   3.458  0.4446 -0.1065  0.4625
 7552SOL    HW134289   0.666   4.308   3.538  2.9185  0.7991  0.0385
 7552SOL    HW234290   0.541   4.341   3.451  0.2923  2.2278 -0.9787
 7553SOL     OW34291   0.121   0.011   3.152  0.0829  0.4148  0.0307
 7553SOL    HW134292   0.147   4.718   3.065 -2.2713 -0.0657 -0.5302
 7553SOL    HW234293   0.194   4.730   3.210  0.5031  0.8465 -0.3543
 7554SOL     OW34294   3.079   2.294   5.152 -0.0922 -0.3637  0.5701
 7554SOL    HW134295   3.101   2.208   5.189  2.1882 -0.9958 -2.2473
 7554SOL    HW234296   3.156   2.297   5.094 -0.7174  0.9378 -0.2014
 7555SOL     OW34297   2.971   3.638   9.470  0.6605 -0.9780  0.5345
 7555SOL    HW134298   2.998   3.607   9.556 -0.9749  0.2496  1.4961
 7555SOL    HW234299   3.026   3.715   9.457 -2.2042  0.9721 -0.0615
 7556SOL     OW34300   2.353   3.648   8.805 -0.2211  0.0771  0.3230
 7556SOL    HW134301   2.389   3.565   8.837  0.6354  1.2684  2.4202
 7556SOL    HW234302   2.371   3.630   8.712 -0.0514  0.0853  0.3540
 7557SOL     OW34303   2.728   4.092  14.843  0.0607  0.5252  0.4134
 7557SOL    HW134304   2.655   4.061  14.898 -1.2121 -1.3400 -2.3172
 7557SOL    HW234305   2.669   4.125  14.775 -1.2651 -0.3022  1.1719
 7558SOL     OW34306   2.785   0.443   4.753  0.2717 -0.0964 -0.8590
 7558SOL    HW134307   2.764   0.383   4.681 -0.7064 -0.6957 -0.0623
 7558SOL    HW234308   2.700   0.469   4.788  1.4396  0.8116  1.2987
 7559SOL     OW34309   2.811   1.371   5.901  0.3950 -0.3025 -0.2677
 7559SOL    HW134310   2.730   1.422   5.895 -0.3739 -1.3132  1.6168
 7559SOL    HW234311   2.849   1.416   5.977 -1.8341  0.3163  0.4696
 7560SOL     OW34312   1.638   3.489  13.459  0.0084 -0.4799  0.3399
 7560SOL    HW134313   1.646   3.514  13.551  0.6289 -0.7690  0.3610
 7560SOL    HW234314   1.725   3.514  13.428 -2.1636  1.6037 -4.1036
 7561SOL     OW34315   2.693   3.419   8.177 -0.2228  0.1483 -0.0939
 7561SOL    HW134316   2.609   3.381   8.205 -0.0726 -0.5832 -0.6140
 7561SOL    HW234317   2.691   3.505   8.219  0.5202 -0.5215  1.3007
 7562SOL     OW34318   4.019   1.858   6.970 -0.4870 -0.6469 -0.2477
 7562SOL    HW134319   4.040   1.935   6.918 -0.0552 -1.5069 -1.3397
 7562SOL    HW234320   3.960   1.904   7.029  2.1449  2.0984  0.2698
 7563SOL     OW34321   2.260   1.628   2.749  0.2126  0.4939  0.4710
 7563SOL    HW134322   2.330   1.627   2.814  1.1249  0.1670 -0.5152
 7563SOL    HW234323   2.320   1.621   2.674 -1.1620  0.7864 -0.6579
 7564SOL     OW34324   4.648   0.646   7.377  0.5070  0.1825  0.3207
 7564SOL    HW134325   4.596   0.566   7.369 -1.0739  1.2355 -0.0289
 7564SOL    HW234326   4.716   0.626   7.441 -0.3281  1.1921  1.5200
 7565SOL     OW34327   2.439   2.077   0.154 -0.0804  0.2940  0.1087
 7565SOL    HW134328   2.436   2.034   0.239  0.8162 -2.8988 -1.4971
 7565SOL    HW234329   2.478   2.017   0.091  0.2724  0.1454  0.4673
 7566SOL     OW34330   1.484   0.166   3.791 -0.0755 -0.3835  0.0242
 7566SOL    HW134331   1.517   0.080   3.765  0.9377  0.7635 -2.4659
 7566SOL    HW234332   1.478   0.209   3.706  1.6083  2.7968  1.5277
 7567SOL     OW34333   0.348   2.751   0.068  0.0026 -0.5490  0.0487
 7567SOL    HW134334   0.285   2.749   0.140  1.3578  0.0080  1.2530
 7567SOL    HW234335   0.311   2.826   0.021 -1.4229 -2.1051 -1.3170
 7568SOL     OW34336   2.509   1.664   7.500 -0.1884 -0.1108 -0.0353
 7568SOL    HW134337   2.558   1.699   7.425 -1.1424 -0.9117 -1.0434
 7568SOL    HW234338   2.450   1.737   7.515  1.3454  1.5962 -2.2081
 7569SOL     OW34339   0.133   3.443   8.117 -0.3549  0.0109  0.0865
 7569SOL    HW134340   0.132   3.361   8.166  0.4291  0.4703  0.8617
 7569SOL    HW234341   0.088   3.412   8.038  2.4784  1.7881 -2.2584
 7570SOL     OW34342   1.324   4.088  13.271  0.1154 -0.0550 -0.3408
 7570SOL    HW134343   1.368   4.135  13.342 -0.0635  0.9162 -0.8756
 7570SOL    HW234344   1.306   4.003  13.312 -1.0030 -0.3490 -1.4187
 7571SOL     OW34345   1.074   1.377  16.389  0.0239  0.1867  0.3668
 7571SOL    HW134346   1.012   1.309  16.362  1.2728 -0.3859 -1.1003
 7571SOL    HW234347   1.096   1.419  16.306 -0.0499  0.3062  0.4090
 7572SOL     OW34348   0.317   1.462   7.459 -0.0682 -0.1889  0.3857
 7572SOL    HW134349   0.233   1.475   7.413 -0.3403  3.0646  1.8563
 7572SOL    HW234350   0.318   1.533   7.523 -1.2698  0.3607 -0.2018
 7573SOL     OW34351   1.627   4.399   6.892  0.1836 -0.1004 -0.0808
 7573SOL    HW134352   1.654   4.307   6.897 -4.4934 -1.4235  0.7693
 7573SOL    HW234353   1.552   4.403   6.951 -0.1008  0.8025 -0.5029
 7574SOL     OW34354   0.066   2.002  10.945  0.5371 -0.0422  0.2109
 7574SOL    HW134355   0.048   1.964  11.031  2.8355 -0.5284  0.4962
 7574SOL    HW234356   0.158   2.024  10.962  0.7178 -0.2209 -0.5511
 7575SOL     OW34357   1.498   1.904   2.301 -0.1015 -0.5674 -0.1571
 7575SOL    HW134358   1.564   1.840   2.329 -1.5941 -1.9086  0.2922
 7575SOL    HW234359   1.426   1.879   2.358 -0.5255 -0.0412 -0.4653
 7576SOL     OW34360   1.425   2.142  17.439 -0.0389 -0.2631  0.7644
 7576SOL    HW134361   1.429   2.204  17.366  0.7930 -1.0319  0.1702
 7576SOL    HW234362   1.491   2.181  17.497  0.0531  0.7558 -0.0189
 7577SOL     OW34363   2.114   1.270   5.256 -0.7557 -0.0948  0.0841
 7577SOL    HW134364   2.174   1.202   5.226  1.9904  1.5879  1.6888
 7577SOL    HW234365   2.106   1.252   5.350  0.0827  0.1197  0.1971
 7578SOL     OW34366   2.727   1.443   4.510  0.0418  0.7451 -0.5435
 7578SOL    HW134367   2.816   1.466   4.534 -0.4473  3.3461 -1.1998
 7578SOL    HW234368   2.699   1.523   4.467 -0.6842 -0.6726 -2.7584
 7579SOL     OW34369   1.230   0.184   3.382  0.5431 -0.3835  0.3395
 7579SOL    HW134370   1.220   0.089   3.395 -0.4484 -0.2543  0.5040
 7579SOL    HW234371   1.302   0.199   3.321 -0.5152 -0.9411 -1.0272
 7580SOL     OW34372   0.399   2.372  16.311  0.0552 -0.2493  0.4730
 7580SOL    HW134373   0.487   2.393  16.342  0.5957 -2.1654  0.2734
 7580SOL    HW234374   0.350   2.403  16.387  0.3007  0.2578  0.4242
 7581SOL     OW34375   3.104   2.010   3.740  0.0993 -0.0771  0.3626
 7581SOL    HW134376   3.026   1.998   3.794 -0.1025  0.8659  0.2822
 7581SOL    HW234377   3.093   2.103   3.722  1.0639 -0.0544 -0.1399
 7582SOL     OW34378   4.064   1.255   9.905  0.2808 -0.4072  0.2102
 7582SOL    HW134379   4.107   1.194   9.965  0.0929 -0.1445  0.6071
 7582SOL    HW234380   4.117   1.334   9.900 -1.2288  0.4346 -2.3323
 7583SOL     OW34381   2.320   0.428   6.301  0.4679  0.3340  0.1724
 7583SOL    HW134382   2.346   0.338   6.282 -3.3630 -1.3561  3.0821
 7583SOL    HW234383   2.401   0.472   6.329  2.1998 -2.1146 -1.0403
 7584SOL     OW34384   0.638   1.619  13.017  0.0629 -0.1658 -0.2878
 7584SOL    HW134385   0.681   1.544  12.977 -2.5635 -1.1167 -1.3163
 7584SOL    HW234386   0.563   1.583  13.064 -1.5165  1.2796 -1.7216
 7585SOL     OW34387   3.900   3.339  16.792  0.2607 -0.1749 -0.3359
 7585SOL    HW134388   3.990   3.370  16.780  0.5815 -0.8370  0.3935
 7585SOL    HW234389   3.888   3.382  16.876 -3.1836 -1.8571  0.0302
 7586SOL     OW34390   3.073   3.578   6.733  0.7289  0.0361  0.4880
 7586SOL    HW134391   3.130   3.508   6.699  0.0873 -0.3850  0.2845
 7586SOL    HW234392   3.122   3.660   6.730 -0.5909  0.8534  1.4125
 7587SOL     OW34393   1.561   0.975  14.673  0.0874  0.3138 -0.0705
 7587SOL    HW134394   1.475   0.983  14.632 -1.7971 -1.7980  3.4277
 7587SOL    HW234395   1.592   0.885  14.663 -1.0217  0.1064 -1.6013
 7588SOL     OW34396   3.511   4.463   8.137 -0.5604 -0.1838 -0.1384
 7588SOL    HW134397   3.564   4.536   8.169 -0.5839  0.4344 -1.5036
 7588SOL    HW234398   3.531   4.489   8.047 -0.4218 -0.2781 -0.1349
 7589SOL     OW34399   2.532   2.584   4.822  0.2421 -0.0125  0.2649
 7589SOL    HW134400   2.627   2.568   4.822  0.1655 -0.5300 -1.6331
 7589SOL    HW234401   2.509   2.638   4.897 -1.0671 -0.3463  0.1068
 7590SOL     OW34402   2.037   4.437   5.487 -0.2297 -0.0868  0.2055
 7590SOL    HW134403   2.023   4.389   5.569  0.6579 -0.3982  0.1695
 7590SOL    HW234404   2.130   4.458   5.497 -0.1678 -0.4210  0.3634
 7591SOL     OW34405   2.289   3.307   8.693  0.4864 -0.4868 -0.1455
 7591SOL    HW134406   2.205   3.261   8.701  0.8383 -1.1080  0.0211
 7591SOL    HW234407   2.343   3.231   8.717  1.0916 -0.2157 -0.6403
 7592SOL     OW34408   3.680   1.496   4.052 -0.3125 -0.2048  0.9835
 7592SOL    HW134409   3.758   1.458   4.091 -1.8712 -1.1573  3.1350
 7592SOL    HW234410   3.603   1.451   4.086 -1.4037  0.9174  0.0002
 7593SOL     OW34411   3.728   2.405   2.536 -0.0652 -0.1106  0.1489
 7593SOL    HW134412   3.745   2.376   2.626 -1.4753 -1.4653 -0.0320
 7593SOL    HW234413   3.758   2.495   2.545  2.5877 -0.9016 -0.7977
 7594SOL     OW34414   0.164   4.023  14.185  0.1711  0.3204 -0.4210
 7594SOL    HW134415   0.072   4.019  14.157  0.8533  0.6986 -2.6992
 7594SOL    HW234416   0.153   3.989  14.274 -0.6727 -1.1783 -1.0995
 7595SOL     OW34417   4.417   4.725   5.310 -0.1164  0.4335 -0.0398
 7595SOL    HW134418   4.372   0.052   5.255 -3.0209  0.0840  1.9419
 7595SOL    HW234419   4.507   0.018   5.297 -0.5611  1.4221 -0.8605
 7596SOL     OW34420   3.962   1.640   0.856 -0.4587  0.5061  0.4187
 7596SOL    HW134421   4.015   1.563   0.879 -0.1188  0.4872 -0.4359
 7596SOL    HW234422   3.963   1.625   0.762  0.2729 -0.5292  0.5892
 7597SOL     OW34423   1.862   4.660   2.205 -0.0745 -0.4756  0.6448
 7597SOL    HW134424   1.905   4.579   2.178  1.4169  0.5236  0.0605
 7597SOL    HW234425   1.778   4.632   2.168 -0.2512  0.9598 -0.0316
 7598SOL     OW34426   1.934   0.797   6.441  0.8385  0.0035  0.4560
 7598SOL    HW134427   1.964   0.706   6.439 -0.2968 -0.3514 -0.9179
 7598SOL    HW234428   1.960   0.835   6.357 -0.4916  1.3258  0.6469
 7599SOL     OW34429   1.845   0.702   7.489 -0.1945 -0.8020  0.2463
 7599SOL    HW134430   1.898   0.622   7.483 -0.4758 -0.8776 -1.2892
 7599SOL    HW234431   1.765   0.675   7.444  0.6336  0.9708 -2.2865
 7600SOL     OW34432   1.867   1.597   9.584 -0.2989 -0.0856 -0.7758
 7600SOL    HW134433   1.932   1.542   9.627 -0.1681 -0.8530 -1.9656
 7600SOL    HW234434   1.851   1.547   9.504 -0.5629 -1.1937 -0.0257
 7601SOL     OW34435   3.564   1.307   5.675 -0.0087  0.0753  0.3323
 7601SOL    HW134436   3.470   1.324   5.667  0.3734  2.4075  0.5241
 7601SOL    HW234437   3.600   1.384   5.719  2.7116 -0.2115 -1.3951
 7602SOL     OW34438   0.017   1.859   8.772  0.2180 -0.7603 -0.5421
 7602SOL    HW134439   0.084   1.928   8.777  1.1523 -1.7701  0.6891
 7602SOL    HW234440   0.033   1.825   8.684  1.4101  1.7329 -1.3096
 7603SOL     OW34441   2.976   2.345   6.043  0.6936 -0.5739 -0.0422
 7603SOL    HW134442   3.070   2.356   6.060  0.4595 -1.3280  1.6959
 7603SOL    HW234443   2.943   2.426   6.080 -1.7137 -0.5133 -2.3236
 7604SOL     OW34444   4.581   3.759   3.285  0.2006  0.4059  0.4558
 7604SOL    HW134445   4.639   3.774   3.211 -0.1127 -0.9148 -0.0515
 7604SOL    HW234446   4.568   3.852   3.302 -0.5461  0.5141 -0.6956
 7605SOL     OW34447   2.194   4.334   4.186 -0.5493  0.4451  0.1915
 7605SOL    HW134448   2.283   4.368   4.175 -0.6517  0.6722  0.0730
 7605SOL    HW234449   2.159   4.332   4.097  2.7094 -1.0793 -1.0855
 7606SOL     OW34450   3.985   4.122  15.318  0.2961  0.6275 -0.0462
 7606SOL    HW134451   3.890   4.132  15.325  0.1560 -1.2781  0.9508
 7606SOL    HW234452   4.025   4.134  15.405  0.9808  1.2857 -0.4562
 7607SOL     OW34453   4.370   3.814   5.263 -1.0476 -0.2622 -0.1395
 7607SOL    HW134454   4.286   3.780   5.293 -0.8393 -0.4532  0.2224
 7607SOL    HW234455   4.427   3.792   5.337 -0.8689 -1.9311 -0.7781
 7608SOL     OW34456   1.196   1.102   3.171 -0.4185  0.2128  0.2972
 7608SOL    HW134457   1.196   1.182   3.223 -2.2995  0.5015 -0.1277
 7608SOL    HW234458   1.117   1.056   3.201 -0.1197  0.0300  0.7881
 7609SOL     OW34459   3.806   3.373   9.038  0.5207 -0.2912  0.1948
 7609SOL    HW134460   3.734   3.347   9.097  0.4273  1.1997  0.7326
 7609SOL    HW234461   3.841   3.451   9.080  2.1264  0.2253 -2.1348
 7610SOL     OW34462   1.173   2.270  17.135  0.0991 -0.0644 -0.1933
 7610SOL    HW134463   1.130   2.252  17.218  0.9416 -1.2918 -0.0188
 7610SOL    HW234464   1.097   2.301  17.086 -1.6077 -3.7680  0.1416
 7611SOL     OW34465   1.678   2.265   7.066  0.1027 -0.1700  0.1562
 7611SOL    HW134466   1.773   2.275   7.073 -0.1127  0.4336  2.2131
 7611SOL    HW234467   1.652   2.297   7.152  0.6515  2.4238 -0.6366
 7612SOL     OW34468   1.414   1.546   4.258  0.5342 -0.3387  0.0797
 7612SOL    HW134469   1.502   1.579   4.276  0.6618 -0.6397  0.0016
 7612SOL    HW234470   1.355   1.579   4.325 -0.1709 -2.1032  0.3192
 7613SOL     OW34471   3.462   4.385  13.165  0.3570  0.0076 -0.0357
 7613SOL    HW134472   3.488   4.466  13.209  1.5739 -1.1674  1.4105
 7613SOL    HW234473   3.383   4.412  13.118  0.3619  0.8189  0.4108
 7614SOL     OW34474   1.061   1.833   1.778 -0.5965 -0.0840 -0.1374
 7614SOL    HW134475   1.000   1.858   1.708  0.7957 -1.3018 -1.7863
 7614SOL    HW234476   1.002   1.792   1.841 -2.3498  1.1199 -0.9667
 7615SOL     OW34477   3.362   3.056   6.710 -0.5181 -0.5261 -0.0706
 7615SOL    HW134478   3.360   3.142   6.752 -1.7141 -0.3217 -0.5420
 7615SOL    HW234479   3.386   3.005   6.787  0.5263  1.8118  1.1497
 7616SOL     OW34480   3.858   3.681   3.315  0.0064 -0.1694  0.2230
 7616SOL    HW134481   3.869   3.590   3.342 -0.5455 -0.1851  0.3999
 7616SOL    HW234482   3.796   3.704   3.385 -0.6462 -0.4394 -0.2689
 7617SOL     OW34483   4.146   0.951   7.111 -0.0846 -0.0252  0.5643
 7617SOL    HW134484   4.161   1.004   7.189 -0.5175  0.8732  0.0369
 7617SOL    HW234485   4.189   1.008   7.047  0.3684 -1.0122 -0.0208
 7618SOL     OW34486   1.331   4.167   5.854 -0.5217 -0.5689  0.3657
 7618SOL    HW134487   1.278   4.097   5.890 -1.6348  0.4568  0.7050
 7618SOL    HW234488   1.356   4.118   5.776 -4.3698 -0.8284 -0.6927
 7619SOL     OW34489   1.366   0.407   1.029 -0.7618  0.0016  0.0289
 7619SOL    HW134490   1.412   0.478   1.074 -0.2003 -1.9275  2.5104
 7619SOL    HW234491   1.380   0.432   0.938 -0.8052 -0.1521 -0.0192
 7620SOL     OW34492   2.630   0.760   3.517  0.0630  0.2545 -0.0295
 7620SOL    HW134493   2.637   0.855   3.524  0.7769 -0.1307  4.3894
 7620SOL    HW234494   2.686   0.744   3.440 -1.1921  1.6185 -1.2243
 7621SOL     OW34495   0.652   1.235   7.718 -0.1339 -0.3382  0.5964
 7621SOL    HW134496   0.637   1.244   7.813  1.6276  0.0945  0.8274
 7621SOL    HW234497   0.597   1.160   7.696 -0.6776  1.0899 -2.7849
 7622SOL     OW34498   1.310   2.933  14.924  0.7584  0.0557 -0.2792
 7622SOL    HW134499   1.344   3.004  14.869  1.0619  0.5491  0.5572
 7622SOL    HW234500   1.304   2.865  14.856  2.6697  1.2094 -1.6114
 7623SOL     OW34501   1.765   1.553   0.664  0.6988  0.9489  0.0924
 7623SOL    HW134502   1.832   1.602   0.616  1.4001 -0.1926 -0.0911
 7623SOL    HW234503   1.822   1.496   0.716  0.7327  1.8194  1.0197
 7624SOL     OW34504   3.622   2.009  13.167 -0.3149  0.1948 -0.2273
 7624SOL    HW134505   3.648   1.938  13.108 -2.6305  0.7731 -1.9274
 7624SOL    HW234506   3.612   2.079  13.103 -0.4536 -0.2065 -0.6488
 7625SOL     OW34507   3.464   0.861   8.714 -0.2192  0.3282  0.5123
 7625SOL    HW134508   3.402   0.919   8.758 -0.2402  0.2042  0.6446
 7625SOL    HW234509   3.529   0.914   8.667  0.2504  0.4849  1.3369
 7626SOL     OW34510   2.870   4.649   0.267 -0.0009 -0.6443  0.3095
 7626SOL    HW134511   2.815   4.726   0.278 -0.6966 -0.9067 -1.3686
 7626SOL    HW234512   2.802   4.586   0.241 -1.1285  0.4423  0.6125
 7627SOL     OW34513   2.956   3.462  14.281 -0.4914  0.1164  0.0646
 7627SOL    HW134514   2.883   3.459  14.220  2.2152 -1.5959 -3.0497
 7627SOL    HW234515   2.998   3.377  14.265  2.5102  0.9798  3.3284
 7628SOL     OW34516   0.974   2.039  11.587  0.1802 -0.0608 -0.0213
 7628SOL    HW134517   0.969   2.129  11.556  0.5150 -0.1074 -0.2109
 7628SOL    HW234518   0.898   2.013  11.536  1.5844 -2.3520 -0.9529
 7629SOL     OW34519   2.666   0.202   2.466  0.1660  0.0203 -0.0575
 7629SOL    HW134520   2.637   0.243   2.385  1.7953  1.4275  0.0699
 7629SOL    HW234521   2.660   0.273   2.530 -0.4568  0.7289 -0.9183
 7630SOL     OW34522   1.438   4.032  11.158 -0.2050  0.1225 -0.0967
 7630SOL    HW134523   1.388   3.980  11.221  0.7403 -2.2543 -1.3067
 7630SOL    HW234524   1.383   4.110  11.158 -0.5675 -0.1342 -1.0228
 7631SOL     OW34525   0.025   1.877   8.114  0.2896 -0.2268 -0.2776
 7631SOL    HW134526   0.059   1.964   8.093  1.7266 -0.3620  1.5376
 7631SOL    HW234527   4.689   1.905   8.168  0.2662  0.2526 -0.5545
 7632SOL     OW34528   0.246   2.913   1.682 -0.3000 -0.6020 -0.0217
 7632SOL    HW134529   0.182   2.980   1.657  1.7499  1.1062 -0.6459
 7632SOL    HW234530   0.322   2.944   1.633  1.3000 -0.4510  2.5472
 7633SOL     OW34531   2.024   2.016   5.220  0.0238 -0.6618  0.0024
 7633SOL    HW134532   2.103   1.987   5.266  1.0097 -1.7683 -2.3937
 7633SOL    HW234533   1.993   2.085   5.279 -0.7794 -0.6033 -0.4938
 7634SOL     OW34534   1.199   4.137   2.818  0.4590  0.5072 -0.2733
 7634SOL    HW134535   1.271   4.198   2.837  0.3856  0.8949 -1.2421
 7634SOL    HW234536   1.225   4.101   2.733 -0.8239  0.9980 -0.8828
 7635SOL     OW34537   3.387   4.488   2.691 -0.4586  0.0397  0.5664
 7635SOL    HW134538   3.291   4.493   2.696 -0.7929 -5.0511 -0.8916
 7635SOL    HW234539   3.404   4.491   2.597  0.2057 -1.9124  0.6306
 7636SOL     OW34540   0.433   2.722   5.496 -0.3404 -0.0017 -0.0877
 7636SOL    HW134541   0.364   2.739   5.560  0.3799  1.5789  0.2800
 7636SOL    HW234542   0.489   2.664   5.548  0.2138 -0.5005 -1.2530
 7637SOL     OW34543   0.129   2.325   0.961 -0.1964  0.0265 -0.1883
 7637SOL    HW134544   0.101   2.265   1.031 -0.5196 -1.3360 -1.5049
 7637SOL    HW234545   0.166   2.257   0.905  1.9734  1.7412 -0.8458
 7638SOL     OW34546   4.541   1.151  11.164 -0.0846 -1.0397 -0.5379
 7638SOL    HW134547   4.514   1.066  11.198 -0.0532 -0.6596  0.4463
 7638SOL    HW234548   4.618   1.134  11.110 -0.6512 -2.4067 -0.9241
 7639SOL     OW34549   3.177   0.536  12.889  0.1464 -0.3802 -0.7778
 7639SOL    HW134550   3.213   0.547  12.801  1.0971 -0.7978 -0.4418
 7639SOL    HW234551   3.249   0.564  12.945 -2.1122 -0.6740  2.2206
 7640SOL     OW34552   4.684   3.728   4.766 -0.6280 -0.0351  0.1761
 7640SOL    HW134553   4.654   3.785   4.696 -0.1370 -2.2132 -1.7858
 7640SOL    HW234554   0.013   3.678   4.718 -0.5232  0.3440 -0.0653
 7641SOL     OW34555   4.718   0.480  15.120  0.2531 -0.5702 -0.3695
 7641SOL    HW134556   0.020   0.518  15.199  2.7648 -0.5582 -1.6235
 7641SOL    HW234557   4.661   0.414  15.159 -1.0997  0.3965 -0.6780
 7642SOL     OW34558   1.825   3.196   6.140  0.3167 -0.4663  0.5063
 7642SOL    HW134559   1.806   3.114   6.095  0.2750 -0.9364  1.3720
 7642SOL    HW234560   1.738   3.223   6.169 -0.0362 -0.7877 -0.2662
 7643SOL     OW34561   1.775   0.879  16.164 -0.8599 -0.2163  0.2242
 7643SOL    HW134562   1.722   0.927  16.100 -0.0249  2.6748  1.7120
 7643SOL    HW234563   1.736   0.898  16.249 -0.7306 -0.5254  0.3528
 7644SOL     OW34564   1.559   1.056   0.325 -0.3578 -0.2176 -0.0530
 7644SOL    HW134565   1.607   1.126   0.369 -3.5290  1.1771  1.1744
 7644SOL    HW234566   1.589   1.068   0.235 -1.4983 -0.0918 -0.4059
 7645SOL     OW34567   2.920   2.437  16.944 -0.0406  0.2816 -0.4941
 7645SOL    HW134568   2.993   2.416  17.002  0.0495 -0.1872 -0.7807
 7645SOL    HW234569   2.885   2.350  16.927 -1.5201  1.0281 -1.3310
 7646SOL     OW34570   2.666   1.714   5.700  0.3979  0.3518  0.0755
 7646SOL    HW134571   2.610   1.744   5.630 -1.1440  1.3287  1.7336
 7646SOL    HW234572   2.597   1.707   5.765  1.1646 -1.2257  0.7471
 7647SOL     OW34573   0.149   3.065   5.467 -0.9208  0.4401  0.2661
 7647SOL    HW134574   0.134   3.101   5.555 -2.3104  2.0292 -0.6173
 7647SOL    HW234575   0.235   3.104   5.457 -0.8705  0.9240  2.5258
 7648SOL     OW34576   0.627   0.592   3.532  0.1426 -0.4014  0.1385
 7648SOL    HW134577   0.704   0.553   3.490  0.1131 -0.1592 -0.1421
 7648SOL    HW234578   0.552   0.544   3.497 -0.6121  1.5334 -0.9202
 7649SOL     OW34579   0.961   0.122   3.687  0.1622  0.3249  0.3846
 7649SOL    HW134580   0.970   0.063   3.612 -1.9546 -1.7861  1.7639
 7649SOL    HW234581   0.919   0.200   3.652  1.4517  0.9314  0.1984
 7650SOL     OW34582   4.667   1.418   4.733 -0.2801 -0.0303 -0.4244
 7650SOL    HW134583   4.675   1.510   4.758  1.0357  0.0779 -1.2638
 7650SOL    HW234584   4.708   1.426   4.647 -0.1976  1.6488 -0.2410
 7651SOL     OW34585   3.102   3.953   2.276 -0.7837  0.4249 -0.2867
 7651SOL    HW134586   3.122   3.927   2.366  2.2923  0.6450 -0.9081
 7651SOL    HW234587   3.175   3.918   2.224  0.2988 -1.1688  2.3140
 7652SOL     OW34588   0.842   4.222   5.625  0.0369  0.5474  0.5099
 7652SOL    HW134589   0.873   4.309   5.599 -1.6505  0.8786 -0.3998
 7652SOL    HW234590   0.916   4.162   5.615  0.3150  1.0628 -0.5008
 7653SOL     OW34591   3.316   1.917   9.134  0.5829  0.7385  0.0718
 7653SOL    HW134592   3.279   1.829   9.144  2.1570  0.2633  1.6091
 7653SOL    HW234593   3.402   1.894   9.166 -0.0095 -1.3588  0.1500
 7654SOL     OW34594   2.812   3.796   0.905  0.1376  0.0317 -0.0269
 7654SOL    HW134595   2.900   3.760   0.912  0.2666 -0.0045 -1.9391
 7654SOL    HW234596   2.794   3.794   0.999 -1.5833 -1.6205 -0.3911
 7655SOL     OW34597   1.391   0.502   0.107  0.2509 -0.2673  0.0326
 7655SOL    HW134598   1.467   0.521   0.052 -0.2941 -0.4189 -0.7738
 7655SOL    HW234599   1.437   0.502   0.191 -1.9588  1.0099  1.2370
 7656SOL     OW34600   2.306   2.005   9.072 -0.2964  0.7694 -0.7440
 7656SOL    HW134601   2.216   2.017   9.041 -1.1332 -1.3404  0.9285
 7656SOL    HW234602   2.358   1.996   8.992  1.2070 -1.1349  0.4422
 7657SOL     OW34603   1.728   2.757   6.227  0.1666 -0.1277  0.5274
 7657SOL    HW134604   1.783   2.720   6.296 -1.2422  2.2583  2.9535
 7657SOL    HW234605   1.712   2.680   6.173  2.7921 -0.5784  0.3819
 7658SOL     OW34606   2.168   1.899   9.983 -0.2820 -0.2153  0.2021
 7658SOL    HW134607   2.215   1.853   9.914  0.4976  3.5618 -1.7675
 7658SOL    HW234608   2.233   1.953  10.028  0.3595 -0.8154 -0.0026
 7659SOL     OW34609   1.857   0.416  12.929  0.4807  0.4423  0.1654
 7659SOL    HW134610   1.825   0.335  12.890  0.6357  0.9363 -0.9864
 7659SOL    HW234611   1.789   0.470  12.890  1.7348  1.1893 -1.0006
 7660SOL     OW34612   1.136   4.695   6.413  0.0571  0.3594 -0.2514
 7660SOL    HW134613   1.137   4.674   6.506 -1.1740 -0.3853 -0.4038
 7660SOL    HW234614   1.141   4.617   6.358 -0.7826  0.3491 -0.3171
 7661SOL     OW34615   0.350   3.656   2.835 -0.1758  0.0509 -0.0543
 7661SOL    HW134616   0.302   3.702   2.766  0.3940 -0.9075 -1.0770
 7661SOL    HW234617   0.429   3.645   2.782  0.1195  1.2764  0.1083
 7662SOL     OW34618   2.061   2.191   0.680 -0.0598  0.1486 -0.0405
 7662SOL    HW134619   2.030   2.156   0.597  0.7480 -1.7594  0.4611
 7662SOL    HW234620   2.028   2.280   0.686 -0.9480 -0.2046  0.2383
 7663SOL     OW34621   0.414   1.174   5.139 -0.2551 -0.4707 -0.6672
 7663SOL    HW134622   0.362   1.248   5.173  2.5570  0.8172  0.8053
 7663SOL    HW234623   0.406   1.116   5.215 -3.9490  0.1694 -0.5688
 7664SOL     OW34624   4.077   3.439   3.317 -0.4007 -0.9252  0.2606
 7664SOL    HW134625   4.166   3.430   3.351 -0.2166 -1.3050 -0.3295
 7664SOL    HW234626   4.041   3.488   3.391 -0.3387  0.8353 -0.8735
 7665SOL     OW34627   4.607   2.821   2.990 -0.1627 -0.3625 -0.2370
 7665SOL    HW134628   4.678   2.876   3.023 -0.5693 -0.7295  1.2517
 7665SOL    HW234629   4.606   2.751   3.055  1.2064 -0.2141 -0.0704
 7666SOL     OW34630   0.939   0.696   3.949  0.1467  0.0219 -0.0223
 7666SOL    HW134631   0.867   0.734   3.898  0.6437 -0.7069 -1.2676
 7666SOL    HW234632   0.897   0.619   3.988  1.0475  0.0753  1.0530
 7667SOL     OW34633   0.577   3.107  11.005  0.0171  0.0831  0.4659
 7667SOL    HW134634   0.509   3.111  10.938  1.4944 -1.3163 -1.1117
 7667SOL    HW234635   0.534   3.155  11.076  2.2814  2.9309 -0.0707
 7668SOL     OW34636   1.324   2.435   3.495 -0.3632  0.1649  0.5109
 7668SOL    HW134637   1.229   2.450   3.492 -0.2875  0.4129 -0.6502
 7668SOL    HW234638   1.339   2.393   3.410 -1.6756 -0.7853  0.7383
 7669SOL     OW34639   1.248   0.394   2.238  0.1800  0.2651  0.5050
 7669SOL    HW134640   1.242   0.486   2.211  2.0068  0.7445  1.7473
 7669SOL    HW234641   1.180   0.353   2.184  2.0937 -0.0523 -1.6645
 7670SOL     OW34642   1.656   4.216   7.870 -0.8877  0.1204  0.1149
 7670SOL    HW134643   1.741   4.259   7.882 -0.8885  0.0244  0.4580
 7670SOL    HW234644   1.612   4.252   7.947 -4.0555 -1.2787 -1.0238
 7671SOL     OW34645   0.982   3.423   2.693 -0.0471 -0.0914  0.6007
 7671SOL    HW134646   0.954   3.509   2.725 -0.8511 -0.9981  2.3110
 7671SOL    HW234647   1.072   3.444   2.669  0.1949 -1.0973  0.6235
 7672SOL     OW34648   1.373   0.917  14.035  0.4517  0.3490  0.2009
 7672SOL    HW134649   1.408   0.831  14.009 -1.4931 -0.4188  0.1279
 7672SOL    HW234650   1.372   0.969  13.955  1.3765 -1.1893 -0.8171
 7673SOL     OW34651   1.559   3.828   2.643  0.2401 -0.1008 -0.5375
 7673SOL    HW134652   1.582   3.920   2.632  1.0664 -0.1645  0.6267
 7673SOL    HW234653   1.509   3.836   2.725 -2.0992  1.1494 -2.1101
 7674SOL     OW34654   0.730   1.108   7.439 -0.0937 -0.1421 -0.0411
 7674SOL    HW134655   0.812   1.095   7.488  0.1808  0.7797 -0.2575
 7674SOL    HW234656   0.675   1.141   7.510  1.5103 -1.0709  1.6556
 7675SOL     OW34657   2.807   4.553   6.688  0.2794  0.0984 -0.4477
 7675SOL    HW134658   2.745   4.597   6.747  0.6830 -1.0708  0.8691
 7675SOL    HW234659   2.882   4.603   6.720 -2.9447  3.8007  1.3719
 7676SOL     OW34660   3.877   1.918   4.962 -0.1185 -0.8331  0.4422
 7676SOL    HW134661   3.956   1.916   5.017 -0.7560 -0.3833  1.3719
 7676SOL    HW234662   3.915   1.892   4.878 -2.0187 -3.3570  0.3765
 7677SOL     OW34663   1.708   4.375   7.472 -0.1116  0.5265  0.0183
 7677SOL    HW134664   1.650   4.409   7.404 -0.0821  1.0131  0.2347
 7677SOL    HW234665   1.786   4.362   7.418 -0.3923  0.5343 -0.3845
 7678SOL     OW34666   4.577   4.732  11.394  0.5876 -0.0420 -0.6709
 7678SOL    HW134667   4.535   4.735  11.307 -1.3698 -0.9583  0.2345
 7678SOL    HW234668   4.617   0.080  11.409  1.4903 -0.5486 -0.2211
 7679SOL     OW34669   2.410   4.066   7.050 -0.0979  0.1760  0.4557
 7679SOL    HW134670   2.337   4.126   7.065 -1.7571 -1.5110 -0.8065
 7679SOL    HW234671   2.363   4.024   6.978 -1.1203  1.3354  0.4494
 7680SOL     OW34672   3.826   0.672   7.757 -0.4491  0.0782  0.0409
 7680SOL    HW134673   3.845   0.711   7.843 -3.9931  0.4912  0.6153
 7680SOL    HW234674   3.917   0.649   7.737 -0.5641  0.2583 -0.6683
 7681SOL     OW34675   4.217   3.641   5.009 -0.1503  0.3194 -0.0947
 7681SOL    HW134676   4.180   3.557   5.034 -0.4099  0.3993 -0.2044
 7681SOL    HW234677   4.310   3.617   5.009 -0.3967 -0.6180 -1.2664
 7682SOL     OW34678   2.630   4.507   5.477  0.5124  0.3304 -0.7358
 7682SOL    HW134679   2.578   4.580   5.442  1.1567  1.0772 -0.1500
 7682SOL    HW234680   2.662   4.547   5.558 -0.6564 -1.5905  0.6666
 7683SOL     OW34681   1.343   4.111   6.966  0.2385 -0.1744 -0.0548
 7683SOL    HW134682   1.428   4.098   6.925 -0.7576  1.6313 -2.7094
 7683SOL    HW234683   1.283   4.084   6.897 -1.1208  0.9534  0.6888
 7684SOL     OW34684   1.127   2.834  10.677  0.4970  0.2670 -0.1187
 7684SOL    HW134685   1.116   2.929  10.677  0.2507  0.2377 -0.2163
 7684SOL    HW234686   1.045   2.804  10.716  2.2706 -0.4783  3.0266
 7685SOL     OW34687   0.970   0.086   8.000 -0.1909  0.4939 -0.3921
 7685SOL    HW134688   0.998   4.735   7.973  0.9330  0.7160  0.0730
 7685SOL    HW234689   0.922   0.116   7.923  1.0819 -0.2941 -1.4948
 7686SOL     OW34690   2.773   1.564   3.872 -0.6302 -0.2882 -0.7363
 7686SOL    HW134691   2.827   1.553   3.794 -2.1637 -0.9350 -1.7150
 7686SOL    HW234692   2.707   1.495   3.865 -0.3620 -0.5320 -0.8666
 7687SOL     OW34693   3.240   0.697   1.455 -0.4450  0.2379  0.1571
 7687SOL    HW134694   3.319   0.747   1.434  0.8387 -3.0497 -2.8975
 7687SOL    HW234695   3.284   0.618   1.489 -0.5399 -0.0587 -0.4140
 7688SOL     OW34696   1.545   2.592  13.797  1.0073 -0.1982  0.5088
 7688SOL    HW134697   1.545   2.500  13.769 -1.9524  0.0893 -0.4707
 7688SOL    HW234698   1.545   2.635  13.711  0.8441 -1.7757 -0.2940
 7689SOL     OW34699   4.164   0.284  16.927 -0.4952  0.2490  0.0938
 7689SOL    HW134700   4.232   0.260  16.990  0.7641  2.7072 -0.3106
 7689SOL    HW234701   4.206   0.278  16.842 -0.6715  2.1063 -0.1282
 7690SOL     OW34702   3.327   4.324  16.197 -0.2047 -0.0381 -0.0814
 7690SOL    HW134703   3.298   4.409  16.232 -0.1289 -0.1369  0.2208
 7690SOL    HW234704   3.392   4.293  16.260 -0.5756 -1.9496 -0.6581
 7691SOL     OW34705   2.265   1.148   7.659  0.3954  0.1252  0.4353
 7691SOL    HW134706   2.238   1.156   7.567 -0.7560  0.9954  0.8576
 7691SOL    HW234707   2.269   1.054   7.674  0.1549 -0.0340 -0.4750
 7692SOL     OW34708   2.570   3.428  11.683 -0.5371  0.0719  0.0821
 7692SOL    HW134709   2.617   3.426  11.766  0.8266  0.6914 -0.6756
 7692SOL    HW234710   2.608   3.356  11.632 -0.7293 -1.3158  1.8977
 7693SOL     OW34711   1.544   1.049  13.490  0.2421  0.4236  0.0636
 7693SOL    HW134712   1.592   1.103  13.428 -0.0902  1.1023  0.4036
 7693SOL    HW234713   1.601   1.046  13.567 -0.7572  0.8002  0.8178
 7694SOL     OW34714   3.037   3.863  17.632 -0.2821  0.5150 -0.0790
 7694SOL    HW134715   2.984   3.934  17.597 -0.3705  1.6634  2.4045
 7694SOL    HW234716   3.037   3.797  17.563  1.0210  0.1962  0.2289
 7695SOL     OW34717   2.805   4.720   4.282 -0.1598 -0.2653 -0.9371
 7695SOL    HW134718   2.795   4.637   4.235 -1.4007 -0.0762 -1.0077
 7695SOL    HW234719   2.756   4.702   4.363 -0.2000 -1.4584 -1.2241
 7696SOL     OW34720   3.462   1.395   4.219  0.1872 -0.0438 -0.1620
 7696SOL    HW134721   3.422   1.479   4.243  0.6102  0.0026  0.3877
 7696SOL    HW234722   3.520   1.378   4.293  0.1321 -2.6133 -0.7013
 7697SOL     OW34723   4.729   2.522   5.556 -0.4745  0.1089 -0.0239
 7697SOL    HW134724   4.636   2.502   5.566  0.1168 -2.2139  1.0128
 7697SOL    HW234725   4.735   2.546   5.464  2.3338 -0.7536 -0.0732
 7698SOL     OW34726   4.268   2.764   0.674  0.0665 -0.8951 -0.6281
 7698SOL    HW134727   4.243   2.693   0.615 -2.0084 -2.6943  2.3923
 7698SOL    HW234728   4.253   2.725   0.760  0.0500 -0.0215 -0.2340
 7699SOL     OW34729   2.657   2.761  15.465 -0.0342  0.4795  0.3207
 7699SOL    HW134730   2.591   2.820  15.502  0.4022  0.6280  0.8482
 7699SOL    HW234731   2.732   2.817  15.482  0.8498 -0.6386  0.1413
 7700SOL     OW34732   0.391   1.244   4.659 -0.0913  0.0574  0.7231
 7700SOL    HW134733   0.378   1.172   4.597  0.8829 -0.0142  0.6157
 7700SOL    HW234734   0.373   1.201   4.742  1.6298 -0.4497  0.8250
 7701SOL     OW34735   3.875   0.680   7.456 -0.0613  0.3096 -0.5568
 7701SOL    HW134736   3.860   0.678   7.550 -4.1473  1.9234 -1.1806
 7701SOL    HW234737   3.948   0.620   7.447 -0.8728 -0.7828  0.1849
 7702SOL     OW34738   2.536   1.741   0.081  0.1974  0.0057  0.1769
 7702SOL    HW134739   2.551   1.740   0.176  2.7677  0.8659 -0.2281
 7702SOL    HW234740   2.596   1.809   0.050 -0.4938 -1.4428 -4.2449
 7703SOL     OW34741   3.893   0.625   2.754  0.0543  0.1791 -0.1468
 7703SOL    HW134742   3.904   0.675   2.673  0.7891  0.1998 -0.0347
 7703SOL    HW234743   3.804   0.591   2.753 -0.1481  0.7307 -0.3870
 7704SOL     OW34744   2.989   3.738   6.476  0.5575 -0.0721  0.6751
 7704SOL    HW134745   3.048   3.804   6.514  0.9809  0.8316 -1.5556
 7704SOL    HW234746   3.054   3.682   6.434  1.4183  1.4237  0.0163
 7705SOL     OW34747   2.513   2.564  14.293  0.5009 -0.0707 -0.0435
 7705SOL    HW134748   2.491   2.610  14.212 -0.7065  0.5762  0.6570
 7705SOL    HW234749   2.506   2.472  14.268 -0.7365  0.2739 -0.9726
 7706SOL     OW34750   1.411   1.721  12.939 -0.0981 -0.1283 -0.1133
 7706SOL    HW134751   1.392   1.680  12.855  0.8863 -0.4434 -0.1774
 7706SOL    HW234752   1.454   1.644  12.977 -0.0820 -0.4463 -0.7672
 7707SOL     OW34753   0.063   4.428   8.210 -0.1389  0.6726 -0.1312
 7707SOL    HW134754   4.713   4.456   8.183 -0.7262 -1.4136 -0.3242
 7707SOL    HW234755   0.051   4.425   8.305 -0.4564  0.2401 -0.1880
 7708SOL     OW34756   3.941   1.792  12.095  0.1409  0.5477 -0.8869
 7708SOL    HW134757   3.993   1.781  12.015  1.2288  1.3224 -0.2826
 7708SOL    HW234758   3.957   1.709  12.139 -1.5022  0.1845 -0.9872
 7709SOL     OW34759   1.045   3.617   5.486  0.3762  0.5471  0.2632
 7709SOL    HW134760   1.020   3.682   5.420  0.4778 -1.0404 -1.3236
 7709SOL    HW234761   0.962   3.579   5.516  0.4386  0.2643  0.0715
 7710SOL     OW34762   4.482   1.719  17.475  0.4141 -0.2734 -0.0332
 7710SOL    HW134763   4.474   1.788  17.541  0.2037 -1.7399  1.4811
 7710SOL    HW234764   4.389   1.708  17.455  0.1929 -1.7062  1.7062
 7711SOL     OW34765   0.378   0.400   4.330 -0.0639 -0.4721 -0.6755
 7711SOL    HW134766   0.316   0.472   4.342  1.1495  0.7417 -1.7102
 7711SOL    HW234767   0.451   0.438   4.378 -0.9295 -1.2459  1.2749
 7712SOL     OW34768   0.044   3.770  16.808  0.0612  0.7130 -0.2533
 7712SOL    HW134769   0.056   3.862  16.786 -0.5944  0.9880  0.5543
 7712SOL    HW234770   0.077   3.748  16.721  0.6906 -0.7353  0.3436
 7713SOL     OW34771   1.037   2.247   6.817 -0.6451  0.2570 -0.2208
 7713SOL    HW134772   1.025   2.162   6.860  2.8542 -0.7629 -1.2199
 7713SOL    HW234773   1.116   2.215   6.772  0.7965  0.0079  2.4599
 7714SOL     OW34774   0.211   3.486   3.736 -0.3600  0.5150  0.1586
 7714SOL    HW134775   0.185   3.396   3.752 -0.1296  0.5390  0.6724
 7714SOL    HW234776   0.194   3.521   3.824  0.4676 -0.3940  0.6756
 7715SOL     OW34777   4.381   2.423   4.732  0.2192 -0.1075  0.9172
 7715SOL    HW134778   4.291   2.413   4.701  0.8503 -2.2579 -0.1886
 7715SOL    HW234779   4.436   2.394   4.659 -0.9275 -1.9796  0.8124
 7716SOL     OW34780   1.073   0.586   0.546  0.1937  0.0062 -0.4918
 7716SOL    HW134781   1.127   0.507   0.535 -0.8890 -0.6270 -1.1747
 7716SOL    HW234782   1.133   0.647   0.504  0.3398  1.8672  2.3708
 7717SOL     OW34783   1.870   2.273   8.599 -0.9856  0.3646  0.0609
 7717SOL    HW134784   1.807   2.257   8.669 -1.0287  2.3714  0.4723
 7717SOL    HW234785   1.945   2.235   8.645 -1.3056 -0.1738  0.1359
 7718SOL     OW34786   0.901   4.685   8.610  0.4160  0.5357 -0.4989
 7718SOL    HW134787   0.982   4.717   8.648  0.2144  1.2260 -0.6521
 7718SOL    HW234788   0.898   4.602   8.659 -1.9315  1.6006  1.2149
 7719SOL     OW34789   3.816   3.485   5.233  0.1727  0.1969  0.0571
 7719SOL    HW134790   3.768   3.511   5.312  0.4931  1.1364 -0.0597
 7719SOL    HW234791   3.830   3.571   5.195  0.1666  0.6671  1.1150
 7720SOL     OW34792   1.758   2.904  17.194  0.1873 -0.6847 -0.3372
 7720SOL    HW134793   1.721   2.955  17.265  3.2421 -0.6777  1.2265
 7720SOL    HW234794   1.849   2.927  17.208 -0.1884  1.3026 -1.1971
 7721SOL     OW34795   4.248   0.345   6.979  0.3161 -0.3102 -0.3267
 7721SOL    HW134796   4.152   0.344   6.977  0.3184  1.1351 -1.0419
 7721SOL    HW234797   4.269   0.363   6.888 -0.9924  0.1265 -0.5431
 7722SOL     OW34798   4.353   0.632   7.037 -0.3116 -0.4060 -0.4067
 7722SOL    HW134799   4.362   0.553   6.984  2.3754 -0.2153 -0.2758
 7722SOL    HW234800   4.273   0.604   7.082  1.5335 -1.5609  2.1855
 7723SOL     OW34801   4.641   2.151   7.388  0.1388 -0.4329  0.2737
 7723SOL    HW134802   4.589   2.217   7.433  2.7193  2.0522 -0.4498
 7723SOL    HW234803   4.583   2.076   7.370  0.5872 -0.3310 -1.6761
 7724SOL     OW34804   3.483   2.946   5.851 -0.3627  0.2837  0.4662
 7724SOL    HW134805   3.543   2.951   5.926 -1.3082 -2.8012  1.4412
 7724SOL    HW234806   3.402   2.943   5.901  2.0447 -2.0325  4.2271
 7725SOL     OW34807   3.011   0.323   6.510 -0.1997  0.1456 -0.3356
 7725SOL    HW134808   3.040   0.312   6.601  0.0740 -0.1781 -0.4635
 7725SOL    HW234809   2.917   0.322   6.528 -0.1256  0.0323  0.0522
 7726SOL     OW34810   1.868   0.373   5.597 -0.0189  0.0664 -0.4722
 7726SOL    HW134811   1.800   0.375   5.664  2.4138 -1.9929  2.0408
 7726SOL    HW234812   1.945   0.388   5.651 -0.1644 -0.3926 -0.1458
 7727SOL     OW34813   2.177   4.094   9.391  0.1651  0.0719 -0.1363
 7727SOL    HW134814   2.169   4.117   9.484  0.5880 -0.2777 -0.0147
 7727SOL    HW234815   2.252   4.036   9.382 -0.9739 -1.0616 -2.2302
 7728SOL     OW34816   0.972   0.905   2.423 -0.0698 -0.0254 -0.0647
 7728SOL    HW134817   0.980   0.993   2.385  2.2595  0.2623  1.0749
 7728SOL    HW234818   1.059   0.887   2.459  0.3936 -0.2495 -1.3025
 7729SOL     OW34819   1.533   0.071  11.616  0.0827 -0.2146  0.4668
 7729SOL    HW134820   1.522   0.029  11.531 -0.8333  1.5666 -0.2837
 7729SOL    HW234821   1.483   0.005  11.664  0.0402 -0.4586  0.0906
 7730SOL     OW34822   4.052   1.406  13.941 -0.0722 -0.2590  0.2149
 7730SOL    HW134823   4.121   1.371  13.997  0.7034  1.0704  0.0844
 7730SOL    HW234824   4.063   1.500  13.956 -0.6956  0.4289 -3.6194
 7731SOL     OW34825   0.242   3.692   7.886 -0.3938  1.0279 -0.2803
 7731SOL    HW134826   0.226   3.689   7.792  0.5628 -0.5319 -0.3811
 7731SOL    HW234827   0.325   3.739   7.884  0.6960 -0.8923  0.3965
 7732SOL     OW34828   0.010   1.732   8.534 -0.2480  0.2682  0.2970
 7732SOL    HW134829   0.081   1.672   8.556  0.4562  0.1375 -2.2680
 7732SOL    HW234830   4.673   1.673   8.520 -0.5880  1.0025 -1.0753
 7733SOL     OW34831   1.217   2.305   5.705  0.3762 -0.7197  0.3335
 7733SOL    HW134832   1.136   2.259   5.730 -1.6874  2.3085 -0.7496
 7733SOL    HW234833   1.270   2.276   5.780  1.6419  0.7338 -0.0075
 7734SOL     OW34834   2.589   2.015   8.321 -0.5655  0.0699  0.6376
 7734SOL    HW134835   2.591   1.919   8.327 -0.0414 -0.0930 -2.0425
 7734SOL    HW234836   2.607   2.039   8.412  0.8718 -1.0177  0.6494
 7735SOL     OW34837   1.251   0.648   8.302 -0.3349  0.1563  0.4678
 7735SOL    HW134838   1.330   0.683   8.342  0.8697 -0.3533 -1.4534
 7735SOL    HW234839   1.186   0.717   8.320  0.2441  0.6300  0.7419
 7736SOL     OW34840   3.423   4.525   4.429  0.2709 -0.0902  0.2217
 7736SOL    HW134841   3.379   4.439   4.434 -2.4860  1.4034  1.6232
 7736SOL    HW234842   3.485   4.526   4.357  1.2765 -0.3822  1.0895
 7737SOL     OW34843   2.048   1.007   7.208 -0.1277 -0.5732 -0.0579
 7737SOL    HW134844   2.087   1.012   7.120  0.7758 -0.6695  0.3291
 7737SOL    HW234845   1.987   1.080   7.205 -0.5227 -0.8418  1.3864
 7738SOL     OW34846   2.097   1.260   1.054 -0.4937  0.5222  0.5088
 7738SOL    HW134847   2.186   1.226   1.048 -1.3818 -1.4202 -1.2896
 7738SOL    HW234848   2.055   1.190   1.104  3.5242 -2.2943 -0.0420
 7739SOL     OW34849   2.207   4.077   8.133  0.0152 -0.0997  0.1965
 7739SOL    HW134850   2.255   4.097   8.053 -0.8101  0.8205 -0.0731
 7739SOL    HW234851   2.285   4.071   8.189  0.7253 -1.6568 -0.9733
 7740SOL     OW34852   1.297   0.089   4.973  0.3977 -0.2851  0.3505
 7740SOL    HW134853   1.313   4.731   4.979 -1.1908 -0.6446 -1.2209
 7740SOL    HW234854   1.388   0.113   4.990  0.0054  1.9369 -0.8214
 7741SOL     OW34855   2.115   0.097  13.881  0.2254  0.1629 -0.0338
 7741SOL    HW134856   2.088   0.016  13.924  1.8699 -0.6336 -0.5085
 7741SOL    HW234857   2.080   0.085  13.792  0.1033 -2.5046  0.3765
 7742SOL     OW34858   1.736   4.244   3.913 -0.1737  0.2576  0.3081
 7742SOL    HW134859   1.703   4.324   3.954  0.8870  1.2456 -0.7991
 7742SOL    HW234860   1.792   4.211   3.984  0.0711  1.4532  0.6582
 7743SOL     OW34861   2.190   4.490   9.019 -0.1446 -0.0256  0.6202
 7743SOL    HW134862   2.277   4.505   9.056  0.3980 -0.9997 -0.2605
 7743SOL    HW234863   2.180   4.560   8.954  3.2215  0.5322  0.7013
 7744SOL     OW34864   3.972   2.458   6.435  0.5391  0.4628 -0.2339
 7744SOL    HW134865   3.892   2.436   6.388 -0.2444  2.3164  0.2166
 7744SOL    HW234866   3.930   2.516   6.498 -0.8522 -0.4799 -0.2919
 7745SOL     OW34867   4.734   2.631  12.745  0.6200  0.1094  0.0980
 7745SOL    HW134868   4.648   2.658  12.778  1.7127  1.3843  1.8645
 7745SOL    HW234869   0.054   2.681  12.803 -0.2926  0.7005  0.4805
 7746SOL     OW34870   2.743   4.275   4.480  0.5794 -0.0517  0.5905
 7746SOL    HW134871   2.835   4.266   4.453  0.6690  0.3898  0.7577
 7746SOL    HW234872   2.699   4.205   4.432  0.0727  0.9082 -0.3222
 7747SOL     OW34873   1.866   4.557   6.838  0.1953  0.3540 -0.0990
 7747SOL    HW134874   1.867   4.570   6.743  0.9746  1.1929  0.0182
 7747SOL    HW234875   1.783   4.511   6.848  1.5204 -1.8846  0.9021
 7748SOL     OW34876   3.536   3.568   9.523  0.2976 -0.0084  0.0215
 7748SOL    HW134877   3.531   3.479   9.487  1.2888 -0.6134  1.3901
 7748SOL    HW234878   3.631   3.570   9.528  0.2539  1.0675  0.2662
 7749SOL     OW34879   3.930   1.068   4.607 -0.0731  0.3227 -0.1168
 7749SOL    HW134880   3.998   1.032   4.550 -0.2744 -0.3390  0.0671
 7749SOL    HW234881   3.980   1.105   4.681  0.4663  1.0077 -0.8194
 7750SOL     OW34882   1.862   4.717   0.764 -0.5901  0.3687  0.0779
 7750SOL    HW134883   1.879   4.659   0.838  0.4400  0.5403 -0.0295
 7750SOL    HW234884   1.778   4.676   0.743 -1.6026  2.4086  0.1720
 7751SOL     OW34885   2.151   3.304   5.059 -0.5026 -0.2809 -0.3334
 7751SOL    HW134886   2.101   3.381   5.034 -1.7369 -0.4373  1.6758
 7751SOL    HW234887   2.198   3.299   4.975 -1.6239 -2.3130 -0.8548
 7752SOL     OW34888   1.568   4.500   4.433  0.5978 -0.0692 -0.1152
 7752SOL    HW134889   1.664   4.496   4.426  0.7072 -0.1213  1.2740
 7752SOL    HW234890   1.550   4.582   4.389  1.6713 -1.5202 -3.2350
 7753SOL     OW34891   2.535   2.157  12.501  0.1778  0.2733  0.2866
 7753SOL    HW134892   2.498   2.203  12.426 -0.1250  0.2704  0.4365
 7753SOL    HW234893   2.545   2.071  12.460 -2.9266 -0.3326  0.8029
 7754SOL     OW34894   4.086   2.934   9.737  0.3928 -0.2436  0.4004
 7754SOL    HW134895   4.066   2.995   9.666  0.7111 -2.3574 -1.5468
 7754SOL    HW234896   4.165   2.977   9.769  1.2148 -0.8645 -0.7693
 7755SOL     OW34897   4.400   2.872   9.184 -0.0723 -0.4130 -0.5752
 7755SOL    HW134898   4.392   2.815   9.260  1.1891  0.3353  0.1107
 7755SOL    HW234899   4.314   2.859   9.142  0.1076 -0.4496 -0.9339
 7756SOL     OW34900   2.385   0.920   5.475  0.1106  0.1403  0.3372
 7756SOL    HW134901   2.463   0.926   5.531 -1.8655 -1.3349  3.2535
 7756SOL    HW234902   2.402   0.853   5.409  1.3105  1.4906 -0.7091
 7757SOL     OW34903   0.224   2.873   5.113  0.5424 -0.1906 -0.2873
 7757SOL    HW134904   0.304   2.899   5.158 -0.0514 -1.1799  1.3457
 7757SOL    HW234905   0.240   2.780   5.096 -0.9693 -0.3154 -1.0202
 7758SOL     OW34906   3.680   3.194  16.705 -0.4035 -0.2838 -0.3921
 7758SOL    HW134907   3.663   3.190  16.799 -2.2664  1.2440 -0.6707
 7758SOL    HW234908   3.766   3.237  16.704 -1.0757  1.0439 -0.7827
 7759SOL     OW34909   1.454   4.478   0.624  0.1628 -0.0816  0.1511
 7759SOL    HW134910   1.362   4.451   0.633  0.2667  0.4058  2.6016
 7759SOL    HW234911   1.465   4.465   0.529  0.3670  1.5715 -0.0567
 7760SOL     OW34912   3.484   3.998   4.105 -0.4547 -0.5487 -0.7528
 7760SOL    HW134913   3.415   3.980   4.170  1.4449 -1.7937  0.9419
 7760SOL    HW234914   3.432   4.064   4.060 -0.3318  0.4150  0.5120
 7761SOL     OW34915   3.619   0.537   9.008  0.1584  0.2665  0.4044
 7761SOL    HW134916   3.645   0.622   9.043  0.3643  0.2222  0.3579
 7761SOL    HW234917   3.601   0.486   9.087 -1.2888  0.2643  0.0734
 7762SOL     OW34918   1.438   0.769   8.467 -0.1426  0.7790  0.5884
 7762SOL    HW134919   1.469   0.857   8.490  1.8034 -0.3248  2.1784
 7762SOL    HW234920   1.519   0.727   8.493 -0.4437  0.0395  0.3293
 7763SOL     OW34921   4.578   0.555   2.302 -0.4066 -0.3455 -0.2232
 7763SOL    HW134922   4.499   0.593   2.262 -1.6482 -2.6971  0.0114
 7763SOL    HW234923   4.565   0.580   2.393 -0.0516 -1.2904  0.0837
 7764SOL     OW34924   2.272   0.006   4.678  0.3908 -0.2627 -0.0165
 7764SOL    HW134925   2.234   4.672   4.729  1.1440  0.7389  1.9206
 7764SOL    HW234926   2.297   4.694   4.600 -0.2274  0.1178 -0.4537
 7765SOL     OW34927   3.997   0.175  16.633 -0.1974 -0.7773  0.0861
 7765SOL    HW134928   3.978   0.127  16.552 -1.0848  1.3186 -0.9519
 7765SOL    HW234929   3.991   0.265  16.600 -2.4030 -0.2482  2.0066
 7766SOL     OW34930   2.132   3.801   6.994 -0.3569  0.2846  0.1355
 7766SOL    HW134931   2.052   3.835   7.034 -0.3008 -0.4900  0.8888
 7766SOL    HW234932   2.173   3.884   6.969 -2.3107  1.1244 -0.2544
 7767SOL     OW34933   1.262   4.301   6.109 -0.3519 -0.0858  0.2734
 7767SOL    HW134934   1.291   4.275   6.021  1.1279 -1.3185  1.1005
 7767SOL    HW234935   1.192   4.237   6.121 -1.9331  1.6294  0.1585
 7768SOL     OW34936   1.724   3.749   5.378  0.7246  0.1083  0.2595
 7768SOL    HW134937   1.632   3.723   5.371  0.9259 -0.1845 -1.3805
 7768SOL    HW234938   1.727   3.836   5.337  0.0678  0.7084  1.4969
 7769SOL     OW34939   1.878   3.756   9.663  0.3621  0.3003  0.7625
 7769SOL    HW134940   1.932   3.679   9.644  1.8797  1.5049  0.0978
 7769SOL    HW234941   1.889   3.762   9.758 -2.6204 -0.7545  1.1569
 7770SOL     OW34942   1.764   4.255  13.166  0.5028  0.3607  0.8802
 7770SOL    HW134943   1.677   4.295  13.157 -0.3386 -1.9774 -1.3264
 7770SOL    HW234944   1.778   4.263  13.260 -0.4744  0.4787  1.0197
 7771SOL     OW34945   0.214   2.407   2.170  0.0928 -0.6204 -0.2091
 7771SOL    HW134946   0.135   2.390   2.222 -1.4788  1.3548 -1.9486
 7771SOL    HW234947   0.272   2.336   2.197 -2.6352 -0.7409  5.2483
 7772SOL     OW34948   4.266   0.015   5.538  0.0520 -0.6907  0.1238
 7772SOL    HW134949   4.201   4.682   5.536 -1.9808  1.0868  2.3349
 7772SOL    HW234950   4.304   4.737   5.452  0.3532  1.0680 -0.0595
 7773SOL     OW34951   1.486   4.447  13.355 -0.2111  0.1089 -0.0734
 7773SOL    HW134952   1.472   4.457  13.261  2.2087 -1.3879 -0.5970
 7773SOL    HW234953   1.395   4.453  13.383 -0.8163 -1.0494 -1.7962
 7774SOL     OW34954   4.475   4.393   5.253  0.0314  0.3268  0.3476
 7774SOL    HW134955   4.500   4.481   5.281  0.6315  0.4094 -0.4572
 7774SOL    HW234956   4.388   4.388   5.294  1.3065 -0.3013  2.9897
 7775SOL     OW34957   2.284   3.076   8.947 -0.3441 -0.0415 -0.1658
 7775SOL    HW134958   2.215   3.087   9.012  0.0163 -1.7527  0.5053
 7775SOL    HW234959   2.315   3.166   8.935 -0.0018 -0.0527  0.6618
 7776SOL     OW34960   2.294   2.354   4.185  0.3044  0.4744 -0.0807
 7776SOL    HW134961   2.300   2.258   4.186 -0.8594  0.4068  0.9257
 7776SOL    HW234962   2.263   2.371   4.096 -0.9682 -1.1485  0.0487
 7777SOL     OW34963   2.765   1.773  15.932 -0.0634 -0.2458 -0.0933
 7777SOL    HW134964   2.686   1.819  15.906  1.0715  0.2652 -2.6389
 7777SOL    HW234965   2.751   1.751  16.024 -1.3356 -0.4913 -0.3463
 7778SOL     OW34966   3.442   0.307  16.984 -0.6511  0.5156 -0.7289
 7778SOL    HW134967   3.413   0.217  16.971 -1.5956  0.7443 -0.2411
 7778SOL    HW234968   3.537   0.301  16.990 -0.8507 -2.9423 -1.5100
 7779SOL     OW34969   1.811   2.809   9.244 -0.5312 -0.3264 -0.1922
 7779SOL    HW134970   1.762   2.821   9.163 -0.8332 -1.4298 -0.1659
 7779SOL    HW234971   1.874   2.878   9.222  1.4975 -2.0837 -0.0079
 7780SOL     OW34972   1.361   2.693  12.044 -0.2607  0.0554 -0.1150
 7780SOL    HW134973   1.289   2.648  12.088 -0.2168 -0.2962 -0.4075
 7780SOL    HW234974   1.311   2.745  11.980  0.3289  1.5143  0.5999
 7781SOL     OW34975   0.873   1.374   6.166 -0.0918  0.1882 -0.0400
 7781SOL    HW134976   0.812   1.330   6.224  1.3242 -1.9523 -0.1615
 7781SOL    HW234977   0.901   1.291   6.127  2.5970  0.6077  0.9739
 7782SOL     OW34978   3.210   4.556   3.747 -0.1458  0.3540  0.6510
 7782SOL    HW134979   3.143   4.552   3.679  0.7515  1.0661 -0.2823
 7782SOL    HW234980   3.167   4.616   3.807 -1.4700  1.4098 -1.3489
 7783SOL     OW34981   3.264   1.756   5.590 -0.1665 -0.6593  0.0911
 7783SOL    HW134982   3.224   1.748   5.677 -0.5078 -1.9768 -0.1956
 7783SOL    HW234983   3.195   1.755   5.525 -0.7471 -0.5864  0.7057
 7784SOL     OW34984   1.770   3.494   9.769  0.4557  0.3068 -0.4567
 7784SOL    HW134985   1.762   3.401   9.791 -0.4004  0.2779 -0.8777
 7784SOL    HW234986   1.702   3.527   9.827 -0.2266 -0.4571 -0.8313
 7785SOL     OW34987   3.178   4.193   2.517  0.1098 -0.1977 -0.0404
 7785SOL    HW134988   3.119   4.230   2.583  0.7427 -1.5230  1.2584
 7785SOL    HW234989   3.260   4.188   2.566  1.2276  2.5747 -1.5798
 7786SOL     OW34990   2.084   3.209   3.594 -0.4957 -0.3265  0.3573
 7786SOL    HW134991   2.160   3.159   3.564  1.9256  2.8712  1.0673
 7786SOL    HW234992   2.058   3.146   3.661 -0.3364 -1.0709 -0.2906
 7787SOL     OW34993   1.874   3.515   5.274 -0.3019  0.0305 -0.0019
 7787SOL    HW134994   1.866   3.454   5.347 -1.3453  2.7111  2.1014
 7787SOL    HW234995   1.833   3.597   5.302  1.5000  0.7168  0.6654
 7788SOL     OW34996   4.385   0.838   9.562 -0.1994 -0.2699 -0.0507
 7788SOL    HW134997   4.452   0.832   9.494 -0.8641  1.0996 -0.8169
 7788SOL    HW234998   4.440   0.825   9.639  1.7406 -0.7903 -1.5119
 7789SOL     OW34999   4.593   2.664   6.991  0.0437  0.6772 -0.5027
 7789SOL    HW135000   4.554   2.585   6.954  1.4386  1.4023 -3.5278
 7789SOL    HW235001   4.553   2.728   6.932  1.1525  1.1915 -0.6989
 7790SOL     OW35002   1.829   2.909   8.547 -0.9070  0.3867  0.2741
 7790SOL    HW135003   1.894   2.885   8.482 -0.0294  0.7058  1.0271
 7790SOL    HW235004   1.815   2.816   8.568  0.4441 -0.2923 -1.9255
 7791SOL     OW35005   2.038   3.358   2.849 -0.0176  0.1731  0.8348
 7791SOL    HW135006   1.971   3.300   2.814  1.2991 -0.3872 -0.7733
 7791SOL    HW235007   2.113   3.322   2.802 -0.1665 -0.2960  0.9610
 7792SOL     OW35008   0.226   3.128  16.604 -0.2773  0.0739  0.1004
 7792SOL    HW135009   0.138   3.126  16.565 -0.7180  0.9481  1.0343
 7792SOL    HW235010   0.282   3.150  16.530 -1.1066  3.1549  0.4260
 7793SOL     OW35011   2.173   2.173   8.338 -0.1886 -0.0663 -0.3845
 7793SOL    HW135012   2.133   2.183   8.252 -0.6938 -1.4722 -0.3090
 7793SOL    HW235013   2.237   2.244   8.340 -0.2200 -0.0595  0.4788
 7794SOL     OW35014   2.092   2.200   4.560 -0.6590  0.1274  0.1395
 7794SOL    HW135015   2.131   2.119   4.528  0.5796  0.1413  1.6717
 7794SOL    HW235016   2.143   2.226   4.637  0.2984  1.2335 -0.8605
 7795SOL     OW35017   3.961   2.672   5.688  0.1300 -0.0908 -0.0739
 7795SOL    HW135018   3.879   2.697   5.730 -0.2217  1.5057 -1.6927
 7795SOL    HW235019   3.947   2.721   5.606  1.2687 -2.3279 -1.6082
 7796SOL     OW35020   1.664   1.024   1.408  0.5258  0.2209 -0.0733
 7796SOL    HW135021   1.653   0.929   1.405 -0.6207  0.2833  1.7405
 7796SOL    HW235022   1.657   1.038   1.503  2.7015  0.6905 -0.0058
 7797SOL     OW35023   2.480   4.606   9.079 -0.5062 -0.2144  0.3180
 7797SOL    HW135024   2.502   4.690   9.118 -2.9059 -0.5159  2.3522
 7797SOL    HW235025   2.537   4.603   9.002 -0.2974 -0.3283  0.4783
 7798SOL     OW35026   2.892   2.559   9.484 -0.3749 -0.7613 -0.0849
 7798SOL    HW135027   2.840   2.638   9.467 -3.7281 -2.7065  1.1109
 7798SOL    HW235028   2.851   2.545   9.569  0.9546  0.0177  0.6730
 7799SOL     OW35029   0.491   2.797   2.082  0.0993 -0.2796 -0.0412
 7799SOL    HW135030   0.563   2.836   2.033  0.1131  0.0072  0.2091
 7799SOL    HW235031   0.437   2.875   2.087  2.0665  1.0736  0.0669
 7800SOL     OW35032   3.648   2.600  12.612 -0.3036 -0.1361 -0.0292
 7800SOL    HW135033   3.597   2.677  12.586 -0.9539 -1.1638 -1.7598
 7800SOL    HW235034   3.633   2.551  12.532 -1.0108  2.8803 -1.7503
 7801SOL     OW35035   4.083   3.810  10.763  0.1879 -0.4872 -0.2454
 7801SOL    HW135036   4.014   3.867  10.730  0.8164  1.5458  1.9709
 7801SOL    HW235037   4.159   3.868  10.765 -0.2583  0.0663  0.6984
 7802SOL     OW35038   3.975   3.797   9.361  0.3453  0.2811  0.1128
 7802SOL    HW135039   3.963   3.743   9.439 -0.8525  2.6177  1.5468
 7802SOL    HW235040   3.896   3.850   9.372 -0.3861 -0.5998 -0.9427
 7803SOL     OW35041   1.384   3.618  10.349  0.5035 -0.2144  0.2504
 7803SOL    HW135042   1.376   3.525  10.368  0.9706 -0.0051  1.4620
 7803SOL    HW235043   1.319   3.660  10.406 -1.4342  0.2220 -2.3153
 7804SOL     OW35044   3.386   1.747  10.294  0.1209 -0.5685  0.4147
 7804SOL    HW135045   3.346   1.754  10.207  2.3820 -0.1819 -0.5859
 7804SOL    HW235046   3.476   1.778  10.282  0.2952 -1.0187  0.5860
 7805SOL     OW35047   1.809   4.205   6.675 -0.6266 -0.1434 -0.4363
 7805SOL    HW135048   1.801   4.111   6.660  2.2309 -0.4544  0.0194
 7805SOL    HW235049   1.789   4.243   6.589 -1.3992 -1.5018 -0.8490
 7806SOL     OW35050   4.273   2.122   7.272  0.0763  0.4884  0.0376
 7806SOL    HW135051   4.319   2.093   7.350 -0.5554 -0.0535  0.2113
 7806SOL    HW235052   4.206   2.054   7.274 -0.6613  1.1961 -0.5210
 7807SOL     OW35053   2.741   3.482   5.371  0.0071  0.1786  0.1671
 7807SOL    HW135054   2.738   3.468   5.465 -1.7824 -1.4960 -0.1301
 7807SOL    HW235055   2.647   3.492   5.354  0.1456  0.5849 -0.3687
 7808SOL     OW35056   3.139   3.515  12.979  0.3709  0.0907  0.0519
 7808SOL    HW135057   3.123   3.577  13.050  1.7110 -0.4217  0.8052
 7808SOL    HW235058   3.125   3.429  13.017 -0.7570 -0.8414 -2.4332
 7809SOL     OW35059   0.336   1.350  15.099  1.1021 -0.3504 -0.3615
 7809SOL    HW135060   0.367   1.270  15.056 -0.2005 -0.8709 -0.3345
 7809SOL    HW235061   0.273   1.379  15.033  1.8433 -0.0711 -0.9487
 7810SOL     OW35062   2.120   1.928   7.876 -0.3244  0.6148 -0.3390
 7810SOL    HW135063   2.032   1.892   7.889 -0.6311  0.7001 -2.1764
 7810SOL    HW235064   2.101   1.978   7.796 -1.1005 -0.5691 -0.8935
 7811SOL     OW35065   2.622   0.466  17.095  0.3882 -0.2920  0.0839
 7811SOL    HW135066   2.711   0.435  17.078  0.0004 -1.1459 -0.3986
 7811SOL    HW235067   2.581   0.380  17.086  2.2014 -0.7416 -3.8810
 7812SOL     OW35068   2.774   2.686   1.163  0.0433  0.0039  0.4196
 7812SOL    HW135069   2.700   2.624   1.158  0.4060 -0.4044  0.1021
 7812SOL    HW235070   2.817   2.680   1.078  1.6368 -0.0833  1.2324
 7813SOL     OW35071   2.010   1.005  14.066  0.3929  0.1396  1.0458
 7813SOL    HW135072   2.052   1.046  14.141 -0.4057  2.0092  0.4553
 7813SOL    HW235073   2.091   0.982  14.020  0.6177  1.5104  0.7759
 7814SOL     OW35074   4.074   0.607   8.401  0.4032 -0.3934  0.1752
 7814SOL    HW135075   4.060   0.512   8.392 -0.3897 -0.2450 -0.1771
 7814SOL    HW235076   3.983   0.635   8.392 -0.2671 -2.9902 -1.3966
 7815SOL     OW35077   3.722   0.620   5.834  0.1062 -0.7585  0.5451
 7815SOL    HW135078   3.783   0.683   5.796 -1.1012 -0.4508 -0.8616
 7815SOL    HW235079   3.783   0.547   5.826  1.2677  0.3437 -0.7216
 7816SOL     OW35080   3.144   3.679   6.091  0.0984  0.0411  0.1930
 7816SOL    HW135081   3.060   3.719   6.111  0.6036  0.2210  2.0247
 7816SOL    HW235082   3.195   3.746   6.138 -0.2391 -0.2042  0.9176
 7817SOL     OW35083   0.595   1.320   1.166 -0.0432 -0.1400 -0.1662
 7817SOL    HW135084   0.638   1.384   1.223 -1.4288 -0.2631  1.0203
 7817SOL    HW235085   0.573   1.248   1.225 -0.9037  1.0806  1.0065
 7818SOL     OW35086   3.624   1.756  13.316 -0.3778 -0.2259  0.4191
 7818SOL    HW135087   3.657   1.796  13.236 -0.6977  0.2239  0.5051
 7818SOL    HW235088   3.532   1.774  13.295 -0.4853 -2.7471 -1.2213
 7819SOL     OW35089   3.117   2.989  14.492  0.0366 -0.1870  0.0146
 7819SOL    HW135090   3.051   2.939  14.445  1.0758 -0.4188 -1.2111
 7819SOL    HW235091   3.108   2.944  14.575 -1.6520 -2.0116 -1.1738
 7820SOL     OW35092   2.618   4.661   3.016  0.1202  0.0001  0.2873
 7820SOL    HW135093   2.696   4.647   3.070 -0.6219  1.5369  1.7702
 7820SOL    HW235094   2.648   4.726   2.953 -0.1051 -1.1371 -0.9875
 7821SOL     OW35095   3.006   0.650   6.504  0.0516 -0.1350 -0.7329
 7821SOL    HW135096   2.989   0.610   6.419  2.8955 -1.5733 -0.6046
 7821SOL    HW235097   3.079   0.708   6.480  1.0697 -2.1829 -2.5818
 7822SOL     OW35098   0.981   4.488   9.560 -0.0229  0.0120  0.7192
 7822SOL    HW135099   0.974   4.502   9.654 -1.2464 -0.5658  0.7121
 7822SOL    HW235100   0.933   4.405   9.549 -0.0620  0.1112  0.1620
 7823SOL     OW35101   1.349   4.385   4.566 -0.0765  0.0419  0.2311
 7823SOL    HW135102   1.301   4.320   4.515 -1.1611 -0.4990  1.9724
 7823SOL    HW235103   1.415   4.423   4.508 -1.9656  1.7767 -0.7661
 7824SOL     OW35104   4.135   4.293  14.412  0.2815  0.3495  0.7648
 7824SOL    HW135105   4.211   4.349  14.431 -2.0451  3.6215  0.5329
 7824SOL    HW235106   4.139   4.298  14.317  0.1449  0.3055  0.7575
 7825SOL     OW35107   4.516   3.398   5.411 -0.3573  0.4479 -0.5899
 7825SOL    HW135108   4.574   3.456   5.361  2.4737  0.0086  2.2185
 7825SOL    HW235109   4.522   3.311   5.370 -2.7881 -0.4050  0.8692
 7826SOL     OW35110   3.307   0.047  12.956  0.0155 -0.5354 -0.3858
 7826SOL    HW135111   3.267   0.109  12.896 -0.7289 -0.8536 -0.2080
 7826SOL    HW235112   3.400   0.062  12.934 -0.4816 -0.7284 -2.6322
 7827SOL     OW35113   1.111   3.831   7.155 -0.4478 -0.4858 -0.0533
 7827SOL    HW135114   1.153   3.856   7.237  0.5625  0.3572 -0.8265
 7827SOL    HW235115   1.080   3.912   7.115 -0.8958 -0.5403  0.1844
 7828SOL     OW35116   3.987   2.618   8.465 -0.5465 -0.1426 -0.2786
 7828SOL    HW135117   3.951   2.642   8.380  0.4999 -0.4517 -0.8103
 7828SOL    HW235118   4.005   2.704   8.504 -1.3414 -0.5984  1.1022
 7829SOL     OW35119   4.605   0.124   4.578  0.0756  0.5369  0.6035
 7829SOL    HW135120   4.524   0.090   4.616  0.4289 -1.4745 -0.4329
 7829SOL    HW235121   4.570   0.166   4.500 -1.7568 -0.1611  1.0583
 7830SOL     OW35122   2.977   1.381   8.222 -0.3727 -0.5264 -0.1609
 7830SOL    HW135123   2.972   1.398   8.128 -1.8010  1.6008  0.3102
 7830SOL    HW235124   3.066   1.407   8.246 -0.2894 -1.1866  0.2618
 7831SOL     OW35125   0.565   1.364  11.770  0.2513  0.1151 -0.5440
 7831SOL    HW135126   0.652   1.396  11.746  0.8148 -1.0120 -0.0103
 7831SOL    HW235127   0.559   1.301  11.699 -1.0830 -0.9287  0.4885
 7832SOL     OW35128   3.696   0.617   8.458 -0.2945  0.1527 -0.5353
 7832SOL    HW135129   3.753   0.685   8.494  1.6009 -1.8689  0.2969
 7832SOL    HW235130   3.645   0.601   8.538  1.4172  0.1551  0.5483
 7833SOL     OW35131   3.169   2.130   9.035 -0.0085 -0.2526 -0.5806
 7833SOL    HW135132   3.212   2.057   9.080  3.7511  1.7757 -0.8662
 7833SOL    HW235133   3.242   2.190   9.022 -0.3839  0.1987 -0.6001
 7834SOL     OW35134   2.225   3.665   8.001  0.0637 -0.0052  0.0059
 7834SOL    HW135135   2.267   3.740   7.960 -1.0413  0.1669 -0.8004
 7834SOL    HW235136   2.182   3.624   7.926 -0.2257 -1.2467  0.8550
 7835SOL     OW35137   3.715   3.063   7.122  0.0647  0.1376 -0.5760
 7835SOL    HW135138   3.720   2.978   7.079  1.1368  0.8560 -1.8540
 7835SOL    HW235139   3.791   3.054   7.179 -0.2237  3.5055  0.3411
 7836SOL     OW35140   1.750   1.590   6.248  0.3393 -0.3721  0.7141
 7836SOL    HW135141   1.708   1.530   6.187 -1.0129  0.0450  1.2325
 7836SOL    HW235142   1.718   1.553   6.330 -1.3121 -0.2743  0.1124
 7837SOL     OW35143   2.150   0.850   3.387  0.2453 -0.3151  0.2061
 7837SOL    HW135144   2.200   0.805   3.456  0.4885 -1.6591 -0.8448
 7837SOL    HW235145   2.140   0.772   3.332  0.8535 -0.7010  0.6351
 7838SOL     OW35146   4.522   3.403   3.148  0.5373  0.1333 -0.1024
 7838SOL    HW135147   4.614   3.426   3.156  0.2633  1.1376  0.0775
 7838SOL    HW235148   4.519   3.312   3.178 -0.9147 -0.1332 -1.0489
 7839SOL     OW35149   1.228   2.158   9.289  0.4630 -0.4597  0.0710
 7839SOL    HW135150   1.258   2.224   9.351 -1.6143  0.4228  0.1236
 7839SOL    HW235151   1.308   2.120   9.254  0.4564 -1.0442  0.6800
 7840SOL     OW35152   4.208   3.957  16.260  0.2478  0.1233  0.0104
 7840SOL    HW135153   4.252   3.890  16.209  2.4585  1.6099 -0.0420
 7840SOL    HW235154   4.124   3.910  16.263  0.5579 -0.4485 -0.2998
 7841SOL     OW35155   3.385   1.922   3.802 -0.8149  0.1515  0.2109
 7841SOL    HW135156   3.303   1.963   3.775 -0.9927 -1.6526 -2.0302
 7841SOL    HW235157   3.363   1.864   3.874 -0.2004 -0.3645 -0.0182
 7842SOL     OW35158   1.367   4.013   8.572 -0.0764 -0.8927 -0.2239
 7842SOL    HW135159   1.276   4.029   8.546 -0.5287 -0.9891  1.2822
 7842SOL    HW235160   1.373   4.066   8.652  1.0417  1.1059 -1.6416
 7843SOL     OW35161   3.889   0.905  13.763 -0.1292  0.1052  0.5821
 7843SOL    HW135162   3.966   0.863  13.724 -0.6053 -1.6028  1.4774
 7843SOL    HW235163   3.922   0.993  13.779  1.2893 -0.0259 -1.6341
 7844SOL     OW35164   2.977   2.071  10.862  0.8546  0.2354  0.0646
 7844SOL    HW135165   3.021   2.113  10.936 -0.3517 -0.0780  0.9799
 7844SOL    HW235166   3.028   1.996  10.832  0.4990  1.0048 -2.4883
 7845SOL     OW35167   2.268   0.677   9.865  0.4478 -0.4671 -0.5781
 7845SOL    HW135168   2.172   0.678   9.862  0.4342  1.1096  0.9834
 7845SOL    HW235169   2.267   0.719   9.951 -2.9433 -2.8182  0.5392
 7846SOL     OW35170   0.501   0.275   5.809  0.1392  0.1630  0.3329
 7846SOL    HW135171   0.508   0.367   5.783  0.2851  0.3358  0.9765
 7846SOL    HW235172   0.444   0.282   5.886 -0.7273  1.2116 -0.3955
 7847SOL     OW35173   3.399   0.510  13.041  0.3653 -0.2692  0.1474
 7847SOL    HW135174   3.428   0.556  13.120 -1.6807  0.8076  0.2646
 7847SOL    HW235175   3.345   0.444  13.085  2.2653 -0.2459  2.5603
 7848SOL     OW35176   3.944   3.319  11.462  0.1113 -0.3592  0.0913
 7848SOL    HW135177   3.886   3.385  11.499 -1.8672 -2.3829  0.5459
 7848SOL    HW235178   4.004   3.320  11.536  2.5700  0.8137 -1.9039
 7849SOL     OW35179   1.044   1.416   3.412  0.0824  0.0701  0.1082
 7849SOL    HW135180   1.016   1.325   3.421  1.2080 -0.3227 -0.5062
 7849SOL    HW235181   0.959   1.446   3.378 -0.9811 -0.5583  2.1865
 7850SOL     OW35182   2.864   1.886  10.417 -0.3859  0.1754  0.0856
 7850SOL    HW135183   2.888   1.862  10.328  0.9762  1.7165  0.0414
 7850SOL    HW235184   2.783   1.835  10.426  0.3091 -1.1542 -1.2494
 7851SOL     OW35185   0.814   1.320   5.378  0.4691  0.3226  0.4172
 7851SOL    HW135186   0.735   1.276   5.412  0.5504 -1.4037 -1.6157
 7851SOL    HW235187   0.783   1.410   5.381  0.5392  0.4592 -3.6006
 7852SOL     OW35188   0.575   0.861  12.860 -0.5469  0.6341  0.1975
 7852SOL    HW135189   0.578   0.794  12.793 -0.4049  0.4680  0.3694
 7852SOL    HW235190   0.561   0.810  12.940  0.6787 -2.3157 -1.4803
 7853SOL     OW35191   2.532   1.400   5.140  0.2703 -0.0508  0.2830
 7853SOL    HW135192   2.441   1.426   5.156 -1.0543 -5.0008  0.8566
 7853SOL    HW235193   2.543   1.312   5.174 -1.6338 -0.1555  0.5907
 7854SOL     OW35194   1.012   0.105  11.995  0.3010 -0.2663 -0.0958
 7854SOL    HW135195   1.085   0.145  11.947 -0.0312 -0.3189 -0.6468
 7854SOL    HW235196   0.957   0.178  11.968  1.1850  0.4639  0.0718
 7855SOL     OW35197   2.134   1.785  10.756  0.5389 -0.1392 -0.0599
 7855SOL    HW135198   2.094   1.869  10.732 -1.5846 -1.1399 -0.0140
 7855SOL    HW235199   2.132   1.800  10.851 -0.0999  0.9988 -0.2428
 7856SOL     OW35200   4.214   2.080   5.521 -0.4744 -0.3434  0.0542
 7856SOL    HW135201   4.145   2.018   5.546 -1.5454  0.3393 -1.1929
 7856SOL    HW235202   4.168   2.155   5.483  0.4309 -0.1892 -0.7390
 7857SOL     OW35203   3.157   0.441   5.446  0.2784  0.8181 -0.1754
 7857SOL    HW135204   3.107   0.362   5.426 -0.8129  1.6358 -0.6614
 7857SOL    HW235205   3.238   0.438   5.395 -0.0931 -1.3964 -0.6544
 7858SOL     OW35206   3.701   0.990   9.302 -0.4435 -0.2214 -0.0216
 7858SOL    HW135207   3.766   0.983   9.231 -1.3065 -0.5073 -0.7833
 7858SOL    HW235208   3.641   1.057   9.270  0.7219  0.0935 -1.5904
 7859SOL     OW35209   1.866   3.751   3.377 -0.1419  0.7500  1.1291
 7859SOL    HW135210   1.798   3.816   3.390 -0.5993  0.3905  0.4757
 7859SOL    HW235211   1.836   3.684   3.439 -2.9207  2.1983  1.3408
 7860SOL     OW35212   0.903   1.617   0.837  0.1887 -0.6538 -0.5558
 7860SOL    HW135213   0.977   1.662   0.877 -1.0977  0.4537  0.5830
 7860SOL    HW235214   0.876   1.559   0.908  2.3124  0.7226  1.3801
 7861SOL     OW35215   3.960   3.832  12.150  0.2493  0.3628  0.4869
 7861SOL    HW135216   4.026   3.871  12.207  0.9343  0.0913 -0.1153
 7861SOL    HW235217   3.878   3.857  12.193 -0.3116 -0.2476 -0.2313
 7862SOL     OW35218   0.353   3.449   3.018 -0.0661 -0.0608 -0.0315
 7862SOL    HW135219   0.363   3.513   2.948  0.1122 -0.7530 -0.6422
 7862SOL    HW235220   0.440   3.409   3.026  0.0412 -0.3069 -2.4099
 7863SOL     OW35221   0.677   0.768   3.300 -0.2422 -0.1608  0.3673
 7863SOL    HW135222   0.734   0.697   3.330  0.2657  1.1117  2.4035
 7863SOL    HW235223   0.637   0.725   3.224  0.9641 -1.3186  0.3822
 7864SOL     OW35224   4.098   0.203  12.052 -0.3242 -0.1976  0.2118
 7864SOL    HW135225   4.103   0.185  11.958  4.9309  1.7073  0.0925
 7864SOL    HW235226   4.189   0.226  12.072 -0.5320  0.6842  0.1737
 7865SOL     OW35227   4.019   3.833   3.995 -0.1483 -0.0406 -0.3694
 7865SOL    HW135228   4.086   3.854   3.930  1.0794  0.9291  1.2145
 7865SOL    HW235229   3.963   3.908   3.976 -1.4450 -0.6337  1.1479
 7866SOL     OW35230   0.942   4.212   7.677 -0.4844 -0.1829 -0.2981
 7866SOL    HW135231   0.994   4.148   7.628  2.2284  1.2404  0.7370
 7866SOL    HW235232   0.968   4.293   7.633 -1.7811 -0.8221 -2.2713
 7867SOL     OW35233   1.860   4.612   7.154  0.0140 -0.1775  0.7238
 7867SOL    HW135234   1.901   4.613   7.067 -3.0835  0.3333 -0.7252
 7867SOL    HW235235   1.841   4.705   7.166 -2.1145 -0.8811  2.6765
 7868SOL     OW35236   2.302   3.246   7.433 -0.0381 -0.1038 -0.0126
 7868SOL    HW135237   2.298   3.166   7.382 -0.6800  0.1505 -0.3524
 7868SOL    HW235238   2.293   3.220   7.525 -0.1355 -0.7272 -0.1964
 7869SOL     OW35239   4.687   1.885   2.730  0.2049 -0.0243 -0.0234
 7869SOL    HW135240   4.712   1.793   2.745 -1.4928 -0.7255 -1.5594
 7869SOL    HW235241   4.609   1.899   2.784 -0.7865 -0.4784 -1.3546
 7870SOL     OW35242   1.998   4.337   7.379  0.0878 -0.2060 -0.6255
 7870SOL    HW135243   2.018   4.376   7.464 -2.9018  1.2747 -0.5659
 7870SOL    HW235244   2.038   4.251   7.379 -0.2222 -0.3622  1.8662
 7871SOL     OW35245   1.060   2.080  12.027  0.1094  0.0377  0.4319
 7871SOL    HW135246   1.001   2.142  11.984  0.4413 -1.3537 -2.0423
 7871SOL    HW235247   1.047   2.012  11.960  1.4388 -0.0067  0.2195
 7872SOL     OW35248   2.394   2.665   7.434 -0.2655 -0.3105  0.1075
 7872SOL    HW135249   2.435   2.580   7.417  0.8735  0.0441  1.1403
 7872SOL    HW235250   2.441   2.687   7.514 -0.6940  0.0949  0.2458
 7873SOL     OW35251   4.337   0.805  17.631  0.6130 -0.0222  0.0437
 7873SOL    HW135252   4.340   0.846  17.717 -0.8996  0.2985 -0.0594
 7873SOL    HW235253   4.244   0.785  17.616  1.4528 -1.6138 -3.1009
 7874SOL     OW35254   3.454   2.913   3.837 -0.7953  0.4654 -0.0845
 7874SOL    HW135255   3.454   2.822   3.808  0.6106  0.3590  0.2534
 7874SOL    HW235256   3.539   2.921   3.879 -0.6969 -2.5497  0.2886
 7875SOL     OW35257   2.820   0.807   3.297  0.7853  0.6917 -0.1668
 7875SOL    HW135258   2.844   0.893   3.261  1.3554  0.7844  0.4279
 7875SOL    HW235259   2.908   0.772   3.307 -0.2318 -1.2741  1.9304
 7876SOL     OW35260   4.177   1.676  13.312  0.2644 -0.2483 -0.3097
 7876SOL    HW135261   4.212   1.765  13.320 -0.1261 -0.2253  1.2839
 7876SOL    HW235262   4.252   1.626  13.343 -0.7099 -2.4169 -1.4924
 7877SOL     OW35263   3.130   3.878  12.981  0.0063 -0.4053 -0.2786
 7877SOL    HW135264   3.074   3.952  12.959 -0.6891 -0.6995  0.4678
 7877SOL    HW235265   3.089   3.835  13.056 -1.6218  1.4031 -0.1413
 7878SOL     OW35266   0.536   1.958   4.755 -0.0272 -0.1182 -0.7328
 7878SOL    HW135267   0.607   1.896   4.767  0.2432  0.3002 -0.1391
 7878SOL    HW235268   0.469   1.891   4.767 -1.0209  0.7549 -1.3229
 7879SOL     OW35269   0.708   4.244   5.866 -0.0320  0.0482  0.0143
 7879SOL    HW135270   0.706   4.339   5.875  1.5181 -0.0980  1.9475
 7879SOL    HW235271   0.744   4.229   5.778 -1.3419  1.0629 -0.6968
 7880SOL     OW35272   1.436   2.795   8.270  0.4269  0.4748 -0.3336
 7880SOL    HW135273   1.494   2.868   8.248 -0.0910  1.0718  0.2900
 7880SOL    HW235274   1.388   2.822   8.348  2.7760  2.8650  0.3006
 7881SOL     OW35275   3.452   4.620  16.072 -0.1535  0.1499 -0.0174
 7881SOL    HW135276   3.373   4.668  16.046 -1.1514 -2.1885 -1.3730
 7881SOL    HW235277   3.479   4.669  16.150 -1.9895  0.6830  0.3030
 7882SOL     OW35278   3.644   2.430   4.179  0.0317 -0.1828 -0.5426
 7882SOL    HW135279   3.703   2.468   4.244  0.7008 -0.5658 -0.9356
 7882SOL    HW235280   3.577   2.498   4.169 -1.2549 -1.2889  0.3587
 7883SOL     OW35281   0.916   4.474   8.750  0.2340 -0.3821  0.4685
 7883SOL    HW135282   0.927   4.385   8.716  0.6061 -0.7140  1.4458
 7883SOL    HW235283   0.989   4.481   8.812  1.0674 -0.5711 -0.4964
 7884SOL     OW35284   2.851   1.426   3.083  0.0200 -0.5132 -0.4031
 7884SOL    HW135285   2.766   1.381   3.079  0.2950 -1.0669 -0.0968
 7884SOL    HW235286   2.825   1.494   3.145  3.1749  0.1664  0.1873
 7885SOL     OW35287   0.604   4.268   0.405 -0.2208 -0.1136 -0.4586
 7885SOL    HW135288   0.642   4.290   0.490  0.7814 -0.6028 -0.7844
 7885SOL    HW235289   0.624   4.350   0.360  0.0175  0.5036  0.7445
 7886SOL     OW35290   0.858   4.029   8.048 -0.5385 -0.1389 -0.0201
 7886SOL    HW135291   0.918   3.993   7.982  0.5926  0.2199  0.8082
 7886SOL    HW235292   0.819   4.101   7.998  0.8648 -1.9054 -3.7176
 7887SOL     OW35293   2.560   3.554   6.216 -0.1468  0.0256  0.0657
 7887SOL    HW135294   2.632   3.508   6.258 -0.8601  1.8733  3.3027
 7887SOL    HW235295   2.503   3.561   6.292 -0.4698  0.1678 -0.1896
 7888SOL     OW35296   1.963   0.360   4.656  0.2092  0.3299  0.2169
 7888SOL    HW135297   1.920   0.413   4.724  0.0307  0.4518  0.0108
 7888SOL    HW235298   2.001   0.297   4.717 -3.1732 -0.8419  1.1520
 7889SOL     OW35299   2.932   1.811  15.676  0.3402  0.3896 -0.2489
 7889SOL    HW135300   2.871   1.878  15.706  0.1098  0.6411 -1.2696
 7889SOL    HW235301   3.004   1.870  15.656  0.3510  0.6693  0.6234
 7890SOL     OW35302   0.828   2.151  16.783 -0.1718  0.6972  0.1410
 7890SOL    HW135303   0.779   2.226  16.816 -1.4518 -0.0399 -0.1006
 7890SOL    HW235304   0.894   2.140  16.852  1.6155  0.9587 -1.5235
 7891SOL     OW35305   4.722   2.208   8.364 -0.2044  0.5066 -0.6153
 7891SOL    HW135306   0.029   2.241   8.442  0.8528 -1.0875 -0.5253
 7891SOL    HW235307   0.050   2.222   8.295 -1.5063 -0.0449 -1.9485
 7892SOL     OW35308   3.558   1.162   9.188  0.0903  0.3306  0.0914
 7892SOL    HW135309   3.464   1.181   9.183  0.6196  1.6575 -4.2654
 7892SOL    HW235310   3.576   1.254   9.173  1.4141 -0.3772 -2.5194
 7893SOL     OW35311   0.191   0.421   7.763 -0.3899 -0.3208  0.4875
 7893SOL    HW135312   0.275   0.376   7.766 -0.3319 -0.3099 -0.9686
 7893SOL    HW235313   0.209   0.494   7.822  1.5364 -0.4894  0.0901
 7894SOL     OW35314   2.339   4.096   4.800 -0.6880 -0.1946 -0.1597
 7894SOL    HW135315   2.388   4.085   4.882 -0.8778  2.4257  0.2907
 7894SOL    HW235316   2.335   4.191   4.812 -0.4881 -0.1603 -0.3639
 7895SOL     OW35317   0.891   1.910   8.755 -0.5375  0.4372  0.0601
 7895SOL    HW135318   0.964   1.855   8.784 -0.9003 -0.4406 -0.6635
 7895SOL    HW235319   0.863   1.944   8.840  0.6687  0.9132  0.2642
 7896SOL     OW35320   3.598   4.321   1.492 -0.1191 -0.2234  0.0433
 7896SOL    HW135321   3.684   4.327   1.451 -0.0029 -1.8638  0.0242
 7896SOL    HW235322   3.630   4.328   1.582  0.8644 -1.7611 -0.1767
 7897SOL     OW35323   4.307   2.550  11.662  0.0169 -0.5609 -0.2599
 7897SOL    HW135324   4.365   2.488  11.617 -1.5281 -1.3675 -1.1353
 7897SOL    HW235325   4.237   2.496  11.698 -0.4878  0.3603  0.1320
 7898SOL     OW35326   1.406   4.664   6.941 -0.2923  0.3193  0.1173
 7898SOL    HW135327   1.333   4.723   6.961 -1.9513 -1.4808 -0.5727
 7898SOL    HW235328   1.359   4.580   6.938 -2.1867  1.3864 -0.0131
 7899SOL     OW35329   2.312   3.312   3.403  0.3734  0.4490 -0.0192
 7899SOL    HW135330   2.298   3.222   3.432  0.7972  0.6091  0.6797
 7899SOL    HW235331   2.373   3.294   3.331  0.6814  0.1553  0.3157
 7900SOL     OW35332   4.137   2.410   9.293  0.1934  0.5954  0.3909
 7900SOL    HW135333   4.170   2.472   9.359  1.9425 -2.0321  2.0022
 7900SOL    HW235334   4.044   2.418   9.312  0.0578  0.7296 -0.3434
 7901SOL     OW35335   2.997   0.262   3.407  0.0945  0.3792  0.4897
 7901SOL    HW135336   3.016   0.319   3.481  1.4475  1.8579 -0.9889
 7901SOL    HW235337   2.907   0.286   3.385  0.5527  0.3145 -1.4741
 7902SOL     OW35338   3.033   4.209   7.448 -0.4548  0.1676  0.5145
 7902SOL    HW135339   2.967   4.232   7.514  0.1607  0.2292  1.1029
 7902SOL    HW235340   2.990   4.243   7.370  0.3081 -2.7946 -1.1857
 7903SOL     OW35341   3.422   4.142   9.721 -0.0680  0.4533 -0.0937
 7903SOL    HW135342   3.354   4.163   9.784 -0.9118 -0.9654 -0.5292
 7903SOL    HW235343   3.377   4.073   9.672 -2.6302  2.3383 -0.3768
 7904SOL     OW35344   2.560   2.932   7.127 -0.3248  0.0248  0.1701
 7904SOL    HW135345   2.571   3.027   7.114  1.3905  0.0073  1.5397
 7904SOL    HW235346   2.600   2.924   7.213 -1.9937 -0.5064  0.8832
 7905SOL     OW35347   0.079   0.527  15.356  0.2646 -0.2601 -0.0574
 7905SOL    HW135348   0.171   0.537  15.333  0.2443 -1.7474 -0.8180
 7905SOL    HW235349   0.088   0.474  15.435  1.8367 -0.3911 -0.3406
 7906SOL     OW35350   3.674   0.868   0.727 -0.2241  0.4139 -0.0828
 7906SOL    HW135351   3.615   0.799   0.696 -1.2461  1.0479  0.4605
 7906SOL    HW235352   3.729   0.870   0.648  1.3016  0.1590  0.9825
 7907SOL     OW35353   3.719   3.625   5.729 -0.5747 -0.1209  0.0081
 7907SOL    HW135354   3.773   3.558   5.771  0.5525 -1.2748 -3.2455
 7907SOL    HW235355   3.693   3.670   5.809  1.3556 -0.2416  0.6951
 7908SOL     OW35356   2.370   2.299  11.745 -0.2296  0.1941  0.3095
 7908SOL    HW135357   2.305   2.356  11.705 -1.1930 -1.0450  0.1245
 7908SOL    HW235358   2.344   2.213  11.712  0.5701  1.2270 -3.0100
 7909SOL     OW35359   2.364   2.133   6.082  0.3641 -0.1128 -0.1429
 7909SOL    HW135360   2.429   2.085   6.030  0.2852  0.0951 -0.4336
 7909SOL    HW235361   2.305   2.069   6.122  1.0998  0.1632  1.3443
 7910SOL     OW35362   3.385   1.326   7.194  0.2263 -0.5188 -0.3799
 7910SOL    HW135363   3.372   1.412   7.154 -0.8314 -1.3077 -1.7385
 7910SOL    HW235364   3.476   1.315   7.168 -0.6157 -3.4878 -2.1399
 7911SOL     OW35365   2.748   4.370   6.498  0.1187  0.0391  0.2029
 7911SOL    HW135366   2.778   4.440   6.557  0.3762 -3.3094  4.0477
 7911SOL    HW235367   2.696   4.310   6.551 -1.5814  0.9594 -0.4113
 7912SOL     OW35368   4.252   1.422   2.303  0.0634  0.6062  0.8277
 7912SOL    HW135369   4.313   1.395   2.372 -0.4370 -1.8273  0.2967
 7912SOL    HW235370   4.177   1.384   2.349 -1.2341 -0.5611 -2.2577
 7913SOL     OW35371   2.108   1.488   6.476  0.1743 -0.1409  0.3102
 7913SOL    HW135372   2.126   1.519   6.387 -1.7453 -0.8803 -0.3253
 7913SOL    HW235373   2.114   1.572   6.521  0.2787  1.3476 -2.4619
 7914SOL     OW35374   2.058   3.055  17.654  0.8660 -0.0470  0.5296
 7914SOL    HW135375   2.028   3.109  17.581  0.1613  1.8105  2.1835
 7914SOL    HW235376   2.092   2.982  17.602  2.5111  0.9781  0.1537
 7915SOL     OW35377   3.073   1.285   2.662 -0.0912  0.1904  0.6165
 7915SOL    HW135378   3.145   1.229   2.689 -0.4478 -0.3881  0.3700
 7915SOL    HW235379   3.104   1.369   2.696  0.7737  0.1043  0.0334
 7916SOL     OW35380   1.644   1.908   5.375  0.1730 -0.1348 -0.6031
 7916SOL    HW135381   1.599   1.992   5.367 -1.3321 -0.8799  0.0498
 7916SOL    HW235382   1.733   1.935   5.397  0.0239 -0.3778  0.3112
 7917SOL     OW35383   2.630   4.568   2.383 -0.0894  0.2242  0.0729
 7917SOL    HW135384   2.719   4.541   2.364  0.2086  0.6463  0.8589
 7917SOL    HW235385   2.655   4.651   2.425 -1.0191 -0.1635  1.3919
 7918SOL     OW35386   3.337   4.661  11.656  0.0831  0.2163  0.0320
 7918SOL    HW135387   3.427   4.673  11.624  0.3557  0.6113  0.9670
 7918SOL    HW235388   3.290   4.724  11.602  1.3148  2.9226  2.1074
 7919SOL     OW35389   4.190   0.462   1.533 -0.4082 -0.0895 -0.2840
 7919SOL    HW135390   4.142   0.528   1.483 -1.6432  0.5576  1.7783
 7919SOL    HW235391   4.169   0.390   1.473 -1.0004 -0.6388  0.5838
 7920SOL     OW35392   0.790   1.784   7.689  0.5831 -0.3555  0.0417
 7920SOL    HW135393   0.787   1.703   7.739  0.7073  1.3152  2.7289
 7920SOL    HW235394   0.708   1.784   7.639  0.7416  0.5809 -0.2188
 7921SOL     OW35395   1.752   2.127   6.678 -0.5387 -0.1611  0.0000
 7921SOL    HW135396   1.714   2.040   6.664  1.9363 -1.2111 -0.1784
 7921SOL    HW235397   1.779   2.137   6.587 -0.0143 -0.6311  0.1002
 7922SOL     OW35398   2.074   3.960  10.676 -0.3146  0.2659  0.5970
 7922SOL    HW135399   2.000   3.899  10.676  1.1512 -1.5184 -1.3869
 7922SOL    HW235400   2.031   4.022  10.618  0.3683 -0.6802 -0.9042
 7923SOL     OW35401   0.852   2.096   6.043 -0.3617 -0.3635  0.0503
 7923SOL    HW135402   0.887   2.175   6.085  0.7073 -1.0334  0.4005
 7923SOL    HW235403   0.929   2.054   6.006  0.3263 -0.3202  1.4345
 7924SOL     OW35404   1.978   0.253   7.276  0.2845  0.5334  0.2379
 7924SOL    HW135405   2.000   0.217   7.190 -0.4248  0.6889 -0.0075
 7924SOL    HW235406   1.915   0.184   7.299  0.1680  0.9602  1.2064
 7925SOL     OW35407   0.282   2.304   5.672 -0.8672  0.2961  0.4879
 7925SOL    HW135408   0.292   2.220   5.628 -0.8127  0.5983 -0.0756
 7925SOL    HW235409   0.355   2.304   5.735 -1.1977 -1.4060  0.8506
 7926SOL     OW35410   1.026   4.058   3.906 -0.7580 -0.0107  0.2281
 7926SOL    HW135411   1.008   4.094   3.819 -0.0840  0.4815  0.2826
 7926SOL    HW235412   0.962   3.987   3.910 -2.7176  1.7674  0.4172
 7927SOL     OW35413   0.963   3.333   3.728 -0.2251 -0.8647  0.0752
 7927SOL    HW135414   0.967   3.241   3.701  1.4693 -0.9335  0.6149
 7927SOL    HW235415   0.883   3.334   3.781 -2.1865 -0.3212 -2.8930
 7928SOL     OW35416   1.965   3.742   2.798  0.6915 -0.1431 -0.3374
 7928SOL    HW135417   1.890   3.682   2.798  0.8977 -0.4003  0.3165
 7928SOL    HW235418   1.915   3.823   2.809  0.6410 -0.0105 -1.5632
 7929SOL     OW35419   4.112   3.889   8.398  0.5042  0.6067 -0.2461
 7929SOL    HW135420   4.158   3.943   8.462 -0.3156  2.9195 -1.6195
 7929SOL    HW235421   4.154   3.806   8.421 -0.0922  0.3374 -0.1136
 7930SOL     OW35422   3.629   2.882   6.598 -0.1169 -0.5203  0.5238
 7930SOL    HW135423   3.631   2.840   6.684 -0.2905  2.2455  1.8811
 7930SOL    HW235424   3.547   2.928   6.613  0.9108  1.9015 -1.2075
 7931SOL     OW35425   1.569   4.712   7.357 -0.1508 -0.2959 -0.1479
 7931SOL    HW135426   1.577   4.643   7.291  0.2412 -0.5164  0.1349
 7931SOL    HW235427   1.660   0.005   7.355 -0.3237  0.1947 -0.6593
 7932SOL     OW35428   4.395   0.462  16.797 -0.2118 -0.0192  0.5195
 7932SOL    HW135429   4.397   0.475  16.702 -0.2851 -0.9858  0.3799
 7932SOL    HW235430   4.384   0.366  16.795 -2.4872  0.2784 -0.9147
 7933SOL     OW35431   3.929   0.812  13.313  0.2343 -0.3925 -0.1539
 7933SOL    HW135432   4.001   0.843  13.259 -2.2207  0.0436 -3.2037
 7933SOL    HW235433   3.861   0.798  13.247  0.0080  0.4907 -0.1124
 7934SOL     OW35434   1.071   2.336  16.552  0.6013  0.0719 -0.4623
 7934SOL    HW135435   1.049   2.418  16.508  1.4628 -0.5879 -2.1318
 7934SOL    HW235436   1.105   2.364  16.637  0.0952  3.2456 -1.3003
 7935SOL     OW35437   1.623   4.020  14.496  0.1622 -0.3640 -0.2202
 7935SOL    HW135438   1.558   3.982  14.554  0.0064  0.8084  0.3883
 7935SOL    HW235439   1.588   4.109  14.490 -0.0724 -0.3726  0.9922
 7936SOL     OW35440   4.065   0.314  16.111 -0.1779  1.0538 -0.5104
 7936SOL    HW135441   4.003   0.386  16.096 -0.6766  0.4159 -1.5425
 7936SOL    HW235442   4.134   0.333  16.048  0.9373  1.3471  0.8114
 7937SOL     OW35443   3.308   4.180   9.965 -0.1544 -0.8669  0.0255
 7937SOL    HW135444   3.268   4.101  10.003  0.1243 -0.0360  2.0200
 7937SOL    HW235445   3.239   4.246   9.967  0.6207 -0.0387 -0.6196
 7938SOL     OW35446   3.639   2.187  13.998  0.0916  0.5596  0.1645
 7938SOL    HW135447   3.578   2.147  13.936  3.0586 -2.2828 -0.9098
 7938SOL    HW235448   3.616   2.280  13.990  0.3316  0.7667  1.9818
 7939SOL     OW35449   2.691   2.405   6.460 -0.1000 -0.1650  0.8826
 7939SOL    HW135450   2.777   2.392   6.419 -1.3782 -0.5551 -1.6471
 7939SOL    HW235451   2.684   2.499   6.472 -1.0538  0.0120 -1.1655
 7940SOL     OW35452   0.041   1.822   5.043 -0.2484 -0.3060 -0.2918
 7940SOL    HW135453   0.070   1.809   5.134  3.5040 -1.4248 -1.6686
 7940SOL    HW235454   4.688   1.792   5.053 -0.2878 -0.5873 -1.5592
 7941SOL     OW35455   0.787   4.480  14.679 -0.2908  0.5433  0.7535
 7941SOL    HW135456   0.726   4.551  14.699 -0.4154  0.0477  2.1086
 7941SOL    HW235457   0.844   4.480  14.756  1.8552  1.4090 -0.8027
 7942SOL     OW35458   0.111   3.202   1.919 -0.1450  0.0275 -0.4663
 7942SOL    HW135459   0.130   3.169   1.831  1.3644 -3.1408  1.0458
 7942SOL    HW235460   0.078   3.122   1.960 -0.4303 -0.0929 -0.9413
 7943SOL     OW35461   2.371   3.438   6.979 -0.3332 -0.6091 -0.2193
 7943SOL    HW135462   2.307   3.489   6.929  0.9067  1.5054  0.3543
 7943SOL    HW235463   2.440   3.504   6.987 -1.0315  0.3654 -2.2039
 7944SOL     OW35464   0.302   3.166   7.497 -0.0265  0.5625  0.6285
 7944SOL    HW135465   0.238   3.150   7.565  0.1701  1.4260  1.0207
 7944SOL    HW235466   0.389   3.174   7.535  0.0858 -3.1202  1.1198
 7945SOL     OW35467   3.809   2.176   5.587 -0.3459 -0.1371  0.0145
 7945SOL    HW135468   3.881   2.137   5.637 -1.9426 -0.3018  2.1887
 7945SOL    HW235469   3.829   2.268   5.600 -2.2553  0.3630 -0.4875
 7946SOL     OW35470   0.759   0.820   3.781  0.3417  0.2303  0.4132
 7946SOL    HW135471   0.675   0.867   3.784 -0.1476 -0.5458 -0.9322
 7946SOL    HW235472   0.823   0.890   3.774  0.8081 -0.4876 -2.4466
 7947SOL     OW35473   3.603   4.391   6.531  0.0271 -0.0158  0.0119
 7947SOL    HW135474   3.612   4.480   6.495 -1.6536  1.1437  2.3774
 7947SOL    HW235475   3.529   4.413   6.588  1.4780 -0.2502  1.9654
 7948SOL     OW35476   1.701   2.942   2.384  0.8848  0.0530 -0.0633
 7948SOL    HW135477   1.695   2.914   2.476  0.9846 -2.6728 -0.8884
 7948SOL    HW235478   1.705   2.857   2.341  0.5711 -0.0887  0.1849
 7949SOL     OW35479   2.919   3.156   1.573  0.0436 -0.4661  0.7523
 7949SOL    HW135480   2.966   3.073   1.559  0.8927  0.5330 -2.2277
 7949SOL    HW235481   2.905   3.150   1.668 -3.5114 -0.4754  0.2404
 7950SOL     OW35482   1.501   1.945   0.045  0.1841  0.5087  0.2351
 7950SOL    HW135483   1.557   1.935  17.715 -0.1649  0.2816  0.0104
 7950SOL    HW235484   1.460   2.031   0.037 -1.0606 -0.2437 -1.4308
 7951SOL     OW35485   4.465   1.063  10.287  0.3941 -0.2766 -0.0221
 7951SOL    HW135486   4.510   1.108  10.358 -2.6937  1.2585  0.9710
 7951SOL    HW235487   4.375   1.087  10.308  0.4950 -0.2505  0.3801
 7952SOL     OW35488   2.350   3.154   2.512 -0.0820  0.0074  0.4442
 7952SOL    HW135489   2.258   3.130   2.523 -0.2917  0.1862 -0.9223
 7952SOL    HW235490   2.349   3.181   2.420 -0.4780 -0.3345  0.3504
 7953SOL     OW35491   2.872   2.008   2.754  0.1885  0.1879  0.4245
 7953SOL    HW135492   2.828   2.092   2.746  1.2282  0.7815  0.9956
 7953SOL    HW235493   2.952   2.030   2.802 -0.7506 -3.0094  3.4236
 7954SOL     OW35494   3.572   1.365   6.032 -0.4016 -0.1577 -0.8713
 7954SOL    HW135495   3.492   1.349   6.082 -0.0301  2.8782  0.6997
 7954SOL    HW235496   3.570   1.459   6.015 -1.7350 -0.0078  0.1882
 7955SOL     OW35497   0.996   1.902  11.814 -0.4388  0.0215 -0.1445
 7955SOL    HW135498   1.004   1.957  11.736  0.2919  1.3205  0.8412
 7955SOL    HW235499   0.969   1.819  11.777  0.5151 -0.1033 -0.5792
 7956SOL     OW35500   4.398   2.967   1.849  0.0065 -0.1219  0.0747
 7956SOL    HW135501   4.386   2.975   1.754  1.0638  0.2570 -0.0176
 7956SOL    HW235502   4.487   3.001   1.856 -0.4836  0.7949  1.7337
 7957SOL     OW35503   2.359   3.006   7.296  0.2384  0.5238  0.3022
 7957SOL    HW135504   2.322   3.072   7.237 -0.0788  0.8577  0.8787
 7957SOL    HW235505   2.429   2.961   7.249  0.1449  2.2710 -1.5144
 7958SOL     OW35506   3.090   0.242  17.656 -0.4707 -0.1704 -0.0535
 7958SOL    HW135507   3.035   0.297  17.600  0.3168 -1.2492 -1.8916
 7958SOL    HW235508   3.052   0.264  17.741  0.9122 -3.3041  1.3503
 7959SOL     OW35509   1.879   1.442   3.571  0.0816 -0.4852  0.1485
 7959SOL    HW135510   1.895   1.352   3.542  2.0121  0.4387 -1.6663
 7959SOL    HW235511   1.854   1.489   3.492  1.1243 -1.0830 -0.5366
 7960SOL     OW35512   0.409   4.404   2.939 -0.4847  0.3005  0.3063
 7960SOL    HW135513   0.356   4.397   3.019  1.2698  2.4084  1.6420
 7960SOL    HW235514   0.473   4.343   2.975 -0.9529 -1.0086 -1.0761
 7961SOL     OW35515   2.170   2.695   2.848 -0.4464 -0.0263  0.7892
 7961SOL    HW135516   2.160   2.749   2.927  1.2710 -0.7493  1.4980
 7961SOL    HW235517   2.099   2.631   2.848 -1.7468  1.4086  1.2718
 7962SOL     OW35518   4.389   1.271   6.120 -0.0317  0.0310 -0.5035
 7962SOL    HW135519   4.321   1.331   6.151  0.4074  0.6150 -0.6693
 7962SOL    HW235520   4.350   1.184   6.115  0.4010 -0.3271  2.4140
 7963SOL     OW35521   1.139   0.162   5.503  0.4803 -0.1381 -0.1384
 7963SOL    HW135522   1.184   0.127   5.580 -1.2778 -0.5365  0.7178
 7963SOL    HW235523   1.113   0.245   5.543 -0.6268 -0.2408 -0.6411
 7964SOL     OW35524   0.881   0.152   7.754 -0.0613 -0.2731 -0.0755
 7964SOL    HW135525   0.895   0.140   7.660 -1.7078 -0.4657 -0.2937
 7964SOL    HW235526   0.789   0.128   7.755  0.1935 -1.2417 -0.0056
 7965SOL     OW35527   4.583   2.986   8.169  0.1879  0.0749  0.3952
 7965SOL    HW135528   4.647   2.926   8.206  1.9999  1.4504 -0.5157
 7965SOL    HW235529   4.644   3.051   8.134  0.9467  0.2707  2.1039
 7966SOL     OW35530   1.940   1.557   8.195 -0.1599  0.6501  0.7682
 7966SOL    HW135531   1.983   1.581   8.113 -0.2772 -0.4416  0.3842
 7966SOL    HW235532   1.854   1.543   8.156 -0.0765  0.2464  0.7354
 7967SOL     OW35533   0.715   3.763   8.029 -0.7753 -0.2601 -0.0664
 7967SOL    HW135534   0.798   3.754   7.982  0.1314  1.5303  1.2177
 7967SOL    HW235535   0.737   3.837   8.084 -1.7898 -0.2142  0.2891
 7968SOL     OW35536   0.058   3.601   8.540  0.9262 -0.0442  0.8732
 7968SOL    HW135537   0.064   3.513   8.578  0.4367  0.1316  1.3546
 7968SOL    HW235538   0.137   3.640   8.576 -0.5936  2.2304  1.7422
 7969SOL     OW35539   1.804   2.067   2.275  0.2101 -0.2048 -0.6651
 7969SOL    HW135540   1.733   2.063   2.340 -1.2826 -0.1691 -2.2898
 7969SOL    HW235541   1.809   2.161   2.258  0.2325  0.3055  2.1442
 7970SOL     OW35542   4.262   3.274   9.521 -0.4362  0.2935  0.1234
 7970SOL    HW135543   4.296   3.352   9.563  0.5082  0.1218 -0.3167
 7970SOL    HW235544   4.258   3.301   9.429  2.6954 -0.9609 -0.3796
 7971SOL     OW35545   1.899   3.776   7.500  0.2782 -0.4279  0.4914
 7971SOL    HW135546   1.934   3.701   7.548  1.1065 -0.4186 -0.0991
 7971SOL    HW235547   1.913   3.849   7.560 -2.6603  1.3893 -1.0825
 7972SOL     OW35548   1.454   3.281   5.621 -0.5834 -0.4755 -0.3778
 7972SOL    HW135549   1.454   3.185   5.627  0.1194 -0.3889  0.9519
 7972SOL    HW235550   1.488   3.288   5.531  1.5077 -3.0441  0.2081
 7973SOL     OW35551   1.293   2.603   7.723 -0.3503  0.1948  0.3844
 7973SOL    HW135552   1.301   2.635   7.633 -1.3633 -2.1004 -0.5295
 7973SOL    HW235553   1.373   2.630   7.768 -0.3041  2.4613 -1.0721
 7974SOL     OW35554   1.146   1.576   9.257  0.0661  0.6670 -0.0347
 7974SOL    HW135555   1.116   1.666   9.242  0.6438  0.3990 -2.9229
 7974SOL    HW235556   1.092   1.555   9.333 -0.5506  0.7106 -0.4600
 7975SOL     OW35557   1.913   4.396   3.433 -0.2516  0.2538  0.0676
 7975SOL    HW135558   1.919   4.315   3.484  1.4694  2.1116  2.8086
 7975SOL    HW235559   1.925   4.369   3.342 -2.1616  1.4897 -0.5420
 7976SOL     OW35560   2.508   0.834   9.857 -0.2994  0.4520 -0.1230
 7976SOL    HW135561   2.434   0.774   9.850 -2.2491  2.5717  2.0531
 7976SOL    HW235562   2.575   0.782   9.902 -0.8239 -0.1545 -0.0432
 7977SOL     OW35563   3.650   3.263   9.319 -0.4109 -0.1729 -0.4333
 7977SOL    HW135564   3.560   3.237   9.298  0.6928 -3.6309 -0.9194
 7977SOL    HW235565   3.651   3.235   9.410 -0.7321 -1.9905 -0.9817
 7978SOL     OW35566   1.183   0.758   8.615 -0.1539 -0.2816 -0.0998
 7978SOL    HW135567   1.206   0.851   8.617 -0.4111 -0.1934 -1.5656
 7978SOL    HW235568   1.256   0.727   8.562 -0.2786 -0.8950  0.0826
 7979SOL     OW35569   0.855   0.700   8.344  0.6341 -0.2533  0.1022
 7979SOL    HW135570   0.916   0.774   8.347  1.2422 -0.7474 -0.1727
 7979SOL    HW235571   0.920   0.632   8.362 -2.3953 -2.4589  2.6608
 7980SOL     OW35572   1.973   2.967   4.862 -0.3648 -0.0018  0.1421
 7980SOL    HW135573   2.018   3.001   4.939 -1.4861  1.9750 -0.0902
 7980SOL    HW235574   2.046   2.918   4.823  0.0765  1.3025 -0.6649
 7981SOL     OW35575   0.955   1.158   7.599  0.3965  0.2561  0.1878
 7981SOL    HW135576   1.010   1.094   7.553  2.3538  1.0007  1.4800
 7981SOL    HW235577   1.023   1.202   7.650  2.7605  0.0553 -2.7617
 7982SOL     OW35578   1.725   1.880   1.724  0.0374  1.1098 -0.4731
 7982SOL    HW135579   1.735   1.916   1.812  0.6337 -0.5226  0.1251
 7982SOL    HW235580   1.745   1.787   1.733  0.1751  1.1706 -0.1438
 7983SOL     OW35581   2.426   1.997  15.126 -0.2103  1.1036 -0.4254
 7983SOL    HW135582   2.363   1.943  15.078  0.4978 -0.7195  0.6743
 7983SOL    HW235583   2.399   2.087  15.107 -2.2056  0.1714 -2.0583
 7984SOL     OW35584   1.401   3.852  11.373  0.3583 -0.0024 -0.1452
 7984SOL    HW135585   1.356   3.797  11.437 -1.0508  2.8463  1.2941
 7984SOL    HW235586   1.492   3.853  11.401  0.3783  0.6278 -0.2286
 7985SOL     OW35587   3.912   0.426  16.484 -0.4260  0.0309  0.5091
 7985SOL    HW135588   3.847   0.431  16.554  0.6038  0.8939  1.4087
 7985SOL    HW235589   3.863   0.388  16.411 -1.7511  0.4505  1.1882
 7986SOL     OW35590   2.259   4.351  15.498 -0.3206  0.1975 -0.2076
 7986SOL    HW135591   2.296   4.308  15.421 -0.0067  0.7746 -0.3793
 7986SOL    HW235592   2.182   4.298  15.522 -0.1375 -0.0248 -0.1126
 7987SOL     OW35593   2.809   2.706  14.364  0.1597  0.0544 -0.1274
 7987SOL    HW135594   2.782   2.782  14.313 -0.7901 -0.9804 -1.1881
 7987SOL    HW235595   2.728   2.684  14.410 -0.5734 -0.9383 -1.8945
 7988SOL     OW35596   2.280   1.750   6.132  0.3633 -0.1770 -0.4659
 7988SOL    HW135597   2.353   1.802   6.166 -0.0752  1.3291 -1.8320
 7988SOL    HW235598   2.215   1.820   6.135 -1.9484 -2.4079  1.6954
 7989SOL     OW35599   1.795   3.452   4.859 -0.0558 -0.6879  0.4064
 7989SOL    HW135600   1.852   3.422   4.788  0.2054 -1.3399  0.8850
 7989SOL    HW235601   1.866   3.478   4.917  0.0632  0.0110 -0.0509
 7990SOL     OW35602   3.063   3.434   6.397  0.3080 -0.1928 -0.3168
 7990SOL    HW135603   3.120   3.509   6.381  2.0410 -0.6385  3.7715
 7990SOL    HW235604   3.120   3.368   6.437  1.2650 -0.3958 -2.0146
 7991SOL     OW35605   4.178   4.199  16.899 -0.1058 -0.2645 -0.6915
 7991SOL    HW135606   4.161   4.289  16.872  0.7603  0.0565 -0.1665
 7991SOL    HW235607   4.098   4.153  16.873  1.2606 -2.8687 -0.2392
 7992SOL     OW35608   2.924   3.412   3.277 -0.1172  0.3716 -0.2279
 7992SOL    HW135609   2.959   3.374   3.197  0.6143  0.1137  0.2140
 7992SOL    HW235610   2.842   3.454   3.252 -1.3227 -0.9767  1.4403
 7993SOL     OW35611   4.456   0.864   7.772  0.8121 -0.0936  0.4278
 7993SOL    HW135612   4.501   0.780   7.767 -3.3586 -2.2016 -1.6520
 7993SOL    HW235613   4.494   0.918   7.704  0.7828 -0.2126  0.3169
 7994SOL     OW35614   0.950   2.449   3.893 -0.2610  0.6132  0.4538
 7994SOL    HW135615   0.997   2.526   3.924 -2.9352  2.6838 -0.6431
 7994SOL    HW235616   0.864   2.488   3.876  0.0850  1.3796  0.4873
 7995SOL     OW35617   1.066   3.258   7.794 -0.0560 -0.2273  0.8192
 7995SOL    HW135618   1.017   3.223   7.869 -0.8504  0.6824  0.7268
 7995SOL    HW235619   1.138   3.195   7.795  1.7764  1.8761  2.0597
 7996SOL     OW35620   0.259   3.618  17.063 -0.0325 -0.3161  0.1949
 7996SOL    HW135621   0.255   3.714  17.061 -2.1848 -0.4066 -0.0705
 7996SOL    HW235622   0.181   3.603  17.117 -1.2625  0.6428 -1.3260
 7997SOL     OW35623   2.650   3.830  11.488  0.2482 -1.1431  0.4000
 7997SOL    HW135624   2.654   3.832  11.583  1.2674  0.6573  0.3267
 7997SOL    HW235625   2.704   3.754  11.471  1.9069 -0.1210  1.1297
 7998SOL     OW35626   1.894   2.309   4.095  0.1487  0.2543 -0.4685
 7998SOL    HW135627   1.932   2.345   4.175  0.8254 -0.1185 -0.6225
 7998SOL    HW235628   1.807   2.279   4.122  0.0948  0.2931 -0.6004
 7999SOL     OW35629   1.468   0.768  15.284 -0.1955 -0.3044  0.6894
 7999SOL    HW135630   1.530   0.711  15.328  0.6445  0.1511  0.1003
 7999SOL    HW235631   1.534   0.828  15.249 -0.7236  0.4560  0.9929
 8000SOL     OW35632   4.301   3.461   2.973  0.2502  0.3877  0.1274
 8000SOL    HW135633   4.225   3.497   3.019 -0.3850 -0.4425 -0.2827
 8000SOL    HW235634   4.361   3.457   3.047 -1.5369  0.2264  1.5579
 8001SOL     OW35635   4.042   3.289   2.610  0.2751  0.6138 -0.4887
 8001SOL    HW135636   4.131   3.284   2.575  0.5940  0.3168  0.3582
 8001SOL    HW235637   4.002   3.221   2.555  0.7873  0.0042 -0.1085
 8002SOL     OW35638   0.428   0.935   8.162  0.1913 -0.1849 -0.1183
 8002SOL    HW135639   0.436   0.843   8.184 -0.9522 -0.0229  0.9897
 8002SOL    HW235640   0.424   0.942   8.067 -1.1189  4.0002  0.2223
 8003SOL     OW35641   1.373   2.229   4.546  0.4797  0.1030  0.1929
 8003SOL    HW135642   1.401   2.199   4.632  0.8378  0.4295  0.1928
 8003SOL    HW235643   1.312   2.157   4.529  0.7378  0.1588 -0.9982
 8004SOL     OW35644   3.152   1.159   4.379  0.7390  0.3194 -0.0300
 8004SOL    HW135645   3.207   1.200   4.312  1.6048  0.5664  0.8366
 8004SOL    HW235646   3.216   1.097   4.414 -1.7756 -1.3020  1.7140
 8005SOL     OW35647   1.054   0.049  16.786  0.0123 -0.0172 -0.5096
 8005SOL    HW135648   1.132   4.736  16.764 -1.8151 -1.6643 -3.3506
 8005SOL    HW235649   0.983   0.003  16.741  1.1540  0.1886 -2.5069
 8006SOL     OW35650   2.745   1.136   4.934 -0.1821  0.5768  0.1350
 8006SOL    HW135651   2.683   1.082   4.885 -2.0936  1.1854  1.8883
 8006SOL    HW235652   2.728   1.229   4.917  0.1543  0.0315 -3.1102
 8007SOL     OW35653   0.585   2.826  17.714  0.3793 -0.0453 -0.0773
 8007SOL    HW135654   0.658   2.800   0.023  1.3915 -0.2088 -1.4699
 8007SOL    HW235655   0.520   2.769   0.007 -0.0027 -0.6714 -1.6016
 8008SOL     OW35656   4.546   1.266   5.705  0.0530 -0.0731  0.5221
 8008SOL    HW135657   4.464   1.238   5.663  0.3655  0.7433 -0.6247
 8008SOL    HW235658   4.617   1.212   5.669 -0.4564 -0.5740  0.2539
 8009SOL     OW35659   0.771   2.806   6.984  0.0711 -0.4495 -0.1093
 8009SOL    HW135660   0.809   2.796   7.071  2.5745 -1.2127 -1.3020
 8009SOL    HW235661   0.824   2.754   6.924  1.0070 -2.5285  2.5141
 8010SOL     OW35662   1.626   2.954   2.078 -0.3363 -0.3012 -0.3020
 8010SOL    HW135663   1.720   2.947   2.098 -0.5943  3.3909  2.1230
 8010SOL    HW235664   1.598   3.006   2.154 -1.1862  0.9550 -1.4754
 8011SOL     OW35665   2.390   2.662   3.104  0.3016  0.0565 -0.2601
 8011SOL    HW135666   2.384   2.741   3.050 -0.9828  1.3237  1.6873
 8011SOL    HW235667   2.443   2.695   3.177 -1.6002 -0.8275  1.5366
 8012SOL     OW35668   2.057   0.626   3.260  0.3610  0.2475 -0.1083
 8012SOL    HW135669   2.080   0.539   3.227 -0.4375 -0.3984  1.0523
 8012SOL    HW235670   1.963   0.620   3.246  0.2577 -2.1721  1.6801
 8013SOL     OW35671   0.355   1.905  10.074  0.2004  0.0179 -0.8087
 8013SOL    HW135672   0.418   1.835  10.058  1.1050  0.5552  0.4428
 8013SOL    HW235673   0.386   1.972  10.013  0.8274 -0.4066 -0.9610
 8014SOL     OW35674   3.982   4.492   2.731  0.2497 -0.5906  0.1177
 8014SOL    HW135675   4.049   4.560   2.732  0.5191 -0.8491 -0.1952
 8014SOL    HW235676   4.042   4.421   2.754 -0.0511 -0.7091  0.5461
 8015SOL     OW35677   2.078   4.017   6.634 -0.3258 -0.0472 -0.3758
 8015SOL    HW135678   2.106   3.996   6.545 -2.2357 -0.0284 -0.9864
 8015SOL    HW235679   2.000   4.071   6.617 -0.2955  0.7652  2.1216
 8016SOL     OW35680   0.067   4.510   6.759 -0.1214  0.7423  0.1872
 8016SOL    HW135681   0.148   4.515   6.709  0.3220 -1.3586  0.6940
 8016SOL    HW235682   0.056   4.601   6.787  3.0915  1.2567 -0.1629
 8017SOL     OW35683   4.558   0.095   8.386  0.2444  0.3213 -0.6942
 8017SOL    HW135684   4.617   0.040   8.438 -0.0247  1.8116  1.1972
 8017SOL    HW235685   4.558   0.179   8.433  2.6645  0.8550 -1.6113
 8018SOL     OW35686   1.424   2.287   6.459  0.4423  0.4788 -0.0483
 8018SOL    HW135687   1.403   2.380   6.469  0.9373  0.7563 -1.4656
 8018SOL    HW235688   1.369   2.268   6.382  0.4377  2.3478 -0.4947
 8019SOL     OW35689   1.613   3.894   8.524 -0.0093  0.5761 -0.2740
 8019SOL    HW135690   1.532   3.933   8.559  1.1917  0.7043  2.3151
 8019SOL    HW235691   1.630   3.820   8.582 -0.0602 -0.2713 -1.3341
 8020SOL     OW35692   4.235   3.368  14.723  0.3209 -0.4453 -0.0071
 8020SOL    HW135693   4.322   3.331  14.712  0.5554 -0.0359  0.4600
 8020SOL    HW235694   4.237   3.446  14.667  0.2780 -0.3996  0.0544
 8021SOL     OW35695   4.474   2.231   6.315 -0.2016 -0.0592  0.1906
 8021SOL    HW135696   4.465   2.273   6.230  0.1939 -0.3731 -0.0074
 8021SOL    HW235697   4.423   2.296   6.363 -0.6194 -0.7682  0.7146
 8022SOL     OW35698   4.540   0.466   7.181 -0.2408  0.8259  0.0905
 8022SOL    HW135699   4.526   0.553   7.143  0.2655  0.4503 -0.9609
 8022SOL    HW235700   4.624   0.444   7.140 -0.2034  1.0468  0.0447
 8023SOL     OW35701   0.772   2.919   4.840 -0.1724 -0.3764  0.5918
 8023SOL    HW135702   0.845   2.881   4.889  0.5247  0.7829  0.4491
 8023SOL    HW235703   0.719   2.942   4.917 -1.1634  1.4453 -0.6296
 8024SOL     OW35704   4.133   1.730   8.646  0.1730 -0.0226  1.0928
 8024SOL    HW135705   4.052   1.775   8.668  0.2556  1.9078 -2.5664
 8024SOL    HW235706   4.189   1.807   8.637  0.5496 -0.1434  2.4609
 8025SOL     OW35707   1.347   0.848  15.006  0.3851 -0.3135  0.1869
 8025SOL    HW135708   1.337   0.860  15.101 -1.1070  0.6819 -0.0995
 8025SOL    HW235709   1.370   0.940  14.990 -3.3595  0.9209  1.8266
 8026SOL     OW35710   3.336   4.040   6.900 -0.5958 -0.6260  0.1668
 8026SOL    HW135711   3.363   4.113   6.844  2.4974 -2.0025 -0.1090
 8026SOL    HW235712   3.278   4.089   6.959  1.3757  2.5900 -0.5798
 8027SOL     OW35713   1.214   2.932   3.518  0.5609 -0.2833  0.0502
 8027SOL    HW135714   1.207   3.020   3.481  0.7230 -1.3234 -2.4435
 8027SOL    HW235715   1.252   2.952   3.603 -1.9021  1.3354  0.7611
 8028SOL     OW35716   2.075   0.838   3.042  0.1632 -0.4556 -0.2148
 8028SOL    HW135717   2.159   0.793   3.039  0.2590 -0.2058 -1.2238
 8028SOL    HW235718   2.034   0.795   3.117 -0.9634 -0.9516 -1.1049
 8029SOL     OW35719   2.005   4.083  13.133 -0.8519 -0.0804  0.0229
 8029SOL    HW135720   1.962   4.134  13.064 -0.7753 -1.4435 -1.0454
 8029SOL    HW235721   1.961   4.123  13.208 -1.5347  0.0250 -0.4259
 8030SOL     OW35722   4.240   2.229   0.245  0.1239  0.0523  0.0280
 8030SOL    HW135723   4.313   2.213   0.306  1.5009  0.1109 -1.6037
 8030SOL    HW235724   4.182   2.284   0.298  0.6384 -1.2397  1.9324
 8031SOL     OW35725   1.121   3.972   6.847  0.1525 -0.3228 -0.5724
 8031SOL    HW135726   1.150   3.942   6.761  1.7977  0.7932 -0.4150
 8031SOL    HW235727   1.077   3.899   6.890  0.0143  1.4337  2.3040
 8032SOL     OW35728   3.433   2.155   7.717  0.6026 -0.0986  0.4038
 8032SOL    HW135729   3.510   2.128   7.767  0.6125 -0.1812  0.3440
 8032SOL    HW235730   3.384   2.072   7.710 -1.2058  0.9777  0.3867
 8033SOL     OW35731   4.312   2.289   1.583 -0.1887 -0.1459 -0.1902
 8033SOL    HW135732   4.382   2.227   1.563 -1.1943 -1.3176 -0.1119
 8033SOL    HW235733   4.361   2.357   1.629 -0.0637 -1.5231  1.7657
 8034SOL     OW35734   0.191   0.512   6.565  0.2402  0.4315  0.3661
 8034SOL    HW135735   0.194   0.504   6.470  0.7762 -0.9818  0.5004
 8034SOL    HW235736   0.285   0.511   6.581  0.4399 -0.6548 -0.8368
 8035SOL     OW35737   0.387   2.089   6.079 -0.2226  0.1589 -0.0822
 8035SOL    HW135738   0.371   2.166   6.135  0.8847  1.2829 -1.3031
 8035SOL    HW235739   0.310   2.035   6.097  0.4001 -0.3532  1.0366
 8036SOL     OW35740   3.564   4.409  17.361 -0.0284 -0.2734 -0.3158
 8036SOL    HW135741   3.536   4.323  17.393  2.2755 -1.8828 -2.5329
 8036SOL    HW235742   3.648   4.411  17.406  0.4027 -0.6008 -1.1051
 8037SOL     OW35743   0.534   2.017   3.486 -0.1405  0.0715 -0.0158
 8037SOL    HW135744   0.536   1.923   3.504  2.0394 -0.0145 -0.7146
 8037SOL    HW235745   0.583   2.025   3.404 -0.7243 -0.6635 -0.4302
 8038SOL     OW35746   1.896   3.097   2.116  0.4575  0.5213  0.2584
 8038SOL    HW135747   1.925   3.177   2.072 -0.9816 -0.0779 -1.7514
 8038SOL    HW235748   1.935   3.030   2.059 -1.0436  0.0037 -0.1425
 8039SOL     OW35749   3.821   3.588  10.656  0.1955 -0.7562  0.0064
 8039SOL    HW135750   3.784   3.501  10.667  0.7681 -1.2223 -1.6667
 8039SOL    HW235751   3.889   3.589  10.723  1.1179  3.5047 -0.9664
 8040SOL     OW35752   0.423   1.988   8.987 -0.0222 -0.4824  0.3267
 8040SOL    HW135753   0.355   1.927   9.016  0.4655 -0.9756  0.4368
 8040SOL    HW235754   0.396   2.019   8.901  0.0080 -0.1207  0.4465
 8041SOL     OW35755   0.266   4.588   5.562  0.1990  0.4109  0.4790
 8041SOL    HW135756   0.266   4.607   5.468 -1.6374 -1.3973  0.1258
 8041SOL    HW235757   0.269   4.492   5.558  0.4408  0.4393  0.0234
 8042SOL     OW35758   0.685   3.553  12.576  0.5647  0.4334 -1.0629
 8042SOL    HW135759   0.637   3.634  12.562  0.9444  0.4434 -2.2369
 8042SOL    HW235760   0.684   3.511  12.490 -1.1665  1.8484 -1.7190
 8043SOL     OW35761   1.321   2.541   6.444  0.3438  0.2899 -0.6034
 8043SOL    HW135762   1.240   2.551   6.394 -1.4142  0.7617  2.3356
 8043SOL    HW235763   1.305   2.624   6.489 -2.7766 -1.7408  2.0513
 8044SOL     OW35764   1.512   1.351   7.341 -0.7401 -1.0211  0.2701
 8044SOL    HW135765   1.459   1.372   7.263 -2.4253  0.9532  1.9420
 8044SOL    HW235766   1.483   1.261   7.357 -1.8073 -0.9031 -0.9755
 8045SOL     OW35767   3.082   1.724   3.808 -0.6249  0.4266 -0.3749
 8045SOL    HW135768   3.064   1.680   3.891  2.6328  0.6482  0.4450
 8045SOL    HW235769   3.101   1.815   3.828 -1.4441  0.6678 -0.7052
 8046SOL     OW35770   1.895   1.202   5.134  0.3488 -0.5878 -0.2023
 8046SOL    HW135771   1.836   1.193   5.208  0.7689 -0.9868  0.0818
 8046SOL    HW235772   1.959   1.268   5.161  1.5752 -2.0214  0.4255
 8047SOL     OW35773   0.090   3.951   4.221 -0.5212  0.4243  0.2452
 8047SOL    HW135774   0.110   3.995   4.138 -0.6489  1.5686  0.8225
 8047SOL    HW235775   0.177   3.957   4.260  0.3467 -2.2835 -1.2854
 8048SOL     OW35776   1.139   2.927   0.751  0.6359  0.1590  0.2611
 8048SOL    HW135777   1.046   2.905   0.758  0.5317  0.3955 -0.3803
 8048SOL    HW235778   1.133   2.999   0.688  0.2460  0.3870  0.5565
 8049SOL     OW35779   3.908   2.240   2.180  0.0409  0.0717  0.1106
 8049SOL    HW135780   3.943   2.183   2.112  0.5364 -2.6434  2.6627
 8049SOL    HW235781   3.936   2.329   2.155 -0.8691  0.2815 -0.1622
 8050SOL     OW35782   4.504   1.162   3.993  0.0560 -0.2489 -0.7299
 8050SOL    HW135783   4.520   1.071   4.015  0.0934 -0.3377 -1.1268
 8050SOL    HW235784   4.483   1.161   3.900  0.1206 -0.7306 -0.7388
 8051SOL     OW35785   4.621   4.351   3.698 -0.6906  0.5804 -0.4522
 8051SOL    HW135786   4.563   4.347   3.623 -0.0129 -0.4616 -0.9208
 8051SOL    HW235787   4.596   4.267   3.736 -0.8301  0.6889 -0.3028
 8052SOL     OW35788   2.286   1.659   0.503 -0.0515  0.3232  0.4852
 8052SOL    HW135789   2.331   1.576   0.492  0.9866  0.9229  0.1607
 8052SOL    HW235790   2.365   1.709   0.521  2.3326 -3.5561  0.7393
 8053SOL     OW35791   3.616   2.965   6.081 -0.6544 -0.1668 -0.2232
 8053SOL    HW135792   3.599   3.009   6.164 -0.2338 -0.7530  0.1751
 8053SOL    HW235793   3.710   2.951   6.076 -0.4514  1.0526  0.2646
 8054SOL     OW35794   0.955   1.113   5.689 -0.0145  0.1206  0.0683
 8054SOL    HW135795   0.872   1.156   5.710  0.6595  1.2705  0.3701
 8054SOL    HW235796   0.952   1.110   5.593 -0.0103 -1.3358  0.1182
 8055SOL     OW35797   3.111   4.486   6.932  0.4643 -0.9544 -0.3653
 8055SOL    HW135798   3.115   4.403   6.980 -0.3378 -0.6142  0.2878
 8055SOL    HW235799   3.111   4.451   6.843 -1.0566 -1.8748 -0.0001
 8056SOL     OW35800   0.286   1.835  14.088 -0.2073  0.1359 -0.3514
 8056SOL    HW135801   0.289   1.816  13.994 -2.8831  1.7108 -0.7361
 8056SOL    HW235802   0.256   1.751  14.122 -0.5737  0.9340  1.3035
 8057SOL     OW35803   3.979   3.563  13.683  0.8265 -0.2480  0.1601
 8057SOL    HW135804   3.941   3.589  13.767  1.0434 -0.7820  0.4209
 8057SOL    HW235805   3.960   3.635  13.623 -0.5063  1.3003  2.4579
 8058SOL     OW35806   0.135   3.782  16.214  0.3703  0.1029 -0.3208
 8058SOL    HW135807   0.160   3.690  16.202 -1.8794 -0.7368  1.3539
 8058SOL    HW235808   0.188   3.795  16.293 -1.9540 -0.2934  1.3130
 8059SOL     OW35809   2.257   0.598   5.419 -0.1863 -0.3999 -0.3289
 8059SOL    HW135810   2.191   0.530   5.411  0.0159 -0.3499 -2.3863
 8059SOL    HW235811   2.314   0.569   5.490  1.2554  0.2215 -1.2048
 8060SOL     OW35812   2.093   0.358   6.703  0.2197 -0.9409  0.4994
 8060SOL    HW135813   2.167   0.415   6.725  0.8100 -1.4388 -0.1715
 8060SOL    HW235814   2.135   0.316   6.627  0.8017 -1.4376  1.0928
 8061SOL     OW35815   2.304   4.703   2.515 -0.0917 -0.2213  0.1404
 8061SOL    HW135816   2.304   4.621   2.465  1.0751  0.9036 -1.7106
 8061SOL    HW235817   2.321   0.034   2.450  1.9455  0.6150  1.5570
 8062SOL     OW35818   1.164   3.994   4.780 -0.2016 -0.4926 -0.3547
 8062SOL    HW135819   1.184   4.016   4.689  0.6176 -0.7468 -0.2437
 8062SOL    HW235820   1.091   4.053   4.797  0.2524 -0.4677  1.5077
 8063SOL     OW35821   3.828   2.847   9.486  0.2471 -0.2671 -0.5821
 8063SOL    HW135822   3.747   2.888   9.518  0.6731 -0.2869  0.5229
 8063SOL    HW235823   3.894   2.908   9.519 -0.0414 -0.2611 -0.0232
 8064SOL     OW35824   3.399   0.148   8.857 -0.0328  0.9338 -0.0666
 8064SOL    HW135825   3.410   0.243   8.858 -0.1977  0.9691 -0.9088
 8064SOL    HW235826   3.432   0.129   8.945  1.3834 -1.6606 -1.1764
 8065SOL     OW35827   0.307   3.777  11.392  0.2132 -0.0318 -0.3129
 8065SOL    HW135828   0.257   3.727  11.457 -0.3831  1.7152  0.5760
 8065SOL    HW235829   0.303   3.866  11.428 -0.3410 -0.4969  0.7685
 8066SOL     OW35830   0.007   1.153  10.947 -0.0226 -0.1234 -0.0684
 8066SOL    HW135831   0.019   1.233  10.998 -0.2687 -0.4821  0.5578
 8066SOL    HW235832   0.079   1.096  10.975 -0.0930 -0.1541  0.0491
 8067SOL     OW35833   4.521   1.639   7.425  0.5081 -0.4026 -0.1448
 8067SOL    HW135834   4.572   1.558   7.426 -0.8208 -1.2294  0.4208
 8067SOL    HW235835   4.591   1.700   7.450 -1.1349  1.9234 -1.2672
 8068SOL     OW35836   3.380   3.321  11.173  0.6596  0.7174 -0.3842
 8068SOL    HW135837   3.445   3.349  11.109  1.1832 -2.1238 -1.1194
 8068SOL    HW235838   3.404   3.372  11.250 -1.6765 -0.5924  1.2368
 8069SOL     OW35839   4.006   2.246   9.544 -0.0877 -0.6138 -0.3271
 8069SOL    HW135840   3.946   2.276   9.476 -1.7424  1.6037  2.1157
 8069SOL    HW235841   3.992   2.152   9.553  1.5777 -0.8230  0.1311
 8070SOL     OW35842   2.225   3.785  15.274 -0.1323  0.0128 -0.0574
 8070SOL    HW135843   2.252   3.854  15.334  0.2296  0.2801 -0.5314
 8070SOL    HW235844   2.158   3.744  15.328  0.5172 -2.1497 -0.9014
 8071SOL     OW35845   1.105   0.279   2.763 -0.2674 -0.5212 -0.6428
 8071SOL    HW135846   1.023   0.304   2.805 -0.1538 -1.6502  0.2310
 8071SOL    HW235847   1.072   0.212   2.703  0.7428 -2.5635  1.0956
 8072SOL     OW35848   3.070   2.272   8.844  0.4865 -0.2541 -0.1859
 8072SOL    HW135849   3.114   2.220   8.912  0.3064  0.1697  0.2547
 8072SOL    HW235850   3.076   2.202   8.779  2.5506  0.5190 -0.8241
 8073SOL     OW35851   1.208   1.187   2.836  1.1281  0.0394 -0.4438
 8073SOL    HW135852   1.280   1.188   2.898  0.1632 -0.5662  0.6790
 8073SOL    HW235853   1.140   1.137   2.881  2.0683 -0.6454  0.1834
 8074SOL     OW35854   1.208   3.389   5.543  0.3424  0.2932 -0.1950
 8074SOL    HW135855   1.300   3.414   5.533 -0.0916  2.6946  2.0363
 8074SOL    HW235856   1.157   3.466   5.517 -1.5743 -0.7234  0.5872
 8075SOL     OW35857   0.777   2.451   6.385 -0.2411  0.3720 -0.2132
 8075SOL    HW135858   0.700   2.473   6.333 -0.5049 -3.4826 -1.4458
 8075SOL    HW235859   0.752   2.513   6.453 -1.3325  0.5226 -0.7620
 8076SOL     OW35860   2.926   3.865  12.690 -0.2502  0.2234 -0.5660
 8076SOL    HW135861   2.940   3.931  12.758 -2.0251 -0.5819  0.5706
 8076SOL    HW235862   2.984   3.795  12.721 -1.5077  0.4093  2.1785
 8077SOL     OW35863   2.645   1.866   9.347  0.6701  0.3443 -0.0615
 8077SOL    HW135864   2.578   1.819   9.296 -0.5964  1.8743  0.1946
 8077SOL    HW235865   2.607   1.873   9.434  1.3715  1.1505  0.1847
 8078SOL     OW35866   1.231   4.568   9.471 -0.3288  0.2124 -0.0241
 8078SOL    HW135867   1.147   4.529   9.496  0.3968 -0.8908  0.6800
 8078SOL    HW235868   1.213   4.662   9.479  0.9796  0.1691  3.2480
 8079SOL     OW35869   0.450   4.680   9.632  0.3421  0.2188 -0.2787
 8079SOL    HW135870   0.361   4.668   9.666  0.3628  0.6473 -0.0725
 8079SOL    HW235871   0.432   0.019   9.577  0.6560  0.1153 -0.5271
 8080SOL     OW35872   1.529   2.727   3.241  0.3129 -0.4882  0.1843
 8080SOL    HW135873   1.550   2.779   3.164 -0.1879 -0.7188 -0.1117
 8080SOL    HW235874   1.523   2.794   3.309 -0.2723  0.8064 -1.1714
 8081SOL     OW35875   3.096   3.061   6.996 -0.2286 -0.0055  0.1634
 8081SOL    HW135876   3.002   3.054   7.014 -0.3859 -0.2105 -0.7334
 8081SOL    HW235877   3.135   3.028   7.077  0.1212  0.2432  0.0920
 8082SOL     OW35878   0.715   1.408   0.478  0.6915  0.2503  0.7599
 8082SOL    HW135879   0.709   1.415   0.573 -0.1295  3.5558  0.4749
 8082SOL    HW235880   0.742   1.495   0.449  1.9870 -0.6316 -0.6682
 8083SOL     OW35881   4.618   2.484   7.291  0.4802  0.0721 -0.0240
 8083SOL    HW135882   4.579   2.500   7.205 -0.4533  2.8163  0.9041
 8083SOL    HW235883   4.545   2.507   7.349  1.0593  1.1941  0.2557
 8084SOL     OW35884   3.452   0.210   7.352  0.0012 -0.0252  0.7565
 8084SOL    HW135885   3.522   0.229   7.415  1.5748 -1.6261 -0.5351
 8084SOL    HW235886   3.496   0.188   7.271 -0.9397  0.5828  0.0724
 8085SOL     OW35887   2.118   0.907   4.269 -0.0798 -0.0635  0.2959
 8085SOL    HW135888   2.067   0.859   4.334  0.5138  0.2991  1.0346
 8085SOL    HW235889   2.055   0.963   4.224 -0.0089  0.9836  1.4992
 8086SOL     OW35890   1.235   0.920   2.518 -0.3467  0.6687 -0.4349
 8086SOL    HW135891   1.240   0.941   2.425  0.3004 -0.8129 -0.7280
 8086SOL    HW235892   1.323   0.883   2.525  0.1100  1.3257 -3.0397
 8087SOL     OW35893   2.219   3.489   3.027  0.1771  0.7001 -0.1354
 8087SOL    HW135894   2.156   3.445   2.970 -1.0998  0.5361  1.3894
 8087SOL    HW235895   2.287   3.520   2.968 -0.1627 -0.4239 -1.0985
 8088SOL     OW35896   3.868   4.295   1.948 -0.5029  0.2176 -0.5912
 8088SOL    HW135897   3.948   4.335   1.912 -1.1781  1.6914 -0.4786
 8088SOL    HW235898   3.883   4.303   2.042 -1.0713 -2.0086 -0.3225
 8089SOL     OW35899   0.764   4.402  12.747  0.0984 -0.2819  0.3181
 8089SOL    HW135900   0.835   4.392  12.810  0.4290  2.2703  0.3434
 8089SOL    HW235901   0.805   4.446  12.673 -0.1646 -1.0576 -0.2962
 8090SOL     OW35902   1.644   4.022   5.705  0.0187 -0.0181  0.3202
 8090SOL    HW135903   1.551   4.013   5.690  0.2185 -1.4338 -0.0054
 8090SOL    HW235904   1.661   3.964   5.779 -1.4544  0.1982  0.8256
 8091SOL     OW35905   3.472   0.137  16.250 -0.2969  0.3488 -0.3619
 8091SOL    HW135906   3.473   0.092  16.335  0.1582  1.4314  0.2050
 8091SOL    HW235907   3.378   0.157  16.247  0.0576  1.9450 -0.6545
 8092SOL     OW35908   2.464   4.163   3.083  0.3298  0.7376 -0.4305
 8092SOL    HW135909   2.513   4.083   3.066 -3.0931 -0.7611 -3.2608
 8092SOL    HW235910   2.506   4.227   3.026  0.6892  0.0927 -0.8834
 8093SOL     OW35911   3.481   0.842   1.429 -0.2459 -0.3342 -0.2970
 8093SOL    HW135912   3.515   0.921   1.388 -1.0796  1.0904  1.7363
 8093SOL    HW235913   3.543   0.837   1.502  0.4977  0.4873 -0.8835
 8094SOL     OW35914   3.028   0.088  17.024 -0.2324  0.3571 -0.1434
 8094SOL    HW135915   3.123   0.081  17.032  0.1105  3.3389 -1.6996
 8094SOL    HW235916   3.015   4.731  17.020 -1.9173  0.6362 -1.0368
 8095SOL     OW35917   3.788   3.088   7.383 -0.4399  0.2212  0.0004
 8095SOL    HW135918   3.712   3.141   7.362  0.3076  1.4210  0.3142
 8095SOL    HW235919   3.798   3.106   7.477 -0.9732  0.6878 -0.0380
 8096SOL     OW35920   4.554   3.265   2.227  0.4466  0.7616 -0.0682
 8096SOL    HW135921   4.521   3.200   2.289  0.4717  1.3106  0.5183
 8096SOL    HW235922   4.648   3.254   2.243  0.1110  0.0323  1.4557
 8097SOL     OW35923   3.876   0.144   6.918  0.3161 -0.0445 -0.1072
 8097SOL    HW135924   3.853   0.080   6.850 -0.2760  0.3188 -0.2462
 8097SOL    HW235925   3.817   0.109   6.984 -0.7252  2.2181  0.1435
 8098SOL     OW35926   2.055   1.733   9.371 -0.4410  0.0662 -0.2080
 8098SOL    HW135927   2.036   1.654   9.320 -0.8594  1.5731 -2.4326
 8098SOL    HW235928   2.023   1.719   9.460 -0.4723  0.4205 -0.1625
 8099SOL     OW35929   1.608   0.688   7.359 -0.0431  0.1852  0.0032
 8099SOL    HW135930   1.592   0.696   7.265 -0.0848  0.1825  0.0101
 8099SOL    HW235931   1.521   0.672   7.396 -0.7820  1.6914 -1.0716
 8100SOL     OW35932   4.134   4.240  16.595 -0.0049 -0.6198  0.9304
 8100SOL    HW135933   4.174   4.165  16.640  1.0001 -0.2876  0.5915
 8100SOL    HW235934   4.162   4.315  16.647 -2.0062  0.4548  0.4502
 8101SOL     OW35935   3.237   4.344   6.024 -0.2805 -0.2874  0.0596
 8101SOL    HW135936   3.150   4.383   6.031  0.2526  0.8572  0.2265
 8101SOL    HW235937   3.298   4.414   6.000 -0.9584 -0.4803 -2.2087
 8102SOL     OW35938   2.493   1.593   4.187  0.3536 -0.3701  0.0132
 8102SOL    HW135939   2.575   1.547   4.205  0.7368  0.1224 -0.4837
 8102SOL    HW235940   2.493   1.598   4.092  1.9200 -2.1651 -0.0781
 8103SOL     OW35941   3.653   4.432  17.051  0.5764  0.7410 -1.0167
 8103SOL    HW135942   3.709   4.374  17.102 -2.1211  1.0244  2.2569
 8103SOL    HW235943   3.682   4.518  17.083  1.9070  0.3564 -1.2055
 8104SOL     OW35944   1.107   4.562   5.144 -0.1787  0.0017  0.3598
 8104SOL    HW135945   1.153   4.640   5.174  0.3376 -0.7739  1.5375
 8104SOL    HW235946   1.080   4.589   5.055  0.7863  0.2298  0.1407
 8105SOL     OW35947   2.901   1.417   5.321  0.2265 -0.1526  0.7005
 8105SOL    HW135948   2.815   1.418   5.364 -2.1200 -0.2252 -4.0156
 8105SOL    HW235949   2.887   1.346   5.258 -0.0831 -0.0700  0.6730
 8106SOL     OW35950   4.679   4.431   2.291 -0.2475 -0.4958  0.9956
 8106SOL    HW135951   4.585   4.424   2.310  0.2403 -2.2720  2.7375
 8106SOL    HW235952   4.664   4.486   2.214 -2.0703 -2.4242 -0.0287
 8107SOL     OW35953   3.075   1.924   4.102 -0.1012  0.0680 -0.4553
 8107SOL    HW135954   3.133   1.998   4.087 -0.2678  0.8181  2.7675
 8107SOL    HW235955   3.005   1.951   4.042  1.3204 -1.0257 -2.6229
 8108SOL     OW35956   1.926   0.191  11.873 -0.5189 -0.5002  0.3876
 8108SOL    HW135957   1.875   0.176  11.793 -0.4842  0.4517  0.1906
 8108SOL    HW235958   1.865   0.158  11.939  1.6991  1.0082  3.1610
 8109SOL     OW35959   2.905   1.997   3.910 -0.6345 -0.0928  0.1617
 8109SOL    HW135960   2.862   2.066   3.961 -0.7405  1.7090 -2.3407
 8109SOL    HW235961   2.834   1.949   3.868  0.1549  0.0532 -1.3337
 8110SOL     OW35962   1.876   1.862   7.962 -0.3048 -0.2014  0.0240
 8110SOL    HW135963   1.834   1.935   8.008 -1.9543 -1.2898  0.2164
 8110SOL    HW235964   1.844   1.784   8.006 -0.8608 -0.6741 -1.2391
 8111SOL     OW35965   2.832   0.812   5.878 -0.0593 -0.3802  0.3636
 8111SOL    HW135966   2.821   0.907   5.883 -1.6807 -0.5908  1.0397
 8111SOL    HW235967   2.920   0.799   5.843  0.0569  1.7080 -0.1096
 8112SOL     OW35968   0.132   1.028   6.644  0.1295  0.0876  0.3414
 8112SOL    HW135969   0.042   1.057   6.661  0.1107 -0.1074  0.5826
 8112SOL    HW235970   0.132   1.001   6.552 -0.4998 -0.7433  0.5856
 8113SOL     OW35971   0.131   4.165   4.994  0.6831 -0.2449 -0.2717
 8113SOL    HW135972   0.040   4.185   5.015  1.2299 -0.2355  2.0239
 8113SOL    HW235973   0.151   4.121   5.077 -0.9289 -0.2388  0.1102
 8114SOL     OW35974   1.913   2.657   2.158  0.3215  0.2792 -0.1249
 8114SOL    HW135975   1.972   2.611   2.098 -0.0122 -2.6399  1.8027
 8114SOL    HW235976   1.973   2.703   2.218  1.7170 -0.0962 -1.2236
 8115SOL     OW35977   4.664   0.305  13.530  0.1893  0.2136  0.0655
 8115SOL    HW135978   4.634   0.214  13.530  0.1986  0.2114 -0.4729
 8115SOL    HW235979   0.020   0.294  13.546  0.5143 -0.7869 -2.6362
 8116SOL     OW35980   3.483   1.114  16.917 -0.1159 -0.4752 -0.1107
 8116SOL    HW135981   3.537   1.192  16.928 -0.6534  0.2543 -2.5832
 8116SOL    HW235982   3.437   1.144  16.838  1.6064 -1.8887 -1.6845
 8117SOL     OW35983   3.625   1.861   7.177 -0.3639 -0.0029 -0.1491
 8117SOL    HW135984   3.604   1.861   7.271 -0.8050 -0.7616 -0.2474
 8117SOL    HW235985   3.545   1.901   7.145 -0.8479 -2.3221 -1.8431
 8118SOL     OW35986   0.335   1.724   4.744  0.9458  0.2341  0.5373
 8118SOL    HW135987   0.353   1.642   4.697  2.0050 -0.8892  2.9056
 8118SOL    HW235988   0.280   1.770   4.681  2.2728  0.7366 -0.2500
 8119SOL     OW35989   4.574   0.265   5.087  0.3933 -0.0903  0.1246
 8119SOL    HW135990   4.517   0.235   5.016  1.7731 -0.5666 -0.7846
 8119SOL    HW235991   4.517   0.330   5.126  1.2726  0.4187  0.5731
 8120SOL     OW35992   4.465   2.046   7.775 -0.4725 -0.2930 -0.5219
 8120SOL    HW135993   4.561   2.043   7.785 -0.6500 -1.8471  0.7241
 8120SOL    HW235994   4.441   2.128   7.818 -0.8246 -0.8017  0.2545
 8121SOL     OW35995   0.190   0.203   9.630  0.2591 -0.6081  0.1185
 8121SOL    HW135996   0.237   0.217   9.712 -0.0745  1.7162 -0.0674
 8121SOL    HW235997   0.116   0.145   9.647  0.1074 -0.4007  0.1781
 8122SOL     OW35998   2.679   1.384   7.026 -0.6530  0.0279  0.0785
 8122SOL    HW135999   2.751   1.323   7.044  0.6923  1.6983  0.2909
 8122SOL    HW236000   2.634   1.383   7.110  0.0941  0.8117  0.4767
 8123SOL     OW36001   2.636   3.810   6.848  0.0480  0.3617  0.4956
 8123SOL    HW136002   2.577   3.852   6.784 -3.3542 -0.4175  3.0938
 8123SOL    HW236003   2.717   3.850   6.816  0.6303 -0.8183  0.4850
 8124SOL     OW36004   0.920   1.667   3.001 -0.7287  0.3700 -0.0041
 8124SOL    HW136005   0.957   1.734   3.058 -0.1917  1.1504 -1.2635
 8124SOL    HW236006   0.957   1.588   3.041  1.8695  0.8340 -1.4474
 8125SOL     OW36007   3.920   4.138  16.805  0.2093 -0.5948  0.2160
 8125SOL    HW136008   3.835   4.180  16.796 -0.1927 -0.6834  3.8345
 8125SOL    HW236009   3.887   4.073  16.743  0.3037 -0.9943  0.5935
 8126SOL     OW36010   3.428   3.110   1.900 -0.7509  0.1104  0.0704
 8126SOL    HW136011   3.473   3.096   1.817  0.7539  1.9341  0.5659
 8126SOL    HW236012   3.345   3.070   1.875  0.2480 -1.6892 -0.3098
 8127SOL     OW36013   1.807   1.593   2.805 -0.1776  0.1653 -0.9492
 8127SOL    HW136014   1.815   1.560   2.715 -4.9522 -1.8875 -0.6732
 8127SOL    HW236015   1.759   1.674   2.789 -1.7318 -0.8601 -1.5729
 8128SOL     OW36016   0.722   4.237   0.837  0.2392 -0.3609 -0.6661
 8128SOL    HW136017   0.645   4.291   0.857  1.5825  0.5116  2.0852
 8128SOL    HW236018   0.776   4.300   0.789  0.2142  0.7732  0.7910
 8129SOL     OW36019   2.298   1.021   2.150 -0.0767 -0.3846 -0.2621
 8129SOL    HW136020   2.254   1.096   2.189 -0.6066 -1.0415  0.4077
 8129SOL    HW236021   2.270   0.949   2.207 -2.5927 -1.0598 -2.3291
 8130SOL     OW36022   4.093   2.369   6.835  0.1595 -0.7345 -0.2234
 8130SOL    HW136023   4.141   2.387   6.916  0.1347  0.8247 -0.5468
 8130SOL    HW236024   4.033   2.442   6.819  2.2422  1.2857  1.2277
 8131SOL     OW36025   2.588   2.145   5.013  0.2398 -0.0738 -0.0977
 8131SOL    HW136026   2.671   2.143   4.966 -0.1578  0.9852 -0.8432
 8131SOL    HW236027   2.554   2.058   4.989  0.4869  0.5644 -2.7779
 8132SOL     OW36028   1.885   1.266  17.650  0.5202  0.2807 -0.0531
 8132SOL    HW136029   1.811   1.240  17.596  0.4135  0.2671  0.0989
 8132SOL    HW236030   1.845   1.332  17.707  0.3975  1.0050 -0.9761
 8133SOL     OW36031   0.560   1.410  12.053  0.3906 -0.1162 -0.5701
 8133SOL    HW136032   0.571   1.403  11.959  0.0159  1.4582 -0.7341
 8133SOL    HW236033   0.506   1.489  12.055  2.7959  1.5600 -1.3405
 8134SOL     OW36034   3.970   0.750   0.146 -0.3422  0.1844  0.9188
 8134SOL    HW136035   3.931   0.752   0.233 -1.3617  0.5530  0.4516
 8134SOL    HW236036   3.891   0.735   0.095  0.5243  1.9814 -0.9814
 8135SOL     OW36037   2.334   2.077   1.451  0.0672  0.2669 -0.5091
 8135SOL    HW136038   2.408   2.040   1.403 -0.6251 -1.4410 -0.2275
 8135SOL    HW236039   2.328   2.164   1.411  1.8016  0.9247  0.6228
 8136SOL     OW36040   3.877   1.386   2.579 -0.2711 -0.4087  0.1014
 8136SOL    HW136041   3.946   1.320   2.586 -0.5389 -0.8967 -1.9194
 8136SOL    HW236042   3.822   1.365   2.655  1.1452  1.2171  1.5790
 8137SOL     OW36043   3.146   2.411   2.385 -0.1283 -0.2440 -0.2390
 8137SOL    HW136044   3.133   2.392   2.478 -1.2169 -2.6339 -0.8846
 8137SOL    HW236045   3.170   2.324   2.353 -1.9767 -1.1539  0.8508
 8138SOL     OW36046   2.740   1.508   3.326  0.4028  0.0244  0.1121
 8138SOL    HW136047   2.698   1.429   3.358  0.2563 -0.2635 -0.7744
 8138SOL    HW236048   2.809   1.526   3.389  1.2653  0.9223 -1.0817
 8139SOL     OW36049   1.379   3.110  10.564  0.2807  0.3230  0.0773
 8139SOL    HW136050   1.306   3.069  10.518 -0.0805  2.6608 -1.4067
 8139SOL    HW236051   1.397   3.034  10.620  0.3611  1.2890  1.3604
 8140SOL     OW36052   0.436   2.618   9.291 -0.1690  0.7907  0.7453
 8140SOL    HW136053   0.438   2.523   9.299 -2.4084  0.6874  0.0596
 8140SOL    HW236054   0.496   2.636   9.218 -1.4185 -2.1211 -0.9838
 8141SOL     OW36055   2.267   1.676   8.963 -0.1421 -0.3380  0.1000
 8141SOL    HW136056   2.189   1.644   9.007  0.7716 -0.8633  1.3465
 8141SOL    HW236057   2.227   1.743   8.908 -0.5453  0.5443  1.4699
 8142SOL     OW36058   1.566   0.337   4.989 -0.2518 -0.0412 -0.2721
 8142SOL    HW136059   1.630   0.403   5.017 -2.3087  1.7151  0.2856
 8142SOL    HW236060   1.626   0.262   4.991 -1.1056 -0.7538 -1.3920
 8143SOL     OW36061   1.773   2.782  15.660  0.1511 -0.1802  0.3481
 8143SOL    HW136062   1.765   2.829  15.576 -1.4016  0.1210  0.6643
 8143SOL    HW236063   1.771   2.689  15.637  2.5868  0.0642 -0.8497
 8144SOL     OW36064   2.733   3.688   6.539  0.8153 -0.2378 -0.5220
 8144SOL    HW136065   2.695   3.621   6.482  0.9018  0.3853 -1.2970
 8144SOL    HW236066   2.820   3.705   6.504  1.0625 -0.5597 -0.0681
 8145SOL     OW36067   3.962   0.652   9.303  0.0271  0.1021  0.3973
 8145SOL    HW136068   4.014   0.692   9.373  2.2142  0.5184 -1.4821
 8145SOL    HW236069   3.918   0.591   9.362 -0.3031  0.7980  0.8593
 8146SOL     OW36070   2.646   1.612  15.603 -0.7154 -0.7824 -0.2393
 8146SOL    HW136071   2.687   1.542  15.656 -0.3977 -1.1962 -1.0305
 8146SOL    HW236072   2.555   1.583  15.612 -0.4183 -0.5762  3.5245
 8147SOL     OW36073   1.779   1.826  13.051 -0.3481  0.3011 -0.2130
 8147SOL    HW136074   1.837   1.807  12.977  0.3561  2.7745 -0.3113
 8147SOL    HW236075   1.838   1.877  13.107 -0.7302 -0.2744  0.7097
 8148SOL     OW36076   1.849   1.163  14.316 -0.0701  0.2680 -0.0556
 8148SOL    HW136077   1.880   1.095  14.376 -1.0949 -0.0955  0.0638
 8148SOL    HW236078   1.927   1.163  14.261 -0.7969 -2.0944 -1.0488
 8149SOL     OW36079   2.728   2.829   9.975 -0.7463  0.3515  0.1745
 8149SOL    HW136080   2.815   2.834  10.013 -1.3555  0.5026  1.5476
 8149SOL    HW236081   2.718   2.735   9.992 -1.3996  0.1105 -1.5228
 8150SOL     OW36082   3.810   3.567   6.819 -0.6098  0.3552 -0.1066
 8150SOL    HW136083   3.802   3.475   6.843  1.2230  0.0918 -0.5681
 8150SOL    HW236084   3.821   3.612   6.903 -1.7567  0.0826  0.1961
 8151SOL     OW36085   1.824   0.228   6.463  0.0755 -0.1142 -0.5376
 8151SOL    HW136086   1.785   0.144   6.484  0.2941 -0.3205 -0.9594
 8151SOL    HW236087   1.882   0.204   6.391  1.2796 -1.3383  0.8299
 8152SOL     OW36088   0.341   0.627  12.438 -0.1059 -0.2828  0.1562
 8152SOL    HW136089   0.273   0.663  12.381  1.1795  4.2482  1.5186
 8152SOL    HW236090   0.420   0.648  12.389 -1.5410  0.4824 -1.8554
 8153SOL     OW36091   2.977   1.639   5.176 -0.3965  1.1001  0.0904
 8153SOL    HW136092   3.063   1.667   5.208  0.7475 -1.2108 -0.9640
 8153SOL    HW236093   2.967   1.552   5.216  1.7493  0.3607 -1.0023
 8154SOL     OW36094   2.052   4.414   1.900 -0.7274 -0.4848 -0.2805
 8154SOL    HW136095   1.960   4.397   1.877 -0.4264 -0.1804 -1.7348
 8154SOL    HW236096   2.067   4.341   1.959  1.7553  0.2208 -0.0294
 8155SOL     OW36097   2.942   2.423   7.145  0.7224 -0.3137  0.2857
 8155SOL    HW136098   2.936   2.441   7.238 -2.2036  0.0971  0.0069
 8155SOL    HW236099   2.907   2.333   7.150 -0.6371  0.2858  1.5844
 8156SOL     OW36100   0.710   1.115  12.824 -0.4005  0.2926  0.2553
 8156SOL    HW136101   0.650   1.184  12.852 -0.0718  0.7468 -0.1416
 8156SOL    HW236102   0.669   1.032  12.846  1.7658 -0.6038  0.9271
 8157SOL     OW36103   4.100   4.139   9.025  0.4747  0.4828  0.0452
 8157SOL    HW136104   4.038   4.134   9.098 -0.9446  1.9309 -1.0665
 8157SOL    HW236105   4.058   4.208   8.973  0.0858  0.3219  0.1462
 8158SOL     OW36106   3.678   1.869   1.704 -0.6832 -0.0407 -0.1224
 8158SOL    HW136107   3.662   1.778   1.680 -1.4776  0.3650 -1.1349
 8158SOL    HW236108   3.770   1.855   1.727 -0.2549  1.0133 -1.1733
 8159SOL     OW36109   2.025   1.577   0.196  0.5834 -0.1651  0.3282
 8159SOL    HW136110   2.017   1.641   0.266  2.8868 -0.5225  0.9374
 8159SOL    HW236111   1.950   1.600   0.141  1.0312 -1.4151 -0.8289
 8160SOL     OW36112   2.469   0.434   8.405  0.0687 -0.2816  0.1223
 8160SOL    HW136113   2.433   0.347   8.425  2.2228 -0.8091  1.6918
 8160SOL    HW236114   2.406   0.463   8.339  0.0506  0.1213  0.3197
 8161SOL     OW36115   3.755   3.065   2.984  0.1609 -0.3417 -0.5007
 8161SOL    HW136116   3.680   3.091   3.037 -0.0017 -1.1590 -0.3357
 8161SOL    HW236117   3.750   3.136   2.919  2.1477 -0.7672 -1.1187
 8162SOL     OW36118   2.380   0.155  15.139 -0.1397 -0.0216  1.0965
 8162SOL    HW136119   2.412   0.142  15.050 -2.6742 -2.1801  0.5029
 8162SOL    HW236120   2.364   0.250  15.141 -0.7749 -0.1379  1.4663
 8163SOL     OW36121   4.335   1.297   8.540  0.5600  0.0294  0.1841
 8163SOL    HW136122   4.352   1.377   8.589  0.9924  0.1426 -0.1561
 8163SOL    HW236123   4.419   1.252   8.544  0.8061  0.3808 -1.0540
 8164SOL     OW36124   0.082   0.657   7.619  0.0620  0.1767 -0.4786
 8164SOL    HW136125   0.136   0.735   7.609 -0.6020  0.5836 -0.8682
 8164SOL    HW236126   0.129   0.603   7.682  0.1503 -0.5743 -1.1931
 8165SOL     OW36127   4.107   0.861   5.403  0.1323  0.4406 -0.0854
 8165SOL    HW136128   4.093   0.902   5.487  0.7318  1.0616 -0.2934
 8165SOL    HW236129   4.016   0.833   5.388 -0.0869  1.2994 -0.3437
 8166SOL     OW36130   2.984   4.317   5.058  0.2757  0.5584 -0.1044
 8166SOL    HW136131   3.044   4.242   5.055  0.5382  0.9049 -3.6025
 8166SOL    HW236132   2.898   4.282   5.080 -1.1869  3.8469 -0.5277
 8167SOL     OW36133   3.310   1.328   7.828 -0.2756  0.4886  0.3467
 8167SOL    HW136134   3.329   1.242   7.864  0.5008  0.5169 -0.0068
 8167SOL    HW236135   3.394   1.361   7.858  0.1891 -0.4219  0.0233
 8168SOL     OW36136   0.705   0.305   3.303 -0.2145  0.1130 -0.1812
 8168SOL    HW136137   0.631   0.361   3.327 -0.5641 -0.1383 -0.6635
 8168SOL    HW236138   0.663   0.219   3.314  2.6191 -1.4507 -1.7180
 8169SOL     OW36139   1.953   2.397   4.833 -0.0961  0.0488 -0.0866
 8169SOL    HW136140   1.934   2.424   4.923  2.3194 -1.5381  0.8971
 8169SOL    HW236141   1.974   2.304   4.845  0.0064 -0.2249 -2.3744
 8170SOL     OW36142   0.526   1.811  15.806 -0.0411  0.0463  0.5155
 8170SOL    HW136143   0.476   1.890  15.785 -2.1324 -2.0565 -2.3584
 8170SOL    HW236144   0.560   1.833  15.893 -3.1266  2.5292  1.0831
 8171SOL     OW36145   3.946   3.719  11.551  0.3818 -0.0739  0.4594
 8171SOL    HW136146   3.974   3.682  11.634 -1.2454 -1.1084  0.5438
 8171SOL    HW236147   3.983   3.653  11.492 -1.2749  0.1230 -0.7991
 8172SOL     OW36148   2.486   3.230  15.894 -0.0302  0.1748 -0.6268
 8172SOL    HW136149   2.507   3.265  15.807 -1.1071  2.6237  0.0884
 8172SOL    HW236150   2.393   3.251  15.882 -0.1403 -0.3493 -0.6993
 8173SOL     OW36151   1.096   3.600   6.984 -0.5209  0.1793 -0.4011
 8173SOL    HW136152   1.090   3.510   7.017 -0.6102 -0.7480 -2.9415
 8173SOL    HW236153   1.090   3.657   7.061  0.0387  0.2821 -0.4383
 8174SOL     OW36154   0.474   2.375  16.929  0.3021 -0.1816  0.0541
 8174SOL    HW136155   0.394   2.425  16.914 -0.7142 -1.6573  0.5242
 8174SOL    HW236156   0.496   2.372  17.022 -2.2280  2.4276  0.7293
 8175SOL     OW36157   3.598   4.693   3.645  0.1697 -0.0249 -0.0735
 8175SOL    HW136158   3.524   0.011   3.671  1.9632  2.1287  0.4645
 8175SOL    HW236159   3.574   4.620   3.701 -1.9506  0.6711 -0.0597
 8176SOL     OW36160   3.275   0.072   2.699  0.2224  0.1536 -0.2575
 8176SOL    HW136161   3.236   0.026   2.625  0.4778  3.3537 -2.3477
 8176SOL    HW236162   3.368   0.054   2.688  0.1079 -0.6543  0.0765
 8177SOL     OW36163   3.900   3.605   9.179  0.4274 -0.2476  0.0194
 8177SOL    HW136164   3.816   3.637   9.212 -1.5102 -2.0769 -3.1098
 8177SOL    HW236165   3.957   3.671   9.219 -1.6426  1.6831 -0.2249
 8178SOL     OW36166   0.476   3.844   2.499  0.1903 -0.3960  0.4820
 8178SOL    HW136167   0.544   3.880   2.442 -1.1728 -1.2362 -1.6793
 8178SOL    HW236168   0.485   3.750   2.484  0.3198 -0.4112  0.6517
 8179SOL     OW36169   4.360   0.497   9.157  0.0316 -0.1793  0.2157
 8179SOL    HW136170   4.407   0.544   9.089 -0.8540  0.5887  0.1317
 8179SOL    HW236171   4.273   0.494   9.116  0.1375  0.9098 -0.0763
 8180SOL     OW36172   3.580   0.553  14.375  0.2318  0.5184 -0.0490
 8180SOL    HW136173   3.631   0.622  14.417  1.5439 -0.5719  0.1152
 8180SOL    HW236174   3.647   0.495  14.340  1.8017  1.8660  0.7445
 8181SOL     OW36175   2.289   0.276   7.099  0.1849  0.1423  0.6888
 8181SOL    HW136176   2.205   0.254   7.060  0.2372 -1.9492  1.7714
 8181SOL    HW236177   2.266   0.361   7.136 -0.8229 -0.0428  0.4907
 8182SOL     OW36178   3.024   1.588   2.680  0.2471  0.1034 -0.5319
 8182SOL    HW136179   2.951   1.628   2.726  0.8811 -0.6053  1.0660
 8182SOL    HW236180   2.993   1.568   2.591 -0.5153  0.1340 -0.2755
 8183SOL     OW36181   4.161   0.126   6.226 -0.1713  0.0130 -0.8988
 8183SOL    HW136182   4.138   0.066   6.154 -1.4499 -0.3970 -0.1523
 8183SOL    HW236183   4.074   0.162   6.241 -0.6658 -0.9943 -1.2898
 8184SOL     OW36184   3.689   2.740   2.910  0.5027  0.1424 -0.1832
 8184SOL    HW136185   3.655   2.828   2.897 -2.1089 -0.5531  2.1171
 8184SOL    HW236186   3.607   2.694   2.929  1.4822 -1.0145  1.1969
 8185SOL     OW36187   2.152   2.931   7.448 -0.0305 -0.0068  0.2276
 8185SOL    HW136188   2.235   2.945   7.402 -0.7446  1.4051 -0.6474
 8185SOL    HW236189   2.172   2.907   7.538 -2.9595  0.5260  1.0375
 8186SOL     OW36190   2.461   3.694   6.010 -0.0048  0.0604  0.0930
 8186SOL    HW136191   2.521   3.652   6.072  0.8404 -2.1595 -2.2154
 8186SOL    HW236192   2.476   3.788   6.021 -1.2847  0.2640  0.1153
 8187SOL     OW36193   0.655   0.518   5.166 -0.0733  0.0161 -0.8975
 8187SOL    HW136194   0.704   0.595   5.138  0.3486  0.5201  1.2269
 8187SOL    HW236195   0.575   0.566   5.190 -0.6065 -1.7517  0.8258
 8188SOL     OW36196   2.455   2.079   7.664  0.6735 -0.1147  0.5522
 8188SOL    HW136197   2.545   2.108   7.677  0.2823  1.0736  0.6617
 8188SOL    HW236198   2.434   2.058   7.756  0.8244  3.8294  1.4816
 8189SOL     OW36199   1.993   3.642   3.878  0.2797 -0.0058 -0.0673
 8189SOL    HW136200   1.980   3.548   3.864  1.4830  0.3882 -3.7455
 8189SOL    HW236201   1.938   3.674   3.807  0.4729 -0.7590 -0.5624
 8190SOL     OW36202   0.806   0.987   1.710 -0.2605 -0.3346  0.2105
 8190SOL    HW136203   0.829   1.076   1.737 -0.9008  0.0656 -0.5691
 8190SOL    HW236204   0.784   0.943   1.792  0.8763 -0.1847  0.5916
 8191SOL     OW36205   2.840   1.469  15.331 -0.1603 -0.2075  0.5270
 8191SOL    HW136206   2.811   1.513  15.251 -1.5947 -1.2507  0.4757
 8191SOL    HW236207   2.793   1.523  15.395  0.9847 -1.9481  2.8370
 8192SOL     OW36208   1.910   4.596   0.511  0.4619 -0.1706 -0.4533
 8192SOL    HW136209   1.878   4.660   0.574 -1.2662  1.2530 -2.7607
 8192SOL    HW236210   1.836   4.535   0.509  0.1472  0.2133 -0.3719
 8193SOL     OW36211   1.642   1.220   6.824 -0.6897 -0.7535 -0.2354
 8193SOL    HW136212   1.695   1.260   6.893  0.9554  0.1365 -2.0411
 8193SOL    HW236213   1.553   1.208   6.858 -0.1445 -1.2072  1.0522
 8194SOL     OW36214   3.305   4.219   6.263  0.2666  0.5968  0.0836
 8194SOL    HW136215   3.265   4.266   6.190 -1.6616  0.8914  1.2979
 8194SOL    HW236216   3.261   4.247   6.344  0.2563  0.3620  0.1606
 8195SOL     OW36217   3.446   3.328  10.178  0.0202  0.4006 -0.0523
 8195SOL    HW136218   3.470   3.418  10.197  3.1275 -0.1683 -1.2245
 8195SOL    HW236219   3.414   3.335  10.088  0.0167 -2.4390 -0.2707
 8196SOL     OW36220   2.759   3.619   2.430 -0.3453  0.0754  0.0304
 8196SOL    HW136221   2.834   3.633   2.488 -1.0059  1.6950  0.4983
 8196SOL    HW236222   2.689   3.647   2.489 -0.7913 -0.0071 -0.4617
 8197SOL     OW36223   4.569   3.523   3.949 -0.0002 -0.7245  0.3510
 8197SOL    HW136224   4.612   3.580   3.886 -1.9918 -1.8359 -2.0081
 8197SOL    HW236225   4.486   3.571   3.951 -0.6579 -1.8138 -0.5823
 8198SOL     OW36226   3.253   1.144   7.601  0.8945 -0.6165 -0.0295
 8198SOL    HW136227   3.274   1.163   7.693 -0.3880 -1.6678  0.4710
 8198SOL    HW236228   3.337   1.171   7.563  0.0503  1.9157 -0.1077
 8199SOL     OW36229   2.301   3.890  10.518 -0.2153 -0.0860  0.2771
 8199SOL    HW136230   2.266   3.812  10.475  2.0556 -1.3692  0.7480
 8199SOL    HW236231   2.223   3.932  10.553 -0.1268  2.1278 -2.2001
 8200SOL     OW36232   1.488   3.072   7.375  0.2358  0.1796 -0.6533
 8200SOL    HW136233   1.549   3.003   7.400 -0.6359 -0.0444  0.8593
 8200SOL    HW236234   1.546   3.148   7.380  1.5665 -0.9617  1.3912
 8201SOL     OW36235   2.736   3.950   2.757 -0.2765  0.0821 -0.9792
 8201SOL    HW136236   2.699   3.949   2.845 -0.8112 -0.7927 -1.2108
 8201SOL    HW236237   2.831   3.950   2.769 -0.2953  1.9477 -0.9304
 8202SOL     OW36238   1.617   3.531   2.806 -0.2685 -0.5851 -0.0544
 8202SOL    HW136239   1.561   3.527   2.884  0.8848 -0.4000  0.7922
 8202SOL    HW236240   1.705   3.534   2.845  0.0950 -0.0805 -0.9015
 8203SOL     OW36241   4.252   3.576   7.654  0.1818  0.1833 -0.1075
 8203SOL    HW136242   4.258   3.552   7.562 -2.2914  0.9259 -0.4573
 8203SOL    HW236243   4.183   3.642   7.648 -1.9782 -2.2381 -2.1419
 8204SOL     OW36244   3.441   3.434   9.130 -0.1092  0.3668 -0.4576
 8204SOL    HW136245   3.437   3.341   9.152 -1.8365  0.7236  0.7550
 8204SOL    HW236246   3.470   3.429   9.039  0.1062  2.4051 -0.5108
 8205SOL     OW36247   4.023   3.945   1.843  0.2078 -0.2434 -0.4567
 8205SOL    HW136248   4.065   3.991   1.915  0.5967 -1.2103 -0.0659
 8205SOL    HW236249   3.939   3.938   1.887 -0.2057 -4.0110 -1.7890
 8206SOL     OW36250   0.060   2.569   8.287  0.4644 -0.3405 -0.2158
 8206SOL    HW136251   4.717   2.523   8.263 -0.2350  0.3009  0.8929
 8206SOL    HW236252   0.126   2.555   8.218  0.6512  0.7317 -0.2630
 8207SOL     OW36253   1.168   0.476  11.991 -0.2672 -0.0668 -0.3723
 8207SOL    HW136254   1.092   0.495  12.045  0.4435  0.6735  0.3607
 8207SOL    HW236255   1.244   0.473  12.049  0.4134  1.4195 -1.1625
 8208SOL     OW36256   3.398   2.145   1.474  0.6429  0.1592 -0.2859
 8208SOL    HW136257   3.437   2.155   1.388 -2.4095  2.8726 -1.3899
 8208SOL    HW236258   3.478   2.125   1.522 -0.4573 -2.0308  0.5898
 8209SOL     OW36259   4.309   2.285   4.051  0.2316 -0.5734 -0.4974
 8209SOL    HW136260   4.220   2.266   4.082 -0.0023 -0.3039 -1.0073
 8209SOL    HW236261   4.291   2.366   4.004  2.6121  0.0823 -0.2564
 8210SOL     OW36262   3.690   3.946   3.220 -0.3026  0.1378  0.4404
 8210SOL    HW136263   3.781   3.975   3.226 -0.5219  0.9257 -0.0181
 8210SOL    HW236264   3.645   4.022   3.256  0.4447  0.2357  1.1579
 8211SOL     OW36265   0.818   3.494  11.757 -0.1466  0.0703 -0.7192
 8211SOL    HW136266   0.807   3.452  11.842  1.3257  2.3988  0.6137
 8211SOL    HW236267   0.823   3.423  11.693 -1.5372  0.1595 -0.9277
 8212SOL     OW36268   1.241   2.077  16.771  0.7919 -0.0005 -0.0808
 8212SOL    HW136269   1.187   2.049  16.845  1.0258  0.0989  0.1276
 8212SOL    HW236270   1.222   2.170  16.776 -0.0152 -0.1651 -0.1562
 8213SOL     OW36271   4.692   3.438  14.858  0.3985  0.4499  0.2698
 8213SOL    HW136272   4.603   3.472  14.853 -1.1964 -3.7089  0.1907
 8213SOL    HW236273   4.715   3.479  14.941 -0.8763  2.9705 -0.6230
 8214SOL     OW36274   3.985   1.234  10.301  0.1965 -0.5897  0.6104
 8214SOL    HW136275   3.974   1.310  10.359  0.2643  0.7818 -1.1628
 8214SOL    HW236276   3.899   1.193  10.311 -0.9789  1.3414 -1.5133
 8215SOL     OW36277   3.404   2.311   3.566 -0.6279  0.1866 -0.1403
 8215SOL    HW136278   3.479   2.371   3.561 -0.0881 -0.4054  0.9420
 8215SOL    HW236279   3.393   2.320   3.661 -1.0124 -1.7640 -0.0018
 8216SOL     OW36280   0.216   4.195   3.613  0.4037  0.0778 -0.8143
 8216SOL    HW136281   0.282   4.139   3.653 -0.1950  1.0093  1.4523
 8216SOL    HW236282   0.262   4.224   3.534  1.2374 -0.3946 -0.5074
 8217SOL     OW36283   1.005   0.908   1.533  0.9169  0.4590  0.0177
 8217SOL    HW136284   0.927   0.927   1.585  0.1519 -2.3790 -0.1002
 8217SOL    HW236285   0.996   0.979   1.470 -0.1398  1.4063  1.2220
 8218SOL     OW36286   3.424   2.634   2.917  0.7931  0.0137 -0.4910
 8218SOL    HW136287   3.344   2.665   2.960  1.2111 -0.0010  0.2967
 8218SOL    HW236288   3.393   2.604   2.832  0.1392 -0.1190 -0.2059
 8219SOL     OW36289   2.214   2.410  13.413  0.0387 -0.0323 -0.6801
 8219SOL    HW136290   2.145   2.398  13.348 -0.1979 -1.0615 -0.2352
 8219SOL    HW236291   2.179   2.484  13.462  2.7838  1.8264 -1.5309
 8220SOL     OW36292   1.967   3.345   8.940  0.4279  0.5531 -0.6866
 8220SOL    HW136293   2.058   3.367   8.959  0.2703  0.9633 -0.4140
 8220SOL    HW236294   1.934   3.365   9.027  1.1156  2.6201 -0.8863
 8221SOL     OW36295   3.289   2.105  16.067 -0.6012  0.3735 -0.0905
 8221SOL    HW136296   3.219   2.102  16.002  0.2373  3.2620 -1.1125
 8221SOL    HW236297   3.242   2.107  16.150 -0.4372  2.0137 -0.0513
 8222SOL     OW36298   0.357   2.974   6.682  0.3642 -0.6390  0.3054
 8222SOL    HW136299   0.314   3.052   6.717  0.3446  0.3451 -1.9562
 8222SOL    HW236300   0.318   2.967   6.595 -1.3674 -0.8741  1.0958
 8223SOL     OW36301   4.229   1.492  10.439  0.0164  0.2862  0.2055
 8223SOL    HW136302   4.239   1.586  10.456 -0.3395  0.0841  1.5699
 8223SOL    HW236303   4.317   1.466  10.464  0.9198  2.5741 -0.5880
 8224SOL     OW36304   2.117   2.870   3.064  0.2285 -0.1244 -0.4940
 8224SOL    HW136305   2.125   2.857   3.158 -0.9934  3.1693  0.0629
 8224SOL    HW236306   2.208   2.891   3.044 -0.2652  0.3053 -2.3065
 8225SOL     OW36307   3.195   3.578  11.403  0.2214  0.1584  0.7141
 8225SOL    HW136308   3.201   3.672  11.421  0.7600 -0.1315  2.0159
 8225SOL    HW236309   3.210   3.583  11.308 -0.0475 -1.5149  0.5884
 8226SOL     OW36310   0.254   4.505   7.158 -0.5145 -0.0985  0.2069
 8226SOL    HW136311   0.232   4.414   7.138 -0.3537 -0.2556  0.7352
 8226SOL    HW236312   0.283   4.548   7.078 -0.7739  1.4531  0.9456
 8227SOL     OW36313   0.614   2.784  12.413 -0.5404 -0.2986 -0.1592
 8227SOL    HW136314   0.520   2.774  12.399 -0.4381  0.3990 -1.3574
 8227SOL    HW236315   0.615   2.878  12.392 -0.0411 -0.1448  0.5391
 8228SOL     OW36316   1.486   1.899   3.345  0.3221  0.1412  0.2211
 8228SOL    HW136317   1.543   1.870   3.415 -0.3569 -0.3351  0.5762
 8228SOL    HW236318   1.470   1.989   3.371  1.9284  0.2220  0.8616
 8229SOL     OW36319   2.948   1.462   6.820  0.6677  0.3771 -0.1525
 8229SOL    HW136320   2.856   1.483   6.803  0.3126 -0.6168  0.5362
 8229SOL    HW236321   2.947   1.379   6.868 -0.4506  1.0570  1.0216
 8230SOL     OW36322   0.033   4.367   8.473  0.4386 -0.2216 -0.4239
 8230SOL    HW136323   0.018   4.272   8.480 -2.9838  0.5478  2.3822
 8230SOL    HW236324   0.121   4.370   8.512  1.2009 -2.9301 -1.8729
 8231SOL     OW36325   3.912   3.178   8.563  0.3613 -0.3780 -0.1178
 8231SOL    HW136326   3.867   3.235   8.625  1.9092  0.5776  0.1263
 8231SOL    HW236327   3.840   3.132   8.519  0.5414 -0.3185 -0.4811
 8232SOL     OW36328   2.211   3.148  11.348 -0.2118  0.2772 -0.1065
 8232SOL    HW136329   2.238   3.058  11.334 -0.8080  0.2449 -1.0515
 8232SOL    HW236330   2.238   3.161  11.439 -3.8163  1.7934  0.7705
 8233SOL     OW36331   0.370   3.080  10.342  0.0268  0.9827 -0.6190
 8233SOL    HW136332   0.380   2.987  10.364 -0.7812  1.1003  0.2410
 8233SOL    HW236333   0.456   3.096  10.303  0.2486  0.1653 -0.4613
 8234SOL     OW36334   0.403   1.953   9.755  0.5740  0.1933  0.0663
 8234SOL    HW136335   0.354   1.872   9.769 -0.5457  0.8191 -0.2104
 8234SOL    HW236336   0.357   1.982   9.676  0.0614  0.6733  0.5417
 8235SOL     OW36337   2.670   3.452   8.567  0.7930 -0.0696 -0.3529
 8235SOL    HW136338   2.698   3.361   8.559 -2.0528 -0.9547 -0.2657
 8235SOL    HW236339   2.724   3.483   8.494  0.9319  0.9704  0.2094
 8236SOL     OW36340   1.955   3.555   5.967 -0.1745 -0.3221 -0.5570
 8236SOL    HW136341   2.050   3.564   5.970 -0.4350  2.3400 -1.0393
 8236SOL    HW236342   1.950   3.490   6.037  2.8636 -0.2547 -0.2840
 8237SOL     OW36343   2.219   1.520   9.932 -0.8120  0.4391  0.0232
 8237SOL    HW136344   2.289   1.456   9.944 -1.3646 -0.3908 -1.1817
 8237SOL    HW236345   2.264   1.596   9.895  2.2188 -1.5640 -0.4495
 8238SOL     OW36346   2.089   1.456   9.683  0.0028 -0.0008 -0.5533
 8238SOL    HW136347   2.163   1.425   9.631  1.0143 -0.3375  1.1198
 8238SOL    HW236348   2.132   1.492   9.760  0.4980  0.2239 -0.9368
 8239SOL     OW36349   0.286   2.127   3.514  0.7700 -0.1281  0.5971
 8239SOL    HW136350   0.274   2.103   3.606 -1.3554  2.0100  0.8867
 8239SOL    HW236351   0.369   2.085   3.492  0.9142 -0.1107  1.0926
 8240SOL     OW36352   1.143   2.697   9.281 -0.1500 -0.5032 -0.0045
 8240SOL    HW136353   1.160   2.642   9.357  2.4455 -2.6629 -2.1814
 8240SOL    HW236354   1.114   2.783   9.312 -0.6497 -0.5425 -0.3608
 8241SOL     OW36355   0.730   1.015   7.172  0.3053 -0.5084 -0.1189
 8241SOL    HW136356   0.787   0.943   7.199 -0.0241 -0.7166  0.0077
 8241SOL    HW236357   0.705   1.049   7.258  0.0761  1.5913 -1.0266
 8242SOL     OW36358   2.544   1.769   6.497 -0.0398 -0.6032 -0.3391
 8242SOL    HW136359   2.614   1.759   6.561  0.4716 -0.2287 -0.8435
 8242SOL    HW236360   2.566   1.860   6.477 -1.1075  0.0242  1.3445
 8243SOL     OW36361   3.309   1.333   5.697  0.0872  0.3028  0.1557
 8243SOL    HW136362   3.267   1.249   5.719  0.0100  0.3089  0.0281
 8243SOL    HW236363   3.258   1.378   5.630  0.1157  1.2224  0.7532
 8244SOL     OW36364   4.118   4.650   8.061 -0.4672 -0.7130 -0.1895
 8244SOL    HW136365   4.034   4.651   8.108  0.7240 -0.2398  1.9205
 8244SOL    HW236366   4.171   4.596   8.119 -1.5070 -0.7149  0.7634
 8245SOL     OW36367   0.104   1.091   1.822 -0.7569 -0.4211 -0.1413
 8245SOL    HW136368   0.170   1.105   1.890  0.2926 -0.4496 -1.1613
 8245SOL    HW236369   0.039   1.042   1.872 -0.5550  0.9281  1.4380
 8246SOL     OW36370   4.407   1.345   2.514 -0.0429 -0.1587 -0.2781
 8246SOL    HW136371   4.390   1.343   2.608  1.0342 -1.4445 -0.0988
 8246SOL    HW236372   4.472   1.275   2.507  2.1714  2.0511 -2.0801
 8247SOL     OW36373   3.452   2.281   3.199  0.1631  0.0417 -0.7573
 8247SOL    HW136374   3.530   2.327   3.168 -1.1326  1.8250 -1.3765
 8247SOL    HW236375   3.482   2.227   3.272 -0.8710 -0.1150 -0.4373
 8248SOL     OW36376   1.918   3.212   4.078 -0.5979 -0.7100 -1.0049
 8248SOL    HW136377   1.852   3.197   4.010 -1.8821 -0.3851  0.1514
 8248SOL    HW236378   1.964   3.129   4.091  0.7642 -0.2090 -2.6817
 8249SOL     OW36379   4.609   0.233   3.163  0.1276 -0.1899 -0.0542
 8249SOL    HW136380   4.598   0.328   3.161 -3.4459 -0.5558  2.3911
 8249SOL    HW236381   4.545   0.205   3.097 -0.3336 -0.2637  0.4252
 8250SOL     OW36382   4.005   2.133   2.914  0.3962 -0.0382  0.1778
 8250SOL    HW136383   3.967   2.183   2.842  1.9586  0.6471 -0.1609
 8250SOL    HW236384   3.921   2.130   2.959 -0.5745 -0.0080 -1.6294
 8251SOL     OW36385   4.569   3.967  13.204 -0.7693 -0.0535 -0.5643
 8251SOL    HW136386   4.500   4.027  13.232 -0.4512  0.5756 -1.1218
 8251SOL    HW236387   4.615   4.008  13.131  0.3963 -0.0102  0.2000
 8252SOL     OW36388   2.190   4.258   8.872 -0.8022 -0.3060  0.0907
 8252SOL    HW136389   2.199   4.337   8.925 -0.6796 -0.8729  0.9123
 8252SOL    HW236390   2.156   4.309   8.798 -2.0690  1.7279  2.0739
 8253SOL     OW36391   1.008   2.569   6.479 -0.1971  0.3769  0.0252
 8253SOL    HW136392   0.936   2.528   6.432 -1.2787  0.6723  1.4504
 8253SOL    HW236393   1.020   2.514   6.556  1.5970 -2.2366 -2.0942
 8254SOL     OW36394   0.086   4.050   2.684 -0.0713  0.1307  0.5656
 8254SOL    HW136395   0.148   3.977   2.683 -1.8523 -1.3021 -3.1143
 8254SOL    HW236396   0.090   4.070   2.778 -3.4799  1.2375  0.4720
 8255SOL     OW36397   1.300   1.661  17.060  0.6300  0.2671 -0.4203
 8255SOL    HW136398   1.300   1.751  17.091  2.7903  0.2654 -0.4170
 8255SOL    HW236399   1.291   1.677  16.966 -0.0735 -3.2786 -0.9513
 8256SOL     OW36400   1.699   4.434   2.485  0.3117  0.1212 -0.1627
 8256SOL    HW136401   1.697   4.466   2.395  0.5715 -1.9359 -0.9034
 8256SOL    HW236402   1.674   4.512   2.534 -1.5042 -1.4824  1.4293
 8257SOL     OW36403   2.911   2.575   8.886 -0.4102  0.3493  0.0139
 8257SOL    HW136404   3.004   2.562   8.904 -0.4279 -0.4280 -0.4250
 8257SOL    HW236405   2.873   2.519   8.954  1.3865 -0.2066  0.5661
 8258SOL     OW36406   3.695   4.545  13.660 -0.0723  0.1792  0.2660
 8258SOL    HW136407   3.746   4.560  13.739 -1.3133  2.1463  0.6892
 8258SOL    HW236408   3.644   4.626  13.658 -1.3291 -0.5837  1.7377
 8259SOL     OW36409   2.884   2.829   8.244  0.6112  0.2868  0.1523
 8259SOL    HW136410   2.845   2.873   8.168  0.9503 -2.0252 -1.3716
 8259SOL    HW236411   2.974   2.860   8.246  0.3893  0.9573 -0.0669
 8260SOL     OW36412   3.307   0.443   7.956  0.1547  0.0773 -0.6510
 8260SOL    HW136413   3.291   0.537   7.969 -2.7625 -0.3112 -1.4374
 8260SOL    HW236414   3.218   0.411   7.951  0.3114 -0.1471 -1.8627
 8261SOL     OW36415   3.343   4.085   5.968 -0.9731 -0.2575 -0.2458
 8261SOL    HW136416   3.438   4.075   5.964 -0.8525  0.9895 -0.5398
 8261SOL    HW236417   3.323   4.178   5.957  0.7901  0.2422  0.7713
 8262SOL     OW36418   2.094   2.500  14.616 -0.0342  0.0782 -0.1299
 8262SOL    HW136419   2.076   2.589  14.648 -0.4075 -0.7350  1.8930
 8262SOL    HW236420   2.173   2.521  14.566 -0.0771  2.9836  1.0238
 8263SOL     OW36421   0.421   3.365   4.392  0.3581  0.6813  0.0739
 8263SOL    HW136422   0.453   3.357   4.482  0.1014 -1.8297 -0.0604
 8263SOL    HW236423   0.368   3.445   4.397  1.8593  1.6525  0.2092
 8264SOL     OW36424   4.542   3.725   9.457  0.4727  0.3533  0.5048
 8264SOL    HW136425   4.526   3.775   9.377  0.0867 -1.2939 -0.4384
 8264SOL    HW236426   4.626   3.686   9.432  0.5520  0.4084  0.6877
 8265SOL     OW36427   4.161   0.819  11.678 -0.4352  0.3454 -0.2836
 8265SOL    HW136428   4.166   0.911  11.704 -0.8685 -0.5268  2.8701
 8265SOL    HW236429   4.132   0.772  11.756 -1.2576  2.5332  0.7182
 8266SOL     OW36430   3.558   0.114  12.888  0.3402  0.1835  0.3127
 8266SOL    HW136431   3.605   0.188  12.924 -0.4129  1.5907 -1.5946
 8266SOL    HW236432   3.621   0.065  12.835 -1.1215 -1.8597  0.4753
 8267SOL     OW36433   1.773   0.602   5.959  0.3502  0.5689 -0.1860
 8267SOL    HW136434   1.729   0.647   6.032 -0.7178  1.8931 -1.6505
 8267SOL    HW236435   1.855   0.591   6.008  0.0402  1.7645  0.6069
 8268SOL     OW36436   3.050   4.314   4.436  0.3899 -0.0204  0.1359
 8268SOL    HW136437   3.073   4.318   4.529  0.1039 -1.0242  0.2527
 8268SOL    HW236438   3.132   4.291   4.393 -1.3344 -0.1805 -3.1241
 8269SOL     OW36439   1.978   1.307   4.883  0.2286  0.4761 -0.3397
 8269SOL    HW136440   1.935   1.268   4.959  1.8023 -0.6010 -0.0044
 8269SOL    HW236441   1.950   1.248   4.813 -0.9130  0.7003 -0.0729
 8270SOL     OW36442   4.241   0.119   7.462 -0.0674  0.2383  0.2359
 8270SOL    HW136443   4.268   0.127   7.554  1.2297  1.2680 -0.2460
 8270SOL    HW236444   4.218   0.209   7.441 -0.7618  1.0910  4.5153
 8271SOL     OW36445   3.496   2.705   6.128 -0.0414 -0.0859  0.2385
 8271SOL    HW136446   3.451   2.692   6.045 -0.8615  0.3049  0.6304
 8271SOL    HW236447   3.519   2.798   6.125  1.5383 -0.4529  0.7180
 8272SOL     OW36448   0.369   4.315   3.390 -0.4336 -0.2643 -0.7964
 8272SOL    HW136449   0.371   4.324   3.294 -1.7889 -1.1475 -0.9146
 8272SOL    HW236450   0.284   4.358   3.398 -0.6644 -0.5019 -1.9557
 8273SOL     OW36451   3.423   0.369   2.410  0.2090  0.0221 -0.0955
 8273SOL    HW136452   3.441   0.417   2.329  2.1614 -2.0207 -0.8749
 8273SOL    HW236453   3.349   0.419   2.445 -0.8442 -0.9185 -0.9772
 8274SOL     OW36454   0.480   0.457   6.599  0.0770  0.3552  0.2727
 8274SOL    HW136455   0.515   0.511   6.669  0.1675 -0.9749  1.2517
 8274SOL    HW236456   0.523   0.372   6.605 -1.2022 -0.4255 -1.6463
 8275SOL     OW36457   0.585   3.334   2.349 -0.4369  0.1466 -0.3742
 8275SOL    HW136458   0.508   3.288   2.383  2.2033 -2.1151  2.5574
 8275SOL    HW236459   0.654   3.295   2.403 -1.7149  0.7439  1.6991
 8276SOL     OW36460   3.769   1.521   0.247 -0.0709 -0.2049 -0.4013
 8276SOL    HW136461   3.852   1.485   0.278  0.2869  2.1675  1.3970
 8276SOL    HW236462   3.712   1.487   0.316  2.7088 -0.1808  1.8940
 8277SOL     OW36463   3.842   2.387  11.798 -0.5299 -0.2615 -0.5378
 8277SOL    HW136464   3.773   2.335  11.840  2.0096 -1.8656  1.6688
 8277SOL    HW236465   3.782   2.453  11.765  0.2436  1.2786  1.1374
 8278SOL     OW36466   2.807   0.998   2.395  0.3842  0.1498  0.0251
 8278SOL    HW136467   2.781   0.981   2.485 -2.7178 -0.2350 -0.9618
 8278SOL    HW236468   2.858   1.079   2.404  1.6292 -0.4507 -1.5601
 8279SOL     OW36469   3.137   4.546   2.303 -0.1667  0.3115 -0.0758
 8279SOL    HW136470   3.052   4.507   2.283  0.7988 -1.9634  0.3014
 8279SOL    HW236471   3.188   4.466   2.302 -2.0404 -0.8612 -1.7501
 8280SOL     OW36472   2.424   0.506   3.232  0.0350  0.2147 -0.4140
 8280SOL    HW136473   2.506   0.493   3.185  0.5925 -0.0192  0.6210
 8280SOL    HW236474   2.365   0.435   3.206 -0.1711  0.2696 -0.1018
 8281SOL     OW36475   0.246   0.042  14.080  0.4461 -0.1315 -0.1994
 8281SOL    HW136476   0.322   0.002  14.124 -0.1649 -0.2115  0.7982
 8281SOL    HW236477   0.247   0.129  14.122 -0.3482 -0.6067  0.8183
 8282SOL     OW36478   3.989   2.630   1.308 -0.0689  0.2660  0.3833
 8282SOL    HW136479   4.036   2.622   1.391  2.7261  2.3322 -1.0239
 8282SOL    HW236480   3.914   2.572   1.319 -0.0934  0.1078 -0.6181
 8283SOL     OW36481   0.063   0.214   6.499  0.0191 -0.0592  0.4201
 8283SOL    HW136482   4.709   0.241   6.487  0.8163  2.0448 -1.1011
 8283SOL    HW236483   0.117   0.292   6.483  1.1872 -0.4624  2.4330
 8284SOL     OW36484   0.385   3.671   9.498 -0.1353  0.3161 -0.0348
 8284SOL    HW136485   0.339   3.712   9.425  1.0274  0.1667 -0.8614
 8284SOL    HW236486   0.448   3.735   9.531 -1.9900  2.9399 -1.6036
 8285SOL     OW36487   1.157   1.001   3.835  0.6186  0.5005  0.5223
 8285SOL    HW136488   1.219   0.927   3.836 -2.4389 -2.0754 -0.0719
 8285SOL    HW236489   1.203   1.059   3.773  0.9775 -0.8747 -0.5158
 8286SOL     OW36490   4.565   3.040   4.368 -0.4621 -0.3170 -0.1881
 8286SOL    HW136491   4.474   3.057   4.391 -0.7543 -1.6905 -0.3116
 8286SOL    HW236492   4.565   2.944   4.363 -0.9477 -0.2719 -1.1137
 8287SOL     OW36493   4.460   0.616   6.344  0.7254 -0.8686  0.1451
 8287SOL    HW136494   4.485   0.700   6.382 -0.0920 -1.6269  2.3446
 8287SOL    HW236495   4.543   0.569   6.352 -0.3269 -2.7162  0.1766
 8288SOL     OW36496   4.669   2.813   2.214 -0.2231 -0.0026 -0.1409
 8288SOL    HW136497   4.640   2.806   2.305  1.2752  0.4648  0.3776
 8288SOL    HW236498   0.023   2.790   2.235 -0.4515 -2.5231 -1.8426
 8289SOL     OW36499   4.381   2.978   8.905  0.0087 -0.2448  0.1399
 8289SOL    HW136500   4.340   3.059   8.934  0.7859  0.3769 -0.5115
 8289SOL    HW236501   4.381   2.924   8.984  0.6987 -2.1705 -1.1649
 8290SOL     OW36502   0.150   0.111   0.674  0.1046  0.1157 -0.4696
 8290SOL    HW136503   0.242   0.090   0.663  0.2610 -1.0489  3.1137
 8290SOL    HW236504   0.114   0.022   0.677  0.3112  0.0393 -0.2872
 8291SOL     OW36505   1.724   2.587  14.746  0.0643 -0.0299 -0.2394
 8291SOL    HW136506   1.671   2.531  14.803 -2.4667  1.7601 -0.7966
 8291SOL    HW236507   1.736   2.528  14.671  0.5875 -0.8191  0.4743
 8292SOL     OW36508   3.833   0.762   1.832  0.5867  0.3192  0.2224
 8292SOL    HW136509   3.877   0.683   1.864  0.2261  1.3759  3.2928
 8292SOL    HW236510   3.876   0.829   1.885  0.4366  1.1133 -0.6767
 8293SOL     OW36511   4.670   3.089   1.448 -0.2150  0.2331 -0.0226
 8293SOL    HW136512   4.677   3.047   1.363  0.6099 -2.1812  1.2496
 8293SOL    HW236513   4.641   3.179   1.432  0.3358  0.3362 -0.4610
 8294SOL     OW36514   1.978   2.243  13.977  0.1720 -0.0031  0.0546
 8294SOL    HW136515   1.918   2.170  13.965 -0.9311  0.8735  0.2287
 8294SOL    HW236516   1.981   2.288  13.892 -0.3188 -0.1800 -0.0557
 8295SOL     OW36517   1.945   2.491   8.177 -0.5422 -0.4957 -0.1537
 8295SOL    HW136518   2.013   2.437   8.217 -0.4411 -0.7970 -0.7393
 8295SOL    HW236519   1.901   2.522   8.257  0.0406  3.0318 -1.1961
 8296SOL     OW36520   1.413   4.303  15.290  1.0582 -0.0959 -0.2748
 8296SOL    HW136521   1.432   4.254  15.370  2.0685  0.4965 -0.1589
 8296SOL    HW236522   1.499   4.320  15.252  0.1033  1.0137 -1.9293
 8297SOL     OW36523   3.703   0.438   3.471  1.0192  0.0852  0.4254
 8297SOL    HW136524   3.690   0.502   3.541 -0.3633  0.9546 -0.6263
 8297SOL    HW236525   3.685   0.358   3.522  0.1690  0.7780  1.2075
 8298SOL     OW36526   2.786   2.617   8.361  0.3729 -0.2618 -0.1371
 8298SOL    HW136527   2.834   2.686   8.316  1.0434 -0.0226  0.9501
 8298SOL    HW236528   2.843   2.604   8.436 -1.6421 -1.7476  1.1539
 8299SOL     OW36529   4.668   2.067   3.630  0.4747  0.4580 -0.1862
 8299SOL    HW136530   4.630   2.092   3.545  1.3476  0.5842 -0.5371
 8299SOL    HW236531   4.591   2.026   3.670  1.8165 -0.2821  1.6126
 8300SOL     OW36532   3.727   0.640   1.325  0.1245 -0.0217  0.6547
 8300SOL    HW136533   3.773   0.724   1.322  0.3684 -0.1571  0.5944
 8300SOL    HW236534   3.803   0.581   1.322  1.6809  1.9808  0.4402
 8301SOL     OW36535   1.190   1.904   4.261  0.4839  0.1591 -0.1409
 8301SOL    HW136536   1.137   1.979   4.288 -1.0565 -1.0318  0.1423
 8301SOL    HW236537   1.239   1.926   4.182  1.3881  0.1584  0.4272
 8302SOL     OW36538   1.260   3.674   1.150 -0.2443 -0.3999  0.2099
 8302SOL    HW136539   1.275   3.730   1.074 -4.2594  0.7142  0.2244
 8302SOL    HW236540   1.180   3.716   1.183 -0.2426 -0.8380  0.7782
 8303SOL     OW36541   2.297   0.871  13.369  0.0238 -0.7166  0.1233
 8303SOL    HW136542   2.365   0.910  13.314  0.3933 -0.4848  0.7375
 8303SOL    HW236543   2.305   0.906  13.458  2.5603  0.1815 -0.4575
 8304SOL     OW36544   2.753   2.497  16.734 -0.3266 -0.1082  0.1128
 8304SOL    HW136545   2.809   2.501  16.811 -0.8545  2.9829  0.3500
 8304SOL    HW236546   2.807   2.526  16.661  0.3172 -2.1770 -0.2358
 8305SOL     OW36547   3.404   0.238   6.788 -0.0999 -0.8660  0.4307
 8305SOL    HW136548   3.354   0.161   6.817 -0.6377 -0.6534  0.0637
 8305SOL    HW236549   3.452   0.257   6.869  0.1489  2.9316 -0.6120
 8306SOL     OW36550   0.249   2.633   4.254  0.5120  0.1082  0.1040
 8306SOL    HW136551   0.224   2.687   4.179 -0.7404  0.6930  0.9368
 8306SOL    HW236552   0.277   2.697   4.320  1.3572  0.6269 -0.7650
 8307SOL     OW36553   0.710   0.166   3.981 -0.6308  0.1741 -0.6363
 8307SOL    HW136554   0.766   0.229   3.935 -0.4264  1.0077  0.7458
 8307SOL    HW236555   0.734   0.171   4.073 -0.0306 -1.3915 -0.7182
 8308SOL     OW36556   2.028   1.701   5.377  0.7504 -0.0081  0.1298
 8308SOL    HW136557   2.111   1.740   5.347 -1.2652  1.8289 -3.0807
 8308SOL    HW236558   2.000   1.762   5.445  2.9629 -1.1719  2.0769
 8309SOL     OW36559   3.403   3.514  12.956 -0.0344  0.3698  0.5261
 8309SOL    HW136560   3.413   3.517  12.861 -3.4402  1.7106  0.2195
 8309SOL    HW236561   3.308   3.507  12.959 -0.0071 -0.2658 -0.0771
 8310SOL     OW36562   4.460   2.043   7.090 -0.8295 -0.1446  0.1655
 8310SOL    HW136563   4.465   1.958   7.133  2.3184 -0.2865 -0.4195
 8310SOL    HW236564   4.378   2.082   7.120 -0.2648  1.0446  0.2038
 8311SOL     OW36565   2.024   0.636  12.154  0.5090 -0.7244  0.3676
 8311SOL    HW136566   1.948   0.597  12.111  1.1707 -0.1626 -1.3069
 8311SOL    HW236567   2.099   0.599  12.107 -0.1813  0.2584 -1.4695
 8312SOL     OW36568   0.540   1.109   3.188 -0.2049  0.0663 -0.2081
 8312SOL    HW136569   0.589   1.180   3.229 -1.0343  1.2354 -1.2138
 8312SOL    HW236570   0.457   1.143   3.221 -3.1153 -4.1988 -3.0391
 8313SOL     OW36571   2.312   4.547  15.665  0.2090 -0.0550 -0.3894
 8313SOL    HW136572   2.289   4.479  15.601 -0.5614 -0.0607 -0.1141
 8313SOL    HW236573   2.395   4.574  15.627 -0.0634 -0.6580 -1.4368
 8314SOL     OW36574   0.159   2.719   5.601 -0.2014  0.2164 -0.2454
 8314SOL    HW136575   0.123   2.631   5.597  0.0274  0.0016  2.3389
 8314SOL    HW236576   0.135   2.753   5.515 -0.6533 -0.9717 -0.5944
 8315SOL     OW36577   0.004   1.622   3.819 -0.0467 -0.2886 -0.4229
 8315SOL    HW136578   4.731   1.542   3.870 -2.5896  0.0793 -0.3026
 8315SOL    HW236579   0.065   1.674   3.872 -1.0583  1.9025 -1.4103
 8316SOL     OW36580   1.325   1.234   6.884  0.1820  0.1257 -0.1183
 8316SOL    HW136581   1.285   1.304   6.831  0.7863  0.9021  0.4522
 8316SOL    HW236582   1.350   1.180   6.809  0.4930  0.0794  0.0179
 8317SOL     OW36583   4.707   1.279   2.270  0.6577 -0.3429  0.2049
 8317SOL    HW136584   4.667   1.261   2.355  0.9782  0.4624  0.5244
 8317SOL    HW236585   4.633   1.303   2.215  1.6790  0.7672 -0.6820
 8318SOL     OW36586   4.395   1.590   6.675 -0.5245  0.3574  0.4034
 8318SOL    HW136587   4.421   1.605   6.767  0.6247  0.1187  0.1175
 8318SOL    HW236588   4.430   1.666   6.628  1.1445 -0.1233  0.8675
 8319SOL     OW36589   2.683   4.144   5.995 -0.4584 -0.8213 -0.3860
 8319SOL    HW136590   2.732   4.072   5.954  3.2027  0.5226  1.5786
 8319SOL    HW236591   2.717   4.221   5.950 -0.3335 -0.9427 -0.4974
 8320SOL     OW36592   3.383   3.303   0.623 -0.3161  0.2358 -0.7662
 8320SOL    HW136593   3.336   3.351   0.555 -0.9181  0.2481 -0.3432
 8320SOL    HW236594   3.450   3.259   0.571 -0.1922 -0.9007  0.3328
 8321SOL     OW36595   1.493   3.008   3.021 -0.3313 -0.4375 -0.0229
 8321SOL    HW136596   1.420   2.953   2.993  0.4719 -1.9030  0.7841
 8321SOL    HW236597   1.437   3.086   3.025 -1.5092 -1.1399 -2.8637
 8322SOL     OW36598   1.820   4.514   8.636 -0.3979 -0.2231 -0.0601
 8322SOL    HW136599   1.765   4.472   8.701 -0.6080 -0.5493 -0.4474
 8322SOL    HW236600   1.767   4.506   8.556  0.2034 -1.2542 -0.3554
 8323SOL     OW36601   1.199   1.204   4.794  0.6371  0.4263  0.2947
 8323SOL    HW136602   1.270   1.216   4.857  0.6796  2.9014 -0.2048
 8323SOL    HW236603   1.124   1.194   4.853 -1.0687  0.7054 -1.8481
 8324SOL     OW36604   2.265   1.716   3.832  0.5540  0.4660 -0.6987
 8324SOL    HW136605   2.185   1.760   3.862 -0.2839  0.3678 -2.7832
 8324SOL    HW236606   2.241   1.623   3.825  1.7237  0.0878  0.2915
 8325SOL     OW36607   1.903   2.924  13.162 -0.5795  0.1921  0.6830
 8325SOL    HW136608   1.969   2.924  13.231  0.3419  2.3425 -0.1898
 8325SOL    HW236609   1.860   3.009  13.174  0.9504  1.0045  0.4716
 8326SOL     OW36610   2.816   3.745  12.242 -0.4345  0.0438 -0.2362
 8326SOL    HW136611   2.841   3.829  12.204  0.2711  0.3269  0.8677
 8326SOL    HW236612   2.725   3.769  12.261 -1.3810 -2.7347 -1.2948
 8327SOL     OW36613   0.441   2.433   4.240 -0.0533 -0.1049 -0.0663
 8327SOL    HW136614   0.374   2.497   4.216  0.8566  1.2267  0.8980
 8327SOL    HW236615   0.418   2.395   4.325  1.5876 -0.6543  0.1258
 8328SOL     OW36616   1.849   0.510   4.861  0.1579  0.0733 -0.1715
 8328SOL    HW136617   1.863   0.604   4.868  2.2054 -0.3299  1.2696
 8328SOL    HW236618   1.904   0.493   4.938 -0.0784  0.0945  0.0032
 8329SOL     OW36619   0.625   3.365  12.331 -0.9473 -0.1073 -0.4702
 8329SOL    HW136620   0.624   3.277  12.294  3.0161 -0.3120 -0.1259
 8329SOL    HW236621   0.550   3.365  12.390  0.8886  1.3798  1.8930
 8330SOL     OW36622   3.462   3.002   7.565 -0.5528 -0.1798  0.0766
 8330SOL    HW136623   3.520   3.078   7.569 -0.2965 -0.3713 -0.0006
 8330SOL    HW236624   3.499   2.960   7.487  0.2705 -2.0557  1.4695
 8331SOL     OW36625   4.106   1.417   5.780 -0.2467  0.2256 -0.7552
 8331SOL    HW136626   4.065   1.472   5.847 -2.7299 -1.8291 -0.5711
 8331SOL    HW236627   4.119   1.339   5.834 -1.4439 -0.3034 -1.2343
 8332SOL     OW36628   4.390   3.401   0.061  0.0605 -0.3501  0.3205
 8332SOL    HW136629   4.297   3.390   0.040  0.4391  0.3131 -1.7324
 8332SOL    HW236630   4.387   3.476   0.120  0.2072  0.2195 -0.4004
 8333SOL     OW36631   3.644   1.768  14.493 -0.1519  0.5011 -1.2481
 8333SOL    HW136632   3.567   1.825  14.494 -0.2378  0.3806 -0.9633
 8333SOL    HW236633   3.681   1.783  14.407  1.2435  1.0698 -0.5504
 8334SOL     OW36634   3.217   4.648   5.242 -0.7136  0.1324  0.6060
 8334SOL    HW136635   3.263   4.594   5.177 -1.7023 -0.7047  0.6041
 8334SOL    HW236636   3.174   4.576   5.288  1.9470 -0.0750  2.7776
 8335SOL     OW36637   4.058   3.373   2.215  0.0177  0.1973 -0.1779
 8335SOL    HW136638   4.137   3.417   2.247 -0.7472 -0.3917  2.4816
 8335SOL    HW236639   4.096   3.325   2.141 -3.7969 -2.1323 -0.6035
 8336SOL     OW36640   1.400   0.805   0.126  0.8033 -0.6616  0.5613
 8336SOL    HW136641   1.495   0.792   0.121  1.0616  0.7987  1.4116
 8336SOL    HW236642   1.386   0.771   0.038 -1.6750 -0.5133  0.9176
 8337SOL     OW36643   3.809   2.306  13.520  0.0130  0.1433 -0.0330
 8337SOL    HW136644   3.788   2.220  13.484  0.3833  0.1230 -0.2012
 8337SOL    HW236645   3.904   2.307  13.527  0.0297  0.7911 -0.3574
 8338SOL     OW36646   4.143   2.809   8.249 -0.4426  0.5480 -0.1294
 8338SOL    HW136647   4.207   2.742   8.226 -2.0948 -1.0934 -0.0015
 8338SOL    HW236648   4.204   2.879   8.270  1.0608 -1.2177  1.4246
 8339SOL     OW36649   0.175   1.388   8.887 -0.3880 -0.3618 -0.7629
 8339SOL    HW136650   0.218   1.350   8.964 -0.7605 -0.2440 -0.4970
 8339SOL    HW236651   0.090   1.413   8.922  0.3519  1.2822 -0.1040
 8340SOL     OW36652   1.418   2.977   7.068  0.5828  0.3691  0.1750
 8340SOL    HW136653   1.447   2.957   6.979  0.4985 -1.1581  0.4979
 8340SOL    HW236654   1.332   2.940   7.087  0.5246  1.1705  1.5201
 8341SOL     OW36655   3.988   2.950  14.463  0.4601 -0.5337 -0.3565
 8341SOL    HW136656   3.924   2.946  14.534  0.9206 -3.9121 -0.1003
 8341SOL    HW236657   4.053   2.894  14.507  0.6120 -0.0651  0.0105
 8342SOL     OW36658   4.387   2.728  15.588  0.0362 -0.6385 -0.3891
 8342SOL    HW136659   4.363   2.707  15.497  1.9055  1.1538 -1.2885
 8342SOL    HW236660   4.343   2.813  15.600  0.3867 -0.2686 -1.6877
 8343SOL     OW36661   0.897   0.726   2.767  0.4802  0.3465  0.1739
 8343SOL    HW136662   0.981   0.769   2.754  2.0756 -3.2237 -1.2109
 8343SOL    HW236663   0.853   0.804   2.801 -1.3844 -0.9148  0.6523
 8344SOL     OW36664   2.875   0.259   4.216  0.2019 -0.7987  0.0869
 8344SOL    HW136665   2.800   0.317   4.231  0.7022 -0.1433  0.0203
 8344SOL    HW236666   2.854   0.174   4.256  2.5851 -0.6390  1.6828
 8345SOL     OW36667   1.089   3.586   4.062  0.5087 -0.0143  0.4004
 8345SOL    HW136668   1.013   3.528   4.053 -0.4786  1.4192 -0.5973
 8345SOL    HW236669   1.101   3.620   3.973  0.0938 -0.2057  0.2731
 8346SOL     OW36670   1.105   2.023   5.981 -0.0267 -0.1344 -0.4835
 8346SOL    HW136671   1.149   1.942   6.006  0.7783  0.0979 -1.1522
 8346SOL    HW236672   1.161   2.094   6.014  0.8006 -0.7415 -0.6029
 8347SOL     OW36673   2.530   0.213   8.997  0.5369  0.0691  0.2847
 8347SOL    HW136674   2.607   0.168   9.033  0.7320  1.0372  1.0748
 8347SOL    HW236675   2.562   0.246   8.913 -1.5564 -0.5422 -0.7392
 8348SOL     OW36676   1.925   3.242  17.415  0.1162 -0.5654 -0.6436
 8348SOL    HW136677   2.002   3.298  17.425  0.8691 -2.0284  1.8665
 8348SOL    HW236678   1.882   3.283  17.340  0.5958  0.5862 -0.2741
 8349SOL     OW36679   1.170   1.081   9.611  0.4567  0.3238 -0.0335
 8349SOL    HW136680   1.123   1.118   9.685 -0.7713 -0.3630 -0.4579
 8349SOL    HW236681   1.185   1.163   9.565 -2.5815 -0.0728 -1.7707
 8350SOL     OW36682   2.262   0.747   4.718 -0.3379 -0.1497  0.1144
 8350SOL    HW136683   2.229   0.667   4.759 -0.2879 -0.2347 -0.0117
 8350SOL    HW236684   2.337   0.709   4.671 -0.2147 -0.6920  0.7518
 8351SOL     OW36685   4.444   2.459   0.891 -0.6332 -0.6203  0.5859
 8351SOL    HW136686   4.514   2.443   0.827 -0.9474 -0.3620  0.1797
 8351SOL    HW236687   4.489   2.508   0.960 -0.9691 -0.2215  0.5197
 8352SOL     OW36688   3.243   2.823   6.911 -0.4217 -0.1098 -0.3502
 8352SOL    HW136689   3.203   2.737   6.925  1.5108 -0.9631 -0.0585
 8352SOL    HW236690   3.178   2.888   6.938 -0.7124 -1.1502  1.4550
 8353SOL     OW36691   4.051   3.620   2.444  0.5035  0.4532  0.4557
 8353SOL    HW136692   4.053   3.687   2.375 -1.6959  0.3948  0.3145
 8353SOL    HW236693   4.135   3.577   2.431 -1.1274 -2.0248 -2.0019
 8354SOL     OW36694   3.717   0.403   7.083 -0.1981 -0.7439 -0.6133
 8354SOL    HW136695   3.782   0.352   7.131 -0.7040  1.0598  1.9738
 8354SOL    HW236696   3.722   0.489   7.126  1.3233 -0.6195 -1.0542
 8355SOL     OW36697   2.143   3.585   4.581 -0.1939  0.2625  0.6058
 8355SOL    HW136698   2.224   3.607   4.626 -1.6848  0.7242  3.0431
 8355SOL    HW236699   2.106   3.673   4.589 -1.4340  0.0588 -2.6334
 8356SOL     OW36700   3.509   4.020   6.602 -0.0614  0.3524 -0.4177
 8356SOL    HW136701   3.510   4.102   6.652 -1.6916  1.0015 -1.4486
 8356SOL    HW236702   3.415   4.006   6.590  0.2671 -1.9896 -0.3909
 8357SOL     OW36703   2.783   1.430  12.694 -0.1598  0.2194  0.5921
 8357SOL    HW136704   2.739   1.465  12.771  0.8382  1.1143  0.7559
 8357SOL    HW236705   2.720   1.428  12.622 -0.7280 -2.8623  1.1809
 8358SOL     OW36706   3.222   4.401  14.209  0.3178  0.1383  0.5945
 8358SOL    HW136707   3.160   4.336  14.178  1.3378 -0.0309 -1.0436
 8358SOL    HW236708   3.192   4.416  14.299 -1.4434  3.7418 -0.6014
 8359SOL     OW36709   2.433   1.463  13.055  0.5853  0.1756 -0.2148
 8359SOL    HW136710   2.461   1.382  13.013  0.8663 -0.5059  1.2910
 8359SOL    HW236711   2.349   1.477  13.011  0.2437 -0.7307  0.1455
 8360SOL     OW36712   0.287   2.072   9.543 -0.1915 -0.2093 -0.4254
 8360SOL    HW136713   0.272   1.995   9.488  0.4605 -0.4178 -0.3098
 8360SOL    HW236714   0.218   2.133   9.519  0.0803  0.1014 -0.4195
 8361SOL     OW36715   4.632   2.570  14.675 -0.0553  0.2139 -0.1402
 8361SOL    HW136716   4.651   2.614  14.592  1.1445  0.9988  0.5485
 8361SOL    HW236717   4.718   2.559  14.715 -1.2318  0.1117  2.3813
 8362SOL     OW36718   4.480   2.432   6.810 -0.0298  0.5254 -0.2635
 8362SOL    HW136719   4.458   2.353   6.761  2.3733  0.4918 -1.2951
 8362SOL    HW236720   4.498   2.388   6.893 -1.1497  0.0153 -0.2910
 8363SOL     OW36721   3.282   4.490  12.970  0.0397  0.0700 -0.1098
 8363SOL    HW136722   3.320   4.578  12.963  2.0807 -0.7983  0.0145
 8363SOL    HW236723   3.267   4.468  12.878  1.2339 -2.0922  0.2196
 8364SOL     OW36724   4.031   3.489   3.982 -0.0252  0.3314  0.4442
 8364SOL    HW136725   3.957   3.550   3.977 -1.6542 -1.8807 -1.6419
 8364SOL    HW236726   4.026   3.474   4.077  0.8960 -2.0276  0.1169
 8365SOL     OW36727   1.422   2.787   4.290  0.0654 -0.0639 -0.2889
 8365SOL    HW136728   1.378   2.763   4.372 -0.5069  0.8572 -0.3286
 8365SOL    HW236729   1.417   2.881   4.308  0.6870 -0.4962  2.1513
 8366SOL     OW36730   3.839   1.385   2.883 -0.4041 -0.1381 -0.2197
 8366SOL    HW136731   3.815   1.473   2.915  1.2556  0.4693 -0.6413
 8366SOL    HW236732   3.904   1.352   2.945  1.5396  0.7156 -1.8216
 8367SOL     OW36733   2.289   0.102   5.032  0.2465 -0.0758  0.6598
 8367SOL    HW136734   2.300   0.127   5.124  3.1694  0.1339  0.2663
 8367SOL    HW236735   2.367   0.142   4.993 -0.9265  1.1847 -0.3677
 8368SOL     OW36736   2.780   0.281  12.715 -0.1075  0.4340  0.0092
 8368SOL    HW136737   2.697   0.257  12.755  0.0899 -2.4203 -1.2646
 8368SOL    HW236738   2.806   0.341  12.785  2.0078  0.8994 -1.1654
 8369SOL     OW36739   3.491   4.653   6.326 -0.0964  0.0252 -0.6762
 8369SOL    HW136740   3.456   0.003   6.309 -0.9548 -1.0044 -4.1756
 8369SOL    HW236741   3.585   4.674   6.326 -0.1267  0.1491 -0.2757
 8370SOL     OW36742   4.136   3.091   3.839 -0.1456 -0.0376  0.5877
 8370SOL    HW136743   4.178   3.029   3.779  1.3066  3.4178 -1.9453
 8370SOL    HW236744   4.210   3.108   3.897  0.0433  0.1779  0.2839
 8371SOL     OW36745   0.359   4.019   2.808 -0.0945  0.1693  0.0006
 8371SOL    HW136746   0.351   3.942   2.752  1.7146  0.3551 -0.5173
 8371SOL    HW236747   0.373   4.093   2.749  1.1372  1.2083  1.6231
 8372SOL     OW36748   2.212   2.860   3.332  0.4127 -0.4625 -0.0935
 8372SOL    HW136749   2.246   2.774   3.357  2.5483  0.4262  0.0704
 8372SOL    HW236750   2.298   2.903   3.326  0.4193 -0.5163 -0.3509
 8373SOL     OW36751   3.732   4.531  15.414  0.2489 -0.3125  0.2301
 8373SOL    HW136752   3.680   4.451  15.419 -3.2545  2.0598  1.3751
 8373SOL    HW236753   3.697   4.568  15.495  1.3053  2.6717 -0.6957
 8374SOL     OW36754   4.015   4.465  15.338 -0.0638  0.3339  0.0296
 8374SOL    HW136755   3.991   4.415  15.260 -0.8397  0.4453  0.1995
 8374SOL    HW236756   3.925   4.489  15.355 -0.6033 -2.2476  0.7540
 8375SOL     OW36757   0.972   4.232   4.181  0.1640 -0.1546  0.0305
 8375SOL    HW136758   0.985   4.288   4.105 -0.5327  1.0843  0.8424
 8375SOL    HW236759   0.995   4.149   4.138  1.2286  0.9556 -1.5316
 8376SOL     OW36760   3.664   0.587  17.486  0.9089 -0.5262  0.2623
 8376SOL    HW136761   3.694   0.653  17.549 -1.4018 -0.6288  1.4468
 8376SOL    HW236762   3.572   0.576  17.510  1.0316  0.9698  1.4253
 8377SOL     OW36763   0.824   4.025   4.789 -0.7083  0.0800 -0.1318
 8377SOL    HW136764   0.734   4.057   4.799 -1.5319 -2.3162  0.1815
 8377SOL    HW236765   0.840   3.945   4.839  0.0856  0.3794  0.0862
 8378SOL     OW36766   4.451   1.444  15.712 -0.1753 -0.0206 -0.2246
 8378SOL    HW136767   4.455   1.524  15.660 -1.5714  1.1615  1.5059
 8378SOL    HW236768   4.449   1.477  15.801 -1.1409  1.5498 -0.8256
 8379SOL     OW36769   3.800   1.594   5.607  0.2538 -0.4472  0.0121
 8379SOL    HW136770   3.793   1.502   5.581 -1.4060 -0.5810  0.9146
 8379SOL    HW236771   3.801   1.593   5.703 -2.6053  3.3017  0.0939
 8380SOL     OW36772   4.109   1.219   2.501 -0.1716  0.0906 -0.0456
 8380SOL    HW136773   4.172   1.233   2.571 -0.2727  2.1236 -0.3590
 8380SOL    HW236774   4.167   1.178   2.437 -1.0337  0.4929 -1.0900
 8381SOL     OW36775   1.855   0.469   0.311  0.2359 -0.1032  0.3706
 8381SOL    HW136776   1.915   0.400   0.283  1.0326 -0.1453  2.1670
 8381SOL    HW236777   1.885   0.542   0.256 -3.8286  0.6953 -0.8141
 8382SOL     OW36778   0.559   0.485   5.625  0.0417 -0.2729  0.0843
 8382SOL    HW136779   0.501   0.528   5.561 -1.3494 -2.9782 -0.4716
 8382SOL    HW236780   0.572   0.552   5.692  0.4958 -0.1833 -0.0900
 8383SOL     OW36781   0.742   1.585   6.406 -0.0973  0.2200 -0.2872
 8383SOL    HW136782   0.835   1.562   6.398 -0.1018  0.1824 -0.2319
 8383SOL    HW236783   0.750   1.677   6.432  1.1292  0.5806 -1.8973
 8384SOL     OW36784   0.937   1.478   2.237  0.1509 -0.3453  0.7765
 8384SOL    HW136785   0.958   1.536   2.164 -1.6756  0.1703  0.6572
 8384SOL    HW236786   1.017   1.483   2.290 -1.1944 -0.7156  2.8671
 8385SOL     OW36787   4.111   3.197   4.256  0.3948  0.5280  0.0144
 8385SOL    HW136788   4.121   3.292   4.253  0.6199  0.4209 -2.2683
 8385SOL    HW236789   4.018   3.197   4.235  0.0858  0.8066  1.3950
 8386SOL     OW36790   2.242   3.993  15.445 -0.3433 -0.7401 -0.0506
 8386SOL    HW136791   2.287   4.011  15.528 -1.7723  2.1496  0.0845
 8386SOL    HW236792   2.166   4.050  15.450  1.0341  1.1641 -0.5123
 8387SOL     OW36793   1.261   1.565   2.598  0.3634  0.4145  0.1642
 8387SOL    HW136794   1.307   1.572   2.682  1.8566 -0.4615 -0.5704
 8387SOL    HW236795   1.191   1.506   2.625  0.8349 -0.1804  0.0749
 8388SOL     OW36796   2.284   1.072   5.182 -0.2755  0.4545  0.1883
 8388SOL    HW136797   2.367   1.098   5.221 -0.5790  0.7950  0.6142
 8388SOL    HW236798   2.290   1.028   5.098  1.2937 -0.7808  0.9576
 8389SOL     OW36799   2.099   0.811  16.071  0.0400 -0.1472 -0.0563
 8389SOL    HW136800   2.132   0.858  15.995  2.1381  1.9337  2.1163
 8389SOL    HW236801   2.040   0.876  16.110  1.1489  0.3370  0.8340
 8390SOL     OW36802   1.123   2.931   7.175 -0.0852  0.0085 -0.3322
 8390SOL    HW136803   1.099   2.951   7.084 -0.3848  0.8474 -0.0675
 8390SOL    HW236804   1.033   2.925   7.208 -0.8710 -1.2986 -2.6560
 8391SOL     OW36805   1.010   1.610   7.848 -0.0482  0.0641  0.7512
 8391SOL    HW136806   0.919   1.593   7.872 -0.4003 -0.2000 -0.7560
 8391SOL    HW236807   1.025   1.567   7.763  1.7080 -0.0793  1.1253
 8392SOL     OW36808   1.344   3.369   8.941  0.4632  0.1487  0.3109
 8392SOL    HW136809   1.398   3.411   8.874 -1.2894  1.0287 -0.5236
 8392SOL    HW236810   1.409   3.315   8.986 -0.0138 -0.3616  0.3916
 8393SOL     OW36811   0.460   1.974   7.080  0.2830 -0.0666  0.6107
 8393SOL    HW136812   0.445   2.029   7.157  2.6754  2.3966 -0.6908
 8393SOL    HW236813   0.555   1.979   7.077  0.0217  3.5955 -0.9302
 8394SOL     OW36814   3.969   4.297  10.311 -0.2462  0.1802 -0.5239
 8394SOL    HW136815   3.997   4.387  10.295 -0.0568 -0.1058 -1.8207
 8394SOL    HW236816   3.875   4.307  10.324 -0.3049 -0.0350 -0.7799
 8395SOL     OW36817   4.223   4.378   6.131  0.0261  0.8259 -0.4764
 8395SOL    HW136818   4.233   4.294   6.175 -3.0040  0.2019 -1.0009
 8395SOL    HW236819   4.270   4.439   6.188  2.4208 -0.2294 -1.2947
 8396SOL     OW36820   2.504   1.293  12.372  0.0331 -0.0109 -0.4954
 8396SOL    HW136821   2.526   1.333  12.288 -1.2484  0.0931 -0.7815
 8396SOL    HW236822   2.409   1.294  12.379  0.0865 -0.5839  0.3333
 8397SOL     OW36823   2.916   0.523   1.858 -0.1487 -0.0955 -0.0074
 8397SOL    HW136824   2.823   0.500   1.852 -0.1100 -0.8069  1.9923
 8397SOL    HW236825   2.920   0.553   1.949 -0.1183  0.1808 -0.1005
 8398SOL     OW36826   0.466   3.028   1.548  0.1582  0.0122  0.0939
 8398SOL    HW136827   0.452   3.118   1.578  2.9129  0.6957 -0.6347
 8398SOL    HW236828   0.549   3.039   1.502  0.9235  0.8138  1.6516
 8399SOL     OW36829   1.060   3.712   4.620  0.1152  0.4284 -0.8587
 8399SOL    HW136830   1.131   3.718   4.556 -0.0712 -1.1080 -1.2099
 8399SOL    HW236831   0.986   3.699   4.560  0.3900 -0.6449 -0.9584
 8400SOL     OW36832   2.259   1.255   4.228  0.7064  0.8344 -0.7116
 8400SOL    HW136833   2.295   1.230   4.313  1.6256  1.5834 -0.8769
 8400SOL    HW236834   2.185   1.313   4.248 -0.6393 -0.6681 -1.3500
 8401SOL     OW36835   4.023   2.229   6.117 -0.0383  0.7387 -0.3161
 8401SOL    HW136836   4.037   2.138   6.090 -0.3199  1.6478 -3.6040
 8401SOL    HW236837   3.962   2.223   6.190 -0.9041  0.6743 -1.0389
 8402SOL     OW36838   3.742   4.417   3.512 -0.3895  0.1062 -0.2416
 8402SOL    HW136839   3.814   4.460   3.466 -0.1835 -0.1307 -0.1407
 8402SOL    HW236840   3.673   4.432   3.448  2.7301  0.0518 -3.6115
 8403SOL     OW36841   3.699   2.893  13.407 -0.1086 -0.3661  0.0464
 8403SOL    HW136842   3.766   2.882  13.474 -0.6727 -1.1008  0.4879
 8403SOL    HW236843   3.734   2.845  13.331 -0.7624 -2.1031  0.8455
 8404SOL     OW36844   4.165   3.531   1.412 -0.1479 -0.0267  0.4202
 8404SOL    HW136845   4.128   3.504   1.497 -0.7148  0.2396  0.2603
 8404SOL    HW236846   4.232   3.597   1.425  0.4208 -0.4658 -0.2842
 8405SOL     OW36847   2.546   2.911   6.440  0.4713  0.3195 -0.4618
 8405SOL    HW136848   2.478   2.847   6.460  0.6762  0.2701  0.0617
 8405SOL    HW236849   2.541   2.961   6.521  3.0981  1.2869 -0.8888
 8406SOL     OW36850   3.213   1.744   3.200  0.1028  0.0844  0.0842
 8406SOL    HW136851   3.122   1.732   3.171 -0.2483  0.4516  1.0436
 8406SOL    HW236852   3.209   1.780   3.288 -0.5279 -0.5660  0.3211
 8407SOL     OW36853   4.605   4.703   6.474  0.2012  0.2080 -0.4014
 8407SOL    HW136854   4.522   4.662   6.499  0.6860 -1.1432 -1.0398
 8407SOL    HW236855   4.623   0.030   6.543 -1.7763 -1.6618  1.8519
 8408SOL     OW36856   0.692   1.137   5.753  0.0241 -0.2920 -0.3867
 8408SOL    HW136857   0.645   1.137   5.670 -0.8591  1.0679  0.1086
 8408SOL    HW236858   0.713   1.230   5.761  0.6415 -0.3187 -1.7941
 8409SOL     OW36859   0.843   1.460  13.172 -0.0745 -0.0581  0.1001
 8409SOL    HW136860   0.794   1.439  13.092  0.1089  0.3305 -0.1171
 8409SOL    HW236861   0.853   1.555  13.182  3.1757 -0.5608  1.5100
 8410SOL     OW36862   2.498   2.056   7.969 -0.6474  0.7164 -0.4992
 8410SOL    HW136863   2.456   1.977   8.003  1.6919 -0.4311 -0.3271
 8410SOL    HW236864   2.584   2.045   8.010 -1.4148  0.8871  1.1803
 8411SOL     OW36865   1.324   2.297   8.441  0.0721  0.2869 -0.6566
 8411SOL    HW136866   1.247   2.315   8.388  0.1371 -0.8044 -1.1206
 8411SOL    HW236867   1.328   2.379   8.491 -1.5133 -0.2923  0.4136
 8412SOL     OW36868   0.304   2.512   1.056 -0.2475 -0.2518  0.2605
 8412SOL    HW136869   0.268   2.594   1.023  3.8584  1.5459  0.2373
 8412SOL    HW236870   0.254   2.446   1.008  0.3698 -0.3300 -0.2773
 8413SOL     OW36871   0.847   0.324   7.149  0.1784  0.3907  0.3589
 8413SOL    HW136872   0.857   0.290   7.060  1.2086  1.0855  0.2143
 8413SOL    HW236873   0.771   0.381   7.135  1.9509  2.0020 -2.6508
 8414SOL     OW36874   4.275   1.901   1.723  0.2435 -0.1342  0.3481
 8414SOL    HW136875   4.237   1.950   1.796  0.3894 -0.0541  0.3711
 8414SOL    HW236876   4.267   1.815   1.765 -0.1603 -0.1221  0.2972
 8415SOL     OW36877   1.140   3.182   1.759 -0.2217  0.1479  0.0289
 8415SOL    HW136878   1.145   3.265   1.807 -1.1870 -0.5595  1.3470
 8415SOL    HW236879   1.233   3.162   1.751 -0.3130  0.0346 -0.7520
 8416SOL     OW36880   0.086   2.310   6.748  0.3601  0.1542  0.6400
 8416SOL    HW136881   0.161   2.362   6.719  0.4247  0.1160  0.7410
 8416SOL    HW236882   0.083   2.337   6.839  0.4967 -0.9644  0.9770
 8417SOL     OW36883   3.672   0.180   2.145  0.2739 -0.4504 -0.0181
 8417SOL    HW136884   3.579   0.173   2.165  0.0648  2.8343  0.0957
 8417SOL    HW236885   3.672   0.259   2.090  0.0227  0.5166  1.3633
 8418SOL     OW36886   3.215   0.814   6.478  0.1984  0.2097  0.2294
 8418SOL    HW136887   3.244   0.884   6.420  0.6328 -0.4357 -0.3356
 8418SOL    HW236888   3.296   0.771   6.505  1.0077  1.7461  0.2472
 8419SOL     OW36889   2.351   0.178  10.945  0.2944  0.0039  0.3479
 8419SOL    HW136890   2.255   0.178  10.945  0.3029  0.3296 -2.2536
 8419SOL    HW236891   2.360   0.266  10.908 -0.0524 -0.3502 -0.5747
 8420SOL     OW36892   3.905   2.728   4.740 -0.3515  0.2078 -0.3911
 8420SOL    HW136893   3.917   2.822   4.755 -0.6772 -0.0500  1.4554
 8420SOL    HW236894   3.963   2.698   4.809 -2.0935 -2.6058 -0.1456
 8421SOL     OW36895   2.192   2.397   3.926  0.0980 -0.1418  0.0778
 8421SOL    HW136896   2.227   2.479   3.890 -2.6556  0.7205 -0.6180
 8421SOL    HW236897   2.143   2.373   3.848 -0.6151 -0.3062  0.5756
 8422SOL     OW36898   3.302   1.668   2.783  0.2051  0.2344 -0.4584
 8422SOL    HW136899   3.302   1.707   2.871  0.8410  0.4285 -0.5450
 8422SOL    HW236900   3.226   1.703   2.737  1.1388 -0.2389 -2.3359
 8423SOL     OW36901   4.584   0.610   7.741 -0.8406 -0.7977  0.6809
 8423SOL    HW136902   4.670   0.622   7.701 -0.1636  0.9264  2.6308
 8423SOL    HW236903   4.592   0.650   7.828  3.4746  1.8177 -0.8974
 8424SOL     OW36904   1.767   0.972  17.021 -0.0283 -0.9929 -0.1843
 8424SOL    HW136905   1.699   1.030  17.056  1.0373 -0.1703  0.5398
 8424SOL    HW236906   1.710   0.903  16.989  0.1874 -1.8944  1.4271
 8425SOL     OW36907   0.869   2.923  12.207  0.1592 -0.3235  0.4538
 8425SOL    HW136908   0.868   2.946  12.300 -1.3341 -1.6147  0.7495
 8425SOL    HW236909   0.962   2.940  12.188 -0.2328  0.1440 -1.1015
 8426SOL     OW36910   1.915   3.190   4.478  0.0077 -0.2334  0.7454
 8426SOL    HW136911   1.983   3.141   4.524 -0.8525 -2.4992 -0.3747
 8426SOL    HW236912   1.980   3.217   4.413 -2.4209 -0.8120 -1.9477
 8427SOL     OW36913   3.635   0.230   7.563  0.0084  0.3862 -0.1738
 8427SOL    HW136914   3.700   0.301   7.568  0.8885 -0.2733 -2.7962
 8427SOL    HW236915   3.569   0.261   7.625 -1.3151 -0.6084 -1.1103
 8428SOL     OW36916   1.478   1.573   7.104 -0.1693  0.2900  0.0368
 8428SOL    HW136917   1.528   1.653   7.122 -0.2229  0.4363 -0.4402
 8428SOL    HW236918   1.554   1.525   7.071 -1.5628  0.2133 -3.1015
 8429SOL     OW36919   3.362   1.814   4.061  0.4774 -0.1572  0.1263
 8429SOL    HW136920   3.441   1.791   4.111 -0.6110 -1.3155  1.3103
 8429SOL    HW236921   3.298   1.752   4.096  0.0222 -1.1922 -2.5580
 8430SOL     OW36922   0.487   0.360   7.716 -0.3911  0.4634 -0.0594
 8430SOL    HW136923   0.556   0.426   7.704  0.6035 -0.3169  1.4268
 8430SOL    HW236924   0.535   0.277   7.708 -0.8442  0.1126  0.9346
 8431SOL     OW36925   4.127   1.054  10.097 -0.0062  0.0282 -0.5281
 8431SOL    HW136926   4.131   1.002  10.177  1.3582  0.1222 -0.5381
 8431SOL    HW236927   4.053   1.104  10.132  0.7361  0.7450  0.0301
 8432SOL     OW36928   0.129   4.431   3.725  0.0506 -0.4862  0.0874
 8432SOL    HW136929   0.035   4.413   3.718 -0.3424  1.4017  0.5174
 8432SOL    HW236930   0.174   4.356   3.686 -2.1211 -1.5899 -0.3242
 8433SOL     OW36931   3.767   3.371  15.726  0.0173  0.3281  0.1078
 8433SOL    HW136932   3.726   3.429  15.662  1.8948  1.1978 -0.3294
 8433SOL    HW236933   3.810   3.435  15.783  2.6522  1.4736 -3.1613
 8434SOL     OW36934   1.796   4.311   5.339  0.2080 -0.0250  0.1379
 8434SOL    HW136935   1.802   4.268   5.254  1.7532  0.0109  0.2253
 8434SOL    HW236936   1.886   4.343   5.347  0.2744 -0.0858 -0.3825
 8435SOL     OW36937   1.144   0.835   2.762 -0.3653 -0.2658 -0.3864
 8435SOL    HW136938   1.179   0.872   2.681 -0.2412  2.0711  0.7464
 8435SOL    HW236939   1.124   0.911   2.816  1.5767  0.0834 -0.1543
 8436SOL     OW36940   4.470   2.687   7.927  0.1346 -0.2375  0.1547
 8436SOL    HW136941   4.374   2.687   7.916 -0.0825  2.4854  2.1372
 8436SOL    HW236942   4.497   2.701   7.836 -0.1986  1.5834  0.3306
 8437SOL     OW36943   1.299   3.292   8.114 -0.1645  0.6513 -0.5755
 8437SOL    HW136944   1.290   3.379   8.077 -0.8851  0.8756  0.1322
 8437SOL    HW236945   1.319   3.319   8.204 -0.0546 -2.1278  0.2519
 8438SOL     OW36946   4.324   0.387   5.530  0.0921  0.5558  0.2610
 8438SOL    HW136947   4.288   0.464   5.487  0.0881  0.7237  0.5642
 8438SOL    HW236948   4.362   0.428   5.607  1.5094 -0.1780 -0.0549
 8439SOL     OW36949   4.487   4.005   8.001  0.1878  0.2201  0.2183
 8439SOL    HW136950   4.457   3.919   7.974 -0.7478  0.4539  0.5229
 8439SOL    HW236951   4.581   3.990   8.014  0.0371 -1.2626 -0.4300
 8440SOL     OW36952   4.707   4.689   8.578 -0.0692  0.1486 -0.4492
 8440SOL    HW136953   4.723   4.696   8.672  0.7602 -0.8321 -0.5214
 8440SOL    HW236954   4.664   4.604   8.564 -4.3066  2.0464  0.7863
 8441SOL     OW36955   1.049   1.825   5.346  0.0057 -0.1673 -0.4863
 8441SOL    HW136956   0.979   1.837   5.282 -2.2274 -0.7147  1.8114
 8441SOL    HW236957   0.992   1.775   5.405 -0.4351  1.4004  0.4465
 8442SOL     OW36958   1.305   1.574   2.893 -0.7559 -0.1260  0.3861
 8442SOL    HW136959   1.335   1.536   2.975 -3.8956 -0.6085  1.2974
 8442SOL    HW236960   1.230   1.516   2.886 -0.6790 -0.2917  1.0128
 8443SOL     OW36961   1.748   3.992   5.239 -0.0639 -0.6389  0.4196
 8443SOL    HW136962   1.679   4.020   5.178  0.4970 -0.5069 -0.1570
 8443SOL    HW236963   1.822   4.028   5.191 -0.4944 -0.9076 -0.4560
 8444SOL     OW36964   2.431   4.417  14.724  0.4208 -0.3975 -0.1652
 8444SOL    HW136965   2.451   4.353  14.655 -0.6800 -1.3042  0.3587
 8444SOL    HW236966   2.417   4.502  14.683 -1.4260 -0.8159 -0.4143
 8445SOL     OW36967   1.557   4.718   8.953 -0.5221  0.4044  0.4516
 8445SOL    HW136968   1.628   0.041   8.975 -0.8533  0.4876  1.2653
 8445SOL    HW236969   1.604   4.642   8.919 -3.0647 -1.7963  1.9335
 8446SOL     OW36970   3.960   4.321  11.095 -0.1421  0.0695 -0.1619
 8446SOL    HW136971   3.953   4.388  11.027  0.2802 -0.0991 -0.3743
 8446SOL    HW236972   3.879   4.273  11.079 -1.0224  0.6370  2.6790
 8447SOL     OW36973   2.651   1.031  13.746 -0.4513 -0.0608 -0.3868
 8447SOL    HW136974   2.583   0.964  13.746 -1.2421  0.7312 -2.5530
 8447SOL    HW236975   2.676   1.043  13.837 -1.1390 -0.6564 -0.1218
 8448SOL     OW36976   0.891   4.302   8.448 -0.1293  0.5868  0.1585
 8448SOL    HW136977   0.865   4.226   8.396 -1.8346  1.4850 -0.2814
 8448SOL    HW236978   0.876   4.378   8.391  0.5206 -0.1768 -1.0285
 8449SOL     OW36979   3.766   4.722   4.417  0.2960  0.6531 -0.2570
 8449SOL    HW136980   3.842   4.668   4.440 -1.2140 -1.5316 -0.3105
 8449SOL    HW236981   3.777   0.070   4.459 -0.0825  0.9465 -0.7571
 8450SOL     OW36982   3.483   1.058   5.241 -0.2964  0.0104  0.2473
 8450SOL    HW136983   3.531   1.093   5.315  0.3666 -0.0673 -0.1463
 8450SOL    HW236984   3.420   1.126   5.215  2.9588  1.8791 -2.8680
 8451SOL     OW36985   0.773   1.461  15.030 -0.3884 -0.0002  0.5494
 8451SOL    HW136986   0.706   1.514  14.987  1.3449 -1.2558 -3.7717
 8451SOL    HW236987   0.760   1.371  15.000 -0.4592 -0.9287  3.4407
 8452SOL     OW36988   4.003   2.868   6.486  0.6504 -0.7790  0.6336
 8452SOL    HW136989   4.027   2.847   6.396 -2.0150 -0.4002 -0.1711
 8452SOL    HW236990   4.072   2.922   6.523  0.1336  0.3485 -0.0469
 8453SOL     OW36991   4.736   3.618  11.283 -0.3575  0.2148 -0.2651
 8453SOL    HW136992   4.731   3.690  11.345 -2.4159 -1.4601  1.5025
 8453SOL    HW236993   4.652   3.626  11.238 -0.5320 -0.2303 -0.0223
 8454SOL     OW36994   0.263   0.813   3.228  0.3653  0.2507 -0.2496
 8454SOL    HW136995   0.234   0.723   3.214 -0.9604  0.5287  0.7660
 8454SOL    HW236996   0.308   0.806   3.312 -2.5107  1.0575  1.3564
 8455SOL     OW36997   0.277   4.337  16.188 -0.1100 -0.0015  0.3883
 8455SOL    HW136998   0.268   4.402  16.258 -2.0501  0.0671  0.0678
 8455SOL    HW236999   0.235   4.376  16.112  1.3489 -0.2724 -0.5668
 8456SOL     OW37000   2.360   2.315   3.595 -0.2464 -0.5620  0.6817
 8456SOL    HW137001   2.365   2.241   3.535 -0.1562  0.5105 -0.6092
 8456SOL    HW237002   2.272   2.296   3.629  0.3122  0.9435  3.0094
 8457SOL     OW37003   1.746   4.155  15.549 -0.3600 -0.3856 -0.4284
 8457SOL    HW137004   1.693   4.216  15.601  0.1324 -0.0174 -0.3580
 8457SOL    HW237005   1.676   4.124  15.491 -1.0035 -0.6794  0.4899
 8458SOL     OW37006   4.040   4.016   8.164  0.2315 -0.0116 -0.1849
 8458SOL    HW137007   4.123   4.055   8.136  1.3356 -1.3121  1.2684
 8458SOL    HW237008   4.071   3.986   8.250  0.1085 -0.1049 -0.1732
 8459SOL     OW37009   1.971   1.062  15.976 -0.0515  0.1997 -0.0132
 8459SOL    HW137010   1.915   1.128  16.018  0.4323  0.5303  0.1191
 8459SOL    HW237011   1.903   1.016  15.927  0.1933  0.3363 -0.4806
 8460SOL     OW37012   3.836   1.094   7.188  0.1206 -0.1625 -0.0394
 8460SOL    HW137013   3.906   1.113   7.250  0.4038 -1.3046 -0.0016
 8460SOL    HW237014   3.867   1.151   7.118 -0.0392 -0.4454 -0.3416
 8461SOL     OW37015   1.318   0.924   1.823 -0.7049  0.3884 -0.0940
 8461SOL    HW137016   1.292   0.995   1.881 -0.3776  2.1942 -2.1634
 8461SOL    HW237017   1.237   0.874   1.824 -1.1713  1.1177 -2.9795
 8462SOL     OW37018   1.518   2.513  16.093 -0.8478 -0.2269  0.6186
 8462SOL    HW137019   1.515   2.557  16.178 -2.8255 -1.5381  1.2199
 8462SOL    HW237020   1.447   2.550  16.040 -1.0667 -0.9326  0.4149
 8463SOL     OW37021   0.968   3.111   8.047 -0.6168 -0.0565  0.6924
 8463SOL    HW137022   1.047   3.075   8.088 -0.7378 -0.7143  0.3651
 8463SOL    HW237023   0.908   3.094   8.119 -0.3716 -0.2721  0.8468
 8464SOL     OW37024   2.151   1.495   8.369 -0.1438  0.8041 -0.0964
 8464SOL    HW137025   2.145   1.520   8.277  1.5259  0.7813 -0.2048
 8464SOL    HW237026   2.186   1.576   8.405  1.5564  0.3288 -0.7068
 8465SOL     OW37027   4.707   2.473   1.830  0.1627 -0.6154 -0.1167
 8465SOL    HW137028   0.011   2.551   1.793 -0.2272 -0.1247  0.4744
 8465SOL    HW237029   0.038   2.436   1.886  0.7495 -0.8157 -0.9800
 8466SOL     OW37030   1.344   0.987  11.329  1.4113  0.2988 -0.1839
 8466SOL    HW137031   1.272   0.947  11.379  1.5060  2.6146  1.8075
 8466SOL    HW237032   1.349   0.945  11.242  1.2141 -2.2698  1.0384
 8467SOL     OW37033   1.464   2.692   9.473 -0.2871 -0.3849  0.5545
 8467SOL    HW137034   1.435   2.672   9.562 -0.4093 -1.5286  0.2581
 8467SOL    HW237035   1.382   2.724   9.435 -0.7235 -1.2448  0.7792
 8468SOL     OW37036   3.824   1.595  16.090 -0.0562 -0.1420  0.2414
 8468SOL    HW137037   3.920   1.602  16.095  0.0283  0.2633 -1.9193
 8468SOL    HW237038   3.802   1.686  16.070  1.5599 -0.2236 -1.9436
 8469SOL     OW37039   3.480   4.317   9.123  0.0773  0.0685  0.0785
 8469SOL    HW137040   3.489   4.391   9.062  0.6258 -1.1312 -1.3075
 8469SOL    HW237041   3.574   4.314   9.139  0.2681  1.7458 -0.6821
 8470SOL     OW37042   1.894   0.901   2.832  0.4363 -0.1830 -0.2508
 8470SOL    HW137043   1.811   0.909   2.879  0.9824  0.7712  0.5452
 8470SOL    HW237044   1.959   0.874   2.896  1.4258  0.8576 -0.8015
 8471SOL     OW37045   4.197   3.542  16.373  0.0155  0.3355  0.2608
 8471SOL    HW137046   4.158   3.611  16.426 -0.3239 -0.1084  0.5740
 8471SOL    HW237047   4.127   3.489  16.334  1.6397 -1.1650 -0.6367
 8472SOL     OW37048   2.268   1.116  12.851 -0.2144 -0.0621  0.3240
 8472SOL    HW137049   2.303   1.033  12.819 -2.3084 -0.8197  0.0132
 8472SOL    HW237050   2.341   1.167  12.887  2.0016 -1.6794 -1.8635
 8473SOL     OW37051   3.732   2.207   0.471  0.5947 -0.3532 -0.3620
 8473SOL    HW137052   3.691   2.294   0.464 -0.8311 -0.9638  0.3311
 8473SOL    HW237053   3.763   2.219   0.560  0.5701  0.1389 -0.4192
 8474SOL     OW37054   2.995   3.204  16.770  0.3824 -0.4366  0.2974
 8474SOL    HW137055   3.026   3.121  16.733 -0.9535 -0.3515 -1.0099
 8474SOL    HW237056   2.941   3.179  16.845 -1.1255 -2.3162 -1.4110
 8475SOL     OW37057   3.241   2.318   1.110  0.0926  0.1937  0.2901
 8475SOL    HW137058   3.299   2.254   1.151 -0.2502  0.2893  0.9308
 8475SOL    HW237059   3.157   2.275   1.126  0.3190 -0.4715 -0.3290
 8476SOL     OW37060   2.882   3.216   8.136 -0.0255  0.4121 -1.2405
 8476SOL    HW137061   2.814   3.282   8.143 -1.7578 -1.5951  0.9080
 8476SOL    HW237062   2.941   3.244   8.206  0.5186 -2.1811 -0.6345
 8477SOL     OW37063   1.473   2.151   4.916  0.0190 -0.5096 -0.1847
 8477SOL    HW137064   1.495   2.243   4.903 -0.2021 -0.6774 -1.7261
 8477SOL    HW237065   1.529   2.116   4.847  0.3900  0.4607 -0.3809
 8478SOL     OW37066   0.288   1.044   6.033 -0.0785  0.1875 -0.3731
 8478SOL    HW137067   0.375   1.041   5.991  0.6677  0.2224  1.1707
 8478SOL    HW237068   0.298   1.114   6.098 -0.6553  0.9655 -1.1220
 8479SOL     OW37069   2.244   2.261   2.709 -0.0509 -0.3772 -0.0714
 8479SOL    HW137070   2.182   2.321   2.666  1.0552  1.7506  1.3365
 8479SOL    HW237071   2.189   2.190   2.741  0.5140 -1.1022 -0.7045
 8480SOL     OW37072   3.112   1.919  10.227  0.0041 -0.0447 -0.0294
 8480SOL    HW137073   3.186   1.980  10.222  0.6239 -0.8290 -0.5971
 8480SOL    HW237074   3.141   1.845  10.173  1.0562 -0.0889  0.5905
 8481SOL     OW37075   0.158   4.431   1.507  0.2045  0.0588  0.0776
 8481SOL    HW137076   0.120   4.350   1.541 -0.2136  0.0480 -0.4077
 8481SOL    HW237077   0.087   4.487   1.541  0.0639  0.3765 -0.7366
 8482SOL     OW37078   2.457   0.423  15.039 -0.0357 -0.5445  0.8062
 8482SOL    HW137079   2.422   0.445  15.125 -0.3226  1.7225  0.1060
 8482SOL    HW237080   2.379   0.430  14.985  0.5051 -1.4425 -0.1046
 8483SOL     OW37081   2.861   4.219   7.780 -0.0599 -0.1691  0.1416
 8483SOL    HW137082   2.835   4.292   7.723 -1.3118 -1.4926 -1.0087
 8483SOL    HW237083   2.792   4.220   7.846  0.1236 -0.2571  0.3317
 8484SOL     OW37084   2.655   3.409   9.990  0.2546  0.2714  0.2693
 8484SOL    HW137085   2.733   3.393   9.937 -1.8323 -2.4857 -2.0178
 8484SOL    HW237086   2.662   3.336  10.052  1.2747 -0.2939 -0.5046
 8485SOL     OW37087   0.277   2.055   5.562  0.5139 -0.1183 -0.2297
 8485SOL    HW137088   0.245   1.995   5.629 -2.1878 -1.1174 -2.3874
 8485SOL    HW237089   0.311   1.995   5.496 -1.5439 -2.6501  1.0150
 8486SOL     OW37090   1.389   3.205   2.523  0.0893  0.0990 -0.3100
 8486SOL    HW137091   1.337   3.279   2.554  0.0002  0.6291 -1.6979
 8486SOL    HW237092   1.322   3.138   2.511 -1.8089  1.8254  0.6649
 8487SOL     OW37093   2.316   3.785  11.839  0.0185  0.3068  0.4183
 8487SOL    HW137094   2.266   3.854  11.795 -0.3883 -1.1013 -1.3049
 8487SOL    HW237095   2.260   3.712  11.816 -1.2285  1.6879 -0.9374
 8488SOL     OW37096   3.452   2.393   7.898 -0.4585  0.1110  0.5612
 8488SOL    HW137097   3.469   2.373   7.990 -0.0241 -1.3295  0.1791
 8488SOL    HW237098   3.433   2.308   7.858 -1.7858  1.3926 -1.5056
 8489SOL     OW37099   1.454   1.066  16.262  0.1218  0.2297 -0.3304
 8489SOL    HW137100   1.381   1.076  16.323  0.5616 -2.5779  0.6463
 8489SOL    HW237101   1.526   1.116  16.301 -1.2356 -0.8022  3.4285
 8490SOL     OW37102   1.832   2.461  14.524  0.5151  0.3645 -0.3880
 8490SOL    HW137103   1.920   2.473  14.560 -0.1680  1.1307  1.0290
 8490SOL    HW237104   1.832   2.493  14.433 -1.4415 -0.5759 -0.7195
 8491SOL     OW37105   2.894   3.876   2.111 -0.3810  0.1833  0.0893
 8491SOL    HW137106   2.971   3.915   2.151  0.6211  0.1946 -1.8593
 8491SOL    HW237107   2.934   3.841   2.032 -2.0471 -0.9343 -0.2659
 8492SOL     OW37108   3.645   0.376   3.004  0.0426 -0.1212 -0.3792
 8492SOL    HW137109   3.654   0.305   3.068  2.4265  0.7076  0.2188
 8492SOL    HW237110   3.612   0.443   3.064 -1.5296 -0.1521 -1.2142
 8493SOL     OW37111   2.964   1.584  16.685 -0.1165 -0.5483  0.2858
 8493SOL    HW137112   3.000   1.669  16.663 -2.9408 -0.2360 -3.0497
 8493SOL    HW237113   3.045   1.544  16.714  0.4419 -1.1825 -2.1528
 8494SOL     OW37114   3.322   0.289   8.420 -0.0179 -0.0920 -0.0016
 8494SOL    HW137115   3.282   0.353   8.361 -0.9005 -0.2693  0.4076
 8494SOL    HW237116   3.304   0.329   8.505 -0.0383  0.3222 -0.2019
 8495SOL     OW37117   3.387   0.512   2.192  0.0256  0.3247  0.2502
 8495SOL    HW137118   3.377   0.597   2.149 -0.6040 -0.4881 -1.2288
 8495SOL    HW237119   3.395   0.448   2.121 -1.6202 -0.3200  0.6540
 8496SOL     OW37120   0.445   3.373   8.733  0.1426  0.3856  0.4230
 8496SOL    HW137121   0.533   3.371   8.772  1.5178 -0.3352 -2.7028
 8496SOL    HW237122   0.391   3.334   8.801 -0.2625  2.6425  1.4019
 8497SOL     OW37123   1.298   3.742   5.590 -0.1858  0.2369 -0.0777
 8497SOL    HW137124   1.347   3.730   5.508  1.1172 -0.8053  0.8583
 8497SOL    HW237125   1.208   3.717   5.568  0.0288 -0.8864  0.3129
 8498SOL     OW37126   2.580   2.277   6.231 -0.2270  0.2093  0.7943
 8498SOL    HW137127   2.488   2.252   6.234  0.1747 -1.1827  1.8778
 8498SOL    HW237128   2.611   2.293   6.321 -0.7126 -2.1060  1.3705
 8499SOL     OW37129   1.391   2.827   6.051 -0.2063  0.3087 -0.6556
 8499SOL    HW137130   1.312   2.855   6.004 -1.0897 -1.2544 -0.1117
 8499SOL    HW237131   1.424   2.751   6.004  0.0473  1.0603 -1.6752
 8500SOL     OW37132   2.902   0.393   8.965  0.1755 -0.4756  0.2433
 8500SOL    HW137133   2.921   0.461   9.029 -2.5277  0.0426  0.4843
 8500SOL    HW237134   2.988   0.351   8.957 -0.1497 -0.7969 -1.5552
 8501SOL     OW37135   1.445   3.975   6.305 -0.3984 -0.3108 -0.1719
 8501SOL    HW137136   1.372   3.975   6.367  0.5926  1.3790  0.9987
 8501SOL    HW237137   1.409   3.912   6.243  1.5137 -1.0565 -0.5098
 8502SOL     OW37138   1.789   2.079   8.096 -0.2105  0.4171 -0.2761
 8502SOL    HW137139   1.835   2.085   8.180  1.6070 -2.7811 -1.0157
 8502SOL    HW237140   1.716   2.140   8.105  0.0166  1.0296 -2.4152
 8503SOL     OW37141   0.065   4.279  15.275  0.2317 -0.0304  0.5395
 8503SOL    HW137142   0.109   4.236  15.202 -1.6225 -2.4638  0.8171
 8503SOL    HW237143   0.023   4.354  15.233  2.1960  1.2845  0.9474
 8504SOL     OW37144   4.172   1.073   1.921 -0.0435 -0.1062  0.1116
 8504SOL    HW137145   4.160   1.168   1.915  0.7724 -0.1584 -2.4474
 8504SOL    HW237146   4.234   1.079   1.994 -0.8954 -1.8795  0.9765
 8505SOL     OW37147   3.988   4.631   6.300 -0.2746  0.0332 -0.2645
 8505SOL    HW137148   4.046   4.640   6.224 -0.3860  2.9943  0.0032
 8505SOL    HW237149   3.968   4.538   6.287 -0.1415 -0.5799  3.8969
 8506SOL     OW37150   1.577   0.531  17.658 -0.5741 -0.8128 -0.2871
 8506SOL    HW137151   1.603   0.610  17.610  0.4692 -0.4058  0.9534
 8506SOL    HW237152   1.658   0.481  17.660  0.0496  0.1944 -0.2545
 8507SOL     OW37153   1.971   2.524   2.953 -0.3838 -0.6396 -0.0500
 8507SOL    HW137154   1.911   2.598   2.955  2.0199  1.3557 -1.0889
 8507SOL    HW237155   1.918   2.452   2.917 -2.1054  0.3950  0.4630
 8508SOL     OW37156   2.775   0.715  16.479  0.5094 -0.2848 -0.0266
 8508SOL    HW137157   2.752   0.724  16.386  1.3037  1.6112 -0.0514
 8508SOL    HW237158   2.749   0.801  16.513 -0.5593 -0.6499  0.0657
 8509SOL     OW37159   4.459   4.694   7.008  0.0005 -0.3151  0.6129
 8509SOL    HW137160   4.456   0.052   7.022  0.2876 -0.2553  0.2593
 8509SOL    HW237161   4.371   4.681   6.973  0.7906 -1.8205 -0.8094
 8510SOL     OW37162   0.927   1.038   3.700 -0.1321  0.0957 -0.5005
 8510SOL    HW137163   0.904   1.130   3.714  0.3233  0.3994 -1.7207
 8510SOL    HW237164   1.014   1.035   3.739 -0.2057 -1.6061 -0.5080
 8511SOL     OW37165   3.862   0.016   5.293 -0.2622  0.1786  0.1012
 8511SOL    HW137166   3.791   0.055   5.344  0.0767  2.6850 -1.3477
 8511SOL    HW237167   3.825   0.035   5.207  0.4618 -0.4218 -0.3549
 8512SOL     OW37168   0.381   2.194   0.129  1.7643 -0.1222  0.5077
 8512SOL    HW137169   0.365   2.186   0.223 -0.0437 -0.8283  0.1332
 8512SOL    HW237170   0.380   2.290   0.122 -0.8028 -0.1855  0.0657
 8513SOL     OW37171   1.086   0.496  14.290 -0.0341 -0.0733 -0.9088
 8513SOL    HW137172   0.998   0.522  14.316  0.4432  0.4180  0.1924
 8513SOL    HW237173   1.121   0.506  14.378 -1.0356  0.9655 -0.6244
 8514SOL     OW37174   4.141   2.612   7.360 -0.0995  0.1721 -0.3799
 8514SOL    HW137175   4.220   2.614   7.306  0.8898  0.2291  1.0690
 8514SOL    HW237176   4.170   2.653   7.441 -1.9017  0.1003  0.3121
 8515SOL     OW37177   1.299   2.200   2.356  0.0134 -0.6028  0.1943
 8515SOL    HW137178   1.351   2.132   2.313  0.8919  1.0549 -1.3808
 8515SOL    HW237179   1.227   2.219   2.296 -0.1259 -1.2712  0.1532
 8516SOL     OW37180   3.355   3.179   4.401 -0.1821  0.4334  0.2802
 8516SOL    HW137181   3.372   3.093   4.439 -0.6949 -0.9150 -2.5239
 8516SOL    HW237182   3.315   3.222   4.476  0.3053  0.5135  0.4914
 8517SOL     OW37183   4.538   1.121   2.859 -0.2902  0.1334  0.5606
 8517SOL    HW137184   4.571   1.061   2.927  4.2456  1.4987 -0.4422
 8517SOL    HW237185   4.524   1.205   2.902  1.5268 -0.4264  2.2773
 8518SOL     OW37186   4.345   1.319   6.709  0.0829 -0.0913 -0.2839
 8518SOL    HW137187   4.386   1.300   6.794  0.1128 -0.4824 -0.3847
 8518SOL    HW237188   4.374   1.409   6.699 -1.0840  0.4173  0.7541
 8519SOL     OW37189   1.146   3.440   1.831 -0.1589  0.4224 -0.3121
 8519SOL    HW137190   1.133   3.520   1.882  1.6925  0.1296  0.6294
 8519SOL    HW237191   1.242   3.442   1.834 -0.0054 -2.2298 -3.8651
 8520SOL     OW37192   0.476   3.407   9.118  0.0946 -0.1519 -0.1771
 8520SOL    HW137193   0.420   3.480   9.144  1.6396  0.7819  0.5386
 8520SOL    HW237194   0.406   3.348   9.089 -0.2308  1.8513 -3.4647
 8521SOL     OW37195   1.614   1.046  14.934 -0.3098  0.2193  0.2651
 8521SOL    HW137196   1.642   0.972  14.989 -0.4685  0.5075  0.7268
 8521SOL    HW237197   1.595   0.996  14.854  2.0404  0.1207 -0.2574
 8522SOL     OW37198   0.560   4.686   8.290  0.0839  0.0677 -0.1274
 8522SOL    HW137199   0.558   0.045   8.296 -1.3828 -0.0391  1.0294
 8522SOL    HW237200   0.644   4.671   8.333 -0.2973  1.0679  0.9467
 8523SOL     OW37201   4.723   3.057   5.893  0.0368 -0.4473  0.1827
 8523SOL    HW137202   0.077   3.033   5.875  0.0261 -0.8685  0.6982
 8523SOL    HW237203   4.692   3.079   5.805 -0.4762 -2.6056 -0.1705
 8524SOL     OW37204   1.444   1.145   9.253 -0.3725 -0.0612  0.6949
 8524SOL    HW137205   1.455   1.055   9.283 -2.3875 -0.8911 -1.0208
 8524SOL    HW237206   1.359   1.165   9.293 -0.4857  0.6076  0.1230
 8525SOL     OW37207   0.927   0.325   5.997  0.3689 -0.4220 -0.4730
 8525SOL    HW137208   0.867   0.394   6.026 -0.7408 -1.0924 -1.1987
 8525SOL    HW237209   0.888   0.277   5.924  0.9777 -0.4324 -0.7922
 8526SOL     OW37210   3.931   0.851  12.540 -0.3753  0.5758  0.5097
 8526SOL    HW137211   3.941   0.804  12.623 -0.6128  0.6969  0.6064
 8526SOL    HW237212   3.940   0.783  12.474  1.3322  1.7195 -0.4567
 8527SOL     OW37213   2.893   4.409   7.291 -0.0271 -0.2583  0.6846
 8527SOL    HW137214   2.983   4.439   7.293  0.3112 -1.3313  1.5151
 8527SOL    HW237215   2.851   4.493   7.310  1.8307  0.2867  2.3372
 8528SOL     OW37216   1.441   1.154  13.858  0.5792  0.3974  0.1379
 8528SOL    HW137217   1.431   1.249  13.868  1.0978  0.8264 -3.3088
 8528SOL    HW237218   1.416   1.130  13.769 -4.5142  1.4332  1.3205
 8529SOL     OW37219   3.717   4.260  15.657 -0.4176  0.1813 -0.4100
 8529SOL    HW137220   3.637   4.239  15.705 -0.1625 -1.7943 -0.8440
 8529SOL    HW237221   3.785   4.256  15.725 -1.9718  2.2277  1.2422
 8530SOL     OW37222   2.774   0.047   1.372 -0.5862 -0.2774  0.0747
 8530SOL    HW137223   2.856   0.003   1.395  1.2199  1.2066 -3.5032
 8530SOL    HW237224   2.708   4.719   1.393  0.2325 -1.4351 -0.9669
 8531SOL     OW37225   4.470   0.985   5.100 -0.4411  0.8079  0.2187
 8531SOL    HW137226   4.497   0.936   5.178  1.0828  0.2480 -0.6493
 8531SOL    HW237227   4.377   0.985   5.124 -0.6281 -0.8407 -0.5145
 8532SOL     OW37228   1.615   4.506  17.505  0.2562 -0.7597 -0.8595
 8532SOL    HW137229   1.584   4.440  17.444 -0.7060 -0.5143 -0.6253
 8532SOL    HW237230   1.552   4.578  17.500  2.3407  1.1400 -0.3803
 8533SOL     OW37231   0.258   3.749  12.757 -0.1156  0.0111  0.4693
 8533SOL    HW137232   0.307   3.710  12.684 -0.1626 -0.1917  0.5476
 8533SOL    HW237233   0.315   3.726  12.830 -0.4963 -0.6684  0.5498
 8534SOL     OW37234   1.479   1.964  10.999  0.0025 -0.0646 -1.1801
 8534SOL    HW137235   1.402   1.968  11.056  0.1997 -0.8945 -0.8565
 8534SOL    HW237236   1.476   2.037  10.937  0.4019  1.4327  0.5485
 8535SOL     OW37237   0.770   4.635   6.309 -1.0616  0.1312 -0.9226
 8535SOL    HW137238   0.694   4.658   6.256 -0.5826  0.3578 -1.5123
 8535SOL    HW237239   0.815   4.719   6.319 -0.5583 -0.4333  1.5450
 8536SOL     OW37240   0.986   3.238   3.323 -0.2768  0.5551 -0.3725
 8536SOL    HW137241   1.080   3.231   3.343 -0.2478 -0.1661 -0.7583
 8536SOL    HW237242   0.971   3.147   3.350 -2.2309  1.2495  0.8462
 8537SOL     OW37243   2.988   1.724   9.326 -0.5179 -0.5757  0.7499
 8537SOL    HW137244   3.051   1.792   9.351  1.1845 -2.1116  0.5870
 8537SOL    HW237245   3.037   1.683   9.254  0.8696  0.1211  1.2948
 8538SOL     OW37246   2.429   0.088   8.408 -0.1631  0.2614  0.2150
 8538SOL    HW137247   2.338   0.091   8.439  0.4141  0.4693  1.8507
 8538SOL    HW237248   2.483   0.092   8.486  0.6482  0.1723 -0.3486
 8539SOL     OW37249   0.936   0.465   6.828 -0.1777 -0.3247  0.5544
 8539SOL    HW137250   0.967   0.533   6.768 -0.8153  0.7198  1.4143
 8539SOL    HW237251   1.012   0.408   6.816 -2.0620 -2.5603 -0.7981
 8540SOL     OW37252   3.932   3.928   2.544  0.2215  0.8886  0.0524
 8540SOL    HW137253   3.948   3.871   2.468 -0.8485  0.8171 -0.1212
 8540SOL    HW237254   3.919   3.864   2.613 -2.8093  0.2358 -1.1440
 8541SOL     OW37255   3.352   3.674   3.820 -0.0511  0.5834 -0.3530
 8541SOL    HW137256   3.330   3.731   3.893  1.5302  0.2912  0.3453
 8541SOL    HW237257   3.399   3.605   3.866 -1.6559 -0.4511 -0.2450
 8542SOL     OW37258   1.411   0.466   0.726 -0.3383 -0.5460 -0.1843
 8542SOL    HW137259   1.478   0.496   0.665 -1.9846  1.5966 -0.9654
 8542SOL    HW237260   1.333   0.494   0.679  0.6145 -1.6979 -2.4180
 8543SOL     OW37261   2.817   1.847   8.716  0.1259  0.3887  0.2758
 8543SOL    HW137262   2.893   1.875   8.767  0.3209  1.7476 -0.7545
 8543SOL    HW237263   2.818   1.752   8.728  0.3472  0.4072  0.4185
 8544SOL     OW37264   0.207   2.894  13.429 -0.3930 -0.4926  0.0925
 8544SOL    HW137265   0.268   2.914  13.500 -1.0659  1.2962  0.1773
 8544SOL    HW237266   0.180   2.981  13.400  1.1175  0.1686  0.6534
 8545SOL     OW37267   3.379   1.946   1.939  0.0558  0.3787  0.0009
 8545SOL    HW137268   3.467   1.979   1.925  1.1669 -3.1460 -1.3795
 8545SOL    HW237269   3.379   1.932   2.033 -2.5912  0.2038 -0.0324
 8546SOL     OW37270   0.844   1.749  15.196 -0.3196 -0.0961 -0.6063
 8546SOL    HW137271   0.760   1.708  15.176  0.1672 -1.7648  0.8244
 8546SOL    HW237272   0.846   1.818  15.130  1.3135 -0.3293 -0.7959
 8547SOL     OW37273   3.370   1.458   8.688  0.0758 -0.0769 -0.6764
 8547SOL    HW137274   3.463   1.479   8.678  0.4507 -0.9360  0.9274
 8547SOL    HW237275   3.332   1.510   8.617 -2.4533 -0.5543  0.3137
 8548SOL     OW37276   0.182   2.829   8.837 -0.4923  0.0340 -0.1650
 8548SOL    HW137277   0.278   2.837   8.836 -0.3714 -1.3143  1.5292
 8548SOL    HW237278   0.164   2.784   8.919  2.3235 -0.2966  0.2907
 8549SOL     OW37279   3.435   0.361  17.546 -0.1400 -0.1379  0.0849
 8549SOL    HW137280   3.494   0.337  17.474  1.1742  0.9543  0.8053
 8549SOL    HW237281   3.497   0.348  17.618  1.6805  0.4182 -1.3838
 8550SOL     OW37282   3.261   3.917  12.732  0.1530  0.7032 -0.0235
 8550SOL    HW137283   3.206   3.908  12.810 -0.4479  1.8369 -0.3127
 8550SOL    HW237284   3.248   4.011  12.715 -3.5143  0.3482  0.7433
 8551SOL     OW37285   0.672   2.151   6.542 -0.3597  0.2629 -0.1483
 8551SOL    HW137286   0.755   2.103   6.542 -1.7243 -2.1117  0.7501
 8551SOL    HW237287   0.702   2.229   6.588 -3.6378  0.9598  0.8674
 8552SOL     OW37288   3.272   4.682   8.056 -0.2948  0.1803  0.0640
 8552SOL    HW137289   3.205   0.002   8.094 -0.0690  0.3051  0.2744
 8552SOL    HW237290   3.346   4.713   8.108  0.4892 -2.3723  0.4578
 8553SOL     OW37291   1.966   2.950  11.719 -0.0471  0.4873  0.5128
 8553SOL    HW137292   1.926   2.863  11.720  2.5476 -0.7046  0.3756
 8553SOL    HW237293   1.940   2.988  11.635 -3.3918 -0.6684  1.0005
 8554SOL     OW37294   3.913   1.451   3.582  0.5475 -0.0295 -0.0144
 8554SOL    HW137295   3.891   1.468   3.490  2.8783  0.2874 -0.5191
 8554SOL    HW237296   3.894   1.357   3.592 -3.4425  0.8022  0.1626
 8555SOL     OW37297   1.541   3.944  13.570 -0.4871  0.3661 -0.0433
 8555SOL    HW137298   1.543   3.876  13.504  0.3004  0.2652  0.0910
 8555SOL    HW237299   1.497   4.014  13.520 -1.4449  0.0564  0.3630
 8556SOL     OW37300   4.563   3.828   6.660  0.2541  0.5801 -0.0275
 8556SOL    HW137301   4.641   3.774   6.650 -0.1277 -0.2363  1.2992
 8556SOL    HW237302   4.508   3.783   6.724 -0.8372 -1.1291 -2.1420
 8557SOL     OW37303   2.607   0.349   5.872  0.9245  0.2488 -0.6449
 8557SOL    HW137304   2.613   0.288   5.945  1.4884  1.4691  0.3142
 8557SOL    HW237305   2.632   0.434   5.908  1.2129 -0.7411  1.4957
 8558SOL     OW37306   0.322   0.465   7.132 -0.2454  0.0366 -0.3273
 8558SOL    HW137307   0.274   0.545   7.155  2.0338  1.5133 -0.6753
 8558SOL    HW237308   0.361   0.446   7.218 -0.5189 -2.3648 -0.7586
 8559SOL     OW37309   1.130   4.461   7.255  0.5545 -0.2446 -0.1631
 8559SOL    HW137310   1.144   4.517   7.179  3.4000  1.2983  1.4989
 8559SOL    HW237311   1.040   4.434   7.238 -0.1159  2.2118 -0.4527
 8560SOL     OW37312   4.134   3.830  12.512  0.6405  0.0653  0.2621
 8560SOL    HW137313   4.095   3.858  12.594  0.6973 -0.5061  0.4851
 8560SOL    HW237314   4.213   3.782  12.537  1.9401 -0.0004 -4.0277
 8561SOL     OW37315   4.479   2.073   1.595 -0.3582  0.0584 -0.1315
 8561SOL    HW137316   4.408   2.020   1.633 -1.5812  2.1505  0.5185
 8561SOL    HW237317   4.547   2.007   1.584  1.8433  2.0297  1.7558
 8562SOL     OW37318   3.389   2.618   7.725 -0.3411 -0.0135  0.1558
 8562SOL    HW137319   3.402   2.542   7.781 -0.3848 -0.3423 -0.2797
 8562SOL    HW237320   3.303   2.607   7.683  0.0826  1.1186 -1.0133
 8563SOL     OW37321   1.412   0.932  12.560  0.4545  0.4356  0.5642
 8563SOL    HW137322   1.321   0.955  12.541  0.7284  0.0006 -1.2520
 8563SOL    HW237323   1.455   1.005  12.514  1.4355 -1.1555 -1.0299
 8564SOL     OW37324   1.034   1.328   1.831  0.6894 -0.1643  0.2316
 8564SOL    HW137325   0.955   1.273   1.825 -0.1291  1.0111  0.1396
 8564SOL    HW237326   1.002   1.408   1.873 -0.1396 -0.4997  0.2467
 8565SOL     OW37327   2.050   2.443   2.628  0.2055 -0.6565  0.3122
 8565SOL    HW137328   1.974   2.500   2.643  2.5898  2.7546 -0.5348
 8565SOL    HW237329   2.062   2.466   2.536 -0.0982 -2.7231 -0.2383
 8566SOL     OW37330   0.474   2.300   3.806 -0.4092 -0.3042  0.1534
 8566SOL    HW137331   0.441   2.384   3.773  0.2016 -0.2290 -0.2673
 8566SOL    HW237332   0.432   2.290   3.891 -3.1831  1.3571 -1.0215
 8567SOL     OW37333   0.959   0.667   3.116  0.3366 -0.1273  0.3291
 8567SOL    HW137334   1.040   0.649   3.165  1.7717 -0.6003 -2.1981
 8567SOL    HW237335   0.982   0.624   3.033 -0.8557  0.8132 -0.4810
 8568SOL     OW37336   0.214   1.822   7.610  0.3781  0.0791 -1.3579
 8568SOL    HW137337   0.189   1.818   7.703 -0.6876 -1.9408 -1.7326
 8568SOL    HW237338   0.298   1.777   7.619 -0.0212 -0.3818  0.1574
 8569SOL     OW37339   1.200   0.754   7.639  0.2683 -0.5530  0.5084
 8569SOL    HW137340   1.239   0.729   7.555  2.4600  0.9608  1.0594
 8569SOL    HW237341   1.127   0.804   7.603 -0.3410 -1.4918  0.4395
 8570SOL     OW37342   2.751   2.139   6.025  0.2533  0.1894 -0.6135
 8570SOL    HW137343   2.816   2.206   6.003 -1.0626  1.3976 -0.7880
 8570SOL    HW237344   2.698   2.191   6.085 -2.2990 -2.6469 -0.4276
 8571SOL     OW37345   1.264   0.144   1.072 -0.0370  0.2856 -0.4819
 8571SOL    HW137346   1.172   0.144   1.045 -0.0241  1.1375 -0.5099
 8571SOL    HW237347   1.290   0.235   1.078 -1.2983  0.8839 -4.0572
 8572SOL     OW37348   4.001   3.297   7.172 -0.5373  0.2009 -0.3792
 8572SOL    HW137349   3.935   3.285   7.241 -0.2301 -1.1650 -0.3254
 8572SOL    HW237350   3.997   3.390   7.153 -3.2695 -0.2547 -2.0280
 8573SOL     OW37351   3.270   0.590   4.900  0.3777  0.5473 -0.3062
 8573SOL    HW137352   3.232   0.629   4.821 -0.1710 -0.9353 -0.7790
 8573SOL    HW237353   3.279   0.498   4.874  0.2617  0.0446  1.4758
 8574SOL     OW37354   1.794   1.571  11.942  0.6840 -0.1988 -0.1946
 8574SOL    HW137355   1.723   1.630  11.966  0.9944 -0.7891  2.1556
 8574SOL    HW237356   1.753   1.530  11.866 -0.0841 -1.0147  0.6646
 8575SOL     OW37357   2.491   1.184   6.201 -0.8511 -0.6197  0.4219
 8575SOL    HW137358   2.564   1.240   6.174 -3.2826  2.4763  0.2638
 8575SOL    HW237359   2.490   1.184   6.297  0.3765 -1.4242  0.4391
 8576SOL     OW37360   2.594   3.651   4.046  0.2336  0.1752  0.0186
 8576SOL    HW137361   2.640   3.599   3.981  1.7280 -0.0703  1.2622
 8576SOL    HW237362   2.603   3.742   4.018 -0.7551 -0.4662 -2.3485
 8577SOL     OW37363   3.121   1.769   5.994  0.4432  0.0551  0.9822
 8577SOL    HW137364   3.171   1.833   5.943  0.9498 -1.7352 -0.7336
 8577SOL    HW237365   3.143   1.695   5.937 -0.0123  0.4287  0.3146
 8578SOL     OW37366   3.513   0.389   4.641 -0.2890 -0.3924 -0.9406
 8578SOL    HW137367   3.432   0.384   4.692  1.1106 -2.2793  1.1371
 8578SOL    HW237368   3.569   0.419   4.712 -0.2515  0.1637 -1.2101
 8579SOL     OW37369   2.973   1.939  16.010  0.4303 -0.3060  0.6837
 8579SOL    HW137370   2.930   1.858  15.983 -1.6429  0.5125  1.5421
 8579SOL    HW237371   2.963   1.992  15.931 -1.1025  0.7800  1.6074
 8580SOL     OW37372   4.391   4.444   6.351  0.1541  0.2270  0.2582
 8580SOL    HW137373   4.329   4.496   6.404 -1.3161  0.2818 -1.5233
 8580SOL    HW237374   4.408   4.367   6.405 -1.1633  1.1326  1.9777
 8581SOL     OW37375   1.891   2.036   7.413 -0.3734  0.1631 -0.0045
 8581SOL    HW137376   1.956   2.083   7.361 -0.5249  1.0677  0.6169
 8581SOL    HW237377   1.897   1.954   7.364 -0.1871  0.6252 -0.7478
 8582SOL     OW37378   2.218   1.923   5.373  0.4952 -0.1244  0.3252
 8582SOL    HW137379   2.241   1.914   5.465  0.6175 -0.8997  0.2123
 8582SOL    HW237380   2.286   1.878   5.323 -2.1714 -2.5399 -1.1289
 8583SOL     OW37381   2.155   2.179  11.240  0.2718 -0.2846  0.2730
 8583SOL    HW137382   2.222   2.155  11.175  0.7283  1.5291  0.0560
 8583SOL    HW237383   2.165   2.106  11.301  0.9154 -0.0538  0.4479
 8584SOL     OW37384   1.906   1.834   8.655 -0.5089 -0.3862 -0.7208
 8584SOL    HW137385   1.868   1.921   8.666  0.0340 -0.1953 -0.3584
 8584SOL    HW237386   1.825   1.785   8.639 -2.0730  1.3889  1.8313
 8585SOL     OW37387   2.785   2.387   9.032 -0.2452 -0.3692  0.4717
 8585SOL    HW137388   2.835   2.333   8.971 -0.3513 -0.1712  0.2093
 8585SOL    HW237389   2.717   2.321   9.048  0.4174 -1.4045 -0.8982
 8586SOL     OW37390   3.624   4.573   7.905 -0.8173  0.1647 -0.0441
 8586SOL    HW137391   3.649   4.508   7.838  0.6654  1.0393 -0.3557
 8586SOL    HW237392   3.699   4.633   7.910  0.9865 -1.9987 -0.9957
 8587SOL     OW37393   4.043   3.532   3.066 -0.2714  0.0653  0.1763
 8587SOL    HW137394   4.070   3.513   3.156  1.4878 -0.2040 -0.3918
 8587SOL    HW237395   3.948   3.521   3.065 -0.5555  2.4624 -0.7318
 8588SOL     OW37396   2.012   1.060  12.967 -0.0755 -0.5665 -0.2186
 8588SOL    HW137397   2.042   0.994  13.029  2.7518 -0.8302 -1.8214
 8588SOL    HW237398   2.090   1.083  12.916 -0.3745  2.2039  0.5317
 8589SOL     OW37399   0.163   1.960   6.171  0.0355 -0.1742 -0.2814
 8589SOL    HW137400   0.138   1.998   6.255 -0.4019  0.6002 -0.7640
 8589SOL    HW237401   0.116   1.877   6.179 -0.0506 -0.2221 -1.2822
 8590SOL     OW37402   2.586   3.279   4.939 -0.3510  0.0342 -0.6365
 8590SOL    HW137403   2.639   3.359   4.936  1.0617 -0.9411 -1.4074
 8590SOL    HW237404   2.498   3.315   4.944 -0.5531 -0.3374 -1.5068
 8591SOL     OW37405   4.389   1.493   5.563 -0.2471  0.2833 -0.1530
 8591SOL    HW137406   4.375   1.410   5.608 -0.8592  1.2733  1.4954
 8591SOL    HW237407   4.450   1.484   5.490  0.2943 -0.7942  0.4388
 8592SOL     OW37408   3.268   0.690   8.062 -0.0739 -0.1755 -0.4805
 8592SOL    HW137409   3.344   0.721   8.111 -0.6582  0.8230 -0.2144
 8592SOL    HW237410   3.258   0.755   7.992  0.3768 -1.2989 -1.5880
 8593SOL     OW37411   0.212   1.748   4.307  0.2281  0.0855  0.2320
 8593SOL    HW137412   0.159   1.672   4.329  0.5049 -0.0691  0.3521
 8593SOL    HW237413   0.203   1.796   4.389 -0.0665  0.1191  0.1808
 8594SOL     OW37414   3.848   0.419   0.893  0.4089 -0.3435 -0.4155
 8594SOL    HW137415   3.897   0.420   0.811 -1.6853  1.0154 -1.6522
 8594SOL    HW237416   3.861   0.334   0.933 -2.4952 -1.5891 -2.1472
 8595SOL     OW37417   0.177   4.064   6.112 -0.4606 -0.1491 -0.4706
 8595SOL    HW137418   0.129   4.139   6.147 -0.3538  0.2497 -1.1724
 8595SOL    HW237419   0.108   4.010   6.075  0.3002 -1.1193 -0.4707
 8596SOL     OW37420   3.492   2.924   7.276  0.2189 -0.4646  0.0129
 8596SOL    HW137421   3.563   2.962   7.223 -0.2148 -1.5022 -1.3203
 8596SOL    HW237422   3.504   2.831   7.257  2.1252 -0.1259 -0.4576
 8597SOL     OW37423   1.534   2.176   5.517  0.4923 -0.2229  0.2649
 8597SOL    HW137424   1.468   2.191   5.449  0.1362  1.0737  0.9050
 8597SOL    HW237425   1.506   2.232   5.588  1.4001 -0.5475  0.8830
 8598SOL     OW37426   2.809   3.601   8.379 -0.1263  0.0163 -0.3172
 8598SOL    HW137427   2.872   3.617   8.309  1.1633  0.2931  0.9041
 8598SOL    HW237428   2.812   3.686   8.423  0.1847  0.0860 -0.4730
 8599SOL     OW37429   2.439   1.305  10.180  0.3229  0.2148 -0.7102
 8599SOL    HW137430   2.530   1.276  10.188 -0.5891 -2.4935 -0.3246
 8599SOL    HW237431   2.420   1.318  10.087 -0.7638  0.7613 -0.4116
 8600SOL     OW37432   3.136   4.498   4.170 -0.4581  0.3235 -0.1161
 8600SOL    HW137433   3.153   4.450   4.251  0.9390 -0.4716 -0.8831
 8600SOL    HW237434   3.044   4.516   4.189 -0.5118  0.0890 -0.1526
 8601SOL     OW37435   0.474   1.624   4.183 -0.3842 -0.1845  0.1967
 8601SOL    HW137436   0.397   1.583   4.221 -0.4257  0.2515  0.5733
 8601SOL    HW237437   0.508   1.671   4.259  0.1527 -0.8438  0.3612
 8602SOL     OW37438   4.264   0.650   1.896 -0.0671  0.9186 -0.7967
 8602SOL    HW137439   4.247   0.560   1.923 -1.1191  1.5954  0.8019
 8602SOL    HW237440   4.191   0.673   1.838 -1.4717  1.3980  1.1600
 8603SOL     OW37441   1.706   4.093  13.733 -0.9952  0.7791 -0.2424
 8603SOL    HW137442   1.679   4.077  13.823 -0.3402 -0.9739 -0.3483
 8603SOL    HW237443   1.646   4.047  13.675 -0.0855 -2.2932  1.2363
 8604SOL     OW37444   0.974   1.032   2.919 -0.1158  0.1297  0.0033
 8604SOL    HW137445   0.944   0.985   2.996 -1.0920  0.1011 -0.3967
 8604SOL    HW237446   0.893   1.038   2.869  0.4274 -0.7175 -0.9877
 8605SOL     OW37447   1.103   0.539   8.097 -0.5256 -0.3309  0.2609
 8605SOL    HW137448   1.156   0.560   8.174  2.9128  1.2812 -2.5665
 8605SOL    HW237449   1.145   0.594   8.032 -1.6177 -1.3749 -1.3403
 8606SOL     OW37450   1.395   3.206   1.616 -0.0804 -0.6539  0.0020
 8606SOL    HW137451   1.352   3.269   1.557  2.2207  0.0235 -0.9366
 8606SOL    HW237452   1.422   3.147   1.546  0.5393  0.8762 -1.0576
 8607SOL     OW37453   3.114   1.606  11.427  0.3703 -0.1003 -0.0904
 8607SOL    HW137454   3.030   1.589  11.385  0.5423 -1.6851  0.2051
 8607SOL    HW237455   3.106   1.564  11.512  1.6504 -1.6369 -0.7399
 8608SOL     OW37456   2.206   0.978   3.810 -0.0263 -0.1093  0.6248
 8608SOL    HW137457   2.167   1.018   3.733  0.3524  0.5678  0.7846
 8608SOL    HW237458   2.129   0.929   3.840  0.9651 -1.8944  0.2536
 8609SOL     OW37459   3.179   2.569   5.449 -0.4283 -0.5782  0.2377
 8609SOL    HW137460   3.102   2.614   5.413  1.7943 -0.5500 -4.4704
 8609SOL    HW237461   3.216   2.648   5.489 -0.6756 -0.7991  0.9014
 8610SOL     OW37462   2.005   2.275  16.526  0.0481 -0.4766 -0.3624
 8610SOL    HW137463   2.089   2.262  16.571 -1.8166 -3.0562  2.3845
 8610SOL    HW237464   2.024   2.355  16.477 -0.9483 -0.0010  0.0272
 8611SOL     OW37465   4.661   1.821  12.028  0.4018 -0.0065  0.7773
 8611SOL    HW137466   4.596   1.777  11.974  0.6643  0.8278 -0.2200
 8611SOL    HW237467   4.700   1.873  11.958 -0.6694 -1.6544 -1.0198
 8612SOL     OW37468   1.867   0.038   8.369  0.3768 -0.0252 -0.1912
 8612SOL    HW137469   1.913   4.692   8.354  0.4114  0.1072 -0.7934
 8612SOL    HW237470   1.865   0.017   8.463 -2.1790  0.5993 -0.1176
 8613SOL     OW37471   2.332   0.092   7.705  0.3258 -0.3334 -0.0895
 8613SOL    HW137472   2.407   0.144   7.677 -0.1306 -0.1396 -0.9724
 8613SOL    HW237473   2.333   0.027   7.634  0.9966 -2.8899  2.2812
 8614SOL     OW37474   2.506   3.425   7.437  0.3348  0.5628 -0.0456
 8614SOL    HW137475   2.440   3.488   7.466 -1.0634 -0.7705 -0.3488
 8614SOL    HW237476   2.445   3.353   7.423  1.7429 -0.6320 -0.0352
 8615SOL     OW37477   1.977   0.928   5.169 -0.0753 -0.5375  0.1047
 8615SOL    HW137478   1.967   1.020   5.144  1.0800  0.1315  2.1321
 8615SOL    HW237479   1.918   0.917   5.244 -1.5216  1.5848 -0.7163
 8616SOL     OW37480   0.464   1.264   6.892  0.4863  0.0120 -0.0760
 8616SOL    HW137481   0.509   1.324   6.951 -4.4045 -0.9481  4.6110
 8616SOL    HW237482   0.468   1.305   6.806 -0.5863 -0.5027 -0.3743
 8617SOL     OW37483   2.383   4.437  16.000 -0.2704  0.2871 -0.2750
 8617SOL    HW137484   2.335   4.507  15.956 -2.8082 -2.2911 -1.5879
 8617SOL    HW237485   2.373   4.445  16.094 -1.1519  3.8361 -0.6634
 8618SOL     OW37486   0.290   2.351   1.577 -0.5739 -0.1604 -0.6196
 8618SOL    HW137487   0.309   2.418   1.643 -0.5080 -1.6100  0.8243
 8618SOL    HW237488   0.249   2.408   1.512 -1.4448 -0.4086 -0.2888
 8619SOL     OW37489   0.005   1.083   5.576 -0.5699 -0.1586 -0.6389
 8619SOL    HW137490   0.072   1.060   5.640 -2.6233 -0.2752  1.4784
 8619SOL    HW237491   4.689   1.005   5.561 -1.1620  0.7055 -3.0765
 8620SOL     OW37492   0.951   1.552   8.508  0.0973  0.0233  0.2415
 8620SOL    HW137493   0.926   1.553   8.600 -2.3537  0.0674 -0.4435
 8620SOL    HW237494   0.933   1.642   8.480 -0.7305 -0.4397 -0.7082
 8621SOL     OW37495   3.786   0.760  11.520 -0.0158 -0.6168 -0.1148
 8621SOL    HW137496   3.758   0.830  11.578  0.5655  0.6868 -1.4015
 8621SOL    HW237497   3.719   0.697  11.547  1.8625 -1.5964  2.2610
 8622SOL     OW37498   2.151   1.900   6.801 -0.3254 -0.3126 -0.2481
 8622SOL    HW137499   2.124   1.846   6.875  2.0338 -3.7366 -1.8933
 8622SOL    HW237500   2.203   1.969   6.843 -0.8356 -1.7874  2.7579
 8623SOL     OW37501   2.197   1.222   8.451 -0.1261  1.0772  0.4563
 8623SOL    HW137502   2.174   1.313   8.430 -1.3988  0.0926 -2.4341
 8623SOL    HW237503   2.117   1.170   8.446  2.1400 -2.2233 -0.9937
 8624SOL     OW37504   3.581   4.224   8.270  0.3659  0.2709  0.3556
 8624SOL    HW137505   3.561   4.307   8.227  1.7102 -0.6121 -1.9684
 8624SOL    HW237506   3.674   4.210   8.251 -0.3505 -2.4591 -1.0848
 8625SOL     OW37507   0.358   1.545   0.506  0.6035 -0.3630  0.0349
 8625SOL    HW137508   0.452   1.561   0.512  0.3237  0.5498  2.1756
 8625SOL    HW237509   0.355   1.456   0.541 -2.3804  0.7325  2.5982
 8626SOL     OW37510   1.370   1.245   1.203  0.2283 -0.0919  0.6754
 8626SOL    HW137511   1.338   1.285   1.122 -0.5032 -0.2686  0.8745
 8626SOL    HW237512   1.406   1.164   1.168  0.1590  0.5596 -0.9172
 8627SOL     OW37513   2.985   0.242   2.487 -0.6858 -0.0848  0.0867
 8627SOL    HW137514   3.043   0.182   2.442  1.6358  1.8431  0.4889
 8627SOL    HW237515   2.983   0.317   2.428 -0.5008 -1.5876 -1.8237
 8628SOL     OW37516   1.305   0.966  14.501  0.1604  0.2021 -0.1243
 8628SOL    HW137517   1.285   1.058  14.518  0.5233 -0.5454  4.3989
 8628SOL    HW237518   1.348   0.966  14.416  1.6950 -0.9879  0.6609
 8629SOL     OW37519   3.103   4.085  13.420  0.0445 -0.3082  0.4692
 8629SOL    HW137520   3.192   4.108  13.394 -0.1405  1.7417  1.6193
 8629SOL    HW237521   3.057   4.169  13.416  0.8069  0.0714 -0.3616
 8630SOL     OW37522   1.649   4.525  12.735  0.0806  0.0961  0.5363
 8630SOL    HW137523   1.721   4.468  12.711 -1.1356 -0.2003 -2.4005
 8630SOL    HW237524   1.691   4.564  12.812  0.0964  0.5953  0.2720
 8631SOL     OW37525   2.438   1.213   8.274  0.1750  0.4355 -0.0888
 8631SOL    HW137526   2.352   1.186   8.308  0.2556 -1.3699 -1.3048
 8631SOL    HW237527   2.440   1.308   8.262  2.5491  0.6015  1.6984
 8632SOL     OW37528   1.891   2.465   3.247 -0.8506  0.6331  0.0560
 8632SOL    HW137529   1.877   2.446   3.154 -0.7585 -0.8749  0.3527
 8632SOL    HW237530   1.915   2.558   3.247  1.3338  0.0730 -0.9032
 8633SOL     OW37531   3.998   3.133   9.546  0.7342 -0.2493 -0.2982
 8633SOL    HW137532   4.084   3.176   9.546 -1.5801  4.4533  2.2606
 8633SOL    HW237533   3.945   3.185   9.486 -1.6748 -2.1169  0.2056
 8634SOL     OW37534   4.410   1.638   6.944  0.6717  0.5602  0.1650
 8634SOL    HW137535   4.335   1.651   7.002  0.7352 -0.1439  0.4027
 8634SOL    HW237536   4.486   1.647   7.001  1.5769 -0.0638 -0.9575
 8635SOL     OW37537   2.561   0.251   7.621  0.6586  0.0687  0.3566
 8635SOL    HW137538   2.626   0.302   7.572 -1.2641  1.4860 -0.7199
 8635SOL    HW237539   2.604   0.241   7.705  3.0776  1.5891 -0.6850
 8636SOL     OW37540   2.771   0.087   9.025  0.0645  0.6943  0.3038
 8636SOL    HW137541   2.846   0.108   8.970  0.3317  0.3344  0.5283
 8636SOL    HW237542   2.739   0.011   8.978 -0.1123  1.5335 -0.9362
 8637SOL     OW37543   2.790   1.864   8.128  0.6720 -0.4646 -0.0456
 8637SOL    HW137544   2.761   1.869   8.219  0.9134  2.3700 -0.1355
 8637SOL    HW237545   2.773   1.956   8.108 -0.9428 -0.9974 -1.1517
 8638SOL     OW37546   0.758   2.137  15.603  0.2046 -0.8221 -0.4633
 8638SOL    HW137547   0.829   2.172  15.550  0.1204  1.1139  0.6842
 8638SOL    HW237548   0.761   2.043  15.583  0.8952 -0.9404  0.1837
 8639SOL     OW37549   1.359   0.213  11.986  0.1232 -0.2264  0.0298
 8639SOL    HW137550   1.330   0.184  12.072 -1.4039  1.8315  0.1891
 8639SOL    HW237551   1.426   0.148  11.964  0.3138 -0.5408  1.5676
 8640SOL     OW37552   2.560   1.332   9.570 -0.3744  0.2594  0.3764
 8640SOL    HW137553   2.626   1.284   9.620 -0.5563 -0.3248  0.0560
 8640SOL    HW237554   2.559   1.285   9.486 -2.3522 -0.4744  0.8201
 8641SOL     OW37555   4.622   3.502   6.825 -0.6323 -0.0942 -1.0342
 8641SOL    HW137556   4.697   3.516   6.883 -0.5704  0.1189 -1.1651
 8641SOL    HW237557   4.580   3.431   6.873  1.9292 -1.4618 -0.7991
 8642SOL     OW37558   4.044   3.640   6.435 -0.4463  0.8545 -0.1418
 8642SOL    HW137559   4.086   3.573   6.381 -0.7282 -0.5123  1.3451
 8642SOL    HW237560   4.122   3.667   6.483 -1.0539  1.7204  0.3592
 8643SOL     OW37561   0.755   1.803   4.858  0.3821  0.2252 -0.2350
 8643SOL    HW137562   0.700   1.751   4.917 -0.8741  2.7083  0.8188
 8643SOL    HW237563   0.842   1.766   4.874  1.1093  2.1449  0.2375
 8644SOL     OW37564   0.949   2.742  13.302  0.1221 -0.0151  0.2489
 8644SOL    HW137565   0.932   2.823  13.253  1.1514  0.7056  1.0776
 8644SOL    HW237566   0.913   2.761  13.389 -3.1920  0.4475 -1.2361
 8645SOL     OW37567   0.781   4.055  12.842 -0.8872 -0.2712  0.1290
 8645SOL    HW137568   0.850   4.120  12.857 -0.2246 -1.0209  0.3155
 8645SOL    HW237569   0.741   4.052  12.928 -1.4470  1.8452 -0.0565
 8646SOL     OW37570   4.174   1.837  16.792  0.2321  0.2800  0.3843
 8646SOL    HW137571   4.227   1.822  16.714  0.0156 -1.6698  0.6224
 8646SOL    HW237572   4.217   1.917  16.823  0.2534  0.8589 -1.1174
 8647SOL     OW37573   4.457   3.259   8.287  0.6793  0.4564 -0.2147
 8647SOL    HW137574   4.507   3.337   8.262  0.8779  0.0386 -1.1155
 8647SOL    HW237575   4.513   3.192   8.247 -0.8667 -1.1858  0.3879
 8648SOL     OW37576   1.072   0.706  15.869  0.3073  0.0019 -0.0829
 8648SOL    HW137577   1.046   0.796  15.849 -1.2172 -0.2109  0.9256
 8648SOL    HW237578   1.144   0.693  15.807  2.1291  1.1906  1.7584
 8649SOL     OW37579   1.785   1.470   3.311  0.5076 -0.0673  0.1506
 8649SOL    HW137580   1.830   1.385   3.310 -0.4079 -0.5252 -0.8402
 8649SOL    HW237581   1.844   1.520   3.255  0.1724 -1.3188 -1.3072
 8650SOL     OW37582   4.470   0.428   4.841 -0.9735 -0.0691  0.1016
 8650SOL    HW137583   4.562   0.450   4.851 -1.2034  1.0184 -0.1995
 8650SOL    HW237584   4.437   0.516   4.823 -1.6511 -0.1765  0.8315
 8651SOL     OW37585   2.536   2.203   6.577 -0.4076 -0.1301 -0.4933
 8651SOL    HW137586   2.441   2.200   6.582 -0.3124  0.3534  1.7010
 8651SOL    HW237587   2.555   2.297   6.582  1.0125 -0.4808  0.7645
 8652SOL     OW37588   3.953   3.268   5.561 -0.3302  0.0471  1.0854
 8652SOL    HW137589   3.909   3.191   5.598 -0.3850  0.2361  1.4126
 8652SOL    HW237590   3.909   3.338   5.609 -2.2454  0.4253 -1.2257
 8653SOL     OW37591   3.898   0.975   5.058  0.4947 -0.2453 -0.1572
 8653SOL    HW137592   3.874   1.048   5.115 -0.0133 -0.2906 -0.3140
 8653SOL    HW237593   3.866   0.902   5.111 -2.0437  0.1755 -1.1251
 8654SOL     OW37594   3.375   1.950   8.820  0.0043 -0.7296 -0.0775
 8654SOL    HW137595   3.418   2.027   8.856 -0.7598  0.1113 -0.9562
 8654SOL    HW237596   3.310   1.934   8.888  1.1399 -0.3577  1.1022
 8655SOL     OW37597   3.248   0.364   6.387 -0.7057 -0.1787  0.1201
 8655SOL    HW137598   3.205   0.446   6.360  1.5212  0.9826  0.1552
 8655SOL    HW237599   3.173   0.322   6.430 -0.9496 -0.3214 -0.4512
 8656SOL     OW37600   1.016   1.652  15.802  0.4965  0.7299  0.2634
 8656SOL    HW137601   1.077   1.673  15.731  1.3973 -0.7611  0.6001
 8656SOL    HW237602   0.935   1.697  15.780 -0.2332  0.5923  2.6948
 8657SOL     OW37603   0.517   4.105   3.160 -0.2406 -0.2003  0.4323
 8657SOL    HW137604   0.514   4.024   3.109  1.1451  0.2067 -0.3036
 8657SOL    HW237605   0.549   4.164   3.092 -2.3680  2.1401  1.4488
 8658SOL     OW37606   4.077   0.736   2.228 -0.1500 -0.6079 -0.1200
 8658SOL    HW137607   4.020   0.803   2.266 -0.3686 -1.2638  0.7115
 8658SOL    HW237608   4.113   0.695   2.307 -0.7621  0.1252  0.5415
 8659SOL     OW37609   1.817   0.212   5.322  0.3269 -0.5602  0.2966
 8659SOL    HW137610   1.838   0.160   5.399  2.4342 -0.1519 -0.0108
 8659SOL    HW237611   1.733   0.237   5.359  1.5547  2.9295  0.7382
 8660SOL     OW37612   2.825   2.394   7.959 -0.3596 -0.3552 -0.5893
 8660SOL    HW137613   2.758   2.390   7.891 -0.4990 -0.5960 -0.4382
 8660SOL    HW237614   2.849   2.487   7.958  0.0869 -0.4604 -0.2133
 8661SOL     OW37615   3.264   3.373  17.733 -0.0349 -0.3935  0.2160
 8661SOL    HW137616   3.216   3.433   0.043 -2.1552 -0.4887 -1.4713
 8661SOL    HW237617   3.311   3.439  17.682 -0.9553  0.7060  0.7870
 8662SOL     OW37618   3.929   2.817   9.220 -0.2416 -0.1542  0.0899
 8662SOL    HW137619   3.907   2.779   9.306 -2.0373 -2.3631 -1.3507
 8662SOL    HW237620   3.880   2.898   9.225  1.1128  0.7026 -0.6704
 8663SOL     OW37621   1.960   2.038   0.450 -0.1204  0.2291 -0.4829
 8663SOL    HW137622   1.872   2.000   0.441  0.2885 -1.0110  0.9018
 8663SOL    HW237623   2.014   1.960   0.445 -1.0276 -0.4161 -0.2352
 8664SOL     OW37624   2.233   4.518   8.005  0.6109  0.2735  0.1774
 8664SOL    HW137625   2.272   4.487   8.086  0.8031 -2.7195 -1.0407
 8664SOL    HW237626   2.281   4.600   7.993  1.3580 -0.1023  0.6314
 8665SOL     OW37627   4.590   4.576  12.045 -0.0698 -0.1073 -0.1934
 8665SOL    HW137628   4.684   4.594  12.046 -0.3637  1.4682  0.1943
 8665SOL    HW237629   4.584   4.519  12.121  3.1768  0.2471  0.3487
 8666SOL     OW37630   1.537   0.064   0.167  0.5641 -0.5086  0.0988
 8666SOL    HW137631   1.473   0.033   0.104  0.2055 -0.1874  0.3046
 8666SOL    HW237632   1.585   4.719   0.179 -1.0955 -1.7894 -2.0042
 8667SOL     OW37633   2.656   1.031   3.471 -0.8278 -0.1972  0.2627
 8667SOL    HW137634   2.707   1.045   3.391 -0.7786  0.3707  0.3937
 8667SOL    HW237635   2.613   1.116   3.480  1.3018  0.8431  0.6107
 8668SOL     OW37636   2.069   2.057   1.400  0.1628 -0.4204 -0.1088
 8668SOL    HW137637   2.161   2.063   1.425 -0.4495  0.2650  1.9956
 8668SOL    HW237638   2.042   2.028   1.488 -3.2804  0.5014 -0.8663
 8669SOL     OW37639   2.053   1.906   1.828  0.3000  0.4713 -0.4678
 8669SOL    HW137640   1.996   1.936   1.757 -1.6754  2.1751  1.8257
 8669SOL    HW237641   2.106   1.842   1.781  0.3706  0.1249  0.0840
 8670SOL     OW37642   3.321   0.288   9.545  0.5123 -0.6743 -0.4843
 8670SOL    HW137643   3.237   0.300   9.500 -0.4088  1.1624  1.7163
 8670SOL    HW237644   3.378   0.339   9.487 -1.6763  2.4982  0.1288
 8671SOL     OW37645   4.561   0.139   6.669  0.2322  0.5182 -0.6784
 8671SOL    HW137646   4.468   0.121   6.679  0.3690 -0.0462 -0.4619
 8671SOL    HW237647   4.586   0.097   6.752  0.4016  3.4254  0.7617
 8672SOL     OW37648   0.177   0.015   5.737  0.3029 -0.0881 -0.4624
 8672SOL    HW137649   0.104   0.059   5.694 -0.5341  0.0620  1.1135
 8672SOL    HW237650   0.209   4.682   5.680  1.6218 -0.5738  0.8660
 8673SOL     OW37651   2.470   1.837  11.493  0.5250 -0.5619  0.1535
 8673SOL    HW137652   2.500   1.761  11.444 -1.5142 -0.0844 -1.8672
 8673SOL    HW237653   2.425   1.880  11.420 -0.0133  1.1451  1.4784
 8674SOL     OW37654   0.120   1.558   0.287 -0.2551  0.0143 -0.0103
 8674SOL    HW137655   0.207   1.589   0.311 -0.0520  0.1661 -0.9570
 8674SOL    HW237656   0.064   1.635   0.276  1.3456  1.1011 -0.5338
 8675SOL     OW37657   4.477   0.278   1.898 -0.2224 -0.0453 -0.1933
 8675SOL    HW137658   4.425   0.321   1.830 -0.4685  3.7586  2.3971
 8675SOL    HW237659   4.533   0.349   1.930 -1.2974 -0.4971  2.7273
 8676SOL     OW37660   3.416   1.042  10.907  0.3316  0.2554  0.2789
 8676SOL    HW137661   3.428   0.976  10.838 -4.3722 -0.4732  0.1225
 8676SOL    HW237662   3.335   1.082  10.873  0.7550  2.4068  1.8136
 8677SOL     OW37663   4.429   4.044   5.505 -0.1135 -0.4659 -0.0313
 8677SOL    HW137664   4.379   4.122   5.480 -2.2698 -1.4528  1.1896
 8677SOL    HW237665   4.497   4.033   5.438  2.2901 -1.1093  2.4969
 8678SOL     OW37666   0.537   0.033   5.358 -0.1552 -0.1495 -0.4280
 8678SOL    HW137667   0.516   0.069   5.444 -1.1244 -0.5845 -0.4831
 8678SOL    HW237668   0.571   0.115   5.322 -1.3462  0.4028 -0.3184
 8679SOL     OW37669   2.446   2.892  14.541 -0.1542  0.1183 -0.2068
 8679SOL    HW137670   2.412   2.981  14.534  0.3125  0.4944  2.2854
 8679SOL    HW237671   2.380   2.848  14.488 -1.0003  1.2698 -0.0894
 8680SOL     OW37672   0.249   3.349   2.755 -0.1492  0.4290 -0.3676
 8680SOL    HW137673   0.279   3.436   2.782  1.8925  0.0709 -1.5131
 8680SOL    HW237674   0.167   3.375   2.713 -1.7601 -2.5883  0.8860
 8681SOL     OW37675   2.742   1.854   3.021 -0.0611 -0.4892 -0.6378
 8681SOL    HW137676   2.667   1.858   2.961 -1.0424 -1.8002  0.5168
 8681SOL    HW237677   2.748   1.945   3.052  0.9970 -0.8335  0.1912
 8682SOL     OW37678   0.394   0.291  17.566 -0.4007  0.6445 -0.1640
 8682SOL    HW137679   0.399   0.211  17.619  3.4783  1.5293  0.7755
 8682SOL    HW237680   0.488   0.306  17.560 -0.4958  1.1068 -0.4614
 8683SOL     OW37681   3.720   0.488   5.226 -0.5192  0.4459 -0.0923
 8683SOL    HW137682   3.650   0.518   5.168 -1.7563  0.5543  1.4460
 8683SOL    HW237683   3.697   0.398   5.203  0.4436  0.1823 -0.0170
 8684SOL     OW37684   2.484   1.477   8.263 -0.0404 -0.0125  0.1681
 8684SOL    HW137685   2.573   1.483   8.298 -0.3163  1.2473  0.6739
 8684SOL    HW237686   2.476   1.557   8.211 -0.6738 -0.4286 -0.3703
 8685SOL     OW37687   2.995   4.072   8.222  0.1375 -0.6172 -0.5418
 8685SOL    HW137688   3.052   4.001   8.195  0.1293 -1.0334  0.5508
 8685SOL    HW237689   2.928   4.014   8.259 -2.6232  1.7236 -1.8651
 8686SOL     OW37690   4.282   0.528   7.821 -0.4193 -0.3821  0.5850
 8686SOL    HW137691   4.244   0.520   7.909  0.7265  2.3386  1.3376
 8686SOL    HW237692   4.363   0.483   7.847 -0.9696 -1.5914  0.2159
 8687SOL     OW37693   0.862   2.051   7.763 -0.3488 -0.3748  0.7874
 8687SOL    HW137694   0.839   1.959   7.751 -2.1012  0.2131 -0.4181
 8687SOL    HW237695   0.780   2.076   7.807 -0.3728  3.2690 -1.3489
 8688SOL     OW37696   2.385   3.202   6.777  0.2487  0.2929  0.5876
 8688SOL    HW137697   2.383   3.294   6.804  2.9789  0.0803  1.4476
 8688SOL    HW237698   2.478   3.179   6.782  0.1839 -0.2538 -0.7379
 8689SOL     OW37699   0.423   4.611   1.412 -0.4177  0.2380 -0.6190
 8689SOL    HW137700   0.516   4.586   1.406 -1.7754 -4.9403 -0.0538
 8689SOL    HW237701   0.367   4.533   1.409 -0.8048  0.4336  1.8039
 8690SOL     OW37702   4.687   2.174   0.178  0.0811 -0.1124  0.7049
 8690SOL    HW137703   0.006   2.246   0.150 -0.5997  1.7620  4.2473
 8690SOL    HW237704   4.729   2.101   0.131  0.2245 -0.9916  2.2099
 8691SOL     OW37705   3.673   1.248   4.869 -0.1064  0.1336  0.1113
 8691SOL    HW137706   3.751   1.293   4.901  0.6446  0.1653 -1.7539
 8691SOL    HW237707   3.616   1.318   4.897  0.7273  1.0007 -0.3395
 8692SOL     OW37708   2.609   3.713  16.822  0.0084  0.4829 -0.3460
 8692SOL    HW137709   2.629   3.744  16.734 -2.2822  0.6441 -0.7984
 8692SOL    HW237710   2.680   3.749  16.876  1.3764  2.2131 -3.2909
 8693SOL     OW37711   3.379   4.316   7.810 -0.2352 -0.0259 -0.2113
 8693SOL    HW137712   3.303   4.279   7.855  0.2902 -0.3461  0.4100
 8693SOL    HW237713   3.433   4.346   7.883  1.9567 -1.1419 -1.3376
 8694SOL     OW37714   1.736   2.660   3.783  0.1107 -0.2533 -0.2154
 8694SOL    HW137715   1.656   2.609   3.792 -0.8564  1.1061 -1.1546
 8694SOL    HW237716   1.800   2.593   3.755  0.9180  0.1585  0.6490
 8695SOL     OW37717   1.062   4.114   2.077  0.1630 -0.4890  0.2317
 8695SOL    HW137718   1.120   4.069   2.015  1.1942  1.5386 -0.3055
 8695SOL    HW237719   1.114   4.191   2.103  1.5611 -0.4040 -2.7713
 8696SOL     OW37720   3.921   2.345   9.776  0.1929 -0.0009 -0.0778
 8696SOL    HW137721   3.841   2.297   9.798 -1.3975  1.1946 -3.2966
 8696SOL    HW237722   3.946   2.319   9.687  3.0484 -1.8395  1.2664
 8697SOL     OW37723   4.392   2.537   2.361  0.3214  0.4149  0.4535
 8697SOL    HW137724   4.487   2.544   2.360  0.3479  0.2658  2.0516
 8697SOL    HW237725   4.352   2.615   2.399  0.5706 -0.2154  1.9766
 8698SOL     OW37726   4.677   1.468  12.145 -0.0242 -0.0503  0.4266
 8698SOL    HW137727   4.684   1.396  12.083 -1.1807 -0.0620  0.3065
 8698SOL    HW237728   4.639   1.414  12.215 -1.2777  1.5601  0.9818
 8699SOL     OW37729   3.849   3.227   4.176 -0.7624 -1.0084  0.3187
 8699SOL    HW137730   3.770   3.221   4.229  0.0890  2.0164  1.9513
 8699SOL    HW237731   3.819   3.302   4.124 -1.1836  0.0901  2.1408
 8700SOL     OW37732   0.488   2.720   1.611 -0.0150  0.6687 -0.1558
 8700SOL    HW137733   0.551   2.704   1.541 -0.3906 -0.7553 -0.1781
 8700SOL    HW237734   0.484   2.815   1.606 -0.7142  0.6051 -0.8756
 8701SOL     OW37735   3.663   1.122   8.811 -0.2305 -0.5355  0.4207
 8701SOL    HW137736   3.716   1.166   8.878 -0.6733 -1.0031  1.0748
 8701SOL    HW237737   3.586   1.177   8.817 -0.5726 -1.2117  2.2297
 8702SOL     OW37738   2.807   4.557   4.026  0.4291  0.3988 -0.9903
 8702SOL    HW137739   2.831   4.495   4.095 -0.7938 -0.6249 -1.4864
 8702SOL    HW237740   2.857   4.519   3.954  0.6248  1.9360 -1.6755
 8703SOL     OW37741   2.849   2.979   8.010  0.2003 -0.1795 -0.0406
 8703SOL    HW137742   2.847   3.061   8.060 -0.2443 -0.6664  0.7338
 8703SOL    HW237743   2.885   3.009   7.926 -0.6221  0.2444 -0.2342
 8704SOL     OW37744   1.915   0.579  15.136 -0.2113 -0.9391 -0.1679
 8704SOL    HW137745   1.938   0.630  15.059 -1.5694 -1.5776 -0.9952
 8704SOL    HW237746   1.939   0.648  15.198 -0.5392 -0.6405 -0.3715
 8705SOL     OW37747   3.695   4.727   8.208 -0.0432 -0.1762  0.3141
 8705SOL    HW137748   3.751   0.057   8.171  0.8091 -0.8818  0.3159
 8705SOL    HW237749   3.615   0.041   8.207 -0.1822 -0.4787 -3.5718
 8706SOL     OW37750   4.101   1.929   7.284 -0.1815  0.5340  0.1495
 8706SOL    HW137751   4.030   1.923   7.221 -2.0631  1.0710  2.2128
 8706SOL    HW237752   4.045   1.934   7.361  0.7023  1.9254  0.7078
 8707SOL     OW37753   0.992   2.414   9.383  0.2493 -0.1263  0.3579
 8707SOL    HW137754   0.961   2.324   9.374  1.3874 -0.4023 -0.9061
 8707SOL    HW237755   1.012   2.442   9.293 -1.2903  3.2430  1.0533
 8708SOL     OW37756   4.214   1.938   2.905  0.3919 -0.2845 -0.1655
 8708SOL    HW137757   4.148   1.880   2.866  0.0180  1.6736 -2.4658
 8708SOL    HW237758   4.175   2.020   2.874 -0.0199 -0.1497  0.7127
 8709SOL     OW37759   1.448   4.412   8.581  0.0507  0.0529 -0.1113
 8709SOL    HW137760   1.478   4.502   8.597  2.6019 -0.5742 -1.4528
 8709SOL    HW237761   1.522   4.360   8.551  0.6371  1.3887 -0.9932
 8710SOL     OW37762   1.259   1.241   2.575 -0.0843  0.6061 -0.2990
 8710SOL    HW137763   1.258   1.182   2.650  0.2183  0.1541 -0.6543
 8710SOL    HW237764   1.347   1.233   2.540 -0.2467 -0.9585 -0.3560
 8711SOL     OW37765   3.700   1.202   6.828  0.3827 -0.4689  0.3330
 8711SOL    HW137766   3.685   1.266   6.758  0.8300 -1.7811 -0.9635
 8711SOL    HW237767   3.779   1.154   6.802  0.5931 -0.2001  0.4852
 8712SOL     OW37768   4.470   3.700  14.166 -0.3151 -0.4117 -0.0402
 8712SOL    HW137769   4.507   3.742  14.243 -0.7848  0.9257 -0.5432
 8712SOL    HW237770   4.557   3.673  14.137 -0.2200  2.4786 -2.4298
 8713SOL     OW37771   0.436   3.774   3.893 -0.0430 -0.3237 -0.0324
 8713SOL    HW137772   0.453   3.680   3.893  0.4797 -0.2320  0.7883
 8713SOL    HW237773   0.480   3.797   3.811 -1.6042  1.2177 -0.4266
 8714SOL     OW37774   2.129   4.723   8.906 -0.4164  0.0427 -0.0592
 8714SOL    HW137775   2.200   0.022   8.853  0.1846 -1.0031  0.0323
 8714SOL    HW237776   2.133   0.049   8.977 -0.3789 -0.2171  0.1709
 8715SOL     OW37777   2.826   3.128   6.003 -0.0819 -0.8108  0.1672
 8715SOL    HW137778   2.888   3.068   6.045  1.1735  1.9629  2.2908
 8715SOL    HW237779   2.837   3.101   5.912  0.7877  2.2589 -0.6333
 8716SOL     OW37780   3.368   1.029   6.345  0.0747  0.4056  0.1625
 8716SOL    HW137781   3.304   1.097   6.363 -0.6918 -0.5090  0.9102
 8716SOL    HW237782   3.436   1.049   6.409  2.3529 -3.0712 -1.1494
 8717SOL     OW37783   2.167   3.262   5.771 -0.7693  0.6631  1.1302
 8717SOL    HW137784   2.120   3.184   5.800 -2.1281  1.5619  1.3281
 8717SOL    HW237785   2.143   3.340   5.821  0.5151  2.1766 -0.5903
 8718SOL     OW37786   3.482   2.483  14.440  0.2302 -0.6504  0.2360
 8718SOL    HW137787   3.399   2.435  14.443 -1.1398  1.7170  0.2862
 8718SOL    HW237788   3.538   2.432  14.381 -1.2247 -1.2962 -0.5996
 8719SOL     OW37789   0.156   0.158   3.682 -0.3383 -0.0308  0.0124
 8719SOL    HW137790   0.142   0.219   3.755 -1.0950  1.7317 -1.6088
 8719SOL    HW237791   0.088   0.178   3.618  0.2446  0.6689 -0.4006
 8720SOL     OW37792   2.877   3.889   4.074 -0.5886  0.1178  0.3288
 8720SOL    HW137793   2.796   3.897   4.023 -1.1388 -0.7980  1.0538
 8720SOL    HW237794   2.836   3.841   4.147  3.2199 -0.2586  2.2155
 8721SOL     OW37795   2.708   4.631   8.860 -0.4239 -0.0927 -0.3557
 8721SOL    HW137796   2.760   4.555   8.832  0.9652 -0.3422  2.9118
 8721SOL    HW237797   2.650   4.649   8.786 -1.2365 -0.4292  0.2066
 8722SOL     OW37798   1.753   4.026   3.121  0.4301 -0.5263 -0.0459
 8722SOL    HW137799   1.760   3.968   3.046 -2.2068 -1.6874  0.6026
 8722SOL    HW237800   1.691   3.981   3.179  1.0397  0.3882  1.3257
 8723SOL     OW37801   0.026   2.124  16.032  0.5702 -0.4873  0.6099
 8723SOL    HW137802   0.067   2.208  16.053 -0.7288  0.6357 -1.3283
 8723SOL    HW237803   4.673   2.140  16.004 -0.1131 -3.7072  0.9904
 8724SOL     OW37804   4.694   3.813   4.478 -0.0204 -0.3327 -0.7113
 8724SOL    HW137805   4.610   3.839   4.515  1.2504  1.5462  0.8465
 8724SOL    HW237806   4.695   3.855   4.391 -0.7253  0.0175 -0.5533
 8725SOL     OW37807   1.728   4.253  16.915  0.6874  0.0570  0.1178
 8725SOL    HW137808   1.745   4.223  17.005  0.5198  2.0902  0.8293
 8725SOL    HW237809   1.741   4.348  16.922 -0.7817  0.4558 -2.7155
 8726SOL     OW37810   4.560   3.423   4.795 -0.3597  0.3799 -0.0087
 8726SOL    HW137811   4.493   3.415   4.863  1.0202 -1.8337  1.1001
 8726SOL    HW237812   4.518   3.439   4.711  1.0137  0.6399 -0.6430
 8727SOL     OW37813   3.789   1.540   8.987  0.3250 -0.2260 -0.0032
 8727SOL    HW137814   3.801   1.579   8.901 -0.6771  0.8726  0.3530
 8727SOL    HW237815   3.845   1.597   9.039 -1.4584  0.2837  1.3697
 8728SOL     OW37816   1.183   3.974   8.153 -0.2464  0.0394 -0.4513
 8728SOL    HW137817   1.254   4.016   8.202 -0.8978 -0.8305  1.2248
 8728SOL    HW237818   1.145   3.911   8.214 -0.1376 -0.2120 -0.6489
 8729SOL     OW37819   3.177   3.184   7.368 -0.5577  0.7027 -0.2811
 8729SOL    HW137820   3.133   3.269   7.367  0.3458  1.1914  2.7706
 8729SOL    HW237821   3.213   3.187   7.457  1.4066 -3.7272 -0.9552
 8730SOL     OW37822   2.653   4.247   4.188  0.1762 -0.0318 -0.2328
 8730SOL    HW137823   2.662   4.175   4.250  2.0082  0.0086 -0.4746
 8730SOL    HW237824   2.662   4.189   4.112  1.5247  0.9298 -0.8076
 8731SOL     OW37825   0.550   3.108   0.026  0.3679  0.4967  0.2137
 8731SOL    HW137826   0.556   3.014   0.011 -0.5861  0.3870  0.5199
 8731SOL    HW237827   0.575   3.142  17.687  2.9036 -0.3635  0.6089
 8732SOL     OW37828   0.469   3.121   4.289 -0.8150  0.0889 -0.1599
 8732SOL    HW137829   0.436   3.204   4.324 -1.7081 -0.8902  1.3231
 8732SOL    HW237830   0.552   3.113   4.334 -0.4256  3.0256 -0.3554
 8733SOL     OW37831   4.293   1.812   0.873 -0.3416 -0.0787 -0.2399
 8733SOL    HW137832   4.366   1.829   0.815 -0.0197 -0.9463 -0.0959
 8733SOL    HW237833   4.233   1.769   0.812 -1.8373 -0.1792  1.2631
 8734SOL     OW37834   4.101   2.235   7.827 -0.5335 -0.4835  0.0221
 8734SOL    HW137835   4.082   2.142   7.814 -0.6485 -0.4313 -0.1871
 8734SOL    HW237836   4.014   2.274   7.812  0.4868  0.6715 -2.8960
 8735SOL     OW37837   2.968   2.872  17.180 -0.0281 -0.2198  0.1950
 8735SOL    HW137838   2.928   2.837  17.260  0.1395  0.6450  0.6492
 8735SOL    HW237839   3.037   2.806  17.170 -0.7692 -1.1215  1.0277
 8736SOL     OW37840   0.504   3.829   0.539  0.5882  0.3663 -0.2377
 8736SOL    HW137841   0.583   3.779   0.524 -0.6356 -1.8031  0.5467
 8736SOL    HW237842   0.539   3.885   0.608  1.1141 -0.3540  0.0756
 8737SOL     OW37843   0.444   0.859   4.745 -0.1404 -0.1010 -0.9268
 8737SOL    HW137844   0.395   0.777   4.752 -1.4707  0.6771 -1.2161
 8737SOL    HW237845   0.397   0.918   4.804  0.2061  0.4621 -1.2104
 8738SOL     OW37846   0.862   4.669  12.629  0.5271  0.0047 -0.3185
 8738SOL    HW137847   0.862   4.668  12.725  0.1272 -0.6889 -0.3240
 8738SOL    HW237848   0.953   4.685  12.605  1.1394  0.8975  2.6509
 8739SOL     OW37849   4.202   1.741   2.366  0.2642  0.5093  0.1255
 8739SOL    HW137850   4.266   1.680   2.403 -0.3982  0.1669  0.6999
 8739SOL    HW237851   4.257   1.815   2.340 -0.3605  0.5300 -1.1076
 8740SOL     OW37852   2.236   3.823   2.844 -0.3666  0.7791  0.4090
 8740SOL    HW137853   2.177   3.881   2.893 -2.1914 -0.5797 -0.1700
 8740SOL    HW237854   2.194   3.739   2.865 -1.2127  1.4337  1.4010
 8741SOL     OW37855   3.167   2.494   9.527 -0.6135 -0.1660 -0.5667
 8741SOL    HW137856   3.211   2.523   9.447 -1.1518  2.7385  0.1885
 8741SOL    HW237857   3.083   2.536   9.510 -1.2662 -1.2025  0.0792
 8742SOL     OW37858   0.268   2.950   2.007 -0.0625  0.7466 -0.0092
 8742SOL    HW137859   0.235   2.866   2.040  0.1708  0.3160 -0.8676
 8742SOL    HW237860   0.270   2.946   1.911 -2.2518  1.4073 -0.0889
 8743SOL     OW37861   3.572   3.152   8.882  0.3439  0.3613 -0.3324
 8743SOL    HW137862   3.609   3.073   8.922 -2.6837 -0.4678  0.7898
 8743SOL    HW237863   3.486   3.126   8.849  0.0914  0.3108  0.3661
 8744SOL     OW37864   0.813   1.860   0.751 -0.5238 -0.6398 -0.0627
 8744SOL    HW137865   0.749   1.836   0.683  0.8198  0.1415 -1.6056
 8744SOL    HW237866   0.846   1.780   0.792  0.5717 -0.9691 -1.5788
 8745SOL     OW37867   3.455   3.665   9.982  0.3388  0.0818  0.5845
 8745SOL    HW137868   3.509   3.648  10.059  0.4661  0.6742  0.6225
 8745SOL    HW237869   3.483   3.753   9.957 -0.7355  0.4089  0.5427
 8746SOL     OW37870   2.161   1.042   8.174 -0.2072 -0.1668 -0.3746
 8746SOL    HW137871   2.230   0.985   8.210  0.8509  0.9452 -0.6584
 8746SOL    HW237872   2.134   1.087   8.254 -1.9201  1.6975 -2.0067
 8747SOL     OW37873   3.586   4.310  13.565  0.2080  0.3243 -0.3557
 8747SOL    HW137874   3.616   4.396  13.596 -0.2031  1.1235 -2.1811
 8747SOL    HW237875   3.647   4.259  13.619  2.0073  2.8932  0.0574
 8748SOL     OW37876   3.274   4.022   3.490  0.2988 -0.2614  0.3174
 8748SOL    HW137877   3.230   4.084   3.433 -0.9004  0.0589  1.5875
 8748SOL    HW237878   3.203   4.001   3.552  0.5229 -3.4554 -0.5016
 8749SOL     OW37879   1.921   4.355  14.402 -0.8337  0.1331 -0.3056
 8749SOL    HW137880   2.004   4.386  14.438 -0.2582 -1.4043 -0.2962
 8749SOL    HW237881   1.952   4.267  14.379  1.2307  0.8753 -0.4145
 8750SOL     OW37882   3.159   0.002   6.143 -0.0837 -0.3196  0.8892
 8750SOL    HW137883   3.154   0.094   6.169 -0.5841  0.0289 -0.4517
 8750SOL    HW237884   3.132   0.002   6.051  1.8563 -2.5256  0.2952
 8751SOL     OW37885   4.723   0.013   6.878 -0.3370 -0.5348 -0.0802
 8751SOL    HW137886   0.017   0.064   6.952 -1.2812 -1.4926  0.9760
 8751SOL    HW237887   4.645   4.709   6.915 -1.4460  1.1927 -0.4726
 8752SOL     OW37888   3.736   3.057   8.376 -0.0832 -0.3945  0.5071
 8752SOL    HW137889   3.806   3.014   8.326 -1.0494  0.2031 -1.3655
 8752SOL    HW237890   3.681   3.089   8.305 -0.7815 -1.9448  0.3362
 8753SOL     OW37891   2.519   4.553  13.476  0.3453  0.4663 -0.0181
 8753SOL    HW137892   2.562   4.584  13.556  0.5448  0.9370 -0.3065
 8753SOL    HW237893   2.492   4.638  13.441 -0.3172  0.5179  0.6355
 8754SOL     OW37894   2.039   1.913   8.954  0.0078  0.8902  0.0828
 8754SOL    HW137895   1.970   1.848   8.970 -0.7550  1.1657 -2.0350
 8754SOL    HW237896   1.997   1.960   8.882  0.1432  0.9558  0.0465
 8755SOL     OW37897   1.574   1.905  13.706 -0.7858  0.3138 -0.5679
 8755SOL    HW137898   1.503   1.903  13.642 -2.3444  1.6911  1.1363
 8755SOL    HW237899   1.633   1.835  13.679 -0.4334  0.0187  0.9885
 8756SOL     OW37900   3.021   1.017   7.888 -0.0327  0.1868  0.3775
 8756SOL    HW137901   2.935   0.991   7.856  0.1305  0.1579 -0.0414
 8756SOL    HW237902   3.001   1.110   7.902 -3.1162 -0.2309 -1.3880
 8757SOL     OW37903   3.208   0.994  16.646 -0.5628  0.3140  0.5727
 8757SOL    HW137904   3.283   1.049  16.669  0.7069 -1.7464  1.3572
 8757SOL    HW237905   3.140   1.028  16.704 -0.1967  1.0007  0.5994
 8758SOL     OW37906   2.092   3.299   4.297 -0.2513  0.2512  0.4786
 8758SOL    HW137907   2.054   3.273   4.213 -0.0431  1.1295  0.1203
 8758SOL    HW237908   2.174   3.249   4.303  0.4437  1.5811  2.0963
 8759SOL     OW37909   0.899   4.496   4.682 -0.0442  0.0734 -0.1172
 8759SOL    HW137910   0.897   4.404   4.657 -0.4468  0.3902 -1.2383
 8759SOL    HW237911   0.922   4.538   4.599  0.0559  2.4391  1.1013
 8760SOL     OW37912   4.046   3.954   4.396  0.2174  0.1868 -0.0016
 8760SOL    HW137913   4.101   3.994   4.329 -0.1031 -0.7514 -0.8071
 8760SOL    HW237914   3.986   4.026   4.417  0.4214  1.0149 -2.2713
 8761SOL     OW37915   1.538   1.004   8.446  0.7939 -0.4405 -0.9264
 8761SOL    HW137916   1.576   1.022   8.360  3.1638  1.2090  0.4636
 8761SOL    HW237917   1.591   1.058   8.504  0.0415 -1.3421  0.5969
 8762SOL     OW37918   0.318   1.792   5.028  0.5983  0.1196  0.3144
 8762SOL    HW137919   0.231   1.829   5.014  0.4395 -0.1732  0.5323
 8762SOL    HW237920   0.334   1.764   4.937  0.4619 -1.3879  0.7545
 8763SOL     OW37921   0.756   3.955   3.847 -0.6149  0.3089  0.0929
 8763SOL    HW137922   0.728   4.008   3.922 -0.2415  1.1737 -0.3810
 8763SOL    HW237923   0.750   3.870   3.891 -1.7796  0.6509  0.6003
 8764SOL     OW37924   4.489   0.105  15.939 -0.3612  0.2642  1.1439
 8764SOL    HW137925   4.423   0.088  16.006 -1.6697  2.5030  0.4296
 8764SOL    HW237926   4.442   0.095  15.856  3.2421  1.2189 -1.0023
 8765SOL     OW37927   4.592   1.045   6.714  0.0737 -0.3920 -0.1809
 8765SOL    HW137928   4.541   0.974   6.752  0.6406 -0.4151  0.5360
 8765SOL    HW237929   4.573   1.111   6.780 -0.9423  0.3433 -1.2086
 8766SOL     OW37930   2.544   0.500   4.880  0.1189 -0.3018  0.0664
 8766SOL    HW137931   2.576   0.582   4.919  3.0425 -0.7657 -1.3520
 8766SOL    HW237932   2.464   0.489   4.931 -1.1279  3.3382 -1.1073
 8767SOL     OW37933   0.300   1.651   3.665  0.6853  0.0565  0.1837
 8767SOL    HW137934   0.230   1.712   3.643  2.1675  0.5687 -3.0265
 8767SOL    HW237935   0.269   1.566   3.634 -2.4392  1.5015 -0.5590
 8768SOL     OW37936   0.353   1.299   0.607 -0.0520 -0.3897 -0.2670
 8768SOL    HW137937   0.429   1.260   0.564  1.0609 -1.2566  2.5365
 8768SOL    HW237938   0.288   1.251   0.555 -1.7024  1.0067  0.4982
 8769SOL     OW37939   3.748   1.390  12.954 -0.2029 -0.0328 -0.1050
 8769SOL    HW137940   3.731   1.467  12.901  0.0992 -0.0782 -0.2642
 8769SOL    HW237941   3.766   1.427  13.041  0.2351  0.2569 -0.3181
 8770SOL     OW37942   0.966   3.591  16.800  0.1074  0.0227  0.0728
 8770SOL    HW137943   1.040   3.537  16.828  1.6972  1.7253 -0.8502
 8770SOL    HW237944   0.892   3.540  16.832 -0.1719 -0.7999 -1.8970
 8771SOL     OW37945   1.199   0.872   8.092  0.5456 -0.1469  0.1162
 8771SOL    HW137946   1.199   0.952   8.039  0.3238 -0.7567 -0.7972
 8771SOL    HW237947   1.216   0.820   8.013 -0.4229  1.0120 -0.8648
 8772SOL     OW37948   3.218   0.661   7.676 -0.1596 -0.0526  0.0557
 8772SOL    HW137949   3.234   0.710   7.596 -0.2521  0.4977  0.3711
 8772SOL    HW237950   3.233   0.729   7.742 -1.6689  0.8152 -0.5146
 8773SOL     OW37951   2.941   0.345   7.949  0.2081  0.3344 -0.1379
 8773SOL    HW137952   2.862   0.379   7.906  0.2009 -0.8629 -1.0768
 8773SOL    HW237953   2.895   0.306   8.024  1.1068  2.7395  1.6466
 8774SOL     OW37954   0.768   2.148   2.162 -0.4234  1.2800  0.4409
 8774SOL    HW137955   0.739   2.213   2.225 -0.3332  2.6541 -0.9447
 8774SOL    HW237956   0.695   2.086   2.169  1.6670 -1.3677 -1.1188
 8775SOL     OW37957   0.504   3.810   0.155 -0.0021  0.2598  0.0823
 8775SOL    HW137958   0.542   3.742   0.211  0.6134  1.2686  0.8823
 8775SOL    HW237959   0.472   3.874   0.218 -1.6813 -0.9961  0.5175
 8776SOL     OW37960   2.315   2.440   5.143 -0.5560 -0.0067  0.0439
 8776SOL    HW137961   2.271   2.489   5.074  0.0967  0.8803  0.2642
 8776SOL    HW237962   2.404   2.446   5.110 -0.6152 -0.1528 -0.1466
 8777SOL     OW37963   1.967   4.042  13.800 -0.4930 -0.5115 -0.0528
 8777SOL    HW137964   1.877   4.049  13.769 -0.7066 -1.5033  0.3343
 8777SOL    HW237965   1.983   3.948  13.792 -0.2497 -0.5729  1.1137
 8778SOL     OW37966   3.806   0.818   5.413  0.0134 -0.1887 -0.3459
 8778SOL    HW137967   3.782   0.881   5.480 -0.0176 -2.0732  1.4079
 8778SOL    HW237968   3.753   0.744   5.442 -1.1969 -0.1273 -2.3669
 8779SOL     OW37969   4.076   1.984   2.268 -0.2598 -0.2482 -0.8198
 8779SOL    HW137970   4.052   2.073   2.293  0.7068 -0.3762  0.5240
 8779SOL    HW237971   4.156   1.963   2.318 -1.7602  2.2236  2.5574
 8780SOL     OW37972   3.550   0.114   2.602 -0.5803  0.0582  0.5834
 8780SOL    HW137973   3.599   0.171   2.662 -0.9928 -0.9730  1.9185
 8780SOL    HW237974   3.531   0.186   2.543 -3.2181  0.4860  1.9182
 8781SOL     OW37975   4.110   3.661   7.930 -0.3517  0.4087  0.0648
 8781SOL    HW137976   4.059   3.742   7.923 -1.9088 -0.4902  0.8016
 8781SOL    HW237977   4.045   3.593   7.951  1.4641 -0.8800  1.5572
 8782SOL     OW37978   2.786   3.432   7.553  0.2504 -0.2919 -0.9291
 8782SOL    HW137979   2.823   3.440   7.465 -0.7431  2.1293 -1.1170
 8782SOL    HW237980   2.693   3.426   7.532  0.4637 -2.1779 -1.2958
 8783SOL     OW37981   2.828   2.249  13.770 -0.4451  0.5449  0.0546
 8783SOL    HW137982   2.758   2.271  13.832  1.1826 -0.5567  2.2887
 8783SOL    HW237983   2.783   2.262  13.687 -1.5392  0.8578  0.6957
 8784SOL     OW37984   1.417   1.751  10.570  0.0734  0.1240 -0.4468
 8784SOL    HW137985   1.393   1.678  10.627 -1.0719  1.0983  0.3129
 8784SOL    HW237986   1.339   1.757  10.515 -0.2117 -3.1135 -0.4006
 8785SOL     OW37987   1.172   2.355  16.825  0.0016  0.2904 -0.5348
 8785SOL    HW137988   1.145   2.416  16.894 -1.3371 -0.3069 -0.5265
 8785SOL    HW237989   1.252   2.397  16.794 -0.2851 -0.5021 -2.3470
 8786SOL     OW37990   2.676   4.057   8.351 -0.0079 -0.3063 -0.4866
 8786SOL    HW137991   2.739   3.992   8.382 -2.1288 -1.3260  1.6721
 8786SOL    HW237992   2.660   4.025   8.262 -0.8188 -0.2280 -0.3688
 8787SOL     OW37993   1.871   2.998   9.066  0.0731 -0.2394 -0.3137
 8787SOL    HW137994   1.825   3.065   9.016 -1.2295 -0.4007  0.6783
 8787SOL    HW237995   1.942   3.058   9.091  1.2021 -1.5104 -0.4796
 8788SOL     OW37996   4.149   0.241  13.559  0.0641  0.0587 -0.1308
 8788SOL    HW137997   4.139   0.152  13.523 -2.4458 -0.1583  1.1221
 8788SOL    HW237998   4.119   0.286  13.480 -0.2081  0.2435  0.0811
 8789SOL     OW37999   3.458   4.034  12.251  0.2842 -0.0378 -0.2499
 8789SOL    HW138000   3.421   3.947  12.246 -1.8936  1.0194 -2.4047
 8789SOL    HW238001   3.428   4.062  12.337  0.0679  2.7325 -1.1935
 8790SOL     OW38002   3.511   4.501   7.274  0.3121  0.5284 -0.0484
 8790SOL    HW138003   3.575   4.438   7.308 -0.5066  0.2649  0.9926
 8790SOL    HW238004   3.523   4.575   7.333 -0.2142  0.3668  0.2633
 8791SOL     OW38005   3.341   4.686   4.117  0.2290 -0.3197  0.0795
 8791SOL    HW138006   3.287   4.607   4.123 -0.6251  0.2219 -0.5035
 8791SOL    HW238007   3.270   0.013   4.107  2.1958  1.4475 -2.5004
 8792SOL     OW38008   1.545   1.461   6.104  0.0379  0.3018  0.0163
 8792SOL    HW138009   1.463   1.487   6.061  0.8671  0.7724 -1.3053
 8792SOL    HW238010   1.568   1.382   6.056  1.5049 -1.0780  3.0141
 8793SOL     OW38011   2.359   3.798  16.830 -0.3873  0.2889 -0.5055
 8793SOL    HW138012   2.441   3.757  16.805 -0.6682  0.1100 -1.1432
 8793SOL    HW238013   2.387   3.890  16.825 -2.2172  0.9430  0.9746
 8794SOL     OW38014   1.863   4.234   1.508  0.3578 -0.2897 -1.1614
 8794SOL    HW138015   1.912   4.261   1.430  2.1786 -2.6934 -0.8354
 8794SOL    HW238016   1.822   4.318   1.526  1.7572  0.5016 -1.6698
 8795SOL     OW38017   0.641   4.010   5.106  0.0340 -0.1909  0.3986
 8795SOL    HW138018   0.718   4.067   5.109 -0.0453 -0.0779  0.3061
 8795SOL    HW238019   0.676   3.926   5.076 -0.1649  1.1761 -3.6901
 8796SOL     OW38020   3.157   0.169   7.333 -0.0420  0.0840 -0.0034
 8796SOL    HW138021   3.124   0.199   7.418  0.5377 -0.5041  0.4341
 8796SOL    HW238022   3.253   0.176   7.342  0.0720 -0.4026 -0.8273
 8797SOL     OW38023   2.949   1.894   5.030 -0.2241 -0.0180 -0.1459
 8797SOL    HW138024   3.027   1.936   4.995  0.0660 -2.9958 -3.1060
 8797SOL    HW238025   2.989   1.833   5.091  0.7900  0.5799 -0.2245
 8798SOL     OW38026   3.723   0.643   9.618  0.0245 -0.1511  0.1291
 8798SOL    HW138027   3.631   0.661   9.602 -0.6608 -2.9411  0.7715
 8798SOL    HW238028   3.756   0.725   9.581 -1.4292  1.3956  2.2751
 8799SOL     OW38029   3.653   4.312   7.434 -0.9157 -0.0527 -0.4771
 8799SOL    HW138030   3.585   4.345   7.493 -0.3131  2.0051 -0.9057
 8799SOL    HW238031   3.735   4.336   7.478 -0.0701 -0.1459 -2.0169
 8800SOL     OW38032   3.003   4.451  10.253 -0.4159 -0.2619 -0.5561
 8800SOL    HW138033   3.036   4.541  10.257 -1.2636  0.1012 -1.8327
 8800SOL    HW238034   2.913   4.461  10.284 -0.9934  0.0304 -2.3542
 8801SOL     OW38035   4.618   0.409  13.139  0.3932 -0.0020  0.2235
 8801SOL    HW138036   4.667   0.458  13.073 -0.5258  0.4955 -0.0897
 8801SOL    HW238037   4.612   0.327  13.089  2.7693  0.0751 -0.1937
 8802SOL     OW38038   4.649   4.486   1.650 -0.2795 -0.2546 -0.2334
 8802SOL    HW138039   4.640   4.450   1.738  0.4513 -0.6330 -0.3063
 8802SOL    HW238040   4.713   4.552   1.679  0.0574 -0.7511  0.1520
 8803SOL     OW38041   1.143   0.156   1.852  0.0964  0.0059 -0.0564
 8803SOL    HW138042   1.106   0.162   1.940  0.9451  4.3370  0.0335
 8803SOL    HW238043   1.078   0.212   1.810  0.2777 -1.8019 -2.7283
 8804SOL     OW38044   4.227   0.725   6.701  0.1976 -0.4147 -0.7082
 8804SOL    HW138045   4.158   0.701   6.763 -0.7543  4.1943  0.0064
 8804SOL    HW238046   4.269   0.640   6.690  1.5151  0.2404 -0.6544
 8805SOL     OW38047   3.250   3.776   6.681  0.2334  0.1847  0.2509
 8805SOL    HW138048   3.288   3.838   6.743  1.6356  1.2010 -1.5939
 8805SOL    HW238049   3.253   3.826   6.599  0.8486  0.1134  0.2265
 8806SOL     OW38050   1.317   2.571   8.573  0.0112  0.0472  0.1563
 8806SOL    HW138051   1.400   2.573   8.620  1.2050  0.9007 -2.0100
 8806SOL    HW238052   1.314   2.659   8.536  2.7395  0.8433  1.9213
 8807SOL     OW38053   1.676   1.190  17.410 -0.0107 -0.1971  0.3339
 8807SOL    HW138054   1.656   1.270  17.459  0.3387 -0.4175  0.8388
 8807SOL    HW238055   1.615   1.129  17.451  0.4206 -0.6240  0.3397
 8808SOL     OW38056   0.075   2.665  13.144  0.0341  0.1402 -0.2232
 8808SOL    HW138057   0.105   2.737  13.089 -0.7228  0.8763  0.3239
 8808SOL    HW238058   4.719   2.689  13.133  0.3093  1.1311 -0.4177
 8809SOL     OW38059   0.061   3.850   3.058  0.1053  0.3452  0.0928
 8809SOL    HW138060   0.127   3.898   3.009 -0.4967  1.3677  0.2963
 8809SOL    HW238061   0.014   3.929   3.085  0.7335  1.1125 -1.0585
 8810SOL     OW38062   0.477   3.539   6.109  0.3232 -0.1053  0.1478
 8810SOL    HW138063   0.397   3.577   6.073 -0.3769 -3.3518 -1.6738
 8810SOL    HW238064   0.494   3.589   6.189  1.2434  0.7142 -0.5604
 8811SOL     OW38065   1.442   0.792   4.575 -0.5629 -0.0841 -0.0723
 8811SOL    HW138066   1.376   0.861   4.576  2.7865  3.1566 -1.3515
 8811SOL    HW238067   1.448   0.767   4.667 -1.1803 -0.2125 -0.0672
 8812SOL     OW38068   0.738   1.002   2.769  0.4263  0.4200  0.1194
 8812SOL    HW138069   0.670   0.940   2.745  0.3681  0.9048 -0.9783
 8812SOL    HW238070   0.759   1.035   2.682  0.0535  2.3196  0.7375
 8813SOL     OW38071   1.094   3.159   4.295  0.1657  0.0794  0.1235
 8813SOL    HW138072   1.177   3.196   4.265  0.5232  0.3213  1.4063
 8813SOL    HW238073   1.109   3.173   4.389 -2.4356 -0.1080  0.5864
 8814SOL     OW38074   2.553   4.591   3.912  0.0688 -0.0097  0.3087
 8814SOL    HW138075   2.588   4.588   3.823 -0.4115 -2.0750  0.1997
 8814SOL    HW238076   2.636   4.564   3.952 -1.3045  0.4933  3.4919
 8815SOL     OW38077   2.701   1.471  13.224 -0.3168 -0.2662 -0.3287
 8815SOL    HW138078   2.611   1.443  13.242 -0.5657 -1.0859 -2.8539
 8815SOL    HW238079   2.720   1.424  13.142 -1.7131 -0.2165 -0.6814
 8816SOL     OW38080   4.266   3.187   1.995  0.3314 -0.3400  0.3186
 8816SOL    HW138081   4.320   3.120   1.953 -0.6018 -0.0022 -1.4234
 8816SOL    HW238082   4.329   3.258   2.005 -0.3137  0.0284  1.8251
 8817SOL     OW38083   3.639   3.881  15.303 -0.2175 -0.4647  0.3301
 8817SOL    HW138084   3.718   3.890  15.249 -0.6654 -0.8045 -0.3720
 8817SOL    HW238085   3.651   3.968  15.342  0.5129  0.3077 -1.6400
 8818SOL     OW38086   3.133   3.769   5.782  0.4282 -1.0086  0.3330
 8818SOL    HW138087   3.200   3.725   5.834 -0.7647 -0.9993  1.9004
 8818SOL    HW238088   3.105   3.838   5.842  3.0353  0.9799 -0.7470
 8819SOL     OW38089   2.525   4.461   6.064 -0.0924 -0.2292  0.3599
 8819SOL    HW138090   2.481   4.383   6.032  0.2932  0.6662 -2.3694
 8819SOL    HW238091   2.571   4.422   6.139  1.0272  2.5920  1.1581
 8820SOL     OW38092   2.211   0.663   8.520  0.0003 -0.3653  0.0397
 8820SOL    HW138093   2.255   0.630   8.599  0.1287  0.3443  0.2634
 8820SOL    HW238094   2.213   0.584   8.465  1.6626 -0.4268  0.1791
 8821SOL     OW38095   1.811   3.917   1.161  0.0245  0.0666  0.6145
 8821SOL    HW138096   1.734   3.925   1.106 -0.6695  0.4570  1.6546
 8821SOL    HW238097   1.777   3.872   1.238  1.2546 -0.5181  0.8277
 8822SOL     OW38098   2.431   2.620   4.582 -0.0021  0.3085  0.5214
 8822SOL    HW138099   2.337   2.603   4.589 -0.0555  0.7038  0.7519
 8822SOL    HW238100   2.465   2.631   4.671  0.6203 -1.1823  0.4754
 8823SOL     OW38101   2.693   0.611  12.965 -0.3255  0.3919  0.3238
 8823SOL    HW138102   2.615   0.603  13.020 -0.0285  1.1690  0.8547
 8823SOL    HW238103   2.753   0.655  13.024 -0.2062 -1.8146  1.8388
 8824SOL     OW38104   1.835   4.694   1.877  0.3533  0.6455 -0.3585
 8824SOL    HW138105   1.759   0.013   1.894 -0.4506 -0.6582  0.3713
 8824SOL    HW238106   1.906   0.006   1.919  0.2492  1.2718 -0.9182
 8825SOL     OW38107   2.402   0.829   2.372  0.4573 -0.7318  0.0423
 8825SOL    HW138108   2.466   0.802   2.306  1.0997  2.0991 -0.5123
 8825SOL    HW238109   2.456   0.858   2.445  0.2446  2.6464 -1.1491
 8826SOL     OW38110   3.899   2.354   3.716 -0.5206 -0.1078  0.5225
 8826SOL    HW138111   3.994   2.347   3.717 -0.4175  1.4040  1.0807
 8826SOL    HW238112   3.872   2.274   3.671 -0.4156 -0.5430  1.2339
 8827SOL     OW38113   1.867   0.326   1.859 -0.7236 -0.2217 -0.1980
 8827SOL    HW138114   1.862   0.293   1.948  1.4730  2.3613  0.8560
 8827SOL    HW238115   1.836   0.248   1.811  2.0047  1.2192 -4.2755
 8828SOL     OW38116   3.289   1.866   1.068 -0.2846  0.3011 -0.6779
 8828SOL    HW138117   3.309   1.923   0.994 -0.3369 -0.6597 -1.4191
 8828SOL    HW238118   3.256   1.785   1.030 -0.3225  0.3432 -0.7328
 8829SOL     OW38119   3.126   0.242  12.896 -0.2351  0.1320  0.9764
 8829SOL    HW138120   3.156   0.332  12.890  0.0703 -0.0734 -0.5544
 8829SOL    HW238121   3.032   0.261  12.899 -0.7528 -1.9799 -1.7149
 8830SOL     OW38122   4.379   1.376  13.141  0.4598  0.2444  0.1272
 8830SOL    HW138123   4.433   1.427  13.081  1.6167 -0.9398  0.1538
 8830SOL    HW238124   4.383   1.432  13.219  1.7102 -0.4245  0.5424
 8831SOL     OW38125   1.878   2.664  13.073  0.5178 -0.1917  0.6710
 8831SOL    HW138126   1.786   2.651  13.048  1.3579 -1.3045 -1.8992
 8831SOL    HW238127   1.882   2.758  13.088  1.9837 -0.0925 -0.3011
 8832SOL     OW38128   2.718   4.622   5.943  0.1212  0.6526 -0.0722
 8832SOL    HW138129   2.800   4.613   5.993  0.1611 -2.3256 -0.6728
 8832SOL    HW238130   2.668   4.543   5.962  2.4322 -1.0839 -1.2193
 8833SOL     OW38131   1.878   0.278   7.644  0.0901 -0.3378 -0.0306
 8833SOL    HW138132   1.863   0.222   7.567  0.7669 -0.7085  0.1051
 8833SOL    HW238133   1.931   0.349   7.607 -0.7691  0.6200  0.5892
 8834SOL     OW38134   0.430   2.249   6.462 -0.3688 -0.5755 -0.2889
 8834SOL    HW138135   0.430   2.321   6.526  1.2332 -0.6886 -0.1607
 8834SOL    HW238136   0.511   2.203   6.484 -0.1694  0.5148  1.2838
 8835SOL     OW38137   1.843   0.334   8.289 -0.0825  0.0029  0.5104
 8835SOL    HW138138   1.829   0.247   8.327  1.4388 -0.4461  0.0304
 8835SOL    HW238139   1.758   0.378   8.298  0.7477  1.4299  1.3791
 8836SOL     OW38140   1.859   4.143   6.177  0.3999 -0.4646  1.3160
 8836SOL    HW138141   1.769   4.143   6.144  0.6366  1.0909  0.6610
 8836SOL    HW238142   1.889   4.069   6.124  2.4248 -0.0801  1.9237
 8837SOL     OW38143   2.319   2.158   4.931 -0.2852 -0.1676 -0.0354
 8837SOL    HW138144   2.404   2.182   4.968  0.6414 -0.7431 -1.8213
 8837SOL    HW238145   2.313   2.234   4.874  3.8303  0.2944  0.0968
 8838SOL     OW38146   4.530   0.449   6.603 -0.1135 -0.3298  0.1513
 8838SOL    HW138147   4.541   0.400   6.522 -0.8411  2.5726 -1.7164
 8838SOL    HW238148   4.442   0.423   6.630 -0.4182 -0.8723 -1.3581
 8839SOL     OW38149   1.751   2.415  14.032 -0.3368  0.0550 -0.2047
 8839SOL    HW138150   1.821   2.352  14.013 -0.7160 -0.2367 -0.6476
 8839SOL    HW238151   1.690   2.356  14.077 -0.0123  0.3043  0.5470
 8840SOL     OW38152   3.121   0.318  16.230 -0.3722  0.3695  0.0233
 8840SOL    HW138153   3.035   0.360  16.219  0.4422  2.2486  0.7727
 8840SOL    HW238154   3.163   0.360  16.155 -2.3701 -0.8907 -1.8034
 8841SOL     OW38155   0.837   4.226   3.302 -0.4873 -0.8466 -0.3045
 8841SOL    HW138156   0.809   4.155   3.360  0.4594 -2.4249 -1.7940
 8841SOL    HW238157   0.779   4.296   3.331  1.3777  1.0488 -1.1127
 8842SOL     OW38158   4.171   1.529   6.478  0.2824  0.0780  0.3231
 8842SOL    HW138159   4.107   1.514   6.547  2.1111 -0.6066  1.8819
 8842SOL    HW238160   4.231   1.583   6.530  0.7421 -0.2361  0.1225
 8843SOL     OW38161   1.315   4.736   7.713  0.0900 -0.2874 -0.4215
 8843SOL    HW138162   1.340   4.672   7.646 -0.9720  2.2037 -3.1486
 8843SOL    HW238163   1.391   4.727   7.770 -0.3490  1.6945  0.4590
 8844SOL     OW38164   3.839   4.277  17.203 -0.2600  0.2967  0.6198
 8844SOL    HW138165   3.862   4.253  17.293 -0.0041 -0.0005  0.4733
 8844SOL    HW238166   3.854   4.193  17.160 -0.2618  1.4332 -1.6084
 8845SOL     OW38167   4.649   2.661   5.840  0.4645  0.1649  0.5628
 8845SOL    HW138168   4.729   2.631   5.795 -0.9662 -1.0928 -1.1628
 8845SOL    HW238169   4.674   2.748   5.869  2.4207 -0.7524  1.6329
 8846SOL     OW38170   3.582   3.926  13.741 -0.1934  0.0420 -0.2072
 8846SOL    HW138171   3.625   3.841  13.753  1.8859  1.2623  0.9924
 8846SOL    HW238172   3.513   3.925  13.807  0.3449  0.0181  0.3503
 8847SOL     OW38173   1.987   2.831   7.235  0.4765 -0.0924  0.1485
 8847SOL    HW138174   2.012   2.869   7.320  1.1420 -0.4298  0.1032
 8847SOL    HW238175   1.909   2.880   7.207  0.9533 -0.3212 -1.5801
 8848SOL     OW38176   4.575   2.489   3.406  0.1056  0.1884  0.4531
 8848SOL    HW138177   4.655   2.457   3.448  0.3468  0.4409  0.1870
 8848SOL    HW238178   4.528   2.408   3.386 -1.7724  1.7394 -1.3164
 8849SOL     OW38179   1.520   1.591  11.245 -0.3590  0.1520 -0.1249
 8849SOL    HW138180   1.557   1.678  11.230  0.8226 -0.6309 -1.8404
 8849SOL    HW238181   1.433   1.589  11.206 -0.0816 -0.2909 -0.7342
 8850SOL     OW38182   2.987   4.660  16.771 -0.0927 -0.8147 -0.4286
 8850SOL    HW138183   3.056   4.624  16.827 -0.9488 -2.2582 -0.3273
 8850SOL    HW238184   2.907   4.613  16.794 -0.4597 -0.2515 -0.5570
 8851SOL     OW38185   2.244   1.285   7.080 -0.0931  0.0749  0.3648
 8851SOL    HW138186   2.251   1.235   7.161  2.4476 -3.2432 -1.9292
 8851SOL    HW238187   2.272   1.370   7.113 -1.1134  0.7211 -0.3951
 8852SOL     OW38188   2.349   0.689  16.102  0.1552 -0.1522  0.3035
 8852SOL    HW138189   2.340   0.612  16.158 -0.6825 -1.9316 -2.2857
 8852SOL    HW238190   2.257   0.713  16.089  0.6382  2.5594  1.7382
 8853SOL     OW38191   4.546   3.725   0.179  0.2042 -0.2389 -0.1268
 8853SOL    HW138192   4.453   3.713   0.159  0.1981 -0.8176  0.2680
 8853SOL    HW238193   4.551   3.813   0.217  0.4743 -0.1745 -0.3066
 8854SOL     OW38194   0.390   2.460   0.147 -0.1692  0.1935  0.5286
 8854SOL    HW138195   0.485   2.461   0.162 -0.2742  2.5806  1.0295
 8854SOL    HW238196   0.381   2.540   0.095  0.9537 -2.0407 -3.0944
 8855SOL     OW38197   1.992   3.281   7.969  0.3191  0.2816 -0.0886
 8855SOL    HW138198   1.951   3.367   7.977  0.2276  0.1607  0.8074
 8855SOL    HW238199   1.961   3.235   8.048  0.5802 -1.5841 -1.0588
 8856SOL     OW38200   4.311   0.809   1.414  0.1268 -0.4356 -0.3373
 8856SOL    HW138201   4.264   0.881   1.455 -0.6813 -0.6522 -0.8938
 8856SOL    HW238202   4.290   0.740   1.477 -0.8958 -0.4251 -0.6734
 8857SOL     OW38203   4.401   3.947  11.678 -0.2404  0.1563  0.6108
 8857SOL    HW138204   4.361   3.990  11.603 -0.0376 -0.3487  0.2146
 8857SOL    HW238205   4.473   4.008  11.697  2.1015 -1.5290 -2.8227
 8858SOL     OW38206   1.235   1.779   3.695  0.9468  0.0169  0.4399
 8858SOL    HW138207   1.322   1.819   3.693  1.1538 -0.4512  0.1030
 8858SOL    HW238208   1.239   1.733   3.779  0.1930  0.2556  0.6121
 8859SOL     OW38209   4.260   3.541   7.376 -0.4212 -0.0138  0.3745
 8859SOL    HW138210   4.352   3.550   7.350 -0.6977 -2.3326 -1.4399
 8859SOL    HW238211   4.216   3.560   7.293  1.7663 -0.8034 -0.9988
 8860SOL     OW38212   4.479   3.699   7.047  0.3242  0.3153  0.4522
 8860SOL    HW138213   4.568   3.730   7.062  0.5643  0.4692 -1.2083
 8860SOL    HW238214   4.478   3.614   7.090  0.3209 -0.5355 -1.2136
 8861SOL     OW38215   2.220   0.371   8.619  0.4534  0.1868  0.8472
 8861SOL    HW138216   2.138   0.395   8.663 -1.2793 -3.1155 -0.4993
 8861SOL    HW238217   2.246   0.290   8.663 -1.0172 -1.3608 -1.1173
 8862SOL     OW38218   4.726   3.765   7.125  0.4889  0.1886 -0.5633
 8862SOL    HW138219   0.017   3.684   7.081  0.5009 -0.7631  1.1944
 8862SOL    HW238220   0.005   3.740   7.216 -0.3884 -0.9693 -0.7319
 8863SOL     OW38221   1.888   0.589  16.089  0.2526  0.4354  0.2878
 8863SOL    HW138222   1.905   0.643  16.012 -0.2037  0.4421  0.1962
 8863SOL    HW238223   1.878   0.666  16.145  3.1182  0.7030  0.4506
 8864SOL     OW38224   3.746   3.289   2.843 -0.2653 -0.1314 -0.2075
 8864SOL    HW138225   3.768   3.226   2.774 -1.8028  0.3523 -1.1371
 8864SOL    HW238226   3.792   3.364   2.808 -1.0406  1.2894  1.8078
 8865SOL     OW38227   3.153   1.217   3.228  0.2171 -0.0183  0.1039
 8865SOL    HW138228   3.203   1.299   3.226  0.5071 -0.2202 -1.1262
 8865SOL    HW238229   3.106   1.232   3.146  1.9689  2.0286 -0.5473
 8866SOL     OW38230   1.355   1.015  17.020  0.4192  0.6970 -0.4468
 8866SOL    HW138231   1.325   0.980  16.936  1.0580  0.0191 -0.3803
 8866SOL    HW238232   1.405   1.089  16.986 -0.8643  1.7767 -0.0055
 8867SOL     OW38233   0.889   3.140  11.662  0.3818  0.0153 -0.4851
 8867SOL    HW138234   0.978   3.149  11.695 -0.0646 -0.9257  1.0132
 8867SOL    HW238235   0.837   3.146  11.743 -0.7087  0.2811 -1.2133
 8868SOL     OW38236   1.294   4.616   1.117 -0.4784  0.4975  0.3580
 8868SOL    HW138237   1.207   4.604   1.080 -0.5576 -0.0266  0.7167
 8868SOL    HW238238   1.290   4.711   1.109  3.3961  0.7859  1.7914
 8869SOL     OW38239   2.983   4.732   5.609  0.5198 -0.0763  0.3048
 8869SOL    HW138240   3.050   0.000   5.541 -0.2634  1.3138 -0.3554
 8869SOL    HW238241   2.963   0.088   5.621  2.5538  0.5715 -1.2599
 8870SOL     OW38242   1.736   3.422   2.420 -0.3353  0.5133 -0.2539
 8870SOL    HW138243   1.769   3.335   2.442  2.3799  2.1324  2.1977
 8870SOL    HW238244   1.660   3.423   2.478 -1.3098  0.1813 -1.5434
 8871SOL     OW38245   0.245   2.962  17.697  0.4987  0.9158  0.2349
 8871SOL    HW138246   0.174   3.018  17.728 -0.4155 -0.3731  0.4716
 8871SOL    HW238247   0.242   2.953  17.602 -0.2183  0.9936  0.2503
 8872SOL     OW38248   3.221   0.868   4.996 -0.1533  0.4301 -0.5793
 8872SOL    HW138249   3.281   0.916   4.940 -0.3028  1.1672 -0.1131
 8872SOL    HW238250   3.231   0.778   4.965  0.7130  0.5323 -0.5802
 8873SOL     OW38251   3.694   2.358   7.271  0.1344  0.1271 -0.0279
 8873SOL    HW138252   3.607   2.363   7.312  1.1379 -0.0369  2.1395
 8873SOL    HW238253   3.735   2.436   7.310  1.1287  0.2660 -1.3832
 8874SOL     OW38254   1.874   2.695  12.758 -0.3118  0.6357  0.0612
 8874SOL    HW138255   1.851   2.676  12.667  0.6674  0.1339 -0.0803
 8874SOL    HW238256   1.796   2.666  12.805 -1.3141  2.2709 -0.5733
 8875SOL     OW38257   2.761   0.711  11.930  0.5046 -0.1232  0.0510
 8875SOL    HW138258   2.674   0.707  11.971 -0.5792 -0.3356 -2.2759
 8875SOL    HW238259   2.745   0.707  11.836  1.8682  0.2718 -0.1915
 8876SOL     OW38260   0.881   2.826   6.448 -0.0575 -0.3508  0.2786
 8876SOL    HW138261   0.806   2.824   6.388 -0.0191 -1.1202  0.2604
 8876SOL    HW238262   0.916   2.738   6.447  1.6445  0.3420 -1.6165
 8877SOL     OW38263   3.268   2.330   2.965  0.1506  0.1617 -0.8374
 8877SOL    HW138264   3.323   2.289   3.032 -0.7941  1.7961  0.9033
 8877SOL    HW238265   3.231   2.405   3.011 -1.1543 -0.6275 -0.5973
 8878SOL     OW38266   2.543   1.230  14.657  0.4062  0.2431  0.1958
 8878SOL    HW138267   2.491   1.273  14.725  1.0202  0.5184  0.4959
 8878SOL    HW238268   2.571   1.308  14.608  2.4557 -0.6674 -0.0846
 8879SOL     OW38269   3.057   4.564   4.826 -0.0289 -0.2987 -0.5427
 8879SOL    HW138270   3.093   4.597   4.743 -0.7290  1.0950 -0.2800
 8879SOL    HW238271   2.969   4.599   4.836 -0.3736 -1.1745 -0.4578
 8880SOL     OW38272   3.857   4.090   3.521  0.6213 -0.1886 -0.3778
 8880SOL    HW138273   3.838   4.001   3.491 -2.2669 -0.5986  2.6328
 8880SOL    HW238274   3.885   4.135   3.441 -0.1556  1.9054  0.5190
 8881SOL     OW38275   3.944   4.386   8.407  0.2135  0.6888  1.0096
 8881SOL    HW138276   4.008   4.353   8.470 -0.7101  2.1270  2.7092
 8881SOL    HW238277   3.993   4.462   8.375 -0.0308  0.0998 -0.7577
 8882SOL     OW38278   3.878   1.562   4.769 -1.2341 -0.5314  0.0126
 8882SOL    HW138279   3.875   1.482   4.821  0.3555 -1.9365 -2.0254
 8882SOL    HW238280   3.890   1.518   4.684 -0.3513 -1.2777  0.5191
 8883SOL     OW38281   0.429   3.447   6.709  0.2578 -0.0048 -0.1045
 8883SOL    HW138282   0.418   3.541   6.699  1.2558  0.2318  1.1922
 8883SOL    HW238283   0.421   3.417   6.618  2.9296 -0.7457 -0.1045
 8884SOL     OW38284   2.834   3.095   7.115 -0.4350  0.2653 -0.3991
 8884SOL    HW138285   2.745   3.127   7.104 -1.0696 -1.8562 -1.5460
 8884SOL    HW238286   2.824   3.074   7.208 -1.1055  0.2326 -0.4776
 8885SOL     OW38287   4.592   4.002   8.714  0.3983  0.1545 -0.0051
 8885SOL    HW138288   4.555   3.939   8.776 -0.5048  0.0711 -0.6319
 8885SOL    HW238289   4.677   4.001   8.757  0.4419 -0.7710 -0.1154
 8886SOL     OW38290   2.095   1.322  17.463  0.1890  0.1485  0.0257
 8886SOL    HW138291   2.074   1.288  17.376 -1.9357 -2.0487  1.4029
 8886SOL    HW238292   2.064   1.255  17.524 -1.3094 -0.7383 -1.7051
 8887SOL     OW38293   1.367   0.831  13.467  0.0674 -0.2061  0.7027
 8887SOL    HW138294   1.401   0.920  13.474 -4.0317  1.1554  3.0590
 8887SOL    HW238295   1.365   0.814  13.561  2.0177  0.4096  0.8655
 8888SOL     OW38296   3.884   2.785  11.037  0.5243  0.1684 -0.0601
 8888SOL    HW138297   3.895   2.718  10.969  2.1667  1.4595 -1.0838
 8888SOL    HW238298   3.970   2.792  11.078 -0.5018  3.3859  1.5257
 8889SOL     OW38299   0.800   2.912   6.114  0.2508  0.0314  0.1426
 8889SOL    HW138300   0.759   2.998   6.112  1.5616  0.5881 -2.6588
 8889SOL    HW238301   0.735   2.857   6.158 -1.0893  2.7652  1.5871
 8890SOL     OW38302   3.262   0.663  10.813 -0.1538  0.3736 -0.1084
 8890SOL    HW138303   3.241   0.573  10.838  0.0873  0.6728  1.1856
 8890SOL    HW238304   3.209   0.713  10.876 -1.8109 -0.0954 -1.1234
 8891SOL     OW38305   2.297   1.336   9.520  0.2023 -0.1366  0.0712
 8891SOL    HW138306   2.256   1.254   9.549 -1.0593  0.5523  0.2133
 8891SOL    HW238307   2.387   1.325   9.552  1.0638 -0.0886 -2.4076
 8892SOL     OW38308   2.332   2.097   6.881 -0.5529  0.6634  0.4153
 8892SOL    HW138309   2.317   2.124   6.971 -1.8875  0.8411  0.1391
 8892SOL    HW238310   2.427   2.089   6.880 -0.7303 -1.5376  1.2701
 8893SOL     OW38311   2.145   1.488  10.780 -0.3994  0.0635 -0.3803
 8893SOL    HW138312   2.119   1.531  10.862 -0.6411 -0.6376 -0.0928
 8893SOL    HW238313   2.089   1.531  10.715  1.4294  1.0327 -1.3247
 8894SOL     OW38314   1.470   3.856  10.588 -0.1711  0.2223 -0.1691
 8894SOL    HW138315   1.484   3.848  10.682 -1.4053 -1.2958 -0.1113
 8894SOL    HW238316   1.393   3.799  10.582 -0.3392  0.6639 -2.2785
 8895SOL     OW38317   4.533   1.438   5.331  0.5274 -0.2368  0.1472
 8895SOL    HW138318   4.536   1.474   5.242 -1.9814  0.2406  0.2514
 8895SOL    HW238319   4.582   1.356   5.330  0.1778 -0.4747  2.1383
 8896SOL     OW38320   4.518   4.251   6.525 -0.1946 -0.1324 -0.2158
 8896SOL    HW138321   4.553   4.279   6.609  2.3425  0.9669 -1.6162
 8896SOL    HW238322   4.598   4.218   6.483  0.2277  0.9302 -0.2333
 8897SOL     OW38323   2.018   3.076   5.886 -0.4520  0.5847 -0.1520
 8897SOL    HW138324   2.021   2.995   5.835 -0.2287  0.9378 -0.6992
 8897SOL    HW238325   1.960   3.055   5.960  0.4950  0.4701  0.5563
 8898SOL     OW38326   2.424   2.256   2.913  0.0061 -0.5551  0.4321
 8898SOL    HW138327   2.380   2.313   2.976  1.6090 -0.1601  1.1694
 8898SOL    HW238328   2.360   2.265   2.842  0.6373  2.6755  0.2450
 8899SOL     OW38329   4.371   4.045   5.113  0.4614  0.6732 -0.1515
 8899SOL    HW138330   4.357   3.969   5.169  0.7352  1.1001  0.4982
 8899SOL    HW238331   4.346   3.997   5.034 -0.2962  1.3573 -0.3312
 8900SOL     OW38332   0.603   2.000   5.048  0.4717  0.5125  0.1409
 8900SOL    HW138333   0.516   2.014   5.085 -0.3384  0.6530 -1.8316
 8900SOL    HW238334   0.591   2.036   4.960 -1.9010  0.8891  0.6389
 8901SOL     OW38335   0.367   2.897  11.643  0.2346  0.7300  0.0098
 8901SOL    HW138336   0.287   2.921  11.690 -0.7579 -0.8194 -0.9045
 8901SOL    HW238337   0.386   2.981  11.601 -0.1147 -0.4394 -2.4440
 8902SOL     OW38338   3.538   0.179  11.778  0.3028  0.1068  0.3583
 8902SOL    HW138339   3.593   0.144  11.848 -0.4025 -2.3656 -0.3161
 8902SOL    HW238340   3.516   0.106  11.720 -1.2654  1.1994 -0.4339
 8903SOL     OW38341   2.273   2.900   5.289  1.0465 -0.3935 -0.3373
 8903SOL    HW138342   2.327   2.959   5.342 -1.8670  0.3186  1.8761
 8903SOL    HW238343   2.319   2.817   5.304  0.9014 -0.2409  0.9889
 8904SOL     OW38344   3.438   1.969   5.601  0.3719 -0.2065  0.2041
 8904SOL    HW138345   3.396   1.884   5.605  0.8222 -0.3616  1.6748
 8904SOL    HW238346   3.370   2.034   5.580  3.4461  2.2907 -2.1196
 8905SOL     OW38347   4.645   1.280   3.265  0.1749  0.4206  0.6041
 8905SOL    HW138348   4.646   1.221   3.341 -0.4896 -0.7224 -0.2597
 8905SOL    HW238349   4.735   1.267   3.236  0.1394  0.3047  0.5431
 8906SOL     OW38350   4.303   0.847   2.875 -0.1207  0.1760  0.3701
 8906SOL    HW138351   4.271   0.932   2.906  1.7754  0.9506  0.2430
 8906SOL    HW238352   4.228   0.791   2.892 -0.1043  0.4285  1.2461
 8907SOL     OW38353   3.806   1.630   3.829 -0.4565 -0.1727  0.0799
 8907SOL    HW138354   3.854   1.549   3.816 -0.0375  0.2362 -0.8660
 8907SOL    HW238355   3.790   1.615   3.922  0.8908  0.1323  0.3562
 8908SOL     OW38356   0.477   0.777   6.044 -0.6942  0.1870 -0.4228
 8908SOL    HW138357   0.399   0.769   6.098  0.3381  1.6946  1.3253
 8908SOL    HW238358   0.528   0.845   6.090 -0.2629  0.4623 -1.3132
 8909SOL     OW38359   2.530   3.982  11.162 -0.2739 -0.1830  0.0248
 8909SOL    HW138360   2.616   4.023  11.172 -0.3333 -0.0864  0.1478
 8909SOL    HW238361   2.532   3.908  11.222  1.4175 -0.5574 -0.5156
 8910SOL     OW38362   3.239   2.044   2.370 -0.4618  0.4718 -0.4986
 8910SOL    HW138363   3.292   1.982   2.320  1.5064  2.9129 -1.4638
 8910SOL    HW238364   3.293   2.060   2.448 -1.4417 -0.8212  0.4350
 8911SOL     OW38365   3.514   2.663  17.654 -0.0764 -0.3444  0.0882
 8911SOL    HW138366   3.571   2.719  17.708  0.5885 -1.2602  0.3386
 8911SOL    HW238367   3.542   2.580  17.694  0.3841 -0.5126 -0.5834
 8912SOL     OW38368   4.671   1.132   9.196  0.0705  0.3700  0.0823
 8912SOL    HW138369   4.670   1.127   9.100 -2.5914 -0.0377  0.1360
 8912SOL    HW238370   4.669   1.037   9.210  0.0255  0.1017 -1.7264
 8913SOL     OW38371   0.615   0.075  14.932 -0.9684 -0.0389 -0.0467
 8913SOL    HW138372   0.564   0.156  14.924  0.9014  0.8547 -2.8206
 8913SOL    HW238373   0.621   0.043  14.842  0.8569  1.1664 -0.3531
 8914SOL     OW38374   2.297   0.712   1.180  0.1747 -0.3753 -0.2276
 8914SOL    HW138375   2.226   0.775   1.185  2.0148  1.7158 -0.1435
 8914SOL    HW238376   2.357   0.746   1.113 -2.1257  4.2972  0.1153
 8915SOL     OW38377   0.405   3.594  15.997  0.5889  0.6555 -0.2615
 8915SOL    HW138378   0.419   3.663  15.932 -0.5249 -0.6737 -1.9076
 8915SOL    HW238379   0.479   3.609  16.056  1.6241  0.4632 -1.5045
 8916SOL     OW38380   1.183   2.758   2.237  0.0922 -0.8648 -0.1273
 8916SOL    HW138381   1.147   2.772   2.149  2.6480  2.1787 -0.7006
 8916SOL    HW238382   1.257   2.705   2.209  1.3524  0.5529  0.4886
 8917SOL     OW38383   1.351   0.925  12.185 -0.0645  0.4002 -0.3728
 8917SOL    HW138384   1.298   0.980  12.242 -3.3187 -0.8595 -2.1432
 8917SOL    HW238385   1.309   0.841  12.204  2.7092 -0.3989  2.1675
 8918SOL     OW38386   1.174   0.251  11.809 -0.2241  0.0739  0.6148
 8918SOL    HW138387   1.130   0.334  11.828  0.2438  0.5055 -0.2008
 8918SOL    HW238388   1.246   0.248  11.871  0.9939  1.0475 -0.7458
 8919SOL     OW38389   1.304   0.858  16.799 -0.1451  0.4302 -0.6512
 8919SOL    HW138390   1.377   0.867  16.738  0.1864  0.9482 -0.1659
 8919SOL    HW238391   1.298   0.762  16.794  0.0656  0.3419  0.8013
 8920SOL     OW38392   4.093   1.013   9.484  0.4863 -0.3639 -0.1906
 8920SOL    HW138393   4.187   1.024   9.470  0.1173  1.0532 -1.6080
 8920SOL    HW238394   4.069   1.104   9.504 -1.1921 -1.4511  2.7161
 8921SOL     OW38395   3.857   3.721   2.784  0.5045  0.1225  0.1518
 8921SOL    HW138396   3.906   3.641   2.803 -0.5770 -1.1725 -2.5144
 8921SOL    HW238397   3.786   3.722   2.849  2.0651 -0.6091  1.8462
 8922SOL     OW38398   0.569   3.425   9.503  0.5965  0.0281  0.3178
 8922SOL    HW138399   0.499   3.481   9.470  1.2038  1.2119  1.0312
 8922SOL    HW238400   0.578   3.461   9.591 -1.8558  0.1929  0.5105
 8923SOL     OW38401   2.485   3.787   3.503 -0.1769 -0.3029 -0.0267
 8923SOL    HW138402   2.537   3.725   3.451  1.9879  1.6754 -0.2130
 8923SOL    HW238403   2.418   3.809   3.438  0.4655 -1.7386 -1.1859
 8924SOL     OW38404   3.735   3.312  10.670  0.3043  0.3761  0.1344
 8924SOL    HW138405   3.698   3.304  10.758  0.6570  1.1268  0.3594
 8924SOL    HW238406   3.772   3.224  10.661  3.0320  1.8255 -2.8585
 8925SOL     OW38407   0.765   4.683   4.392  0.2566  0.7535 -0.0852
 8925SOL    HW138408   0.684   4.632   4.382  0.2665  0.6858  0.1841
 8925SOL    HW238409   0.823   4.636   4.332 -0.5532 -1.1114  0.5879
 8926SOL     OW38410   0.726   1.638   2.804  0.3909  0.4553 -0.3373
 8926SOL    HW138411   0.781   1.648   2.882  1.3003 -1.5568 -0.7058
 8926SOL    HW238412   0.665   1.567   2.827  0.5754  0.7048  0.9396
 8927SOL     OW38413   4.689   0.533  16.804 -0.0959  0.0129 -0.1169
 8927SOL    HW138414   4.602   0.560  16.776  0.2316 -0.3067 -1.4393
 8927SOL    HW238415   4.728   0.620  16.806  0.0010 -0.0164 -0.6025
 8928SOL     OW38416   1.984   4.041   4.127  0.5838  0.0365  0.3854
 8928SOL    HW138417   2.048   3.980   4.164  0.3569 -0.2231  0.3454
 8928SOL    HW238418   1.901   3.999   4.148 -0.1121  1.0142 -0.3678
 8929SOL     OW38419   3.791   2.902   8.693 -0.3438 -0.5268 -0.3546
 8929SOL    HW138420   3.863   2.863   8.644  0.1757 -0.0982  0.0690
 8929SOL    HW238421   3.717   2.851   8.660 -1.3859  1.1384 -0.6325
 8930SOL     OW38422   3.436   3.037   1.148 -0.0289  0.3750 -0.0115
 8930SOL    HW138423   3.479   3.052   1.232  0.5273  3.8459 -0.8927
 8930SOL    HW238424   3.375   3.111   1.143  2.3497  2.2995 -0.7523
 8931SOL     OW38425   0.094   2.680   9.644  0.1889  0.7491 -0.6247
 8931SOL    HW138426   0.064   2.731   9.569 -1.0581  1.2541  0.2105
 8931SOL    HW238427   0.089   2.748   9.711  2.1945 -1.7825  2.1498
 8932SOL     OW38428   2.827   0.714  11.011 -0.1839  0.5930 -0.1460
 8932SOL    HW138429   2.892   0.684  11.074 -0.3465  0.1545 -0.1898
 8932SOL    HW238430   2.876   0.789  10.975 -1.3844  0.7192 -1.5175
 8933SOL     OW38431   1.461   4.145   5.401 -0.3004  0.1966 -0.6428
 8933SOL    HW138432   1.506   4.189   5.473 -1.3043 -0.6972  0.5325
 8933SOL    HW238433   1.539   4.144   5.346 -0.1756  1.2208 -0.4701
 8934SOL     OW38434   2.352   0.532   5.087 -0.1005  0.2394 -0.0909
 8934SOL    HW138435   2.354   0.478   5.166 -1.1259  3.3087  2.0512
 8934SOL    HW238436   2.320   0.615   5.121  1.0004  1.4022 -1.8633
 8935SOL     OW38437   3.161   1.877  11.329  0.2446 -0.0594  0.0197
 8935SOL    HW138438   3.204   1.888  11.414  0.7731 -0.3335 -0.2180
 8935SOL    HW238439   3.139   1.785  11.337  0.7425  0.0075  2.0917
 8936SOL     OW38440   0.449   0.262   8.620 -0.2699  0.1234 -0.5407
 8936SOL    HW138441   0.373   0.310   8.588 -2.3061 -2.1247  0.9205
 8936SOL    HW238442   0.473   0.211   8.543  0.9960 -1.9743  1.2336
 8937SOL     OW38443   2.834   2.629   7.667 -0.1852 -0.3840 -0.0008
 8937SOL    HW138444   2.822   2.638   7.762 -0.6418 -1.3449  0.0326
 8937SOL    HW238445   2.751   2.667   7.639 -0.2289 -0.5993 -0.1568
 8938SOL     OW38446   3.633   4.000   6.055 -0.0822  0.3285 -0.1651
 8938SOL    HW138447   3.708   4.055   6.033  1.8425 -1.4828  1.8554
 8938SOL    HW238448   3.609   4.032   6.142  0.3159 -0.6526  0.3024
 8939SOL     OW38449   0.101   2.652   7.918  0.4559  0.4771  0.0534
 8939SOL    HW138450   0.009   2.627   7.927  0.8523 -1.1926 -0.7049
 8939SOL    HW238451   0.112   2.665   7.824  0.8308  0.6429  0.1199
 8940SOL     OW38452   3.530   4.599   4.982  0.0679  0.4498 -0.1812
 8940SOL    HW138453   3.435   4.591   4.993 -0.1301  0.1837 -2.1224
 8940SOL    HW238454   3.547   4.560   4.897  0.7506 -2.3681  1.2719
 8941SOL     OW38455   3.674   0.811   3.272  0.0148 -0.6261 -0.3338
 8941SOL    HW138456   3.696   0.827   3.180  1.3720  2.0545  0.4675
 8941SOL    HW238457   3.717   0.726   3.282 -0.2076 -0.5620  1.1659
 8942SOL     OW38458   1.785   1.166   8.992  0.1629  0.0640  0.0348
 8942SOL    HW138459   1.701   1.195   8.957  0.4744 -0.8235 -1.4545
 8942SOL    HW238460   1.808   1.092   8.935 -0.5922 -0.8101  0.8663
 8943SOL     OW38461   2.703   2.498   2.161  0.0163 -0.4635 -0.4013
 8943SOL    HW138462   2.781   2.544   2.193 -0.7295  0.5498 -0.0388
 8943SOL    HW238463   2.635   2.534   2.217  2.0301  1.4194  0.8254
 8944SOL     OW38464   3.623   0.868   3.808  0.0743  0.0873 -0.2583
 8944SOL    HW138465   3.595   0.958   3.790  0.1209  0.0377 -0.5782
 8944SOL    HW238466   3.542   0.825   3.837  1.4477 -2.3826 -0.1382
 8945SOL     OW38467   3.295   2.192  14.460  0.9545 -0.4087 -0.2243
 8945SOL    HW138468   3.354   2.129  14.418  1.0125 -1.4167  1.3873
 8945SOL    HW238469   3.246   2.221  14.383 -1.6874 -4.5504 -0.1311
 8946SOL     OW38470   4.463   3.237   8.770 -0.0135 -0.2333  0.2030
 8946SOL    HW138471   4.368   3.228   8.761 -0.0116 -0.2875  0.2364
 8946SOL    HW238472   4.496   3.148   8.758  1.2200 -0.1005  2.5976
 8947SOL     OW38473   3.206   0.865   8.306  0.0082 -0.5188 -0.3130
 8947SOL    HW138474   3.298   0.879   8.281  0.3009 -0.5205  0.7202
 8947SOL    HW238475   3.162   0.932   8.255 -1.1720 -0.2523  1.0499
 8948SOL     OW38476   3.864   2.361   8.569 -0.2292 -0.0387 -0.2497
 8948SOL    HW138477   3.891   2.374   8.660  1.0878  0.8692 -0.7819
 8948SOL    HW238478   3.899   2.440   8.528 -2.4406  1.2463  0.3454
 8949SOL     OW38479   2.515   4.156   1.147 -0.5883 -0.0015 -0.0100
 8949SOL    HW138480   2.574   4.145   1.222  1.1919  1.2574 -1.2138
 8949SOL    HW238481   2.436   4.180   1.194  0.2634  0.3826  1.2103
 8950SOL     OW38482   1.213   2.580   5.901  0.0816 -0.2076  0.0688
 8950SOL    HW138483   1.252   2.581   5.814 -1.0377  1.7824 -0.4378
 8950SOL    HW238484   1.288   2.560   5.957 -0.5429  1.7072  1.6193
 8951SOL     OW38485   0.486   4.078   5.811  0.0707 -0.0621 -0.7286
 8951SOL    HW138486   0.407   4.125   5.836 -0.2930 -1.4434  0.6648
 8951SOL    HW238487   0.555   4.139   5.836 -0.5270  0.7078 -0.9251
 8952SOL     OW38488   0.194   0.236  14.286  0.4002  0.3518  0.3403
 8952SOL    HW138489   0.126   0.179  14.321 -0.6205  0.3993 -1.5980
 8952SOL    HW238490   0.134   0.296  14.240  1.1646  0.2071 -0.8561
 8953SOL     OW38491   3.381   3.945  11.190  0.1053  0.1659 -0.1807
 8953SOL    HW138492   3.471   3.952  11.221 -0.0332 -1.4321  0.5542
 8953SOL    HW238493   3.340   4.029  11.212 -0.0672  0.5982 -2.0721
 8954SOL     OW38494   0.264   0.152   2.789 -0.4555 -0.1448 -0.2474
 8954SOL    HW138495   0.190   0.129   2.734  0.8281  1.3011 -2.6213
 8954SOL    HW238496   0.282   0.076   2.844 -2.8026  0.2040  1.0059
 8955SOL     OW38497   3.959   3.962  11.612 -0.2502  0.2765  0.2919
 8955SOL    HW138498   3.962   3.953  11.707 -0.4251  0.0834  0.2799
 8955SOL    HW238499   3.951   3.874  11.575 -0.4004  0.0378  0.8901
 8956SOL     OW38500   2.060   4.679   1.698  0.2127 -0.1352  0.2399
 8956SOL    HW138501   2.104   4.708   1.778 -1.2582  1.5992  0.4387
 8956SOL    HW238502   1.969   4.674   1.728 -0.6732 -1.3730 -2.7140
 8957SOL     OW38503   0.672   0.195   6.281 -1.0394 -0.0211 -0.0448
 8957SOL    HW138504   0.644   0.282   6.251 -0.0221  0.2896 -0.0904
 8957SOL    HW238505   0.747   0.186   6.222 -0.3197 -0.3108  0.9230
 8958SOL     OW38506   3.263   0.817   3.632  0.1495  0.6381 -0.8236
 8958SOL    HW138507   3.305   0.777   3.556 -0.9678 -2.9301  0.4631
 8958SOL    HW238508   3.302   0.904   3.620  2.3790 -0.1289  0.8752
 8959SOL     OW38509   1.577   1.625   3.134  0.0445  0.4302  0.4089
 8959SOL    HW138510   1.557   1.552   3.192  1.1464 -1.5691 -1.7363
 8959SOL    HW238511   1.671   1.642   3.147 -0.2793  0.2814  2.9727
 8960SOL     OW38512   1.588   3.042   1.000 -0.2194 -0.3672  0.4049
 8960SOL    HW138513   1.618   2.988   0.927 -2.0421  0.6932 -1.1292
 8960SOL    HW238514   1.636   3.123   0.984 -0.6763 -0.6940 -2.6269
 8961SOL     OW38515   0.324   3.266  12.382  0.0919 -0.5917  0.0491
 8961SOL    HW138516   0.289   3.348  12.347  0.8653  0.0364  0.7509
 8961SOL    HW238517   0.347   3.299  12.468 -1.5859  1.3549 -0.2581
 8962SOL     OW38518   0.407   3.297   5.004  0.2128  0.5051 -0.3546
 8962SOL    HW138519   0.415   3.207   4.974 -2.0993  0.5589 -1.1029
 8962SOL    HW238520   0.327   3.328   4.961 -0.1628  1.1150  0.7972
 8963SOL     OW38521   2.688   2.342   8.307  0.3287  0.3363 -0.0448
 8963SOL    HW138522   2.728   2.428   8.312  2.6508 -0.7581  0.2270
 8963SOL    HW238523   2.743   2.298   8.372 -0.3164  1.6351  1.4011
 8964SOL     OW38524   3.005   1.122   8.760 -0.5085  0.1172 -0.0557
 8964SOL    HW138525   2.917   1.115   8.724 -0.8543 -0.3785  0.8762
 8964SOL    HW238526   3.053   1.155   8.684 -1.3083 -0.7721 -0.9499
 8965SOL     OW38527   4.151   0.382   2.042  0.5305 -0.4614  0.3747
 8965SOL    HW138528   4.224   0.370   2.103  0.3919 -0.7508  0.4877
 8965SOL    HW238529   4.075   0.371   2.099 -0.4326 -1.3023 -1.0552
 8966SOL     OW38530   0.773   2.699  13.073 -0.3263 -0.2138 -0.0020
 8966SOL    HW138531   0.816   2.726  13.154  0.6595 -2.9875  0.3751
 8966SOL    HW238532   0.851   2.680  13.021  0.2062  3.7177 -0.6767
 8967SOL     OW38533   4.728   3.428  14.594  0.8299 -0.0913  0.1458
 8967SOL    HW138534   0.086   3.419  14.607  1.2875  2.0105 -1.8245
 8967SOL    HW238535   4.712   3.433  14.688  0.3738  0.3041  0.0492
 8968SOL     OW38536   2.517   3.257  11.090 -0.3387  0.2837 -0.5125
 8968SOL    HW138537   2.441   3.309  11.118 -0.2048  0.6613 -0.8575
 8968SOL    HW238538   2.582   3.326  11.077 -0.2688  0.2521 -0.3337
 8969SOL     OW38539   2.910   3.604   2.970 -0.0506  0.1671  0.2800
 8969SOL    HW138540   2.999   3.598   3.004  0.5333 -0.7234 -1.3876
 8969SOL    HW238541   2.913   3.553   2.889  1.7704 -0.9631  1.0517
 8970SOL     OW38542   2.698   4.727   6.872 -0.9154 -0.1488  0.1437
 8970SOL    HW138543   2.627   0.004   6.935  0.2016  1.9058  0.9380
 8970SOL    HW238544   2.758   4.701   6.943 -1.8094  0.0945  0.9810
 8971SOL     OW38545   2.355   2.461   2.056 -0.1183  0.4769 -0.0628
 8971SOL    HW138546   2.414   2.386   2.071 -0.4894 -0.1137 -1.6185
 8971SOL    HW238547   2.273   2.445   2.102 -1.3285  2.3434 -1.6063
 8972SOL     OW38548   4.558   3.311   9.379  0.1921 -0.6590 -0.2782
 8972SOL    HW138549   4.543   3.261   9.299 -1.5573 -0.3638 -0.1296
 8972SOL    HW238550   4.591   3.240   9.433 -2.7756 -0.8318  1.2869
 8973SOL     OW38551   4.724   1.527   2.459 -0.2308 -0.2914  0.0745
 8973SOL    HW138552   0.077   1.546   2.484 -0.5133  2.2098 -0.8657
 8973SOL    HW238553   4.737   1.522   2.364  0.2123  1.4562  0.0460
 8974SOL     OW38554   0.853   2.748   8.184  0.0146  0.3257  0.0545
 8974SOL    HW138555   0.828   2.839   8.195  0.5419  0.6536 -1.5121
 8974SOL    HW238556   0.946   2.753   8.206  0.3447 -0.9285 -1.0587
 8975SOL     OW38557   1.132   0.757   4.654 -0.0712  0.1283 -0.0568
 8975SOL    HW138558   1.104   0.776   4.565  0.1801 -1.7655 -0.5504
 8975SOL    HW238559   1.162   0.666   4.652  3.4579  1.3127 -0.9468
 8976SOL     OW38560   1.419   0.079   9.375 -0.5148  0.1181  0.4430
 8976SOL    HW138561   1.327   0.062   9.356 -0.1806 -1.7583  0.5028
 8976SOL    HW238562   1.455   0.003   9.330 -1.0038 -0.0338  0.3102
 8977SOL     OW38563   4.064   1.380   5.295 -0.6883  0.0542 -0.0375
 8977SOL    HW138564   4.156   1.362   5.277  0.0543  1.6045  2.2935
 8977SOL    HW238565   4.054   1.449   5.229  0.6992  0.4808  0.1935
 8978SOL     OW38566   1.707   3.963   8.858  0.1682 -0.0002 -0.1326
 8978SOL    HW138567   1.802   3.964   8.849  0.3474 -0.7329  1.6831
 8978SOL    HW238568   1.696   3.886   8.914 -1.1732  0.3472  0.0742
 8979SOL     OW38569   1.874   0.917   6.665  0.9759 -0.7048  0.1611
 8979SOL    HW138570   1.870   0.869   6.583  0.2895 -0.1494 -0.1300
 8979SOL    HW238571   1.862   0.855   6.737  1.7885 -1.1397 -0.0791
 8980SOL     OW38572   4.579   0.863   5.591  0.0704 -0.2398 -0.4189
 8980SOL    HW138573   4.620   0.799   5.648  0.1159  0.2774  0.1334
 8980SOL    HW238574   4.491   0.862   5.628  0.6401 -2.3613  0.8493
 8981SOL     OW38575   2.837   4.635   7.444 -0.2465  0.0214  0.1914
 8981SOL    HW138576   2.862   4.649   7.536  0.9002 -2.1294  0.1939
 8981SOL    HW238577   2.922   4.648   7.402  1.2199  0.6351  3.3489
 8982SOL     OW38578   0.675   1.967   9.157  0.2751 -0.1200 -0.7216
 8982SOL    HW138579   0.602   1.973   9.095  1.6993  0.8490 -2.2865
 8982SOL    HW238580   0.628   1.963   9.241 -0.3658 -0.2339 -1.0836
 8983SOL     OW38581   1.582   0.092   5.137 -0.6207  0.4733 -0.0640
 8983SOL    HW138582   1.606   0.001   5.152  0.0403  0.4095 -1.5524
 8983SOL    HW238583   1.566   0.118   5.228  0.7167  2.2833 -0.3372
 8984SOL     OW38584   3.553   4.723   9.087  0.2764 -0.2577  0.4933
 8984SOL    HW138585   3.624   0.047   9.067 -0.8085  0.2627 -1.7705
 8984SOL    HW238586   3.586   4.686   9.169 -1.4685  0.5727  1.5662
 8985SOL     OW38587   3.260   1.902   2.966  0.0728 -0.0897 -0.3687
 8985SOL    HW138588   3.181   1.952   2.946 -0.2063  0.2171  1.5053
 8985SOL    HW238589   3.231   1.867   3.051 -0.4895 -3.5640 -2.0025
 8986SOL     OW38590   1.930   2.469   9.494  0.1614  0.0124 -0.4269
 8986SOL    HW138591   1.959   2.431   9.411  1.8899  1.9361 -0.7005
 8986SOL    HW238592   1.853   2.512   9.458 -0.5268 -0.0361  1.0222
 8987SOL     OW38593   1.912   4.027   9.668  0.0834 -0.2730  0.0137
 8987SOL    HW138594   1.901   3.932   9.674  0.3332 -0.4213 -1.7684
 8987SOL    HW238595   1.834   4.052   9.619 -1.7470 -0.1088  3.0299
 8988SOL     OW38596   2.561   3.581  12.284  0.4556  0.3301  0.6276
 8988SOL    HW138597   2.493   3.594  12.218  1.3786  0.4701 -0.2866
 8988SOL    HW238598   2.521   3.637  12.352  1.7547 -1.8428  3.1685
 8989SOL     OW38599   1.004   0.311   0.784  0.6792 -0.3082  0.4193
 8989SOL    HW138600   1.072   0.281   0.844  1.1419 -0.9282 -0.4101
 8989SOL    HW238601   0.992   0.239   0.722  1.6796  1.5677 -1.9388
 8990SOL     OW38602   2.732   1.974  10.903 -0.1529 -0.5694 -1.0306
 8990SOL    HW138603   2.693   2.060  10.917 -0.2358 -1.0086  1.3082
 8990SOL    HW238604   2.824   2.002  10.899 -0.8324  2.0607  1.7821
 8991SOL     OW38605   3.754   2.004   2.733  0.1782  0.0880 -0.4722
 8991SOL    HW138606   3.768   1.990   2.827  2.3215  1.5456 -0.5640
 8991SOL    HW238607   3.734   2.098   2.733 -0.2436 -0.0109 -1.4872
 8992SOL     OW38608   2.117   3.572   9.407  0.3711 -0.0078 -0.1168
 8992SOL    HW138609   2.082   3.542   9.491 -0.4854 -0.7381 -0.7348
 8992SOL    HW238610   2.207   3.599   9.427  0.1100  1.0186 -0.3771
 8993SOL     OW38611   2.151   4.150   3.940 -0.0170  0.1573 -0.5112
 8993SOL    HW138612   2.102   4.095   4.001 -0.1214  1.0337  0.1915
 8993SOL    HW238613   2.126   4.123   3.852  0.6018  1.5906 -1.1197
 8994SOL     OW38614   4.309   2.586   1.948  0.0365 -0.5517  0.1795
 8994SOL    HW138615   4.310   2.566   1.855  0.3666 -1.1162  0.3009
 8994SOL    HW238616   4.400   2.573   1.976 -0.0620  0.4150  0.9458
 8995SOL     OW38617   4.531   3.550   7.768  0.0065  0.0770 -0.3487
 8995SOL    HW138618   4.517   3.479   7.706 -1.4778 -0.8706  1.0755
 8995SOL    HW238619   4.446   3.552   7.812  0.1951 -1.1759  0.0521
 8996SOL     OW38620   3.478   2.224   4.861 -0.3615 -0.3254 -0.0023
 8996SOL    HW138621   3.564   2.248   4.826 -2.2600  2.2846 -2.8355
 8996SOL    HW238622   3.466   2.306   4.909  0.6227 -0.3764  0.3289
 8997SOL     OW38623   1.050   0.137  13.654 -0.2948 -0.2069 -0.1739
 8997SOL    HW138624   0.997   0.215  13.639 -0.7651 -0.5571 -0.3334
 8997SOL    HW238625   1.132   0.186  13.661 -1.6407  1.5163  3.4828
 8998SOL     OW38626   4.029   2.731   2.402 -0.3116 -0.0436  0.0808
 8998SOL    HW138627   4.045   2.639   2.378  2.8068 -0.0812  2.2282
 8998SOL    HW238628   3.946   2.754   2.362 -0.0559 -0.2879 -0.5935
 8999SOL     OW38629   2.042   2.967   4.098 -0.0393  0.1665  0.0248
 8999SOL    HW138630   2.120   2.914   4.113 -0.5689 -0.5699  0.1792
 8999SOL    HW238631   2.000   2.917   4.028 -1.8993  1.1152  0.4598
 9000SOL     OW38632   2.959   2.392   1.649  0.3064 -0.1934 -0.0371
 9000SOL    HW138633   2.993   2.371   1.562 -0.8155 -1.1633 -0.2438
 9000SOL    HW238634   3.036   2.378   1.704  0.5713  1.1637 -0.0651
 9001SOL     OW38635   2.098   0.876  13.147 -0.5432  0.1084  0.7833
 9001SOL    HW138636   2.178   0.887  13.200  0.8527 -3.6307 -0.5342
 9001SOL    HW238637   2.035   0.865  13.219  0.9539 -3.3021  1.5685
 9002SOL     OW38638   1.610   2.827  14.629 -0.5822 -0.0311  0.0340
 9002SOL    HW138639   1.581   2.777  14.552  2.1060 -0.6390 -0.6142
 9002SOL    HW238640   1.648   2.755  14.679  0.6719 -0.1588 -1.0795
 9003SOL     OW38641   3.749   0.868   4.834 -0.0993 -1.1183  0.7612
 9003SOL    HW138642   3.776   0.919   4.910  0.0267 -0.6675  0.4098
 9003SOL    HW238643   3.797   0.905   4.761  0.6949 -0.1974  1.7471
 9004SOL     OW38644   3.743   3.777   3.538  0.2326 -0.0616  0.4687
 9004SOL    HW138645   3.662   3.822   3.562 -0.8186 -0.1584 -2.8719
 9004SOL    HW238646   3.735   3.707   3.603 -1.5424 -0.9289 -0.7062
 9005SOL     OW38647   1.368   1.266  16.865 -0.2208 -0.1709 -0.1468
 9005SOL    HW138648   1.406   1.332  16.806 -1.6840 -0.2858 -1.2060
 9005SOL    HW238649   1.368   1.318  16.946 -0.0633 -1.2281  0.5257
 9006SOL     OW38650   0.603   1.532   5.527  0.3440 -0.3384 -0.2711
 9006SOL    HW138651   0.557   1.606   5.565  0.5203  0.6812 -2.0760
 9006SOL    HW238652   0.567   1.534   5.439 -0.9957  0.9209  0.3032
 9007SOL     OW38653   3.844   2.321   0.901 -0.4988 -0.9095 -0.3943
 9007SOL    HW138654   3.923   2.351   0.945 -0.9390 -0.2771 -0.0219
 9007SOL    HW238655   3.864   2.338   0.809  1.0144  2.4482  0.5701
 9008SOL     OW38656   2.963   4.128   4.185 -0.6331 -0.7416 -0.0687
 9008SOL    HW138657   2.956   4.044   4.139 -3.1981  0.1337 -1.2813
 9008SOL    HW238658   3.010   4.182   4.121  1.5228 -1.5367  0.8399
 9009SOL     OW38659   4.429   0.139  13.625  0.1820  0.2339  0.2640
 9009SOL    HW138660   4.485   0.062  13.616 -1.9550 -1.0573 -1.9500
 9009SOL    HW238661   4.377   0.134  13.545  1.6700  1.5439 -0.7774
 9010SOL     OW38662   3.230   1.743   5.237 -0.0245 -0.3763  0.4221
 9010SOL    HW138663   3.183   1.789   5.307  2.2499 -0.5385  2.0444
 9010SOL    HW238664   3.280   1.814   5.197  0.0089 -0.5056  0.2401
 9011SOL     OW38665   0.037   2.815   6.587  0.6761 -0.3314 -0.5377
 9011SOL    HW138666   0.073   2.783   6.504  0.8288  1.7588 -1.2884
 9011SOL    HW238667   0.007   2.729   6.616  0.5167  0.2263  0.9264
 9012SOL     OW38668   2.859   1.252   2.504  0.6882  0.3219  0.0763
 9012SOL    HW138669   2.880   1.340   2.473  0.1572  0.5299  0.2992
 9012SOL    HW238670   2.933   1.247   2.565  0.0170 -0.7416  0.8103
 9013SOL     OW38671   1.811   1.570  17.716 -0.5609 -0.0099  0.3597
 9013SOL    HW138672   1.750   1.624  17.666 -0.1317 -1.3344 -1.5839
 9013SOL    HW238673   1.890   1.565  17.661 -1.2699  0.1078 -0.6606
 9014SOL     OW38674   2.092   2.028   9.260 -0.4744  0.2179  0.3610
 9014SOL    HW138675   2.104   1.935   9.239  3.4104  0.9186 -0.6171
 9014SOL    HW238676   2.160   2.043   9.326  0.1135  2.0232 -0.6629
 9015SOL     OW38677   0.849   0.710   2.209 -0.1487 -0.8261  0.6992
 9015SOL    HW138678   0.919   0.721   2.273  0.1489 -0.6434  0.3468
 9015SOL    HW238679   0.882   0.768   2.140 -1.0989 -1.3343 -0.1740
 9016SOL     OW38680   2.749   3.655   3.397 -0.4359  0.1695 -0.2457
 9016SOL    HW138681   2.716   3.645   3.308  1.5958 -1.8706 -0.7679
 9016SOL    HW238682   2.763   3.749   3.405 -0.2245 -0.0103  1.5233
 9017SOL     OW38683   2.121   1.205  17.078 -0.6279  0.1248  0.1689
 9017SOL    HW138684   2.066   1.183  17.153 -0.8049  0.3544  0.1089
 9017SOL    HW238685   2.059   1.260  17.029 -0.5364 -1.5079 -1.7593
 9018SOL     OW38686   1.594   0.529  13.136 -0.4159  0.3521  0.5276
 9018SOL    HW138687   1.647   0.593  13.088 -0.9498 -0.3048 -0.9437
 9018SOL    HW238688   1.659   0.471  13.176  0.1329  3.2067  3.7610
 9019SOL     OW38689   3.156   3.695  14.863 -0.9560  0.5779  0.2860
 9019SOL    HW138690   3.181   3.606  14.837  4.1260  1.4595  2.0506
 9019SOL    HW238691   3.229   3.723  14.919 -0.4481  0.8493 -0.5085
 9020SOL     OW38692   3.122   0.149   2.906  0.3188  0.3297  0.0760
 9020SOL    HW138693   3.191   0.110   2.852  0.8206  1.2880  0.0355
 9020SOL    HW238694   3.154   0.132   2.994 -0.4274 -1.1511  0.0603
 9021SOL     OW38695   1.282   1.262   2.148  0.5231  0.1087 -0.0342
 9021SOL    HW138696   1.237   1.314   2.215 -2.2769 -1.2026 -0.8851
 9021SOL    HW238697   1.273   1.336   2.089  1.2435 -0.5797 -0.9846
 9022SOL     OW38698   1.696   4.527   3.595  0.3908 -0.1135 -0.4544
 9022SOL    HW138699   1.763   4.462   3.616 -0.3494 -0.5360  0.5848
 9022SOL    HW238700   1.636   4.479   3.538 -1.2200 -0.7540  1.8050
 9023SOL     OW38701   2.883   1.221  12.299  0.3146 -0.2396 -0.0526
 9023SOL    HW138702   2.941   1.285  12.341  1.0792 -2.0703  1.6844
 9023SOL    HW238703   2.865   1.174  12.380 -0.5304  1.6014  0.8311
 9024SOL     OW38704   2.872   2.762  13.604 -0.2053  0.6886  0.2230
 9024SOL    HW138705   2.920   2.697  13.553  0.3799  1.1641  0.1715
 9024SOL    HW238706   2.929   2.838  13.617 -2.3039  2.0854  1.2642
 9025SOL     OW38707   0.508   4.715   3.990  0.2657  0.1115 -0.1595
 9025SOL    HW138708   0.523   4.692   3.899 -1.4634 -0.3135 -0.3409
 9025SOL    HW238709   0.581   0.040   3.993 -0.0340  0.4753 -0.4290
 9026SOL     OW38710   1.700   3.196  11.291 -0.2327  0.4806  0.3514
 9026SOL    HW138711   1.625   3.253  11.308 -0.7476 -0.4950  1.2955
 9026SOL    HW238712   1.743   3.251  11.225  1.3475  0.1322  1.0958
 9027SOL     OW38713   3.092   0.394  17.244  0.0583 -0.2021 -0.2347
 9027SOL    HW138714   3.131   0.328  17.302  1.0837 -0.6937 -1.5054
 9027SOL    HW238715   3.172   0.431  17.207 -0.0085 -1.4854 -1.6393
 9028SOL     OW38716   2.744   4.201   9.010  0.0828  0.5659  0.3314
 9028SOL    HW138717   2.797   4.278   9.030  0.9406  0.3772 -1.2418
 9028SOL    HW238718   2.783   4.165   8.930 -0.7939  1.5580 -0.5253
 9029SOL     OW38719   3.237   2.292   7.149 -0.1788 -0.0296 -0.6539
 9029SOL    HW138720   3.203   2.252   7.069 -0.3085 -0.5307 -0.3507
 9029SOL    HW238721   3.275   2.371   7.110  0.2993 -0.5804 -1.3034
 9030SOL     OW38722   0.779   4.012  16.630  0.3995  0.4734 -0.1183
 9030SOL    HW138723   0.809   3.969  16.549  1.0128  1.3160 -0.3328
 9030SOL    HW238724   0.746   3.940  16.685 -2.1780 -0.0902 -2.4084
 9031SOL     OW38725   3.126   0.141   7.852  0.1094  0.3616 -0.4081
 9031SOL    HW138726   3.059   0.187   7.902 -0.3816 -0.4097 -0.3575
 9031SOL    HW238727   3.149   0.079   7.921 -0.4218  1.1910  0.5125
 9032SOL     OW38728   4.687   3.849  11.425 -0.4837  0.1629 -0.5167
 9032SOL    HW138729   0.019   3.897  11.471  0.2137  0.1346 -1.5438
 9032SOL    HW238730   4.632   3.925  11.404  2.8547  2.0676 -2.3768
 9033SOL     OW38731   2.782   3.287   2.008 -0.3551  0.6781  0.2723
 9033SOL    HW138732   2.710   3.349   2.023  0.6806  1.0442  3.6103
 9033SOL    HW238733   2.846   3.358   2.012 -0.8797  1.0261  2.4728
 9034SOL     OW38734   3.110   1.544   4.041 -0.2311 -0.5824 -0.5222
 9034SOL    HW138735   3.160   1.526   4.120 -1.2343 -2.1206 -0.2442
 9034SOL    HW238736   3.021   1.523   4.069  0.3645 -3.2379 -0.6501
 9035SOL     OW38737   1.756   3.422   8.493  0.4494  0.3724  0.7473
 9035SOL    HW138738   1.680   3.399   8.439 -0.9408  1.2138  2.3592
 9035SOL    HW238739   1.775   3.340   8.538 -1.7368 -0.8771 -0.5919
 9036SOL     OW38740   4.055   3.009   1.769 -0.5524 -0.0316 -0.1673
 9036SOL    HW138741   4.083   2.967   1.687  1.4581  0.8699  0.0712
 9036SOL    HW238742   4.129   2.992   1.828  0.0724 -1.2146 -1.2827
 9037SOL     OW38743   1.297   0.873  11.056 -0.7789 -0.1641 -0.5293
 9037SOL    HW138744   1.315   0.847  10.966 -0.9821  0.8821 -0.8799
 9037SOL    HW238745   1.203   0.891  11.059 -0.7582  0.0149 -0.9447
 9038SOL     OW38746   1.499   4.679   8.626 -0.2012  0.5676 -0.8322
 9038SOL    HW138747   1.428   4.736   8.655 -1.6371 -0.7100 -1.8516
 9038SOL    HW238748   1.568   4.731   8.584  0.9597  0.6182  1.1221
 9039SOL     OW38749   1.118   2.423   6.126  0.3685  0.4218  0.2350
 9039SOL    HW138750   1.153   2.508   6.153 -1.5846  0.9884  0.9500
 9039SOL    HW238751   1.088   2.449   6.039  0.5380  0.7342  0.2666
 9040SOL     OW38752   3.041   0.269  16.787 -0.5280 -0.4202 -0.2132
 9040SOL    HW138753   3.004   0.357  16.784  1.4330  0.5242  3.0940
 9040SOL    HW238754   3.017   0.225  16.869  0.1929  1.4695  1.0367
 9041SOL     OW38755   2.896   1.520  13.382  0.1966 -0.3275  0.8681
 9041SOL    HW138756   2.897   1.447  13.444  0.3166  0.4146  1.7383
 9041SOL    HW238757   2.813   1.501  13.338  0.9355 -2.9206  0.5832
 9042SOL     OW38758   3.655   4.662   3.322 -0.0757  0.4798  0.6932
 9042SOL    HW138759   3.604   4.655   3.402 -1.2266 -2.3031 -0.2720
 9042SOL    HW238760   3.648   4.575   3.284  1.3200  0.7333 -0.1639
 9043SOL     OW38761   4.153   3.957   4.678  0.3879 -0.4799 -0.1574
 9043SOL    HW138762   4.141   4.050   4.695  0.2729 -0.2755 -1.4123
 9043SOL    HW238763   4.172   3.955   4.585 -1.6419  0.8262 -0.6026
 9044SOL     OW38764   4.257   2.666   4.813 -0.0613  0.6797  0.7273
 9044SOL    HW138765   4.319   2.734   4.787 -1.7157  1.1115 -2.1219
 9044SOL    HW238766   4.308   2.587   4.796 -0.7912 -0.1416  2.3125
 9045SOL     OW38767   3.485   4.280  16.426  0.0498 -0.1154  0.0384
 9045SOL    HW138768   3.565   4.330  16.442 -0.4348  0.4887  0.5637
 9045SOL    HW238769   3.461   4.262  16.517 -0.5994 -1.4223 -0.3933
 9046SOL     OW38770   3.304   4.043   5.354  0.0288  0.6162 -0.3780
 9046SOL    HW138771   3.281   3.995   5.433 -0.4106 -0.4481 -1.1637
 9046SOL    HW238772   3.272   3.976   5.293  0.6736  0.1878 -0.2441
 9047SOL     OW38773   4.311   0.807   5.682 -0.1408  0.8337 -0.4805
 9047SOL    HW138774   4.281   0.736   5.739  0.8610  0.5083 -0.3586
 9047SOL    HW238775   4.237   0.868   5.680 -2.0794 -1.4636  1.5295
 9048SOL     OW38776   1.850   2.657   2.680 -0.3704  1.0021 -0.2120
 9048SOL    HW138777   1.784   2.717   2.645 -1.1273 -0.5995 -1.5343
 9048SOL    HW238778   1.838   2.681   2.772  0.9428 -0.3247  0.3164
 9049SOL     OW38779   1.363   0.570  13.880  0.1670 -0.3694  0.1483
 9049SOL    HW138780   1.428   0.602  13.944 -0.7712  2.2299 -0.1730
 9049SOL    HW238781   1.299   0.541  13.945 -0.7573  1.8140  0.2209
 9050SOL     OW38782   2.301   4.269   6.449  0.5558 -0.2882  0.3864
 9050SOL    HW138783   2.250   4.293   6.526  0.4196  0.1990  0.1443
 9050SOL    HW238784   2.345   4.353   6.438 -3.4635  1.6705 -0.6912
 9051SOL     OW38785   2.299   2.638  15.944  0.1639 -0.4085 -0.0659
 9051SOL    HW138786   2.379   2.691  15.937  0.1328 -0.1186  1.6893
 9051SOL    HW238787   2.237   2.710  15.931  0.5703 -0.1698 -0.6609
 9052SOL     OW38788   0.389   3.266   9.687 -0.4094  0.7296 -0.3679
 9052SOL    HW138789   0.374   3.181   9.728 -1.1062  0.6824 -0.7180
 9052SOL    HW238790   0.445   3.248   9.612 -1.6321 -0.9250 -0.8798
 9053SOL     OW38791   2.516   3.954   5.803 -0.0862  0.1227 -0.0436
 9053SOL    HW138792   2.485   3.989   5.886 -0.8724  0.1642 -0.3530
 9053SOL    HW238793   2.434   3.974   5.757  0.7376  2.6813 -0.3986
 9054SOL     OW38794   0.168   0.932  14.705  0.6387  0.2498  0.2095
 9054SOL    HW138795   0.173   1.011  14.758  1.2199 -0.2844  0.9586
 9054SOL    HW238796   0.100   0.882  14.752  2.1295 -1.4170  0.5974
 9055SOL     OW38797   1.302   0.533  10.950 -0.2619  0.2829  0.3212
 9055SOL    HW138798   1.212   0.544  10.981 -0.4349  0.1112 -0.1186
 9055SOL    HW238799   1.298   0.514  10.856 -2.0709 -1.0871  0.6653
 9056SOL     OW38800   3.566   4.372   6.251  0.2103 -0.0192  0.0796
 9056SOL    HW138801   3.530   4.458   6.270 -2.0469 -1.3136  1.7406
 9056SOL    HW238802   3.591   4.347   6.341 -2.6966 -0.5553  0.7266
 9057SOL     OW38803   3.589   1.996   3.619 -0.0762 -0.3802  0.6373
 9057SOL    HW138804   3.529   1.972   3.690  1.1168 -1.7400  1.2141
 9057SOL    HW238805   3.676   1.978   3.655 -0.1710  2.3584  2.2423
 9058SOL     OW38806   1.471   4.138   4.686 -0.7678 -0.4606 -0.4548
 9058SOL    HW138807   1.409   4.208   4.669 -0.1850 -0.0829 -1.0130
 9058SOL    HW238808   1.527   4.138   4.609 -1.5496  1.4113 -1.0144
 9059SOL     OW38809   1.411   1.561  12.732 -0.2109 -0.4784 -0.1520
 9059SOL    HW138810   1.489   1.580  12.679  0.0830  0.6925  0.6915
 9059SOL    HW238811   1.384   1.471  12.716  1.5926 -0.9867 -0.3203
 9060SOL     OW38812   1.693   2.419   6.362 -0.6583  0.1484  0.1720
 9060SOL    HW138813   1.735   2.337   6.389  1.6029  1.5371  0.9043
 9060SOL    HW238814   1.604   2.398   6.390 -0.2887 -0.0289  1.2280
 9061SOL     OW38815   0.452   4.567   3.737  0.0192  0.3348  0.2127
 9061SOL    HW138816   0.381   4.601   3.682  1.3051 -1.2383 -2.4376
 9061SOL    HW238817   0.525   4.606   3.688 -2.0611  0.1634 -2.9955
 9062SOL     OW38818   3.809   0.741   5.163  0.0623 -0.0615 -0.2760
 9062SOL    HW138819   3.784   0.650   5.182  0.0837 -0.4084 -1.9154
 9062SOL    HW238820   3.826   0.782   5.248 -0.7825 -1.6339  0.6513
 9063SOL     OW38821   0.529   2.154   4.556 -0.6568 -0.5847 -0.0458
 9063SOL    HW138822   0.531   2.116   4.644 -1.6253 -1.0624 -0.2231
 9063SOL    HW238823   0.435   2.165   4.537 -0.8478  0.1609  1.3283
 9064SOL     OW38824   0.916   1.776   9.193 -0.1713  0.0366  0.5978
 9064SOL    HW138825   0.855   1.842   9.161  0.4113 -0.7776 -2.2049
 9064SOL    HW238826   0.990   1.831   9.220  0.5349 -1.3520  1.5287
 9065SOL     OW38827   3.677   4.493   5.214  0.0364 -0.0071  0.0139
 9065SOL    HW138828   3.690   4.399   5.197 -1.1837  0.1498 -1.6823
 9065SOL    HW238829   3.629   4.512   5.134  2.1929  0.8954 -1.0737
 9066SOL     OW38830   1.006   2.535  11.863 -0.5200  0.2600 -0.4166
 9066SOL    HW138831   0.970   2.448  11.875 -1.8512  0.9233  0.4674
 9066SOL    HW238832   1.094   2.513  11.891 -0.5493  0.9937  0.2626
 9067SOL     OW38833   1.965   4.462   7.620 -0.1481  0.2993  0.2404
 9067SOL    HW138834   1.996   4.545   7.585  0.3643 -1.3088 -3.1686
 9067SOL    HW238835   1.871   4.478   7.628  0.2588  3.1592 -0.7640
 9068SOL     OW38836   3.926   3.467   3.536 -0.0338 -0.2004 -0.0010
 9068SOL    HW138837   3.867   3.399   3.568  0.1912 -0.9408 -1.1290
 9068SOL    HW238838   4.003   3.459   3.593  0.0731  1.4722  0.0775
 9069SOL     OW38839   0.866   3.327  14.255  0.2285 -0.2533  0.0880
 9069SOL    HW138840   0.893   3.249  14.304  0.7796  0.9222  1.6592
 9069SOL    HW238841   0.841   3.277  14.178  1.5894 -2.8823  1.3317
 9070SOL     OW38842   2.447   0.967  16.037  0.0342 -0.0833 -0.3068
 9070SOL    HW138843   2.422   0.976  16.129  0.9139 -0.8415  0.0029
 9070SOL    HW238844   2.403   0.882  16.033  0.7157 -0.3229 -2.7329
 9071SOL     OW38845   1.575   0.380   6.546  0.1116  0.2867  0.1482
 9071SOL    HW138846   1.665   0.370   6.516  0.3000 -0.4738  0.9533
 9071SOL    HW238847   1.570   0.474   6.563 -3.0291  0.3271 -0.8761
 9072SOL     OW38848   2.764   3.704   8.687 -0.2053 -0.2519  0.1205
 9072SOL    HW138849   2.725   3.619   8.664 -1.1129  0.7478 -2.0411
 9072SOL    HW238850   2.807   3.693   8.772  1.4585 -0.6629 -0.7784
 9073SOL     OW38851   2.895   3.310  14.575  0.3769 -0.5417  0.0551
 9073SOL    HW138852   2.869   3.235  14.521  1.2991 -1.9409  1.5176
 9073SOL    HW238853   2.826   3.311  14.643  1.4704  0.0348  1.1504
 9074SOL     OW38854   2.040   1.145   7.828  0.1620  0.0239  0.1963
 9074SOL    HW138855   2.114   1.157   7.768  0.6495  1.7067  1.1396
 9074SOL    HW238856   2.005   1.234   7.822 -1.3420 -0.5968 -0.1729
 9075SOL     OW38857   2.045   0.448   5.077 -0.6117 -0.0538  0.0804
 9075SOL    HW138858   2.028   0.490   5.162 -0.2035 -0.0526  0.1634
 9075SOL    HW238859   2.042   0.357   5.104 -0.3311 -0.0687  0.0679
 9076SOL     OW38860   3.314   1.467   3.181  0.0482  0.6487  0.3107
 9076SOL    HW138861   3.245   1.435   3.123  0.8581 -0.4854 -0.0291
 9076SOL    HW238862   3.309   1.563   3.183  0.7151  0.5856  4.5937
 9077SOL     OW38863   0.972   4.463   8.152 -0.2461  0.4946  0.2625
 9077SOL    HW138864   0.916   4.481   8.076  1.8666  0.2913 -1.3515
 9077SOL    HW238865   0.949   4.542   8.201 -1.6627  0.7617 -0.8485
 9078SOL     OW38866   3.078   3.984   5.960 -0.1396 -0.0555  0.0048
 9078SOL    HW138867   3.164   4.014   5.990 -0.6534  1.2859  0.1383
 9078SOL    HW238868   3.021   3.998   6.036 -1.0201  0.4448 -0.7489
 9079SOL     OW38869   4.699   2.453   0.781 -0.0158 -0.2268 -0.0099
 9079SOL    HW138870   0.023   2.395   0.825 -0.9733  0.8702  2.7695
 9079SOL    HW238871   0.003   2.433   0.697  0.0156  0.6980 -0.2206
 9080SOL     OW38872   1.649   0.070   3.392  0.0047 -0.5086  0.1341
 9080SOL    HW138873   1.720   0.128   3.364  0.8604 -1.2133  0.8690
 9080SOL    HW238874   1.698   4.731   3.424  1.9220 -0.2463 -2.1531
 9081SOL     OW38875   4.228   2.731   5.513 -0.2507  0.0592 -0.6103
 9081SOL    HW138876   4.316   2.746   5.547 -0.4646  0.2287 -0.1225
 9081SOL    HW238877   4.175   2.732   5.593 -0.8999 -3.2068 -1.0242
 9082SOL     OW38878   1.603   2.968  11.395 -0.4621 -0.5995  0.0666
 9082SOL    HW138879   1.515   2.996  11.371 -0.8773 -3.0604 -1.3271
 9082SOL    HW238880   1.653   3.045  11.367 -0.8698 -0.8381 -1.3411
 9083SOL     OW38881   1.212   0.470  14.535  0.2877  0.1617  0.5213
 9083SOL    HW138882   1.206   0.450  14.629 -0.9718  0.9123  0.5931
 9083SOL    HW238883   1.306   0.459  14.522  0.2608  2.1331 -1.1806
 9084SOL     OW38884   0.128   0.847   5.955  0.2835 -0.1069 -0.3017
 9084SOL    HW138885   0.171   0.924   5.992  0.1969 -0.3954  0.3959
 9084SOL    HW238886   0.034   0.859   5.970 -0.1438 -1.1233 -2.2552
 9085SOL     OW38887   3.749   3.328   1.513  0.1456 -0.0635  1.0869
 9085SOL    HW138888   3.821   3.276   1.477  0.4128 -0.2078  1.8324
 9085SOL    HW238889   3.690   3.351   1.442  0.4897 -1.8473  0.2295
 9086SOL     OW38890   2.527   2.293   9.021  0.0876 -0.4393  0.0571
 9086SOL    HW138891   2.456   2.268   9.080  0.0587 -0.9956 -0.2164
 9086SOL    HW238892   2.576   2.212   9.005  3.1321  1.0551  1.6384
 9087SOL     OW38893   3.352   0.460   7.310 -0.3425  0.1928 -0.1508
 9087SOL    HW138894   3.391   0.407   7.379 -0.6877 -1.3073 -1.1218
 9087SOL    HW238895   3.323   0.391   7.251 -1.7057  0.6043  0.0499
 9088SOL     OW38896   1.042   4.278   3.572  0.9294 -0.3134 -0.6496
 9088SOL    HW138897   1.126   4.310   3.604  1.7930 -1.1542 -2.0667
 9088SOL    HW238898   1.061   4.216   3.501 -1.3357 -1.7978  0.0067
 9089SOL     OW38899   2.336   1.842   5.630 -0.0036  0.5091  0.1918
 9089SOL    HW138900   2.407   1.804   5.579 -0.6300  0.3575 -0.5559
 9089SOL    HW238901   2.368   1.842   5.721  0.9152  0.3282 -0.1367
 9090SOL     OW38902   3.057   4.001   7.111 -0.5576 -0.5382 -0.1230
 9090SOL    HW138903   3.054   3.939   7.038  1.9919 -0.3059 -0.4481
 9090SOL    HW238904   3.010   3.957   7.181 -0.9040  1.8060  1.1095
 9091SOL     OW38905   1.783   0.900   5.367  0.1789  0.1072  0.3287
 9091SOL    HW138906   1.766   0.953   5.445  1.6831  0.6837  0.2502
 9091SOL    HW238907   1.776   0.814   5.409 -1.0809  0.6065  1.1509
 9092SOL     OW38908   1.981   2.849  13.934  0.1626  0.1844  0.0771
 9092SOL    HW138909   1.982   2.919  13.999  0.3686 -0.1503  0.4324
 9092SOL    HW238910   1.890   2.829  13.913  0.0218  0.7453  0.1697
 9093SOL     OW38911   4.694   1.083   9.699 -0.0766  0.5240  0.3350
 9093SOL    HW138912   0.021   1.068   9.630 -0.1703 -0.3554  0.4365
 9093SOL    HW238913   4.669   1.174   9.684 -0.2783 -0.0751 -3.0826
 9094SOL     OW38914   3.876   0.792   2.535 -0.2151 -0.3375  0.1731
 9094SOL    HW138915   3.938   0.854   2.499  0.7521  0.3937  3.0701
 9094SOL    HW238916   3.801   0.797   2.476 -0.8872  1.1647  1.1586
 9095SOL     OW38917   2.054   2.675   9.310 -0.1823  0.3344 -0.8212
 9095SOL    HW138918   2.060   2.652   9.402  0.4892 -1.2171 -1.2630
 9095SOL    HW238919   1.962   2.699   9.296 -0.5788 -0.9672 -0.3543
 9096SOL     OW38920   1.339   4.549   2.292 -0.3288 -0.6861 -0.3675
 9096SOL    HW138921   1.354   4.573   2.384 -0.8230  0.1085 -0.4920
 9096SOL    HW238922   1.385   4.624   2.253  1.0195 -0.9469  0.7324
 9097SOL     OW38923   0.597   2.288   3.573 -0.2192  0.0637 -0.1950
 9097SOL    HW138924   0.576   2.204   3.532  0.6230  0.5757 -1.7082
 9097SOL    HW238925   0.550   2.294   3.656 -1.1803  2.9983 -0.9512
 9098SOL     OW38926   1.369   0.562   7.045 -0.0871  0.0780 -0.1769
 9098SOL    HW138927   1.334   0.495   7.104  1.4645 -0.5318  0.0390
 9098SOL    HW238928   1.329   0.642   7.080 -1.6403 -0.6887 -0.2226
 9099SOL     OW38929   4.592   1.250  15.570 -0.4411 -0.7628  0.8879
 9099SOL    HW138930   4.508   1.293  15.587 -1.5741 -1.9451 -1.6747
 9099SOL    HW238931   4.647   1.318  15.609  0.6530  0.2316 -2.4009
 9100SOL     OW38932   3.086   3.467   9.090 -0.0088  0.4036 -0.0773
 9100SOL    HW138933   3.018   3.458   9.024 -1.5969  0.2303  1.5711
 9100SOL    HW238934   3.168   3.482   9.043 -0.7000 -2.2966 -2.1191
 9101SOL     OW38935   3.866   0.784   8.570 -0.2637 -0.2667  0.1035
 9101SOL    HW138936   3.860   0.879   8.580  1.2038 -0.2064  0.4918
 9101SOL    HW238937   3.861   0.767   8.664  0.7343 -1.0962  0.0116
 9102SOL     OW38938   2.388   4.333   5.287  0.1558 -0.4014 -0.1257
 9102SOL    HW138939   2.450   4.260   5.287 -0.3241 -0.8032  0.1298
 9102SOL    HW238940   2.416   4.383   5.210  0.7900 -0.0067  0.3737
 9103SOL     OW38941   3.421   3.781  11.439 -0.5039 -0.1560  0.2018
 9103SOL    HW138942   3.337   3.827  11.436 -0.5845 -0.2184  1.6485
 9103SOL    HW238943   3.476   3.830  11.378  1.8028  0.3229  2.6817
 9104SOL     OW38944   0.162   4.498  12.101  0.1868  0.6322 -0.3882
 9104SOL    HW138945   0.227   4.500  12.171  0.1128 -3.1507 -0.1830
 9104SOL    HW238946   0.204   4.432  12.046  1.1435  2.3990 -1.7861
 9105SOL     OW38947   0.757   0.902   1.954 -0.1193  0.1835  0.4422
 9105SOL    HW138948   0.685   0.955   1.987 -2.8688 -2.7626 -0.8162
 9105SOL    HW238949   0.833   0.925   2.006  1.0039 -3.4504  0.4401
 9106SOL     OW38950   4.230   1.737  10.526  0.1768  0.0719  0.5610
 9106SOL    HW138951   4.291   1.808  10.546  0.9287 -0.4007 -0.0604
 9106SOL    HW238952   4.145   1.774  10.549  0.1918  0.1361  0.5165
 9107SOL     OW38953   0.830   1.717  14.675 -0.6638  0.0109 -0.0647
 9107SOL    HW138954   0.830   1.794  14.731  0.0059  0.2840 -0.4382
 9107SOL    HW238955   0.886   1.658  14.727 -2.9872 -2.3890 -0.2903
 9108SOL     OW38956   3.501   4.161   7.153 -0.2407  0.2059 -0.1175
 9108SOL    HW138957   3.497   4.256   7.163 -0.5896  0.3230 -1.3014
 9108SOL    HW238958   3.447   4.130   7.226 -0.4713 -0.5160 -0.5980
 9109SOL     OW38959   1.644   0.028   2.430 -0.3561  0.1487 -0.4210
 9109SOL    HW138960   1.727   0.064   2.399 -0.0075 -0.2514  0.0537
 9109SOL    HW238961   1.572   0.050   2.370  0.3527  1.0015 -0.9564
 9110SOL     OW38962   4.271   0.568  13.476  0.0944  0.7842  0.4588
 9110SOL    HW138963   4.184   0.553  13.439  0.7808 -1.1586 -0.3942
 9110SOL    HW238964   4.322   0.500  13.430  0.6635  0.4861  1.5398
 9111SOL     OW38965   2.192   0.594   3.799  0.3700 -0.3613 -0.6364
 9111SOL    HW138966   2.190   0.640   3.883  0.1513 -0.5593 -0.5340
 9111SOL    HW238967   2.116   0.629   3.752 -0.1956  1.9264  1.9864
 9112SOL     OW38968   3.537   4.182   1.878  0.6088  0.2916  0.4228
 9112SOL    HW138969   3.597   4.247   1.842  1.5594 -1.8822 -1.8926
 9112SOL    HW238970   3.589   4.106   1.852  1.1062  0.2808  1.4503
 9113SOL     OW38971   1.786   1.636  15.208  0.3219 -0.6969  0.1539
 9113SOL    HW138972   1.851   1.697  15.243 -0.8776  1.3869 -1.2290
 9113SOL    HW238973   1.706   1.667  15.251  1.2492 -0.0237  1.3948
 9114SOL     OW38974   3.505   2.490   9.492  0.3083 -0.1265  0.9430
 9114SOL    HW138975   3.438   2.445   9.543  0.4499 -1.0060  0.3581
 9114SOL    HW238976   3.574   2.480   9.557  1.8019 -1.2171 -0.8199
 9115SOL     OW38977   4.232   4.283   7.875  0.5659 -0.8456  0.1722
 9115SOL    HW138978   4.209   4.366   7.833  1.2461 -1.6208 -1.7412
 9115SOL    HW238979   4.210   4.219   7.807  2.1304 -1.7712  0.5365
 9116SOL     OW38980   0.561   0.120   7.061  0.4244 -0.2222  0.3326
 9116SOL    HW138981   0.584   0.048   7.002  0.3764 -0.4271  0.5650
 9116SOL    HW238982   0.526   0.184   6.998  0.4548  0.0842  0.6304
 9117SOL     OW38983   2.652   3.280  15.395  0.6953  0.4491 -0.3390
 9117SOL    HW138984   2.698   3.234  15.324 -1.0360 -1.3070 -0.3473
 9117SOL    HW238985   2.596   3.342  15.349 -1.5281  0.1397  1.9411
 9118SOL     OW38986   2.153   3.913   1.881 -0.2407  0.5598  0.4049
 9118SOL    HW138987   2.098   3.837   1.895 -2.8386  2.8542  2.5207
 9118SOL    HW238988   2.091   3.977   1.846  0.0291  0.2272 -0.6931
 9119SOL     OW38989   1.260   1.031   8.589  0.2744 -0.0494 -0.1537
 9119SOL    HW138990   1.278   1.096   8.657 -1.9881 -0.0344  0.4096
 9119SOL    HW238991   1.345   1.035   8.545  0.2114  0.6095 -0.2137
 9120SOL     OW38992   4.059   0.412   2.999 -0.3297 -0.0147  0.0381
 9120SOL    HW138993   4.020   0.370   3.076 -1.3759  0.0296 -0.4536
 9120SOL    HW238994   4.036   0.352   2.928 -0.0440 -0.7677  0.5854
 9121SOL     OW38995   2.163   0.141   2.170  0.2077 -0.5861  0.3607
 9121SOL    HW138996   2.172   0.053   2.134 -1.9382 -0.0165 -1.5678
 9121SOL    HW238997   2.090   0.174   2.117  0.2181  0.2797  0.8942
 9122SOL     OW38998   0.911   3.399   9.150  0.2910 -0.2057  0.6299
 9122SOL    HW138999   0.843   3.377   9.213  0.7011 -3.0829  0.0531
 9122SOL    HW239000   0.902   3.494   9.157 -0.0529 -0.3151  1.6092
 9123SOL     OW39001   3.240   1.031   9.933 -0.0325  0.0933 -0.1507
 9123SOL    HW139002   3.294   1.110   9.939 -0.8832  0.5355  1.5957
 9123SOL    HW239003   3.233   1.017  10.028 -1.5073 -0.9235 -0.3986
 9124SOL     OW39004   3.659   1.919   9.723  0.0675 -0.2730 -0.3482
 9124SOL    HW139005   3.712   1.981   9.673 -3.0991  1.8661 -1.0250
 9124SOL    HW239006   3.705   1.915   9.807 -2.3073  0.1558  0.9722
 9125SOL     OW39007   2.799   2.497   9.734 -0.5129 -0.8205 -0.2168
 9125SOL    HW139008   2.764   2.515   9.821 -0.7493  3.5043 -1.2124
 9125SOL    HW239009   2.716   2.468   9.696  0.1016  0.7494 -2.7192
 9126SOL     OW39010   3.839   2.076  14.173 -0.3676  0.7131  0.6312
 9126SOL    HW139011   3.925   2.114  14.159 -0.1557 -0.2635 -0.6391
 9126SOL    HW239012   3.785   2.121  14.108 -1.8614 -1.7995  0.1646
 9127SOL     OW39013   1.228   2.684   7.468  0.2994  0.1393 -0.1973
 9127SOL    HW139014   1.169   2.623   7.424 -1.2151 -0.9337  3.2833
 9127SOL    HW239015   1.220   2.769   7.425  0.4158  1.5557  2.5664
 9128SOL     OW39016   2.015   0.476   7.454  0.1617  0.0822  0.4315
 9128SOL    HW139017   2.004   0.406   7.390 -0.7416  1.7296 -1.2088
 9128SOL    HW239018   2.108   0.497   7.442 -0.1075 -0.0031 -1.8560
 9129SOL     OW39019   3.862   1.949   8.341 -0.0611 -0.3062 -0.4381
 9129SOL    HW139020   3.927   1.986   8.401  1.6516 -0.2515 -2.3399
 9129SOL    HW239021   3.783   1.953   8.395 -0.1823  2.0690 -0.8307
 9130SOL     OW39022   1.814   3.963   2.863 -0.0282 -0.0290 -0.1832
 9130SOL    HW139023   1.844   4.051   2.887 -2.6439  0.2279  2.1259
 9130SOL    HW239024   1.731   3.980   2.819 -0.3405 -0.7695  0.1069
 9131SOL     OW39025   1.042   4.514   6.210 -0.1322 -0.4260  0.1980
 9131SOL    HW139026   1.064   4.498   6.118  1.2005  2.8749 -0.0679
 9131SOL    HW239027   0.949   4.535   6.204 -0.1901 -0.9176 -0.6550
 9132SOL     OW39028   3.768   3.003   1.880 -0.6557  0.4387  0.0947
 9132SOL    HW139029   3.734   2.926   1.926 -0.2973 -0.3830 -1.0513
 9132SOL    HW239030   3.852   2.968   1.851 -0.4910  1.1860 -0.3197
 9133SOL     OW39031   1.674   1.700   2.399 -0.7649  0.3582  0.3917
 9133SOL    HW139032   1.758   1.744   2.387 -0.1590 -0.8191  0.2672
 9133SOL    HW239033   1.701   1.609   2.415 -1.5845  0.2066  0.9017
 9134SOL     OW39034   3.879   0.627  16.753 -0.1000 -0.3787  0.9329
 9134SOL    HW139035   3.839   0.605  16.838  1.6290 -1.7185  1.4001
 9134SOL    HW239036   3.971   0.625  16.778  0.7810  1.6038 -2.2730
 9135SOL     OW39037   3.524   1.034   2.312  0.3327 -0.4991 -0.0764
 9135SOL    HW139038   3.492   0.994   2.231 -0.8560 -1.1522  0.7156
 9135SOL    HW239039   3.503   1.127   2.300  0.1560 -0.7306 -1.6788
 9136SOL     OW39040   0.243   1.655   2.845  0.3505  0.0166 -0.0213
 9136SOL    HW139041   0.231   1.564   2.819  1.2073  0.5543 -2.2724
 9136SOL    HW239042   0.182   1.653   2.919 -1.3631  1.7975 -1.4207
 9137SOL     OW39043   0.887   4.136   1.849  0.1398  0.6653 -0.4880
 9137SOL    HW139044   0.793   4.122   1.863  0.7818 -2.1612  0.8157
 9137SOL    HW239045   0.936   4.116   1.928 -1.4191  0.9164  0.5435
 9138SOL     OW39046   2.425   4.257   5.949  0.0339 -0.1217  0.2065
 9138SOL    HW139047   2.465   4.311   5.881 -1.5601  0.3535 -0.3420
 9138SOL    HW239048   2.477   4.177   5.942 -1.6267 -1.1963  0.1170
 9139SOL     OW39049   0.534   4.532  12.507  0.2589  0.9342  0.1287
 9139SOL    HW139050   0.532   4.621  12.543  0.8167  1.2907 -0.7233
 9139SOL    HW239051   0.545   4.490  12.592  2.2430 -1.8146 -1.4978
 9140SOL     OW39052   3.607   1.144  13.576 -0.2780 -0.1885 -0.5238
 9140SOL    HW139053   3.660   1.202  13.522  1.0654  0.4172  1.4676
 9140SOL    HW239054   3.641   1.170  13.662 -0.3425 -1.4308 -0.1167
 9141SOL     OW39055   2.063   0.495   2.923  0.0982 -0.0244 -0.1663
 9141SOL    HW139056   2.107   0.429   2.975 -0.8184  0.0664  0.7308
 9141SOL    HW239057   1.968   0.482   2.930 -0.1353  3.1472  2.6089
 9142SOL     OW39058   1.361   1.432  10.465  0.2400  0.2406 -0.0922
 9142SOL    HW139059   1.371   1.456  10.558 -0.8387 -1.1968  0.3993
 9142SOL    HW239060   1.302   1.503  10.437  0.5325  0.6436  0.3029
 9143SOL     OW39061   4.360   3.664   6.790 -0.5813  0.3136 -0.0636
 9143SOL    HW139062   4.418   3.623   6.855  1.0745  0.6124 -1.3440
 9143SOL    HW239063   4.272   3.634   6.810  0.4906 -2.7510  0.0984
 9144SOL     OW39064   3.921   4.000  10.645 -0.1082  0.5110 -0.3000
 9144SOL    HW139065   3.839   4.048  10.659  0.0377  0.9128 -0.8324
 9144SOL    HW239066   3.977   4.074  10.623  2.5761 -1.1900  0.8670
 9145SOL     OW39067   0.656   3.612   4.240 -0.3366 -0.2215  0.0171
 9145SOL    HW139068   0.684   3.528   4.205 -0.9525 -0.5270  0.2602
 9145SOL    HW239069   0.655   3.591   4.333 -0.6511  0.5357  0.1825
 9146SOL     OW39070   4.604   1.006  17.111  0.0676 -0.0175  0.0342
 9146SOL    HW139071   4.652   1.047  17.039 -0.4203  2.1820  0.9483
 9146SOL    HW239072   4.662   0.945  17.157  2.8514  2.6200  0.0144
 9147SOL     OW39073   3.111   3.260   7.662  0.5332  0.2664 -0.2106
 9147SOL    HW139074   3.130   3.349   7.693  1.5215  0.2343 -0.7542
 9147SOL    HW239075   3.017   3.250   7.680  0.5322 -0.9434 -0.8857
 9148SOL     OW39076   2.448   4.537   2.075  0.0867 -0.1452 -0.0828
 9148SOL    HW139077   2.395   4.534   2.155 -1.9439  1.2510 -1.3750
 9148SOL    HW239078   2.487   4.449   2.073 -2.3752 -1.2357 -0.7017
 9149SOL     OW39079   1.420   2.146   3.456 -0.8133  0.2624  0.5195
 9149SOL    HW139080   1.462   2.215   3.508  0.8682 -0.4917  0.1895
 9149SOL    HW239081   1.341   2.124   3.504 -0.6439 -0.7274  0.3307
 9150SOL     OW39082   3.348   3.678   7.832 -0.1278  0.6961  0.3731
 9150SOL    HW139083   3.441   3.698   7.839 -0.6235  3.2366 -0.3361
 9150SOL    HW239084   3.314   3.767   7.821  2.0334  1.5191  0.3673
 9151SOL     OW39085   2.489   4.655  16.964  0.5038 -0.3107 -0.5566
 9151SOL    HW139086   2.569   4.614  16.929  0.0249 -0.8741 -0.9930
 9151SOL    HW239087   2.482   4.724  16.898  0.7035  0.8360  0.6289
 9152SOL     OW39088   3.609   2.280   8.458 -0.0360  0.3934  0.7233
 9152SOL    HW139089   3.700   2.301   8.478 -0.2041  0.1136  1.7938
 9152SOL    HW239090   3.568   2.330   8.529 -2.9444 -1.9676  0.7037
 9153SOL     OW39091   3.062   3.229  14.241 -0.6526  0.6455 -0.4083
 9153SOL    HW139092   3.037   3.202  14.329  1.1228  1.9016  0.4697
 9153SOL    HW239093   3.158   3.229  14.238 -0.6229  0.9261  0.5359
 9154SOL     OW39094   2.720   2.803   1.494 -0.5922 -0.3001 -0.0772
 9154SOL    HW139095   2.803   2.846   1.472 -0.9276  0.7787  0.7850
 9154SOL    HW239096   2.741   2.712   1.472 -0.0120 -0.1411 -0.1934
 9155SOL     OW39097   2.015   0.564  12.518 -0.3828 -0.0903  0.7959
 9155SOL    HW139098   1.933   0.604  12.488 -0.6359 -0.7099  0.6481
 9155SOL    HW239099   2.078   0.624  12.479 -0.7329  1.0086  1.9275
 9156SOL     OW39100   0.237   2.501  16.848  0.9011 -0.4248 -0.2320
 9156SOL    HW139101   0.213   2.572  16.908  1.0736  0.7187 -1.5187
 9156SOL    HW239102   0.164   2.441  16.860  0.6896 -0.2088 -0.4402
 9157SOL     OW39103   0.090   1.851  13.656  0.2430  0.4734 -0.1986
 9157SOL    HW139104   0.063   1.760  13.671 -1.0252  0.5926 -1.7670
 9157SOL    HW239105   0.180   1.852  13.686  0.2446  0.0967 -0.1868
 9158SOL     OW39106   4.319   2.333   5.085  0.0343 -0.0155  0.0264
 9158SOL    HW139107   4.256   2.382   5.032 -0.9549 -1.6453 -0.3239
 9158SOL    HW239108   4.302   2.344   5.179  0.3786 -0.5079  0.1426
 9159SOL     OW39109   2.801   1.628  13.667 -0.3832 -0.8709  0.1554
 9159SOL    HW139110   2.736   1.694  13.690  0.1858  0.8184 -3.0659
 9159SOL    HW239111   2.802   1.648  13.573 -0.0313  2.3874  0.8550
 9160SOL     OW39112   3.543   4.351  10.042  0.5124 -0.1581  0.0863
 9160SOL    HW139113   3.601   4.326   9.969 -1.4913  0.8627 -1.8680
 9160SOL    HW239114   3.458   4.314  10.018  0.1905 -0.3966  1.6541
 9161SOL     OW39115   4.458   0.682   4.177 -0.3381 -0.0317 -0.5943
 9161SOL    HW139116   4.454   0.610   4.241 -1.1475 -0.6915 -1.3934
 9161SOL    HW239117   4.515   0.749   4.215 -0.9917 -0.3945  1.0351
 9162SOL     OW39118   2.477   3.816   7.538  0.4726 -0.4851  0.4640
 9162SOL    HW139119   2.427   3.740   7.508  2.9135 -1.4261 -1.1536
 9162SOL    HW239120   2.534   3.792   7.610  1.1392 -1.7847 -0.4988
 9163SOL     OW39121   4.224   3.835   9.277  0.5308 -0.2139  0.2227
 9163SOL    HW139122   4.226   3.918   9.323 -1.3766  0.2743 -0.5549
 9163SOL    HW239123   4.134   3.810   9.299  0.1353  0.6371 -0.4386
 9164SOL     OW39124   3.949   0.230   3.440  0.2129  0.2582 -0.0944
 9164SOL    HW139125   3.878   0.254   3.501 -0.5001 -0.4503 -0.6449
 9164SOL    HW239126   3.998   0.174   3.500  1.0655 -1.6991 -2.6337
 9165SOL     OW39127   1.449   0.219   0.362  0.4793  0.0991  0.2407
 9165SOL    HW139128   1.502   0.158   0.311 -1.8430 -0.7915 -1.0801
 9165SOL    HW239129   1.486   0.305   0.339 -2.9906  1.5863  0.2243
 9166SOL     OW39130   2.694   3.546   0.481  0.0009  0.3849 -0.1375
 9166SOL    HW139131   2.628   3.478   0.494 -0.9631  1.6771  1.7333
 9166SOL    HW239132   2.776   3.504   0.505  1.1097  2.6480  0.0354
 9167SOL     OW39133   0.751   3.636   5.421  0.5156 -0.3438 -0.1474
 9167SOL    HW139134   0.751   3.651   5.515  1.6482 -0.8979 -0.0661
 9167SOL    HW239135   0.823   3.689   5.389 -0.5648  0.3277 -1.5218
 9168SOL     OW39136   0.777   1.424   6.823  0.4269 -0.4415 -0.4344
 9168SOL    HW139137   0.814   1.500   6.866  0.9524 -0.7599 -0.3283
 9168SOL    HW239138   0.786   1.361   6.894 -1.2005 -0.6430 -0.4111
 9169SOL     OW39139   3.964   0.165   0.886 -0.0728 -0.3475  0.7064
 9169SOL    HW139140   3.927   0.084   0.849 -1.4412 -0.2460  1.8250
 9169SOL    HW239141   3.998   0.216   0.813 -1.7461 -0.6196 -0.2637
 9170SOL     OW39142   1.565   3.657   6.130  0.1144 -0.4958 -0.4685
 9170SOL    HW139143   1.484   3.621   6.094 -0.5078 -1.0207  1.4834
 9170SOL    HW239144   1.591   3.593   6.196  1.0914 -1.0625 -1.4173
 9171SOL     OW39145   2.032   2.967   3.718 -0.1647 -0.4416 -0.6010
 9171SOL    HW139146   1.979   2.968   3.798  1.6421  1.0014  0.5473
 9171SOL    HW239147   2.107   2.915   3.745  1.3565  1.7986 -0.5854
 9172SOL     OW39148   1.650   4.469   8.863 -0.1135  0.1938 -0.1974
 9172SOL    HW139149   1.557   4.453   8.851  0.2055 -0.9821 -1.0594
 9172SOL    HW239150   1.667   4.429   8.948 -1.6677 -1.0944 -0.5013
 9173SOL     OW39151   4.320   0.219   4.906 -0.7437  0.9333 -0.5636
 9173SOL    HW139152   4.238   0.214   4.857 -2.1937  1.9794  1.7457
 9173SOL    HW239153   4.360   0.300   4.873  4.9441 -1.6992 -0.1708
 9174SOL     OW39154   2.378   2.394   6.378 -0.2848 -0.1518 -0.7578
 9174SOL    HW139155   2.448   2.421   6.437 -0.6777  0.6838 -0.6700
 9174SOL    HW239156   2.309   2.381   6.444  0.5191  0.3281  0.1720
 9175SOL     OW39157   1.911   2.971   2.899  0.2245 -0.0026 -0.2289
 9175SOL    HW139158   1.872   2.992   2.984 -0.1842  2.2829 -0.9834
 9175SOL    HW239159   1.982   2.919   2.936  0.6501 -0.3519 -1.5398
 9176SOL     OW39160   1.761   2.541   5.294 -0.1049 -0.0488  0.4794
 9176SOL    HW139161   1.731   2.459   5.254  0.7062  1.1515 -2.5996
 9176SOL    HW239162   1.813   2.554   5.214 -0.6872  0.4851  0.1897
 9177SOL     OW39163   3.685   2.505  14.815  0.1978  0.0377  0.8823
 9177SOL    HW139164   3.705   2.426  14.766 -2.0336  0.2865 -0.4116
 9177SOL    HW239165   3.590   2.497  14.808  0.4014 -0.0252 -1.9275
 9178SOL     OW39166   2.159   0.147  14.382 -0.7345  0.5782 -0.1837
 9178SOL    HW139167   2.081   0.154  14.437  0.8147  0.5625  1.9981
 9178SOL    HW239168   2.147   0.059  14.345 -0.8733  0.9885 -1.1261
 9179SOL     OW39169   2.673   3.720   7.708 -0.1413  0.3298 -0.1967
 9179SOL    HW139170   2.766   3.727   7.685 -0.3612  2.2918 -0.4408
 9179SOL    HW239171   2.683   3.636   7.752 -0.0190 -0.8926 -2.5519
 9180SOL     OW39172   4.221   1.887   0.145 -0.1877 -0.2611 -0.0466
 9180SOL    HW139173   4.141   1.911   0.100 -0.0308  0.9514  0.3288
 9180SOL    HW239174   4.218   1.932   0.230  1.9450  0.1932 -0.2004
 9181SOL     OW39175   3.594   0.351   4.020  0.2618  0.2523 -0.0453
 9181SOL    HW139176   3.574   0.257   4.014  1.6724 -0.0868  0.5430
 9181SOL    HW239177   3.659   0.352   4.090 -0.1184 -2.5060  0.3509
 9182SOL     OW39178   1.913   4.105   8.662  0.1009  0.1531  0.0592
 9182SOL    HW139179   2.008   4.109   8.654  0.0209  3.3856  0.5149
 9182SOL    HW239180   1.897   4.071   8.750  1.0254  0.9952  0.5550
 9183SOL     OW39181   3.163   3.711   4.701  0.3358  0.0069  0.2548
 9183SOL    HW139182   3.227   3.751   4.759  2.1902  0.9545 -2.4212
 9183SOL    HW239183   3.217   3.674   4.631  0.3490 -2.2091  1.4540
 9184SOL     OW39184   3.019   4.436  14.926  0.1174 -0.3801 -0.4229
 9184SOL    HW139185   3.001   4.431  15.019  0.5030  2.0401 -0.2337
 9184SOL    HW239186   2.936   4.452  14.881  0.3109 -1.1754 -1.0754
 9185SOL     OW39187   1.798   0.092   4.060  0.2580 -0.0541 -0.7894
 9185SOL    HW139188   1.892   0.108   4.069  0.2801 -1.9095  2.4656
 9185SOL    HW239189   1.760   0.135   4.137 -2.5271  1.0329 -2.7965
 9186SOL     OW39190   4.023   2.884  14.214 -0.0503 -0.1847  0.3660
 9186SOL    HW139191   4.097   2.944  14.216 -0.2267  0.0343  0.3430
 9186SOL    HW239192   4.017   2.888  14.309  0.2677  2.1759  0.2887
 9187SOL     OW39193   4.487   0.627   8.944  0.4517 -0.4125  0.6912
 9187SOL    HW139194   4.403   0.617   8.899  0.9582 -1.1991 -0.0729
 9187SOL    HW239195   4.554   0.591   8.886 -0.8659 -1.2035 -0.3306
 9188SOL     OW39196   2.343   1.308   6.816  0.8211  0.1533  0.3155
 9188SOL    HW139197   2.344   1.404   6.818  0.3811  0.1348  1.0459
 9188SOL    HW239198   2.322   1.292   6.907 -2.0933  3.2310  0.1750
 9189SOL     OW39199   4.004   1.904   7.985  0.4845  0.3329 -0.0714
 9189SOL    HW139200   3.927   1.848   7.975  1.9559 -1.7929  0.4620
 9189SOL    HW239201   4.041   1.895   7.898 -0.7538  0.5580 -0.6123
 9190SOL     OW39202   1.136   4.102   3.368 -0.5615 -0.3783 -0.2515
 9190SOL    HW139203   1.113   4.191   3.339 -0.9786 -0.5887 -0.5561
 9190SOL    HW239204   1.149   4.062   3.282 -2.0071 -1.7937  0.1847
 9191SOL     OW39205   1.169   1.769   8.004  0.4324  0.6820 -0.4310
 9191SOL    HW139206   1.147   1.854   7.966 -3.3559 -0.8176 -1.7126
 9191SOL    HW239207   1.122   1.712   7.942 -0.2785  0.0782  0.6618
 9192SOL     OW39208   2.609   2.808   9.071 -0.2492 -0.4606 -0.3606
 9192SOL    HW139209   2.660   2.855   9.136  0.8671 -0.1948 -1.4192
 9192SOL    HW239210   2.632   2.861   8.995 -3.2086  2.5083  0.8192
 9193SOL     OW39211   1.496   1.130   3.427 -0.0413 -0.0953 -0.6011
 9193SOL    HW139212   1.539   1.142   3.342 -1.1810 -0.3252 -1.2123
 9193SOL    HW239213   1.408   1.107   3.397  0.4146 -0.3305 -1.7557
 9194SOL     OW39214   3.115   3.468   4.103  0.4731 -0.3432  0.2471
 9194SOL    HW139215   3.069   3.520   4.037  1.2384  0.5807  0.4454
 9194SOL    HW239216   3.129   3.542   4.163 -1.2931  2.4827 -2.8894
 9195SOL     OW39217   4.550   4.034   3.686  0.0357  0.1705 -0.2847
 9195SOL    HW139218   4.550   3.942   3.714 -1.1395  0.3498  0.3014
 9195SOL    HW239219   4.562   4.066   3.775  1.0588 -0.3283 -0.2463
 9196SOL     OW39220   4.084   4.096   5.360  0.4357 -0.0166  0.0497
 9196SOL    HW139221   4.065   4.169   5.419  1.9111  0.4898 -0.0885
 9196SOL    HW239222   4.169   4.122   5.323  2.0574 -1.2028  2.8941
 9197SOL     OW39223   3.277   3.661   3.284 -0.5475 -0.4147  0.1451
 9197SOL    HW139224   3.299   3.653   3.377  1.6147 -0.2159 -0.3448
 9197SOL    HW239225   3.368   3.658   3.255 -0.3302 -0.5503  0.8249
 9198SOL     OW39226   4.534   2.124  10.187 -0.3507 -0.6431 -0.1765
 9198SOL    HW139227   4.581   2.160  10.262  0.0333 -0.5717 -0.4536
 9198SOL    HW239228   4.463   2.083  10.237  1.1155 -0.1845  2.2817
 9199SOL     OW39229   0.853   0.616  14.349 -0.1908 -0.0534  0.0233
 9199SOL    HW139230   0.848   0.686  14.414  0.1379 -0.1390  0.1426
 9199SOL    HW239231   0.878   0.672  14.276  0.4017 -2.9726 -2.0203
 9200SOL     OW39232   1.195   1.680  10.423 -0.3044 -0.0038 -0.0956
 9200SOL    HW139233   1.209   1.714  10.335 -0.0506 -1.3021 -0.5619
 9200SOL    HW239234   1.124   1.619  10.401 -0.2012 -0.3420  0.5301
 9201SOL     OW39235   2.139   4.381   3.686 -0.1877  0.1867 -0.6366
 9201SOL    HW139236   2.055   4.335   3.695 -0.2302  0.8538  2.4615
 9201SOL    HW239237   2.120   4.473   3.700 -2.0650  0.0049 -1.9485
 9202SOL     OW39238   3.145   4.388  10.030  0.0191  0.2698 -0.4345
 9202SOL    HW139239   3.186   4.474  10.039 -0.0557  0.2240  0.3998
 9202SOL    HW239240   3.098   4.377  10.113 -0.3830  0.1824 -0.6715
 9203SOL     OW39241   3.921   0.299   3.190  0.6216  0.0153 -0.7822
 9203SOL    HW139242   3.941   0.278   3.281 -3.4168 -0.1312  0.0313
 9203SOL    HW239243   3.831   0.268   3.188  0.8196 -0.3814 -3.6814
 9204SOL     OW39244   3.704   0.236   4.512 -0.3739  0.5052  0.7889
 9204SOL    HW139245   3.765   0.265   4.580 -0.7659  1.3720  0.7742
 9204SOL    HW239246   3.630   0.294   4.529 -1.0299 -0.3401  0.8261
 9205SOL     OW39247   2.306   2.964   1.774  0.4286  0.1061 -0.7152
 9205SOL    HW139248   2.382   2.912   1.751 -0.0188 -0.2095 -1.4815
 9205SOL    HW239249   2.313   3.044   1.721  1.9079 -0.4593 -1.3738
 9206SOL     OW39250   0.420   2.413   5.956  0.4585  0.1333  0.4708
 9206SOL    HW139251   0.325   2.416   5.963  0.2950 -3.1362 -0.2028
 9206SOL    HW239252   0.427   2.500   5.915 -0.0807  0.1090  0.3250
 9207SOL     OW39253   2.890   1.101   3.282 -0.4318 -0.3685  0.2878
 9207SOL    HW139254   2.941   1.061   3.211 -2.4851  1.2475 -2.1152
 9207SOL    HW239255   2.954   1.160   3.319 -0.8901 -0.1218  0.6793
 9208SOL     OW39256   3.573   1.638   5.082  0.5031  0.2736  0.3047
 9208SOL    HW139257   3.522   1.650   5.002  2.7427  0.6280 -1.0424
 9208SOL    HW239258   3.596   1.729   5.097  1.6924 -0.2799  1.8421
 9209SOL     OW39259   3.004   0.993   3.052 -0.4771  0.1997  0.1874
 9209SOL    HW139260   2.942   1.040   2.997 -0.0417 -0.1241 -0.5740
 9209SOL    HW239261   3.022   0.914   3.000 -1.7216 -1.6597  2.5518
 9210SOL     OW39262   1.740   0.124   7.142  0.2509  0.2847  0.5073
 9210SOL    HW139263   1.680   0.102   7.071  0.5419  0.5748  0.1774
 9210SOL    HW239264   1.720   0.215   7.162 -0.0052 -0.0835  1.9878
 9211SOL     OW39265   3.400   3.767  13.026  0.0865  0.2820  0.0318
 9211SOL    HW139266   3.410   3.674  13.006 -0.3010 -0.0158  1.1624
 9211SOL    HW239267   3.306   3.779  13.012  0.2797 -0.2129 -1.6307
 9212SOL     OW39268   3.190   1.842   6.489 -0.1506  0.3208 -0.2134
 9212SOL    HW139269   3.105   1.833   6.533  0.4765 -2.2591  0.4236
 9212SOL    HW239270   3.248   1.806   6.556  0.4232 -0.7722 -1.2888
 9213SOL     OW39271   1.626   1.353   2.965  0.0763  0.1822  0.2822
 9213SOL    HW139272   1.712   1.345   2.924  0.4138  1.4084  0.7600
 9213SOL    HW239273   1.620   1.449   2.964 -0.8395  0.1295  0.9611
 9214SOL     OW39274   4.353   2.766   2.835  0.6555 -0.1702 -0.3349
 9214SOL    HW139275   4.301   2.845   2.821  0.8998 -0.0765 -0.7007
 9214SOL    HW239276   4.438   2.804   2.859  0.7442 -0.0570 -0.8306
 9215SOL     OW39277   3.267   3.892   6.226 -0.1931  0.3561  0.5292
 9215SOL    HW139278   3.353   3.873   6.262 -0.7832 -0.6265  1.4243
 9215SOL    HW239279   3.279   3.979   6.188 -1.2554  0.1289 -0.3532
 9216SOL     OW39280   3.626   1.225  10.949 -0.0345 -0.4076 -0.1950
 9216SOL    HW139281   3.562   1.161  10.921 -0.8039  2.1572 -4.2790
 9216SOL    HW239282   3.562   1.287  10.985 -0.9114 -1.5117  0.1617
 9217SOL     OW39283   0.798   2.756  13.544 -0.6942  0.4688 -0.0884
 9217SOL    HW139284   0.720   2.738  13.492 -1.2059 -0.7660  1.1135
 9217SOL    HW239285   0.787   2.678  13.597  1.2937  0.1432 -0.1345
 9218SOL     OW39286   1.030   2.374   8.106  0.6663  0.3409  0.1108
 9218SOL    HW139287   0.975   2.447   8.078  3.4454  0.8835 -3.9454
 9218SOL    HW239288   1.056   2.337   8.021 -0.5214  0.7368 -0.4271
 9219SOL     OW39289   3.065   4.527  16.985 -0.2198 -0.0335 -1.4116
 9219SOL    HW139290   2.989   4.478  17.014  0.1266  0.3225  0.1440
 9219SOL    HW239291   3.139   4.466  16.980  0.0804  0.0352  1.7089
 9220SOL     OW39292   2.586   4.620   8.283 -0.4576 -0.3563  0.5622
 9220SOL    HW139293   2.504   4.618   8.233 -0.7927  0.3583  1.0868
 9220SOL    HW239294   2.553   4.683   8.348 -1.6777 -1.1245  0.7073
 9221SOL     OW39295   1.479   3.719   6.683  0.1686  0.2710 -0.3605
 9221SOL    HW139296   1.410   3.730   6.619 -1.1544  1.1026  1.2235
 9221SOL    HW239297   1.431   3.729   6.765 -0.6311  1.0453 -0.9331
 9222SOL     OW39298   2.964   4.495  16.354  0.2194 -0.3575 -0.0948
 9222SOL    HW139299   2.917   4.578  16.358  0.5530 -0.1983  0.4152
 9222SOL    HW239300   2.926   4.447  16.280 -0.0573 -1.6034  0.8660
 9223SOL     OW39301   3.823   0.198   2.388  1.0270 -0.3354  0.1258
 9223SOL    HW139302   3.772   0.183   2.309  1.0276  0.1437  0.0336
 9223SOL    HW239303   3.856   0.110   2.406  1.0460  0.2723  3.1397
 9224SOL     OW39304   3.607   0.885  11.699 -0.1115  0.3971 -0.3962
 9224SOL    HW139305   3.546   0.826  11.744  1.6864  0.3213  1.9337
 9224SOL    HW239306   3.549   0.959  11.682 -1.4143 -0.9655 -1.9577
 9225SOL     OW39307   0.052   1.865   5.886  0.3139 -0.1355 -0.1540
 9225SOL    HW139308   0.033   1.821   5.969 -1.7703 -1.6105 -1.4249
 9225SOL    HW239309   4.722   1.933   5.892 -0.4316 -1.0364  2.0115
 9226SOL     OW39310   1.864   2.094   8.364 -0.9794  0.1942  0.0558
 9226SOL    HW139311   1.818   2.028   8.417 -1.1893  1.5010  1.5148
 9226SOL    HW239312   1.857   2.175   8.416 -1.7330  0.5181 -0.5559
 9227SOL     OW39313   1.695   0.638   6.620 -0.4809  0.0114  0.4391
 9227SOL    HW139314   1.761   0.627   6.550 -3.1630 -0.8295 -1.9580
 9227SOL    HW239315   1.747   0.646   6.700 -2.5582  1.1460  1.6642
 9228SOL     OW39316   0.521   2.887   3.337  0.4081 -0.1020 -0.0709
 9228SOL    HW139317   0.597   2.847   3.295 -0.2821 -0.7353 -0.6953
 9228SOL    HW239318   0.551   2.978   3.334 -2.4450  0.8231 -0.5892
 9229SOL     OW39319   0.329   1.247   3.257  0.2684  0.3426  0.1695
 9229SOL    HW139320   0.297   1.293   3.179  1.8238  2.2138  0.6379
 9229SOL    HW239321   0.281   1.300   3.321 -2.0727 -1.0465 -0.4361
 9230SOL     OW39322   1.284   1.967   9.848 -0.4254  0.3199 -0.1402
 9230SOL    HW139323   1.290   2.045   9.793  1.7389  0.0503 -0.2730
 9230SOL    HW239324   1.374   1.950   9.873 -0.2602 -0.3721 -1.1905
 9231SOL     OW39325   0.225   1.090   0.494 -0.0706  0.1625 -0.2246
 9231SOL    HW139326   0.281   1.012   0.494 -0.7654 -0.3362  0.8507
 9231SOL    HW239327   0.177   1.066   0.414 -2.9221 -0.5619  1.7076
 9232SOL     OW39328   4.456   2.856  14.436  0.1599 -0.8412  0.3638
 9232SOL    HW139329   4.395   2.929  14.441 -0.4010 -1.1063 -2.2393
 9232SOL    HW239330   4.533   2.888  14.483 -0.2782  1.4983 -0.5226
 9233SOL     OW39331   2.038   3.767  15.519  0.8500 -0.3890  0.3625
 9233SOL    HW139332   1.966   3.824  15.544 -0.3279 -0.1706 -3.5236
 9233SOL    HW239333   2.090   3.772  15.600 -0.7305 -0.3425  1.3735
 9234SOL     OW39334   0.449   3.362   0.487  0.0983 -0.2126  0.3119
 9234SOL    HW139335   0.370   3.396   0.444  1.5718  2.0229 -0.6421
 9234SOL    HW239336   0.503   3.341   0.411 -1.2633 -2.4146 -0.0433
 9235SOL     OW39337   0.101   1.151   3.626 -0.2261 -0.4778  0.2887
 9235SOL    HW139338   0.126   1.059   3.614  1.8704  0.1618 -0.4154
 9235SOL    HW239339   0.118   1.159   3.720  0.3048 -1.8572  0.3092
 9236SOL     OW39340   0.486   0.045   3.033 -0.2035  0.4181  0.0035
 9236SOL    HW139341   0.550   0.015   3.097 -0.9847  0.9091  1.0065
 9236SOL    HW239342   0.503   0.139   3.028  2.0650  0.0816  1.2664
 9237SOL     OW39343   3.269   4.076   3.932  0.3541 -0.1436  0.0248
 9237SOL    HW139344   3.208   4.145   3.957  0.7097  0.9218 -2.0416
 9237SOL    HW239345   3.210   4.008   3.901 -0.5333  0.1852  0.9848
 9238SOL     OW39346   4.555   3.336   7.584  0.0292 -0.2752  0.0662
 9238SOL    HW139347   4.623   3.270   7.577 -0.4652 -0.5264 -2.4800
 9238SOL    HW239348   4.587   3.396   7.516  1.2361 -0.2743  0.6373
 9239SOL     OW39349   1.804   1.971   3.373  0.9020  0.4693  0.0941
 9239SOL    HW139350   1.827   2.041   3.312 -1.0629  1.6620  0.7464
 9239SOL    HW239351   1.875   1.906   3.364  0.6110 -0.0710  1.6250
 9240SOL     OW39352   2.797   3.513   9.692  0.2121 -0.4043  0.4098
 9240SOL    HW139353   2.754   3.563   9.623  0.4435  0.9114  1.2191
 9240SOL    HW239354   2.874   3.564   9.715 -0.2863  0.2367  0.6604
 9241SOL     OW39355   3.477   3.822   8.461 -0.0321 -1.0423  0.2526
 9241SOL    HW139356   3.505   3.799   8.550 -2.5746  1.2212  1.6551
 9241SOL    HW239357   3.392   3.778   8.451 -1.5367  1.0973  3.6027
 9242SOL     OW39358   0.901   3.606  14.228  0.0758 -0.5945  0.1668
 9242SOL    HW139359   0.908   3.512  14.242  1.3411 -0.5257  0.0455
 9242SOL    HW239360   0.832   3.617  14.162  1.4130  0.7915 -1.0025
 9243SOL     OW39361   3.610   0.615   7.595 -0.5837  0.3641 -0.4727
 9243SOL    HW139362   3.678   0.613   7.663 -0.1822 -1.0685 -0.9227
 9243SOL    HW239363   3.543   0.557   7.632  2.6375 -1.7614  1.9886
 9244SOL     OW39364   3.284   4.102   4.610  0.6465 -0.2399 -0.4263
 9244SOL    HW139365   3.250   4.145   4.689  1.3603 -1.4258  0.5353
 9244SOL    HW239366   3.219   4.034   4.596 -0.4176  0.7439 -0.3115
 9245SOL     OW39367   3.663   0.573  13.644 -0.1782 -0.1869  0.1108
 9245SOL    HW139368   3.614   0.648  13.678  2.6802  1.6481  0.1565
 9245SOL    HW239369   3.642   0.509  13.711 -1.3836 -1.1950 -1.2369
 9246SOL     OW39370   2.757   3.226   3.031  0.0423 -0.2413 -0.1231
 9246SOL    HW139371   2.735   3.148   3.082 -1.2948 -0.1455 -0.5515
 9246SOL    HW239372   2.852   3.227   3.038  0.0159  1.5825 -0.0119
 9247SOL     OW39373   3.339   2.545   2.675  0.0700 -0.5744  0.0732
 9247SOL    HW139374   3.373   2.460   2.648 -0.6870 -0.3771 -1.5161
 9247SOL    HW239375   3.254   2.511   2.704 -1.0190  0.8502 -1.4394
 9248SOL     OW39376   4.359   4.124   1.750  0.1759 -0.2704 -0.4093
 9248SOL    HW139377   4.318   4.150   1.668 -0.7303  0.5048  0.2818
 9248SOL    HW239378   4.293   4.137   1.818  1.0330  0.2341  0.3263
 9249SOL     OW39379   3.689   0.389  13.010  0.0521 -0.4703 -0.2740
 9249SOL    HW139380   3.717   0.415  12.922 -3.5863  1.1963 -0.9514
 9249SOL    HW239381   3.596   0.409  13.014 -0.4259 -2.7368  0.2910
 9250SOL     OW39382   1.987   1.699   0.606 -0.4790  0.2422 -0.6536
 9250SOL    HW139383   2.071   1.690   0.651 -0.2388 -1.0660 -1.3573
 9250SOL    HW239384   2.015   1.756   0.534 -0.9728  2.0374  0.5921
 9251SOL     OW39385   1.256   1.367   4.142 -0.6721  0.0217  0.1289
 9251SOL    HW139386   1.312   1.428   4.190 -1.3835  0.5315  0.3173
 9251SOL    HW239387   1.317   1.318   4.088  1.4752  1.6119  1.1082
 9252SOL     OW39388   3.536   2.327   2.880  0.3425 -0.2423 -0.5883
 9252SOL    HW139389   3.474   2.385   2.925 -1.9583 -1.7377 -1.8451
 9252SOL    HW239390   3.494   2.241   2.879 -0.6001  0.2040  0.6001
 9253SOL     OW39391   1.843   0.748   6.860  0.6567  0.4506  0.2137
 9253SOL    HW139392   1.792   0.745   6.941  0.1172  0.1255 -0.1372
 9253SOL    HW239393   1.925   0.710   6.894  0.4033 -0.9855 -0.8029
 9254SOL     OW39394   3.823   1.452  13.692 -0.2923  0.2297 -0.1525
 9254SOL    HW139395   3.890   1.517  13.715 -0.4541  0.2351  0.3151
 9254SOL    HW239396   3.766   1.504  13.635  1.6806  0.2838 -2.0803
 9255SOL     OW39397   3.793   2.049  13.417 -0.4362 -0.4909  0.5645
 9255SOL    HW139398   3.725   2.049  13.350 -0.2623 -1.5138  0.3841
 9255SOL    HW239399   3.835   1.964  13.404  0.5473  0.1437 -0.3678
 9256SOL     OW39400   1.990   3.010  17.272 -0.3151  0.4529 -0.1575
 9256SOL    HW139401   1.984   3.081  17.335 -1.9690  0.2389 -0.0884
 9256SOL    HW239402   2.061   3.038  17.214 -0.2492  2.3398  0.8297
 9257SOL     OW39403   0.114   0.880   3.552  0.1860  0.3423 -0.3399
 9257SOL    HW139404   0.049   0.810   3.557  1.1263 -0.5621 -1.0548
 9257SOL    HW239405   0.192   0.831   3.528 -0.6851 -1.2533  0.1435
 9258SOL     OW39406   1.514   0.901   5.255  0.0825  0.1191  0.7577
 9258SOL    HW139407   1.532   0.826   5.198  2.2514  2.4955 -1.6701
 9258SOL    HW239408   1.601   0.919   5.291 -0.0418 -0.0737  1.1503
 9259SOL     OW39409   2.244   1.566   1.854 -0.3178 -0.0022 -0.1532
 9259SOL    HW139410   2.304   1.557   1.927  0.7164  1.5800 -0.8214
 9259SOL    HW239411   2.285   1.645   1.820  0.1426 -0.1926 -0.0349
 9260SOL     OW39412   0.108   3.740   8.144  0.1683 -0.1023  0.4604
 9260SOL    HW139413   0.145   3.658   8.177 -3.9629 -1.6627  1.1803
 9260SOL    HW239414   0.140   3.712   8.058  0.0638  0.7246  0.1528
 9261SOL     OW39415   1.486   3.965   7.461  0.5747 -0.0863  0.2584
 9261SOL    HW139416   1.537   4.026   7.514  1.9229  0.0172 -1.1625
 9261SOL    HW239417   1.554   3.912   7.420 -2.0496 -3.2250 -0.0197
 9262SOL     OW39418   2.139   1.703   8.712 -0.3403  0.1454  0.0104
 9262SOL    HW139419   2.058   1.747   8.686 -0.5285 -0.3368 -0.2206
 9262SOL    HW239420   2.093   1.625   8.743 -1.3968  1.4769  1.7969
 9263SOL     OW39421   1.568   1.890   5.016  0.2917 -0.4733 -0.3405
 9263SOL    HW139422   1.659   1.880   5.045 -0.0290  3.0061  1.7891
 9263SOL    HW239423   1.567   1.982   4.989 -1.3430  0.2424  2.2076
 9264SOL     OW39424   1.118   4.237  16.483  0.6144  0.3166  0.6739
 9264SOL    HW139425   1.147   4.326  16.505  0.5964  0.2815  0.8451
 9264SOL    HW239426   1.200   4.199  16.451  0.6748 -0.7029  2.0172
 9265SOL     OW39427   3.161   0.592   2.651  0.6942  0.3273  0.2123
 9265SOL    HW139428   3.187   0.571   2.562  1.2566  1.9092  0.0090
 9265SOL    HW239429   3.185   0.506   2.687  2.4867  2.1463  3.3993
 9266SOL     OW39430   4.465   3.530   2.548  0.2266 -0.1261 -0.0116
 9266SOL    HW139431   4.518   3.607   2.567 -1.6210  0.4502  2.9556
 9266SOL    HW239432   4.509   3.463   2.601 -1.0172 -0.5657  0.4697
 9267SOL     OW39433   1.859   2.874   3.912  0.8102  0.1657 -0.4948
 9267SOL    HW139434   1.783   2.912   3.957 -1.5073 -3.1087 -1.6504
 9267SOL    HW239435   1.821   2.810   3.852 -1.5805  0.3191  0.8310
 9268SOL     OW39436   4.148   1.407   1.969 -0.3566 -0.3305  0.0858
 9268SOL    HW139437   4.080   1.471   1.948  0.8992  0.6138 -1.1157
 9268SOL    HW239438   4.171   1.430   2.059 -0.8585  0.4074  0.0276
 9269SOL     OW39439   0.906   1.711   1.311  0.2427  0.5888  0.5309
 9269SOL    HW139440   0.932   1.752   1.229  0.2899  1.6958  1.0980
 9269SOL    HW239441   0.922   1.787   1.367 -2.7611  1.1252  0.6582
 9270SOL     OW39442   0.907   3.067   3.575 -0.5324 -0.0239 -0.3002
 9270SOL    HW139443   0.958   2.986   3.573  0.5025  0.6239  0.5436
 9270SOL    HW239444   0.818   3.031   3.571 -0.1729 -0.7810 -1.6239
 9271SOL     OW39445   0.671   3.277   5.130  0.2166 -0.4599 -0.3950
 9271SOL    HW139446   0.585   3.313   5.107  0.0844 -1.2690 -1.1726
 9271SOL    HW239447   0.688   3.313   5.217 -0.1773  1.6189 -1.1967
 9272SOL     OW39448   2.575   4.667   3.606  0.2801  0.3400  0.3316
 9272SOL    HW139449   2.614   4.608   3.541 -1.3914  0.9299 -1.2049
 9272SOL    HW239450   2.517   4.725   3.556  0.5759  0.1149 -0.2791
 9273SOL     OW39451   2.033   2.444   8.468 -0.4454  0.0358 -0.5048
 9273SOL    HW139452   1.943   2.424   8.492 -0.3257  0.5674  0.3756
 9273SOL    HW239453   2.089   2.386   8.520  1.5451  0.1662 -2.4877
 9274SOL     OW39454   3.227   2.742   9.696 -0.0790 -0.1251 -0.1911
 9274SOL    HW139455   3.239   2.780   9.609 -2.0435 -0.4461 -0.6078
 9274SOL    HW239456   3.132   2.734   9.695 -0.0328 -0.2745 -2.7807
 9275SOL     OW39457   2.397   2.711   5.034  0.3774  0.1289  0.2888
 9275SOL    HW139458   2.355   2.797   5.040 -0.5580 -0.2681 -0.6546
 9275SOL    HW239459   2.402   2.691   5.128  3.5584 -0.0311  0.0830
 9276SOL     OW39460   0.350   3.086   7.239  0.5754 -0.4704  0.5335
 9276SOL    HW139461   0.351   3.117   7.329  1.4294  0.4790  0.2063
 9276SOL    HW239462   0.259   3.057   7.236  0.3546 -0.1495  4.3114
 9277SOL     OW39463   1.061   2.708   3.899  0.6548 -0.7809  0.5953
 9277SOL    HW139464   1.153   2.696   3.877  0.8207 -0.4283  1.0852
 9277SOL    HW239465   1.067   2.754   3.983  1.0084 -1.4189  0.9118
 9278SOL     OW39466   4.651   0.671   5.028  0.3065  0.1667 -0.1437
 9278SOL    HW139467   4.715   0.609   4.995  1.2115  0.8292  0.3824
 9278SOL    HW239468   4.620   0.628   5.108  1.2210  1.8219  1.0838
 9279SOL     OW39469   4.250   4.364   3.220 -0.0985 -0.0376 -0.5040
 9279SOL    HW139470   4.246   4.317   3.304  0.6829  0.0827 -0.4062
 9279SOL    HW239471   4.311   4.318   3.162  1.6477  2.0602 -0.2896
 9280SOL     OW39472   4.013   1.528   9.732 -0.3647 -0.5443  0.2703
 9280SOL    HW139473   4.067   1.456   9.698 -2.3775 -1.0797 -1.7636
 9280SOL    HW239474   4.063   1.543   9.813 -0.6936 -0.6177  0.4878
 9281SOL     OW39475   3.297   1.459   9.350  0.3659 -0.0648 -0.0526
 9281SOL    HW139476   3.209   1.446   9.315  0.6972  0.9797 -1.2579
 9281SOL    HW239477   3.300   1.388   9.413 -2.6298 -0.4748 -0.3851
 9282SOL     OW39478   2.426   0.056   3.433  1.0654 -0.0240  0.0740
 9282SOL    HW139479   2.445   0.044   3.340  0.4880  0.0862 -0.0566
 9282SOL    HW239480   2.369   0.132   3.427 -1.2643 -1.7264  0.8179
 9283SOL     OW39481   0.279   4.584   8.121  0.0131 -0.1938 -0.1891
 9283SOL    HW139482   0.275   4.611   8.212 -0.3671  0.9065 -0.5302
 9283SOL    HW239483   0.224   4.507   8.135  2.2513 -2.2634 -2.5976
 9284SOL     OW39484   3.640   4.274   9.794 -0.0398 -0.3766  0.2368
 9284SOL    HW139485   3.703   4.203   9.778  1.1477  0.6463  0.3319
 9284SOL    HW239486   3.563   4.225   9.765 -0.0123 -1.6315  2.2415
 9285SOL     OW39487   0.024   4.662  10.030 -0.1702 -0.0230 -0.6986
 9285SOL    HW139488   0.076   4.693  10.104 -0.8369 -2.3589  0.7474
 9285SOL    HW239489   4.677   4.677  10.072  0.1634  0.9239 -0.3794
 9286SOL     OW39490   3.918   0.172  16.888 -0.3345  0.4601 -0.0852
 9286SOL    HW139491   3.930   0.166  16.794 -1.2709 -3.2931  0.0441
 9286SOL    HW239492   4.006   0.200  16.914 -0.4148  0.8270 -0.2001
 9287SOL     OW39493   0.634   2.242   6.918  0.1727 -0.4296 -0.0647
 9287SOL    HW139494   0.623   2.213   7.009  2.0833 -0.0651  0.2837
 9287SOL    HW239495   0.560   2.302   6.907  1.4493  1.3288  0.8795
 9288SOL     OW39496   3.578   2.849  12.505 -0.6653  0.1197 -0.5191
 9288SOL    HW139497   3.664   2.889  12.497 -0.4896 -0.0033  0.8235
 9288SOL    HW239498   3.574   2.830  12.411 -1.1945  0.3977 -0.5529
 9289SOL     OW39499   2.593   2.422   5.985 -0.1902  0.2968 -0.0991
 9289SOL    HW139500   2.568   2.376   6.064  0.8395  1.4188  0.8742
 9289SOL    HW239501   2.516   2.416   5.929 -0.6981  2.8555  0.3135
 9290SOL     OW39502   2.730   3.183   3.457  0.0717 -0.3322 -0.6085
 9290SOL    HW139503   2.796   3.151   3.519 -2.2937 -4.5533 -0.2805
 9290SOL    HW239504   2.771   3.265   3.427  1.5867 -0.4576  1.0846
 9291SOL     OW39505   2.639   4.260   3.807  0.5866 -0.2385 -0.4585
 9291SOL    HW139506   2.555   4.301   3.786  0.8360  1.0674  1.0275
 9291SOL    HW239507   2.625   4.171   3.775 -0.7322 -0.1393 -0.1480
 9292SOL     OW39508   4.630   0.713   8.494  0.2576 -0.1783  0.9974
 9292SOL    HW139509   4.628   0.765   8.413  0.7915 -0.0653  1.0530
 9292SOL    HW239510   4.541   0.679   8.487 -1.1624  3.6923  0.4561
 9293SOL     OW39511   4.071   4.396   3.813  0.1440 -0.0169  0.2940
 9293SOL    HW139512   3.977   4.387   3.828 -0.0682  0.7497 -0.5705
 9293SOL    HW239513   4.074   4.406   3.718  1.6166  0.9097  0.4376
 9294SOL     OW39514   2.457   4.071  14.767  0.7379  0.0441 -0.5136
 9294SOL    HW139515   2.470   3.976  14.763  0.0917 -0.1292  1.4812
 9294SOL    HW239516   2.368   4.082  14.801  0.4487 -0.5535 -1.0791
 9295SOL     OW39517   4.569   2.692  16.917  0.1683  0.2359 -0.1133
 9295SOL    HW139518   4.572   2.783  16.946  2.0644 -0.2228  1.0963
 9295SOL    HW239519   4.491   2.667  16.966 -1.0955  1.8041 -1.3135
 9296SOL     OW39520   3.279   2.950   2.790 -0.0727  0.0039  0.5461
 9296SOL    HW139521   3.323   2.952   2.875 -1.4287 -2.1625  1.3045
 9296SOL    HW239522   3.346   2.999   2.743  0.2064  1.5112  2.5724
 9297SOL     OW39523   1.602   2.274   9.094 -0.1047 -0.3147  0.5698
 9297SOL    HW139524   1.632   2.352   9.047 -0.1641 -1.2376 -0.9875
 9297SOL    HW239525   1.621   2.299   9.185  1.2004  1.0805 -0.0890
 9298SOL     OW39526   4.509   2.914  16.536  0.3693 -0.3692 -0.0230
 9298SOL    HW139527   4.512   2.827  16.575  0.5103  0.4224  1.7224
 9298SOL    HW239528   4.525   2.897  16.443  2.0446 -0.5382  0.3043
 9299SOL     OW39529   1.463   1.046   1.076  0.0099 -0.2200  0.2703
 9299SOL    HW139530   1.554   1.069   1.058 -0.3086 -0.9694 -2.2640
 9299SOL    HW239531   1.417   1.022   0.996  0.2732  0.7588 -0.1760
 9300SOL     OW39532   4.659   3.204   4.183 -0.4560  0.2863  0.0564
 9300SOL    HW139533   4.627   3.132   4.237 -1.7593  1.6070  1.0414
 9300SOL    HW239534   4.583   3.260   4.168 -0.5227  0.7861  2.2922
 9301SOL     OW39535   1.580   0.025   5.475 -0.8650 -0.4318  0.2618
 9301SOL    HW139536   1.638   0.056   5.545 -0.1729  0.1550 -0.5645
 9301SOL    HW239537   1.568   0.104   5.422 -2.0903 -0.7486  0.0830
 9302SOL     OW39538   2.773   0.564   3.151 -0.1581  0.4247  0.0760
 9302SOL    HW139539   2.806   0.634   3.207  1.0049 -0.7041  0.7899
 9302SOL    HW239540   2.757   0.489   3.208 -1.8528  0.6030 -0.1557
 9303SOL     OW39541   3.158   2.604   8.019  0.5530 -0.6435 -0.0228
 9303SOL    HW139542   3.116   2.680   7.979  1.0936  0.4595  1.4796
 9303SOL    HW239543   3.154   2.551   7.939 -0.3312 -1.2337  0.4186
 9304SOL     OW39544   1.592   2.318   6.813  0.3474  0.0929  0.3579
 9304SOL    HW139545   1.640   2.260   6.754  1.6949 -0.4073  1.9523
 9304SOL    HW239546   1.624   2.291   6.899 -0.5019 -1.2171  0.2620
 9305SOL     OW39547   4.205   1.444   7.921 -0.0949 -0.5819  0.9254
 9305SOL    HW139548   4.233   1.480   7.836 -0.8660  0.6150  1.1714
 9305SOL    HW239549   4.254   1.364   7.938 -1.0678 -1.2179  0.7186
 9306SOL     OW39550   1.714   2.125   2.576  0.3898  0.0507  0.3028
 9306SOL    HW139551   1.763   2.043   2.564  1.0925  0.4410  0.4857
 9306SOL    HW239552   1.683   2.123   2.667 -0.1258 -0.7730  0.1096
 9307SOL     OW39553   3.231   4.567   6.337 -0.1259 -0.3666 -0.1047
 9307SOL    HW139554   3.216   4.649   6.290  3.4728  0.8742  0.9642
 9307SOL    HW239555   3.320   4.582   6.369  0.3959 -1.8070 -0.8982
 9308SOL     OW39556   3.799   4.447  17.504 -0.1932  0.5659 -0.2102
 9308SOL    HW139557   3.884   4.427  17.465  0.2079  1.2143  0.3281
 9308SOL    HW239558   3.817   4.522  17.561  1.4479  1.0771 -1.4183
 9309SOL     OW39559   2.511   3.869   1.086 -0.3742  0.4752 -0.3069
 9309SOL    HW139560   2.486   3.959   1.105  2.9405  1.7914 -2.1061
 9309SOL    HW239561   2.538   3.836   1.172 -1.1597 -1.1825 -0.6866
 9310SOL     OW39562   3.168   0.828  11.999  0.0736 -0.8496 -0.4903
 9310SOL    HW139563   3.208   0.844  12.085  1.5120  0.0754 -1.3366
 9310SOL    HW239564   3.095   0.888  11.985 -0.5901 -2.0729 -2.2058
 9311SOL     OW39565   0.596   3.565   2.787 -0.4870 -0.4367  0.1777
 9311SOL    HW139566   0.666   3.590   2.848 -0.2960 -0.1015 -0.1766
 9311SOL    HW239567   0.610   3.472   2.800 -1.3901 -0.3871  1.4910
 9312SOL     OW39568   3.863   1.037   8.640  0.1393 -0.0570  0.6006
 9312SOL    HW139569   3.805   1.082   8.701 -0.3389 -0.1970  0.2520
 9312SOL    HW239570   3.903   1.110   8.594 -0.4505 -1.2905 -1.8771
 9313SOL     OW39571   3.067   4.382   6.411  0.1145  0.3832 -0.1501
 9313SOL    HW139572   2.996   4.422   6.360  2.8723  3.7082 -1.3864
 9313SOL    HW239573   3.132   4.450   6.394  3.4771 -2.5615  1.0734
 9314SOL     OW39574   2.562   2.374  12.902 -0.2737  0.3421 -0.1763
 9314SOL    HW139575   2.578   2.390  12.995 -3.2159  1.4510  0.1270
 9314SOL    HW239576   2.474   2.402  12.878 -0.6897 -0.9247 -0.1577
 9315SOL     OW39577   2.826   2.540   6.175  0.0921  0.1274 -0.1523
 9315SOL    HW139578   2.790   2.618   6.216 -2.3173 -0.2418 -1.6007
 9315SOL    HW239579   2.756   2.500   6.124 -0.5695 -0.3090  1.1029
 9316SOL     OW39580   4.429   3.515  16.507 -0.7315 -0.1099 -0.2248
 9316SOL    HW139581   4.470   3.600  16.521  0.8448 -0.3707 -3.1348
 9316SOL    HW239582   4.348   3.524  16.457  0.1973  0.5725 -1.6329
 9317SOL     OW39583   0.225   0.433  17.426 -0.3226 -0.2596  0.0082
 9317SOL    HW139584   0.282   0.398  17.494  0.7300  2.4945  0.5134
 9317SOL    HW239585   0.241   0.527  17.433 -0.5861 -0.1382 -0.9968
 9318SOL     OW39586   0.673   2.217   5.629  0.0043  0.6047  0.0576
 9318SOL    HW139587   0.712   2.288   5.680  1.3523  0.5477 -0.9010
 9318SOL    HW239588   0.598   2.185   5.678 -0.1109 -0.0387 -0.5375
 9319SOL     OW39589   1.522   0.838   6.571  0.0888 -0.4709 -0.4013
 9319SOL    HW139590   1.563   0.754   6.592 -1.6501 -1.1485  0.3213
 9319SOL    HW239591   1.475   0.821   6.489 -0.0011 -0.4845 -0.3477
 9320SOL     OW39592   4.023   0.561   1.071  0.1571  0.0472 -0.3516
 9320SOL    HW139593   4.092   0.577   1.007  0.4150 -0.4013 -0.1897
 9320SOL    HW239594   3.957   0.510   1.023  1.1966 -2.7728  1.2037
 9321SOL     OW39595   1.419   2.299   7.750 -0.1068  0.0843 -0.4030
 9321SOL    HW139596   1.486   2.366   7.762 -0.7842  0.4178  1.4945
 9321SOL    HW239597   1.427   2.268   7.660 -1.7941  0.0922 -0.5436
 9322SOL     OW39598   0.648   3.397   5.952  0.1932  0.2599 -0.4372
 9322SOL    HW139599   0.595   3.448   6.013  0.2881 -1.4888  1.0891
 9322SOL    HW239600   0.709   3.467   5.927  1.1283  0.2881  1.9368
 9323SOL     OW39601   4.146   3.153   3.430 -0.3993  0.3425  0.0768
 9323SOL    HW139602   4.161   3.139   3.337  2.5636 -0.3765  0.6659
 9323SOL    HW239603   4.185   3.240   3.441 -1.2137  0.4259  2.3999
 9324SOL     OW39604   4.445   2.237   1.171  0.0447 -0.0147  0.4774
 9324SOL    HW139605   4.448   2.329   1.142 -0.0915 -0.1529  0.0313
 9324SOL    HW239606   4.363   2.226   1.219 -0.4835  2.3376  0.1152
 9325SOL     OW39607   3.027   3.019  13.531 -0.1577  0.6214 -0.0448
 9325SOL    HW139608   3.116   2.994  13.505 -0.0836  2.6135 -1.7717
 9325SOL    HW239609   3.011   3.096  13.477 -1.5352 -0.6479 -1.4372
 9326SOL     OW39610   4.526   1.179   8.304  0.0284  0.1465 -0.5635
 9326SOL    HW139611   4.462   1.112   8.328  1.2827 -0.8120  0.1490
 9326SOL    HW239612   4.574   1.173   8.387 -1.6203  3.1963  0.6065
 9327SOL     OW39613   3.266   4.665  10.030  0.1194  0.4971 -0.0136
 9327SOL    HW139614   3.318   4.712   9.965  0.8511 -1.4000 -0.7964
 9327SOL    HW239615   3.297   4.709  10.108  0.1040 -0.9563  0.8057
 9328SOL     OW39616   0.742   3.111   6.956  0.4082 -0.8171 -0.0536
 9328SOL    HW139617   0.750   3.018   6.936  0.3227 -0.7940 -0.1908
 9328SOL    HW239618   0.752   3.157   6.872  0.3101 -1.7683 -0.5860
 9329SOL     OW39619   4.191   2.328  11.013  0.3488 -0.1474  0.5052
 9329SOL    HW139620   4.136   2.401  11.042 -0.6707  1.1031 -4.5339
 9329SOL    HW239621   4.161   2.254  11.065 -2.6086  2.6100  2.7454
 9330SOL     OW39622   4.445   0.436   9.419 -0.3690 -0.3087  0.1077
 9330SOL    HW139623   4.421   0.479   9.337  1.5290  0.0143 -0.2692
 9330SOL    HW239624   4.518   0.489   9.452 -1.1376  1.4242 -0.9447
 9331SOL     OW39625   1.280   3.787   6.151  0.2805 -0.0432  0.2877
 9331SOL    HW139626   1.214   3.857   6.156  0.1062 -0.2737  1.1769
 9331SOL    HW239627   1.298   3.791   6.057 -0.5758 -1.4246  0.0537
 9332SOL     OW39628   2.469   0.795   3.955  0.0007 -0.0912  0.1508
 9332SOL    HW139629   2.375   0.780   3.956  0.0018 -0.0737  0.7076
 9332SOL    HW239630   2.486   0.842   3.874  0.0820 -0.3467  0.0203
 9333SOL     OW39631   3.855   3.541  12.310  0.4517  0.0129 -0.0664
 9333SOL    HW139632   3.792   3.595  12.358  3.1643  2.3816  0.8005
 9333SOL    HW239633   3.898   3.607  12.257 -0.4866  0.5467 -0.1562
 9334SOL     OW39634   0.410   1.626   1.853 -0.3461  0.3698 -0.0268
 9334SOL    HW139635   0.375   1.540   1.831  1.8887 -0.4289 -0.3865
 9334SOL    HW239636   0.343   1.659   1.913 -0.9262  1.1775 -1.1125
 9335SOL     OW39637   0.548   4.022   7.408  0.5494  0.2485 -0.2812
 9335SOL    HW139638   0.624   4.032   7.466  0.5870 -0.6377 -0.1708
 9335SOL    HW239639   0.478   4.048   7.469  0.7422  1.0980 -0.4362
 9336SOL     OW39640   2.131   4.576   6.518 -0.0734 -0.4522 -0.2004
 9336SOL    HW139641   2.054   4.577   6.460  0.9002 -1.7846 -1.5216
 9336SOL    HW239642   2.119   4.499   6.573 -1.3110 -0.8461 -0.9929
 9337SOL     OW39643   1.333   0.333   8.373  0.5123 -0.2610 -0.1477
 9337SOL    HW139644   1.309   0.420   8.341  3.1065  0.5845  0.1889
 9337SOL    HW239645   1.265   0.279   8.334  0.4580 -2.3097  2.7377
 9338SOL     OW39646   1.190   4.528   8.850  0.1572  0.3658  0.0174
 9338SOL    HW139647   1.146   4.553   8.932  0.4400  0.8615  0.0186
 9338SOL    HW239648   1.255   4.472   8.893 -0.4424 -1.2113 -1.1227
 9339SOL     OW39649   3.781   2.602  15.061  0.4642  0.2204 -0.0959
 9339SOL    HW139650   3.788   2.510  15.087  0.3577  0.1990 -0.1460
 9339SOL    HW239651   3.746   2.595  14.972  0.8041 -0.8393 -0.1436
 9340SOL     OW39652   4.127   1.155  12.367 -0.3532 -0.5619  0.1962
 9340SOL    HW139653   4.187   1.203  12.424  1.0119 -0.9723 -0.8871
 9340SOL    HW239654   4.140   1.205  12.286 -2.7299  0.5833  0.5242
 9341SOL     OW39655   0.385   3.544   4.090 -0.0256 -0.6141  0.3193
 9341SOL    HW139656   0.453   3.598   4.130 -1.3179  0.9130  0.4268
 9341SOL    HW239657   0.440   3.479   4.045  0.1070 -0.1609 -0.1769
 9342SOL     OW39658   2.429   3.677  10.248  0.1176 -0.3647 -0.7674
 9342SOL    HW139659   2.436   3.598  10.195  1.6042 -1.3838  0.9841
 9342SOL    HW239660   2.340   3.669  10.281  0.0342  0.6929 -0.7257
 9343SOL     OW39661   1.259   2.725   5.643  0.0250 -0.2500  0.3422
 9343SOL    HW139662   1.173   2.766   5.643  0.3560  0.4308  0.1145
 9343SOL    HW239663   1.271   2.689   5.555  2.0392  0.1692  0.4456
 9344SOL     OW39664   2.145   2.564  16.773 -0.4242 -0.3259  0.0430
 9344SOL    HW139665   2.052   2.572  16.750 -0.6163 -2.5447  0.0334
 9344SOL    HW239666   2.181   2.547  16.686 -0.1034 -1.0501  0.3200
 9345SOL     OW39667   3.893   0.446   5.912  0.0904 -0.2384  0.1443
 9345SOL    HW139668   3.909   0.481   5.999 -2.4360  1.1879  0.0285
 9345SOL    HW239669   3.898   0.351   5.922  2.7822 -0.1712 -0.6020
 9346SOL     OW39670   3.076   1.870   4.619  0.6036 -0.0146  0.7273
 9346SOL    HW139671   2.985   1.858   4.647 -0.0835  1.1738 -1.0128
 9346SOL    HW239672   3.076   1.858   4.524 -2.7612  1.6195  0.5231
 9347SOL     OW39673   3.388   1.874   2.186  0.1647  0.5587 -0.4194
 9347SOL    HW139674   3.364   1.787   2.152  1.6999  0.0795 -0.2645
 9347SOL    HW239675   3.472   1.868   2.230  0.3911  1.9748 -0.6483
 9348SOL     OW39676   2.297   0.101   3.716 -0.3122 -0.4120 -0.3576
 9348SOL    HW139677   2.354   0.134   3.647 -2.8955 -0.4926 -2.5301
 9348SOL    HW239678   2.310   0.167   3.784 -1.9778  1.9505 -2.3329
 9349SOL     OW39679   1.651   4.175   5.038 -0.2127 -0.0984 -0.0318
 9349SOL    HW139680   1.617   4.248   4.986  0.3793  0.7581  0.7864
 9349SOL    HW239681   1.658   4.104   4.975 -1.4815 -3.9988  4.2394
 9350SOL     OW39682   0.403   3.006   2.854 -0.3769 -0.3726  0.2291
 9350SOL    HW139683   0.474   3.053   2.897  1.3945 -2.7799 -0.0564
 9350SOL    HW239684   0.423   2.912   2.854  1.1863 -0.0443 -0.6577
 9351SOL     OW39685   4.167   2.672   3.636  0.4086 -0.1329 -0.1449
 9351SOL    HW139686   4.137   2.748   3.585  2.4371  0.2097 -0.8423
 9351SOL    HW239687   4.123   2.602   3.589 -0.5792 -0.5441  1.4117
 9352SOL     OW39688   3.947   2.135  11.807  0.6028  0.2344 -0.2533
 9352SOL    HW139689   3.859   2.173  11.814  0.0367 -0.9105 -1.2890
 9352SOL    HW239690   3.958   2.107  11.898 -0.3776  1.0602  0.1186
 9353SOL     OW39691   3.414   0.744   0.425 -0.2793 -0.0847 -0.2082
 9353SOL    HW139692   3.414   0.678   0.495  0.2858 -0.6798 -0.7748
 9353SOL    HW239693   3.394   0.692   0.348 -1.7325  1.2489 -0.7393
 9354SOL     OW39694   0.608   3.708   8.823  0.3637  0.6420  0.2625
 9354SOL    HW139695   0.584   3.615   8.828  2.7612  0.1112  2.0514
 9354SOL    HW239696   0.689   3.704   8.772 -0.8393 -0.4332 -1.5618
 9355SOL     OW39697   1.631   4.601  10.560  0.3039 -0.6903  0.1126
 9355SOL    HW139698   1.671   4.670  10.613 -1.1439  0.2351  0.0061
 9355SOL    HW239699   1.689   4.600  10.484  0.9274  1.8787  0.5372
 9356SOL     OW39700   0.368   1.906   5.356  0.5309 -0.3011  0.1763
 9356SOL    HW139701   0.283   1.867   5.335 -0.3936  0.5196  2.4320
 9356SOL    HW239702   0.409   1.847   5.420  0.9389 -2.5247 -2.1103
 9357SOL     OW39703   4.510   4.296   7.905  0.0043  0.2253  0.4152
 9357SOL    HW139704   4.529   4.218   7.957  0.7944  0.1286 -0.0218
 9357SOL    HW239705   4.418   4.291   7.878  0.9979 -2.1109 -2.5477
 9358SOL     OW39706   2.514   1.687  14.761 -0.3155  0.5877  1.0140
 9358SOL    HW139707   2.460   1.610  14.780  1.2240 -0.7824 -0.1714
 9358SOL    HW239708   2.571   1.641  14.699  1.2529 -0.4800  3.2399
 9359SOL     OW39709   0.790   3.655   9.078  0.7529 -0.7814 -0.4450
 9359SOL    HW139710   0.769   3.627   8.989  0.0668 -1.4173 -0.0805
 9359SOL    HW239711   0.780   3.750   9.076 -0.7666 -0.8716  2.5970
 9360SOL     OW39712   1.479   0.031   5.930  0.5248  0.4422  0.3254
 9360SOL    HW139713   1.419   0.066   5.995 -0.5973 -3.0560  1.2173
 9360SOL    HW239714   1.435   4.689   5.898  0.8872  0.1496  0.5452
 9361SOL     OW39715   3.374   3.292   7.561  0.0482  0.2009 -0.3412
 9361SOL    HW139716   3.419   3.376   7.563 -1.7136  1.1269  0.2675
 9361SOL    HW239717   3.360   3.280   7.655 -2.1384 -1.4646 -0.8711
 9362SOL     OW39718   4.389   0.728   4.500  0.7849 -0.7223 -0.2584
 9362SOL    HW139719   4.375   0.687   4.585  0.5174 -1.1758 -0.5195
 9362SOL    HW239720   4.422   0.653   4.451  0.4323  0.0443 -1.6815
 9363SOL     OW39721   3.020   1.536   6.262  0.4221  0.3201  0.1386
 9363SOL    HW139722   3.030   1.624   6.299  0.0060 -0.4739  2.1496
 9363SOL    HW239723   2.975   1.557   6.180 -2.7504  0.0673  1.8250
 9364SOL     OW39724   3.087   4.635   7.330  0.3629  0.2419 -0.2619
 9364SOL    HW139725   3.172   4.627   7.374  0.5743  0.6660 -0.5870
 9364SOL    HW239726   3.098   4.728   7.309  1.9036 -0.0138 -0.5956
 9365SOL     OW39727   1.858   4.631   5.824 -0.4434 -0.2022 -0.3158
 9365SOL    HW139728   1.846   4.549   5.776  0.4194 -0.6254  0.1922
 9365SOL    HW239729   1.788   4.684   5.788  0.0834  0.7723  0.1026
 9366SOL     OW39730   2.550   1.477  12.165 -0.0967  0.2792 -0.0656
 9366SOL    HW139731   2.500   1.506  12.089 -0.9124  0.1209  0.4088
 9366SOL    HW239732   2.610   1.550  12.182  1.0990 -1.5687  3.6403
 9367SOL     OW39733   2.062   1.456   4.259  0.0906 -0.9774  0.0516
 9367SOL    HW139734   2.139   1.502   4.228 -0.1847 -0.7632 -0.3231
 9367SOL    HW239735   2.022   1.424   4.178  0.6063  0.4457 -0.7539
 9368SOL     OW39736   2.440   2.754   4.339  0.1188 -0.0043  0.1927
 9368SOL    HW139737   2.431   2.731   4.431 -0.5634 -0.1449  0.0892
 9368SOL    HW239738   2.465   2.669   4.303 -2.0862 -1.6867  2.6645
 9369SOL     OW39739   2.007   4.028  17.326  0.4899  0.5376  0.3329
 9369SOL    HW139740   2.058   3.948  17.335  0.0528  0.2010 -0.1912
 9369SOL    HW239741   2.090   4.069  17.303  1.8891 -0.6166  3.3664
 9370SOL     OW39742   4.108   2.385   2.618 -0.1675 -0.2162  0.4626
 9370SOL    HW139743   4.068   2.299   2.620  0.3441 -0.4487  0.7265
 9370SOL    HW239744   4.112   2.399   2.523  1.1261 -1.5849  0.3224
 9371SOL     OW39745   3.423   2.887   4.377  0.1897  0.3769  0.1530
 9371SOL    HW139746   3.404   2.891   4.283  0.1764 -2.4136  0.0455
 9371SOL    HW239747   3.417   2.792   4.379  2.0700  0.2064 -2.1127
 9372SOL     OW39748   2.137   2.384   1.542 -0.0126  0.2127  0.1031
 9372SOL    HW139749   2.200   2.351   1.478 -1.6365 -1.0560 -0.8306
 9372SOL    HW239750   2.125   2.475   1.513 -0.9851 -0.3564 -1.3124
 9373SOL     OW39751   3.079   0.814   1.204 -0.0575 -0.0780 -0.1563
 9373SOL    HW139752   3.115   0.725   1.200 -0.1967 -0.1446  0.1196
 9373SOL    HW239753   2.993   0.805   1.243 -0.3105  0.8340 -0.5025
 9374SOL     OW39754   4.000   2.238   3.472  0.1426 -0.2309  1.0432
 9374SOL    HW139755   4.056   2.198   3.539 -1.6137 -3.0440  0.8480
 9374SOL    HW239756   3.995   2.166   3.410  2.4237 -0.6047  1.3061
 9375SOL     OW39757   0.616   3.125   9.064 -0.2921 -0.1046  0.0169
 9375SOL    HW139758   0.686   3.124   8.998 -0.7423 -0.0825 -0.4589
 9375SOL    HW239759   0.673   3.155   9.135 -0.7709  0.4706  0.1616
 9376SOL     OW39760   2.959   2.574  14.197  0.6216  0.6931 -0.0988
 9376SOL    HW139761   2.952   2.626  14.118  0.8412 -0.7894 -1.0961
 9376SOL    HW239762   2.897   2.627  14.248 -1.1463 -1.6714  0.2471
 9377SOL     OW39763   4.235   0.393   6.661  0.6687  0.2896 -0.2281
 9377SOL    HW139764   4.153   0.438   6.677  0.2537 -0.2541 -0.8037
 9377SOL    HW239765   4.193   0.311   6.636 -1.3645  1.5624 -0.9608
 9378SOL     OW39766   2.478   2.936   2.234 -0.1571 -0.1697  0.0779
 9378SOL    HW139767   2.398   2.985   2.217  0.2248  1.3856  2.9763
 9378SOL    HW239768   2.529   2.959   2.156 -0.3875  1.3233  0.3813
 9379SOL     OW39769   1.107   3.290   7.003 -0.5534  0.5529  0.4630
 9379SOL    HW139770   1.038   3.224   6.999 -1.1738  1.3167 -1.6114
 9379SOL    HW239771   1.184   3.251   6.961 -0.7621 -0.0177  0.6076
 9380SOL     OW39772   2.217   2.602  14.359 -0.4060  0.3464 -0.1327
 9380SOL    HW139773   2.154   2.638  14.298 -1.3962 -0.4612  0.4141
 9380SOL    HW239774   2.303   2.628  14.324  0.1510  0.1418  1.0822
 9381SOL     OW39775   1.505   3.562   2.550 -0.0666 -0.4826  0.4108
 9381SOL    HW139776   1.529   3.538   2.640 -0.6847 -0.3458  0.6088
 9381SOL    HW239777   1.520   3.656   2.558  0.3057 -0.4111 -1.0770
 9382SOL     OW39778   3.967   2.585   7.124  0.5675  0.2554  0.1842
 9382SOL    HW139779   3.894   2.616   7.178 -1.7687 -3.8537 -0.6119
 9382SOL    HW239780   4.044   2.595   7.180  2.2705 -0.8012 -1.9593
 9383SOL     OW39781   1.429   1.744   8.745  0.3845 -0.0566  0.1938
 9383SOL    HW139782   1.433   1.665   8.800 -2.2583 -1.5006 -1.6649
 9383SOL    HW239783   1.334   1.756   8.733  0.3982 -0.4769 -0.3251
 9384SOL     OW39784   1.802   0.101   1.160  0.2675 -0.3932 -0.2201
 9384SOL    HW139785   1.715   0.136   1.142 -0.5141 -1.6627  1.1354
 9384SOL    HW239786   1.795   0.036   1.090 -0.1502  0.4241 -0.9435
 9385SOL     OW39787   0.657   0.371   8.014  0.1001 -0.5730  0.0935
 9385SOL    HW139788   0.646   0.455   8.060 -0.1820  1.0801 -3.0026
 9385SOL    HW239789   0.731   0.392   7.956 -0.3747 -2.2163 -1.0946
 9386SOL     OW39790   1.688   2.364   9.346 -0.1630 -0.1877 -0.3893
 9386SOL    HW139791   1.679   2.456   9.370  0.2571  0.1844 -1.6514
 9386SOL    HW239792   1.741   2.332   9.419  0.1794  0.6566 -0.2676
 9387SOL     OW39793   1.298   3.209   0.979  0.1519  0.1007  0.2104
 9387SOL    HW139794   1.262   3.246   1.059 -0.0579 -1.1252  0.6849
 9387SOL    HW239795   1.387   3.244   0.979  0.1939 -0.0064 -0.2740
 9388SOL     OW39796   3.103   2.174  12.091 -0.2182  0.3527 -0.5056
 9388SOL    HW139797   3.165   2.208  12.026  0.7313 -2.2939 -0.9892
 9388SOL    HW239798   3.089   2.249  12.149 -2.2406 -0.8729  0.5624
 9389SOL     OW39799   3.681   1.777   4.696  0.0451 -0.4128 -0.2926
 9389SOL    HW139800   3.776   1.765   4.697  0.0957  0.0571  0.6010
 9389SOL    HW239801   3.679   1.688   4.661 -0.2975 -0.6567  0.3512
 9390SOL     OW39802   1.639   2.107   2.825  0.4457 -0.2983  0.0803
 9390SOL    HW139803   1.547   2.083   2.825  0.4718 -0.4156 -0.4469
 9390SOL    HW239804   1.664   2.079   2.913  2.6329 -2.1982 -1.1528
 9391SOL     OW39805   2.220   2.883   8.288  0.0702 -0.1285 -0.0794
 9391SOL    HW139806   2.263   2.964   8.263  3.5057 -1.2809  2.1735
 9391SOL    HW239807   2.263   2.858   8.370  1.9774 -1.1753 -1.4206
 9392SOL     OW39808   3.584   1.901   4.350  0.2090  0.8593  0.1227
 9392SOL    HW139809   3.588   1.848   4.270  0.6774  0.6344  0.2991
 9392SOL    HW239810   3.678   1.913   4.365 -0.0400  2.2815  0.5872
 9393SOL     OW39811   0.473   4.658   4.505 -0.3858 -0.6494 -0.1046
 9393SOL    HW139812   0.463   0.011   4.476 -2.5338 -0.2813  1.7270
 9393SOL    HW239813   0.535   4.672   4.577  1.1621  0.1769 -1.6237
 9394SOL     OW39814   3.865   0.954   2.793 -0.1445 -0.1398 -0.3291
 9394SOL    HW139815   3.880   0.893   2.721  0.7587 -1.1421  0.7122
 9394SOL    HW239816   3.810   1.022   2.753 -0.5785 -1.5121 -2.0384
 9395SOL     OW39817   1.254   3.508  15.878  0.2109 -0.8317 -0.1096
 9395SOL    HW139818   1.179   3.459  15.913 -0.9373  1.0884  0.0804
 9395SOL    HW239819   1.322   3.481  15.940  0.6267 -0.5032 -0.4244
 9396SOL     OW39820   0.148   1.175  15.467 -0.0378  0.3847 -0.3659
 9396SOL    HW139821   0.163   1.214  15.553  0.0540 -0.7291  0.1191
 9396SOL    HW239822   0.194   1.243  15.417  0.1532  0.3034 -0.3016
 9397SOL     OW39823   3.663   2.908   3.587  0.0893 -0.2285  0.0134
 9397SOL    HW139824   3.745   2.921   3.538 -0.5861  0.5084 -0.9328
 9397SOL    HW239825   3.699   2.845   3.649 -2.8250 -1.5262  0.3738
 9398SOL     OW39826   1.481   2.554   5.946 -0.1741 -0.0015 -0.1520
 9398SOL    HW139827   1.551   2.555   6.011  0.2407 -1.5160 -0.5855
 9398SOL    HW239828   1.517   2.484   5.891 -1.9090 -0.4493 -0.6972
 9399SOL     OW39829   3.062   3.835   3.252  0.3907  0.0087  0.1919
 9399SOL    HW139830   3.012   3.809   3.329  1.8701  1.3958  1.6400
 9399SOL    HW239831   3.149   3.814   3.286 -0.3991 -2.0943  0.8962
 9400SOL     OW39832   3.679   3.941   3.847 -0.7953 -0.2178  0.2374
 9400SOL    HW139833   3.658   3.875   3.914  0.3082 -0.3175  0.4807
 9400SOL    HW239834   3.619   3.913   3.778  0.3573 -0.6397 -0.5935
 9401SOL     OW39835   0.223   0.056   6.348  0.0485  0.3058  0.5735
 9401SOL    HW139836   0.181   0.066   6.262 -0.5039 -3.5890  0.3883
 9401SOL    HW239837   0.155   0.102   6.397 -0.1241  1.0921 -0.3998
 9402SOL     OW39838   4.085   4.532   4.323 -0.4400  0.1561 -0.1547
 9402SOL    HW139839   4.041   4.521   4.407 -1.6407  0.1633 -0.7651
 9402SOL    HW239840   4.022   4.505   4.256  2.1606 -0.9548 -2.1282
 9403SOL     OW39841   1.514   2.001   9.490  0.1457  0.0777  0.9178
 9403SOL    HW139842   1.606   1.995   9.467 -0.4773  0.6845 -1.6634
 9403SOL    HW239843   1.466   1.957   9.420 -0.3338 -0.5745  1.6533
 9404SOL     OW39844   1.199   3.736   5.246 -0.1956  0.0924 -0.1345
 9404SOL    HW139845   1.264   3.795   5.208 -0.7045 -0.4916 -1.9334
 9404SOL    HW239846   1.242   3.654   5.220 -2.9974 -1.6536  0.7313
 9405SOL     OW39847   3.815   3.000   3.329 -0.4184  0.6106 -0.5070
 9405SOL    HW139848   3.760   2.921   3.329 -0.6553  0.7690  0.1327
 9405SOL    HW239849   3.851   2.989   3.241 -0.1040  1.6642 -0.5006
 9406SOL     OW39850   3.318   2.891   4.130  0.2065  0.1742 -0.1889
 9406SOL    HW139851   3.374   2.954   4.085  2.0098 -1.1402  0.2148
 9406SOL    HW239852   3.278   2.830   4.067  1.4675 -1.0086  0.1451
 9407SOL     OW39853   1.049   3.042  11.017 -0.4397  0.1171 -0.2619
 9407SOL    HW139854   1.053   3.049  10.921 -0.4573  3.0708 -0.0502
 9407SOL    HW239855   0.962   3.002  11.024 -0.1003 -1.1275 -3.0610
 9408SOL     OW39856   4.393   0.802  13.690  0.6330  0.2979  0.2652
 9408SOL    HW139857   4.416   0.711  13.671 -1.6865 -0.0545 -0.8289
 9408SOL    HW239858   4.298   0.800  13.700  0.6877  0.3299  0.7678
 9409SOL     OW39859   3.214   4.189  11.007 -0.1164  0.3270 -0.0240
 9409SOL    HW139860   3.263   4.194  11.090 -0.2401 -1.0968  0.1284
 9409SOL    HW239861   3.132   4.145  11.029 -0.2999  0.9520  0.5739
 9410SOL     OW39862   4.542   2.026   5.976 -0.2910  0.0578 -0.0598
 9410SOL    HW139863   4.492   2.010   6.056 -1.0603  2.0404 -0.1572
 9410SOL    HW239864   4.508   1.965   5.911 -1.3077 -1.1670  1.6211
 9411SOL     OW39865   3.808   1.928   8.940 -0.2904  0.6498 -0.4607
 9411SOL    HW139866   3.884   1.935   8.999  0.2685  0.4296 -1.1577
 9411SOL    HW239867   3.757   1.884   9.007  1.7370  0.5335  1.0213
 9412SOL     OW39868   1.297   0.320   4.470 -0.1748  0.4610  0.8488
 9412SOL    HW139869   1.354   0.244   4.483 -0.3513  0.1985  0.1419
 9412SOL    HW239870   1.365   0.387   4.476  0.2015  0.3790 -2.2306
 9413SOL     OW39871   2.859   0.796   5.217  0.8017 -0.4886  0.1085
 9413SOL    HW139872   2.891   0.873   5.169  1.0218 -0.2906  0.5655
 9413SOL    HW239873   2.928   0.736   5.190 -0.5381 -2.2496  0.6303
 9414SOL     OW39874   4.535   3.424   5.676  0.0246  0.0469  0.2007
 9414SOL    HW139875   4.519   3.442   5.584 -0.0876  1.2000  0.4454
 9414SOL    HW239876   4.599   3.493   5.693 -1.5997  1.5020  0.3300
 9415SOL     OW39877   0.097   2.365   8.585  0.3097  0.2119 -0.3614
 9415SOL    HW139878   0.083   2.397   8.674 -1.3181 -1.1147 -0.1445
 9415SOL    HW239879   0.012   2.395   8.553 -0.0587 -1.1816 -0.6654
 9416SOL     OW39880   3.036   1.400  12.795  0.4953 -0.2144 -0.4779
 9416SOL    HW139881   2.955   1.408  12.746 -2.1021  1.4402  4.0992
 9416SOL    HW239882   3.012   1.438  12.879  2.0101  0.2604 -0.2636
 9417SOL     OW39883   4.053   2.189  14.071 -0.3080  0.0812  0.2693
 9417SOL    HW139884   4.111   2.198  13.996 -0.6923 -0.8688 -0.1496
 9417SOL    HW239885   4.085   2.251  14.136  1.9181 -1.1090  0.2958
 9418SOL     OW39886   1.663   0.282   6.044 -0.0376 -0.2127  0.4207
 9418SOL    HW139887   1.652   0.195   6.084  0.7529 -0.4273  0.1655
 9418SOL    HW239888   1.756   0.297   6.060 -0.2377  0.4630  0.9779
 9419SOL     OW39889   3.165   2.989  14.937  0.1545 -0.0799 -0.2831
 9419SOL    HW139890   3.258   2.972  14.953  0.0492 -0.7594 -0.3789
 9419SOL    HW239891   3.153   3.081  14.915 -0.6399 -0.2115 -0.4049
 9420SOL     OW39892   2.599   4.677  11.625 -0.5442  0.3239 -0.6181
 9420SOL    HW139893   2.543   4.615  11.578 -0.0561  0.1558 -0.9738
 9420SOL    HW239894   2.631   4.625  11.699 -2.2926  0.8221  0.4925
 9421SOL     OW39895   0.156   4.019   1.037 -0.1899 -0.0966  0.1761
 9421SOL    HW139896   0.080   3.980   1.079 -0.6630 -0.7144 -1.2573
 9421SOL    HW239897   0.169   4.083   1.107  1.1275 -0.2585  0.0865
 9422SOL     OW39898   0.595   4.238   8.102 -0.1921 -0.2154  0.3180
 9422SOL    HW139899   0.549   4.295   8.042 -0.5700  1.4521  2.2188
 9422SOL    HW239900   0.666   4.208   8.044  0.3980  0.1317  0.8559
 9423SOL     OW39901   3.723   1.293  10.127 -0.4448  0.9284 -0.1458
 9423SOL    HW139902   3.709   1.245  10.045  1.8880  0.3733 -0.2210
 9423SOL    HW239903   3.722   1.228  10.198  1.1494 -0.4220 -1.3334
 9424SOL     OW39904   3.252   3.406   0.973 -0.4256 -0.1067  0.3303
 9424SOL    HW139905   3.178   3.459   1.002 -0.0359 -0.2086  1.5125
 9424SOL    HW239906   3.235   3.327   1.024 -2.1100  0.5665  0.8129
 9425SOL     OW39907   3.083   2.003  16.239  0.0477 -0.0644 -1.1493
 9425SOL    HW139908   3.046   1.996  16.151 -0.0790 -0.6078 -1.0570
 9425SOL    HW239909   3.016   1.953  16.287 -0.6260  0.2612 -1.7421
 9426SOL     OW39910   3.051   0.888  10.656 -1.5607 -0.2547 -0.2176
 9426SOL    HW139911   3.143   0.911  10.662 -1.6886  0.4057 -0.7566
 9426SOL    HW239912   3.042   0.823  10.586  1.0520 -3.6964  2.6901
 9427SOL     OW39913   3.786   2.166   9.361  0.1476  0.6959  0.7817
 9427SOL    HW139914   3.711   2.125   9.404 -1.2941  2.0991 -0.4099
 9427SOL    HW239915   3.778   2.259   9.383 -0.3082  0.8275  0.0660
 9428SOL     OW39916   0.152   1.313   4.224 -0.9394 -0.1923 -0.0931
 9428SOL    HW139917   0.245   1.332   4.219 -1.3946  1.4817 -2.0981
 9428SOL    HW239918   0.159   1.218   4.240  1.5442  0.0270  0.1443
 9429SOL     OW39919   2.079   0.088   5.846 -0.6149  0.2431  0.2619
 9429SOL    HW139920   2.160   0.038   5.852 -1.4277 -1.1190 -0.0674
 9429SOL    HW239921   2.016   0.017   5.861  0.1998 -0.7376 -0.9986
 9430SOL     OW39922   0.239   4.389   3.141 -0.8560 -0.0527 -0.3411
 9430SOL    HW139923   0.193   4.308   3.165  2.1587 -2.0185 -1.1350
 9430SOL    HW239924   0.189   4.450   3.195 -1.8110 -0.9030 -0.2689
 9431SOL     OW39925   4.614   2.289   3.152  0.0014  0.5978 -0.4116
 9431SOL    HW139926   4.700   2.256   3.175  0.7157  1.1379 -2.3301
 9431SOL    HW239927   4.583   2.256   3.068 -2.6456 -1.2271  1.2670
 9432SOL     OW39928   2.745   2.103   7.659 -0.7405  0.5910  0.3915
 9432SOL    HW139929   2.795   2.182   7.679  1.7276 -0.6921 -0.6743
 9432SOL    HW239930   2.774   2.036   7.721 -2.2362 -1.2429 -0.8899
 9433SOL     OW39931   2.533   1.928   2.877 -0.2990 -0.1185 -0.4259
 9433SOL    HW139932   2.505   2.009   2.919  1.9356 -0.4125  1.6274
 9433SOL    HW239933   2.476   1.934   2.800 -0.0298 -1.1392 -0.7084
 9434SOL     OW39934   1.572   3.001   3.734 -0.1175  0.2099  0.4799
 9434SOL    HW139935   1.600   2.964   3.650  0.0408  0.0413  0.6085
 9434SOL    HW239936   1.478   3.006   3.715 -0.1341 -0.6482  0.3363
 9435SOL     OW39937   1.267   2.689  13.449 -0.2926  0.4098 -0.5843
 9435SOL    HW139938   1.190   2.706  13.504 -1.0700 -2.1956 -0.8668
 9435SOL    HW239939   1.230   2.652  13.369 -1.3647  0.1483  0.0223
 9436SOL     OW39940   0.961   4.244  15.900 -0.4019 -0.1514 -0.7616
 9436SOL    HW139941   1.056   4.243  15.906 -0.4294 -0.1743 -0.3372
 9436SOL    HW239942   0.934   4.335  15.886 -0.9500 -0.1176  0.5047
 9437SOL     OW39943   3.249   0.506  16.065  0.2589  0.2901 -0.0515
 9437SOL    HW139944   3.247   0.538  15.974  0.3735  0.2161 -0.0811
 9437SOL    HW239945   3.207   0.580  16.109 -0.5354  1.0229 -2.0185
 9438SOL     OW39946   2.681   3.197  10.153  0.0568 -0.0859  0.5181
 9438SOL    HW139947   2.662   3.138  10.081  0.2562  2.1288 -1.3654
 9438SOL    HW239948   2.654   3.146  10.229 -0.7008  1.3375  1.2067
 9439SOL     OW39949   2.839   1.974  12.632 -0.5261 -0.1214 -0.5508
 9439SOL    HW139950   2.756   1.967  12.586 -0.7147 -1.2754 -0.0164
 9439SOL    HW239951   2.849   1.884  12.662  0.8139  0.5841  1.0961
 9440SOL     OW39952   4.128   1.658   8.080  0.1483  0.4750  0.2098
 9440SOL    HW139953   4.057   1.682   8.020 -0.0234 -1.0322 -0.2083
 9440SOL    HW239954   4.135   1.575   8.032 -1.4392  0.4044  0.0939
 9441SOL     OW39955   1.674   1.623   4.286 -0.6700  0.1575 -0.1869
 9441SOL    HW139956   1.762   1.613   4.322 -0.1340  2.0474 -0.9988
 9441SOL    HW239957   1.638   1.688   4.346 -2.2743 -0.4094 -0.5249
 9442SOL     OW39958   2.001   1.128   0.115  0.0332 -1.2959 -0.3449
 9442SOL    HW139959   2.084   1.169   0.090 -0.7425  0.0461 -0.7371
 9442SOL    HW239960   1.948   1.164   0.044  0.9729 -2.0897 -1.4510
 9443SOL     OW39961   1.986   4.550   2.462  0.8330 -0.4325  0.1545
 9443SOL    HW139962   1.979   4.637   2.423 -0.8418  0.0361  1.4785
 9443SOL    HW239963   1.997   4.491   2.388 -0.8136  0.8228 -1.0886
 9444SOL     OW39964   0.967   2.310   4.750 -0.4478  0.0335  0.1022
 9444SOL    HW139965   0.986   2.316   4.657 -0.2747  1.8782  0.2686
 9444SOL    HW239966   1.020   2.383   4.783 -2.9352  2.4243 -1.2471
 9445SOL     OW39967   4.145   2.763  14.615  0.4181 -0.0774 -0.0355
 9445SOL    HW139968   4.106   2.733  14.697 -0.1165  0.3945 -0.1147
 9445SOL    HW239969   4.205   2.690  14.605 -1.8523 -1.9939  0.1837
 9446SOL     OW39970   3.636   3.234   4.377 -0.0944 -0.1881  0.4115
 9446SOL    HW139971   3.549   3.212   4.344  0.2454 -0.7107 -0.1357
 9446SOL    HW239972   3.647   3.175   4.452  2.4488 -1.3241 -0.8475
 9447SOL     OW39973   2.780   0.149   1.062  0.0143 -0.1726  0.1659
 9447SOL    HW139974   2.690   0.130   1.089  0.0090  0.4485  0.6160
 9447SOL    HW239975   2.776   0.242   1.038  2.1130 -0.3053 -0.7353
 9448SOL     OW39976   2.439   1.668   2.946  0.5007 -0.0228 -0.1009
 9448SOL    HW139977   2.405   1.756   2.960 -2.4212 -1.1915  0.1475
 9448SOL    HW239978   2.455   1.631   3.032  3.3326  0.1988 -0.5360
 9449SOL     OW39979   1.160   0.513  14.028  0.2932 -1.2010  0.2281
 9449SOL    HW139980   1.168   0.508  14.123 -1.8204 -2.3956  0.3385
 9449SOL    HW239981   1.081   0.566  14.021  1.0352 -0.4719 -2.4800
 9450SOL     OW39982   4.079   1.897   5.690 -0.5246  0.1113  0.2059
 9450SOL    HW139983   4.115   1.809   5.683 -1.2210 -0.0284 -1.5602
 9450SOL    HW239984   4.000   1.872   5.642 -0.2319 -0.2971 -0.0692
 9451SOL     OW39985   3.864   0.478  14.505 -0.0586  0.0111  0.3201
 9451SOL    HW139986   3.934   0.503  14.445  1.3383 -1.9636  1.1389
 9451SOL    HW239987   3.846   0.392  14.467  1.0920 -0.5325  1.0143
 9452SOL     OW39988   4.374   2.623   6.070 -0.2728 -0.0303 -0.3050
 9452SOL    HW139989   4.451   2.649   6.019  0.9460 -0.0515  1.4900
 9452SOL    HW239990   4.300   2.651   6.017  1.2608  1.1467 -1.8091
 9453SOL     OW39991   2.822   1.681   8.419  0.0298  0.3209  0.0721
 9453SOL    HW139992   2.745   1.737   8.419 -0.7860 -0.8000 -1.0334
 9453SOL    HW239993   2.796   1.591   8.399  2.0496  0.1756 -1.8974
 9454SOL     OW39994   0.965   2.063  13.435 -0.4485  0.2089  0.0795
 9454SOL    HW139995   0.995   2.048  13.525 -0.8665 -0.7140  0.0556
 9454SOL    HW239996   1.047   2.037  13.392 -1.1902 -0.4471 -0.9125
 9455SOL     OW39997   2.070   3.445   7.366 -0.3603 -0.1175  0.5967
 9455SOL    HW139998   2.032   3.474   7.283 -0.7070 -0.9870  0.4499
 9455SOL    HW239999   2.130   3.377   7.338 -0.9087 -0.4785  0.2902
 9456SOL     OW40000   0.847   0.517  16.674  0.4658  0.3532  0.3148
 9456SOL    HW140001   0.878   0.428  16.685  1.8794  0.5825 -1.7970
 9456SOL    HW240002   0.761   0.499  16.710  0.5557 -0.5112  0.1000
 9457SOL     OW40003   2.453   1.796   9.166  0.2676  0.0919  1.2118
 9457SOL    HW140004   2.406   1.879   9.155 -0.3817 -0.4696 -0.3330
 9457SOL    HW240005   2.405   1.738   9.107  1.1183  0.4272  0.1803
 9458SOL     OW40006   0.621   4.130   1.810 -0.3667  0.0016 -0.4739
 9458SOL    HW140007   0.552   4.158   1.871  1.1741  0.7965  0.8895
 9458SOL    HW240008   0.590   4.040   1.812  1.2318 -0.5698 -2.1549
 9459SOL     OW40009   3.610   2.451  16.259  0.4284  0.0827 -0.6491
 9459SOL    HW140010   3.661   2.516  16.308  0.7163  0.9495 -2.1048
 9459SOL    HW240011   3.599   2.503  16.180  0.1218  0.3657 -0.4196
 9460SOL     OW40012   4.090   4.194  10.587  0.2728 -0.2955 -0.4172
 9460SOL    HW140013   4.067   4.215  10.496  2.7276 -3.0618 -1.6747
 9460SOL    HW240014   4.084   4.281  10.627 -1.8010 -1.1745  1.2022
 9461SOL     OW40015   1.064   2.940   6.256  0.1467  0.0956 -0.4135
 9461SOL    HW140016   1.001   2.936   6.183  0.3931 -0.6150 -0.5858
 9461SOL    HW240017   1.011   2.899   6.324  1.4601 -1.3834 -0.2853
 9462SOL     OW40018   1.379   4.015   5.648 -0.1751  0.4799 -0.2019
 9462SOL    HW140019   1.345   3.926   5.649  0.1151  0.3746  0.0940
 9462SOL    HW240020   1.379   4.031   5.553 -1.0930  0.1140 -0.2658
 9463SOL     OW40021   0.554   1.907   7.644 -0.1644 -0.3468  0.1801
 9463SOL    HW140022   0.512   1.969   7.584  1.5792 -0.0673 -0.7657
 9463SOL    HW240023   0.570   1.963   7.719 -0.7766 -0.5408  0.4592
 9464SOL     OW40024   1.235   2.815   2.687  0.2572  0.0319 -0.2737
 9464SOL    HW140025   1.200   2.887   2.739 -1.2086  0.0574 -1.2854
 9464SOL    HW240026   1.166   2.748   2.679  1.2177 -0.8119 -1.5048
 9465SOL     OW40027   0.224   2.493   8.074  0.7591 -0.7110 -0.1551
 9465SOL    HW140028   0.192   2.539   7.996 -0.6798 -0.1910  0.7300
 9465SOL    HW240029   0.319   2.492   8.066  0.8075  1.0542  0.1336
 9466SOL     OW40030   0.172   4.184  15.036  0.2653  0.6687 -0.3642
 9466SOL    HW140031   0.202   4.100  15.068  0.6358  1.1613  0.5815
 9466SOL    HW240032   0.248   4.204  14.981  1.5098  1.1539  1.5343
 9467SOL     OW40033   0.884   1.682   5.542  0.5384  0.3905  0.1896
 9467SOL    HW140034   0.947   1.612   5.557 -1.3082 -2.1316 -3.8520
 9467SOL    HW240035   0.891   1.732   5.623  1.7973  0.6051 -0.0540
 9468SOL     OW40036   1.809   1.801   7.698  0.4637 -0.5472 -0.2933
 9468SOL    HW140037   1.729   1.850   7.681  1.8478  1.8045 -0.0629
 9468SOL    HW240038   1.837   1.840   7.781 -0.6435  0.7650 -0.5454
 9469SOL     OW40039   0.435   4.172  10.594  0.1008  0.5089 -0.1410
 9469SOL    HW140040   0.451   4.257  10.553 -0.9346  0.7022 -0.1389
 9469SOL    HW240041   0.462   4.115  10.521 -1.5681  0.6645 -0.8814
 9470SOL     OW40042   1.885   1.272   2.432  0.3165 -0.1462  0.3263
 9470SOL    HW140043   1.848   1.204   2.376  0.4775 -0.0577  0.1106
 9470SOL    HW240044   1.874   1.237   2.520 -0.8772 -1.6834 -0.4430
 9471SOL     OW40045   4.679   4.675   3.487  0.0230 -0.6603 -0.2804
 9471SOL    HW140046   4.696   0.030   3.468 -0.1450 -0.6044 -0.1634
 9471SOL    HW240047   4.645   4.691   3.575 -0.0772 -0.8613 -0.2817
 9472SOL     OW40048   0.432   3.788   8.337  0.4942  0.2700 -0.1890
 9472SOL    HW140049   0.453   3.844   8.262  1.3657  1.0629  0.6494
 9472SOL    HW240050   0.352   3.835   8.358 -0.9063 -1.6825 -1.1537
 9473SOL     OW40051   1.856   3.507   7.994 -0.1902  0.2596  0.9698
 9473SOL    HW140052   1.855   3.602   8.010  2.3188  0.5837 -0.9288
 9473SOL    HW240053   1.768   3.495   8.030 -0.7644 -1.3072 -0.9842
 9474SOL     OW40054   0.991   2.057   4.467  0.0380 -0.0359 -0.3157
 9474SOL    HW140055   0.975   2.079   4.375 -0.6176 -2.4195 -0.7795
 9474SOL    HW240056   0.908   2.013   4.486 -0.0650 -0.4176 -1.6156
 9475SOL     OW40057   1.288   1.382   8.050 -0.3711  0.4058  0.1549
 9475SOL    HW140058   1.367   1.368   7.996 -1.9949  0.4310 -2.2478
 9475SOL    HW240059   1.318   1.344   8.132  0.3339  2.8338  1.0392
 9476SOL     OW40060   2.393   3.136   8.512 -0.6551  0.1652 -0.1525
 9476SOL    HW140061   2.334   3.065   8.538 -0.9650  0.1645 -0.8780
 9476SOL    HW240062   2.450   3.139   8.589  0.4939 -0.4852 -0.9738
 9477SOL     OW40063   0.433   0.126   4.296 -0.4352 -0.1204 -0.4137
 9477SOL    HW140064   0.411   0.210   4.336 -2.0298 -0.9865  0.5307
 9477SOL    HW240065   0.525   0.137   4.274 -0.3395  1.3685  0.7647
 9478SOL     OW40066   0.748   0.009  16.026 -0.0536 -1.1021 -0.0473
 9478SOL    HW140067   0.660   0.008  16.064  0.7617  2.8939  1.9298
 9478SOL    HW240068   0.801   0.001  16.104 -2.0588  1.2130  1.5649
 9479SOL     OW40069   3.738   2.708   8.284 -0.3416 -0.2016  0.7954
 9479SOL    HW140070   3.804   2.765   8.245  0.5620 -1.0824  1.0557
 9479SOL    HW240071   3.734   2.637   8.220 -0.8908  0.3211  0.2549
 9480SOL     OW40072   0.034   3.140   8.057  0.4840  0.4994  0.7514
 9480SOL    HW140073   0.129   3.138   8.043 -0.1584 -1.7842 -3.2476
 9480SOL    HW240074   0.006   3.095   7.977 -1.2862  0.9082  1.1366
 9481SOL     OW40075   3.750   3.023   6.403  0.4537  0.2273  0.2356
 9481SOL    HW140076   3.684   2.994   6.465 -0.7471  1.9043 -0.2754
 9481SOL    HW240077   3.818   2.965   6.438  1.2286  1.1647  0.2705
 9482SOL     OW40078   2.737   3.198   4.221 -0.2730 -0.4845 -0.1348
 9482SOL    HW140079   2.659   3.142   4.214 -1.0895  0.6464 -0.0776
 9482SOL    HW240080   2.794   3.144   4.275 -1.0100 -0.1577  0.9540
 9483SOL     OW40081   2.915   2.188   8.524  0.6711 -1.0587  0.7857
 9483SOL    HW140082   2.961   2.116   8.567  1.5510 -0.6810  0.4652
 9483SOL    HW240083   2.985   2.233   8.478  0.2851 -0.8227  0.4309
 9484SOL     OW40084   1.554   3.889   3.313 -0.7206 -0.7563 -0.1155
 9484SOL    HW140085   1.500   3.968   3.308  1.5777  0.8317  0.0992
 9484SOL    HW240086   1.521   3.847   3.393  1.3980 -2.1545  0.0378
 9485SOL     OW40087   2.121   2.624  13.873  0.1840  0.1466 -0.4662
 9485SOL    HW140088   2.066   2.700  13.891  0.2404 -0.0209  0.4098
 9485SOL    HW240089   2.063   2.589  13.804  0.9205 -0.6875 -0.6544
 9486SOL     OW40090   1.006   4.225   6.615  0.3086  0.3894 -0.2611
 9486SOL    HW140091   0.932   4.248   6.559  0.1207 -0.3213 -0.3124
 9486SOL    HW240092   1.071   4.274   6.566  0.2240 -1.3738 -2.1437
 9487SOL     OW40093   3.616   2.851   2.595 -0.5365  0.2503  0.7238
 9487SOL    HW140094   3.661   2.768   2.582 -1.7611  0.0664 -2.4288
 9487SOL    HW240095   3.527   2.832   2.566  0.2087 -1.4309 -0.4575
 9488SOL     OW40096   0.375   1.009   6.957  0.3020 -0.9629  0.2491
 9488SOL    HW140097   0.418   0.945   6.901 -0.9091  0.5471 -2.3765
 9488SOL    HW240098   0.427   1.085   6.931 -0.9084 -0.7717 -1.6396
 9489SOL     OW40099   4.669   2.028  13.484  0.2615  0.1976  0.9037
 9489SOL    HW140100   4.694   2.108  13.530  0.3738 -0.1705  1.4746
 9489SOL    HW240101   4.694   1.952  13.536  1.6296 -0.1745 -0.2705
 9490SOL     OW40102   3.883   2.201   4.381 -0.1453 -0.2036  0.2419
 9490SOL    HW140103   3.907   2.113   4.412  1.8894  0.1899 -0.1799
 9490SOL    HW240104   3.822   2.175   4.312  0.8194 -2.4014  0.2203
 9491SOL     OW40105   0.727   1.731   6.980  0.1111 -0.0843  0.2190
 9491SOL    HW140106   0.709   1.801   6.917 -2.0981 -1.8880 -1.1168
 9491SOL    HW240107   0.822   1.725   6.967 -0.2913  0.9749 -3.1890
 9492SOL     OW40108   1.127   0.138   8.609  0.0833 -0.6646 -0.3224
 9492SOL    HW140109   1.060   0.207   8.611  1.1438  0.3405  0.4699
 9492SOL    HW240110   1.173   0.153   8.692 -0.0486  2.7564 -0.8823
 9493SOL     OW40111   1.294   4.366  11.773 -0.1819 -0.1453  0.6928
 9493SOL    HW140112   1.209   4.323  11.765 -0.1361 -0.3766  1.3997
 9493SOL    HW240113   1.313   4.367  11.867  2.3980  3.3956  0.1091
 9494SOL     OW40114   2.703   0.336  10.006  0.1921 -0.4915 -0.1260
 9494SOL    HW140115   2.649   0.414  10.017  2.3132  0.9620  0.0584
 9494SOL    HW240116   2.682   0.327   9.913  1.7669 -2.2729 -0.3135
 9495SOL     OW40117   1.689   2.028   3.609  0.1676 -0.8939 -0.0779
 9495SOL    HW140118   1.737   2.022   3.526  0.0706  1.4213 -0.3153
 9495SOL    HW240119   1.651   2.116   3.606  1.0422 -0.5189 -0.0575
 9496SOL     OW40120   3.289   1.207   4.938 -0.2954  0.0338 -0.2283
 9496SOL    HW140121   3.363   1.263   4.960  0.2203  0.4079 -2.9121
 9496SOL    HW240122   3.251   1.170   5.018  1.2894  0.5629  0.7686
 9497SOL     OW40123   1.364   3.134  14.753 -0.4571  0.2330 -0.4472
 9497SOL    HW140124   1.454   3.128  14.722  0.1130 -0.0300  1.2393
 9497SOL    HW240125   1.363   3.230  14.747  0.4140  0.2865  0.1441
 9498SOL     OW40126   4.049   2.660  14.868 -0.5589  0.1781  0.3289
 9498SOL    HW140127   4.134   2.620  14.887 -1.2404 -1.5593 -0.2296
 9498SOL    HW240128   4.026   2.681  14.959  2.0982  1.6419  0.6776
 9499SOL     OW40129   1.645   0.287  10.671 -0.1381  1.2438  0.2119
 9499SOL    HW140130   1.707   0.360  10.672  0.5551  0.6738 -0.0708
 9499SOL    HW240131   1.591   0.294  10.749  0.5989 -0.8202  0.9224
 9500SOL     OW40132   4.596   4.447  17.599 -0.4553  0.1448 -0.8131
 9500SOL    HW140133   4.680   4.415  17.566 -0.4439  0.8893 -1.4963
 9500SOL    HW240134   4.548   4.408  17.526 -0.7255  0.2089 -0.6697
 9501SOL     OW40135   2.897   1.844  16.333 -0.1540  0.1302  0.0619
 9501SOL    HW140136   2.803   1.853  16.321  0.1485  2.9623 -0.0961
 9501SOL    HW240137   2.895   1.777  16.401  0.7500 -1.5967 -1.6076
 9502SOL     OW40138   2.367   0.696   7.850 -0.2882 -0.6260 -0.1003
 9502SOL    HW140139   2.323   0.774   7.884 -1.6904 -1.9783  1.1990
 9502SOL    HW240140   2.291   0.663   7.803 -1.5921  0.6406  1.1185
 9503SOL     OW40141   0.426   3.135   3.819  0.5381 -0.5073 -0.1759
 9503SOL    HW140142   0.339   3.175   3.821  1.7561  2.1604 -0.4736
 9503SOL    HW240143   0.424   3.086   3.901 -1.6184 -0.4604 -0.1927
 9504SOL     OW40144   2.809   1.896   4.691  0.6110  0.2294  0.6384
 9504SOL    HW140145   2.761   1.923   4.769 -1.8125  2.2558 -1.5088
 9504SOL    HW240146   2.865   1.973   4.679  0.7982 -0.2344 -1.5594
 9505SOL     OW40147   1.508   4.734  15.652  0.0771 -0.1169  0.1570
 9505SOL    HW140148   1.437   4.674  15.677 -0.2628  1.2716  2.4879
 9505SOL    HW240149   1.455   0.064  15.609 -0.4209 -1.1598 -0.8805
 9506SOL     OW40150   2.956   4.055  12.909 -0.3441 -0.2340  0.1896
 9506SOL    HW140151   2.891   4.039  12.977 -1.2280  0.8695 -0.3900
 9506SOL    HW240152   2.998   4.137  12.932 -2.2291  0.3947  1.3627
 9507SOL     OW40153   0.183   4.098   4.621  0.4421  0.2420  0.0969
 9507SOL    HW140154   0.217   4.146   4.696  1.2560  0.1464 -0.2175
 9507SOL    HW240155   0.238   4.133   4.551 -0.3992  0.2888 -0.5463
 9508SOL     OW40156   0.378   2.185   0.411 -0.6573  0.2619  0.3260
 9508SOL    HW140157   0.381   2.258   0.473  0.4731  0.5373 -0.0657
 9508SOL    HW240158   0.332   2.114   0.455  0.0412 -0.6051 -0.3524
 9509SOL     OW40159   0.633   1.257   3.455  0.0889 -0.0764  0.9999
 9509SOL    HW140160   0.648   1.163   3.448 -2.9890 -0.4335 -0.7825
 9509SOL    HW240161   0.684   1.274   3.534 -0.4945 -1.8038  1.7561
 9510SOL     OW40162   4.005   3.701   9.614 -0.0874 -0.2674 -0.0569
 9510SOL    HW140163   4.101   3.698   9.613 -0.0344  1.3641 -0.3419
 9510SOL    HW240164   3.996   3.692   9.709  1.4131  0.1281  0.1141
 9511SOL     OW40165   2.491   2.795   9.428 -0.3707  0.3672  0.3355
 9511SOL    HW140166   2.500   2.780   9.334  0.0197  2.7628 -0.0203
 9511SOL    HW240167   2.475   2.889   9.426 -2.9964 -0.1313 -2.8402
 9512SOL     OW40168   3.270   2.989  10.497 -0.1301 -0.3279 -1.1668
 9512SOL    HW140169   3.350   2.938  10.490 -1.5366 -2.8179  0.8132
 9512SOL    HW240170   3.298   3.075  10.466 -2.3669  0.8026 -0.0246
 9513SOL     OW40171   1.222   0.660   3.909  0.1818  0.2867  0.1176
 9513SOL    HW140172   1.131   0.686   3.927 -0.3289 -3.1652  2.4154
 9513SOL    HW240173   1.226   0.652   3.813 -1.0296 -1.3469  0.2019
 9514SOL     OW40174   0.448   0.698   8.294 -0.5764 -0.4756 -0.1282
 9514SOL    HW140175   0.497   0.661   8.367  1.2294 -0.4583 -1.3443
 9514SOL    HW240176   0.355   0.708   8.317 -0.6923 -0.5833 -0.5589
 9515SOL     OW40177   1.869   2.237  14.306  0.3038 -0.4147 -0.1750
 9515SOL    HW140178   1.923   2.227  14.228  0.0753 -0.1219 -0.3719
 9515SOL    HW240179   1.853   2.331  14.296  1.1908 -0.4652 -2.0335
 9516SOL     OW40180   0.616   3.288   3.550 -0.5733 -0.1459  0.4049
 9516SOL    HW140181   0.691   3.344   3.530 -2.0428  2.4256  2.1533
 9516SOL    HW240182   0.540   3.340   3.524 -0.7901 -0.0256  1.2863
 9517SOL     OW40183   2.923   4.045   6.168  0.3542 -0.2847 -0.1086
 9517SOL    HW140184   2.847   4.101   6.150 -1.1978 -1.6460  2.1906
 9517SOL    HW240185   2.943   4.066   6.259  1.2027 -1.4354 -0.0342
 9518SOL     OW40186   0.952   4.037   7.110 -0.4976  0.1156 -0.6427
 9518SOL    HW140187   0.933   4.019   7.202  0.0244 -0.8080 -0.7113
 9518SOL    HW240188   0.884   3.995   7.057 -1.5124  0.0354  0.7338
 9519SOL     OW40189   2.599   3.729   4.942 -0.4479  0.6774  0.2222
 9519SOL    HW140190   2.550   3.648   4.949  2.3211 -1.0544 -0.2442
 9519SOL    HW240191   2.556   3.777   5.012  0.2331 -0.2672  1.2958
 9520SOL     OW40192   3.321   2.307   9.620 -0.9069 -1.1948 -0.3940
 9520SOL    HW140193   3.263   2.373   9.581 -1.9134 -1.4104  0.7531
 9520SOL    HW240194   3.273   2.226   9.603  0.0699 -1.0611 -3.9518
 9521SOL     OW40195   0.520   2.010   2.154 -0.5146 -0.2159 -0.2323
 9521SOL    HW140196   0.445   2.057   2.190  0.6743  2.8927 -1.8210
 9521SOL    HW240197   0.482   1.936   2.106 -0.7044 -0.4436  0.2707
 9522SOL     OW40198   3.788   2.606   7.327 -0.8074  0.4305 -0.2531
 9522SOL    HW140199   3.695   2.619   7.309 -1.3224 -0.4502  1.7624
 9522SOL    HW240200   3.804   2.669   7.397  2.8442 -0.8814  0.1123
 9523SOL     OW40201   4.132   0.627  11.166  0.3638 -0.3495 -0.2689
 9523SOL    HW140202   4.044   0.641  11.133  0.3636  2.0477  0.7399
 9523SOL    HW240203   4.121   0.647  11.259 -2.9649  0.5242 -0.8532
 9524SOL     OW40204   3.887   0.220   3.955 -0.0339  0.3026  0.1755
 9524SOL    HW140205   3.875   0.238   4.048 -0.9560  2.3202 -0.3493
 9524SOL    HW240206   3.882   0.307   3.916  3.8894  0.2420 -0.4806
 9525SOL     OW40207   2.937   1.002  12.080  0.4945 -0.5601 -0.6224
 9525SOL    HW140208   2.930   1.080  12.135 -1.2174 -2.0696  1.2737
 9525SOL    HW240209   2.850   0.962  12.074  0.3860 -0.2010 -1.5113
 9526SOL     OW40210   1.934   1.226   8.667  0.4519  0.1956  0.0386
 9526SOL    HW140211   1.897   1.148   8.708  3.2087 -0.2031  1.7719
 9526SOL    HW240212   1.900   1.215   8.578  2.1601  2.0855 -0.8459
 9527SOL     OW40213   1.592   1.137  14.091  0.2512  0.2380 -0.5687
 9527SOL    HW140214   1.532   1.152  14.018 -0.3857  1.0046  0.0958
 9527SOL    HW240215   1.628   1.223  14.114  1.5868 -0.3668 -0.4126
 9528SOL     OW40216   3.311   3.329  13.194  0.3813 -0.5126  0.2793
 9528SOL    HW140217   3.267   3.329  13.280  1.8038  0.7942  1.0044
 9528SOL    HW240218   3.272   3.251  13.155  1.2849 -1.4627  1.2742
 9529SOL     OW40219   2.515   4.187   7.256 -0.1865 -0.4193 -0.1803
 9529SOL    HW140220   2.600   4.208   7.218  0.9360 -0.3558  2.3644
 9529SOL    HW240221   2.479   4.117   7.201 -3.2904  1.1141 -0.1186
 9530SOL     OW40222   2.699   3.420   3.914  0.3746  0.5024 -0.5657
 9530SOL    HW140223   2.770   3.451   3.970  1.6923  0.7776 -2.4290
 9530SOL    HW240224   2.633   3.406   3.982  1.3087 -4.1281 -0.6162
 9531SOL     OW40225   1.240   2.523  13.761  0.2692 -0.1717 -0.4012
 9531SOL    HW140226   1.190   2.573  13.825  0.9218 -0.7193  0.5414
 9531SOL    HW240227   1.331   2.551  13.772  0.6018 -1.2963 -0.3008
 9532SOL     OW40228   2.425   3.856   8.180 -0.6139  0.2401 -0.6071
 9532SOL    HW140229   2.338   3.842   8.143  0.1750  0.7705 -2.6929
 9532SOL    HW240230   2.445   3.779   8.234  2.7109  0.9205 -0.8645
 9533SOL     OW40231   2.662   0.098   2.831 -0.2568 -0.1272 -0.0699
 9533SOL    HW140232   2.715   0.155   2.775 -1.0687  0.6195 -0.0808
 9533SOL    HW240233   2.591   0.064   2.776 -1.5571  1.8216  0.3815
 9534SOL     OW40234   4.059   0.679   7.136 -0.7782  0.1019  0.3094
 9534SOL    HW140235   4.036   0.675   7.043 -2.1677 -1.9995  0.7414
 9534SOL    HW240236   4.090   0.769   7.142 -1.7329  0.4531 -0.1779
 9535SOL     OW40237   1.607   0.341   7.598 -0.1346  0.1572  0.5434
 9535SOL    HW140238   1.691   0.302   7.622 -0.5116 -0.3091  1.1360
 9535SOL    HW240239   1.606   0.420   7.652  1.1527  0.7687 -0.3323
 9536SOL     OW40240   3.401   0.456   7.694  0.1736 -0.2263  0.3608
 9536SOL    HW140241   3.340   0.528   7.681 -1.2120 -0.9481  2.8976
 9536SOL    HW240242   3.375   0.433   7.783  1.2667  1.1272  1.0272
 9537SOL     OW40243   1.850   3.179   8.553  0.1736 -0.2259  0.3469
 9537SOL    HW140244   1.934   3.184   8.598  1.0628  1.5195 -1.5167
 9537SOL    HW240245   1.831   3.085   8.554  2.7748 -0.7666 -1.0307
 9538SOL     OW40246   0.962   0.488   7.339 -0.2366 -0.1449  0.0512
 9538SOL    HW140247   0.906   0.416   7.311  0.5196 -0.7809  0.1606
 9538SOL    HW240248   0.942   0.497   7.432 -0.8957  0.0945 -0.1187
 9539SOL     OW40249   0.143   0.077   8.408 -0.2072  0.0191  0.1576
 9539SOL    HW140250   0.216   0.017   8.395 -0.1774  0.0298  0.2741
 9539SOL    HW240251   0.077   0.029   8.458 -1.2537  0.7546 -0.5220
 9540SOL     OW40252   1.260   4.731   2.547  0.1135 -0.3320  0.1120
 9540SOL    HW140253   1.223   4.654   2.589 -2.6965 -0.2237 -2.1580
 9540SOL    HW240254   1.193   0.058   2.571 -0.4321 -0.2315 -1.6954
 9541SOL     OW40255   3.003   3.739  14.189  0.0316  0.3858 -0.3313
 9541SOL    HW140256   3.078   3.714  14.134 -0.3207  0.0341 -0.6471
 9541SOL    HW240257   2.978   3.653  14.224 -1.0532  0.7109 -0.3113
 9542SOL     OW40258   0.653   3.072   2.641  0.0212 -0.0308  0.9026
 9542SOL    HW140259   0.729   3.074   2.582 -0.6082 -1.1491  0.0591
 9542SOL    HW240260   0.648   2.982   2.674 -1.2143  0.4926  2.1253
 9543SOL     OW40261   0.503   0.535   9.213 -0.3393 -0.3594  0.0814
 9543SOL    HW140262   0.476   0.486   9.135 -3.3351 -1.4629  1.8016
 9543SOL    HW240263   0.420   0.583   9.221  0.5097  1.5036 -2.3108
 9544SOL     OW40264   0.322   3.732   7.285  0.6649 -0.5298  0.3403
 9544SOL    HW140265   0.400   3.776   7.320  0.6216 -0.1382 -0.0583
 9544SOL    HW240266   0.347   3.644   7.258  0.9864  0.3173 -2.1599
 9545SOL     OW40267   1.631   1.606  13.089  0.0191 -0.0484  0.4995
 9545SOL    HW140268   1.658   1.695  13.068 -1.3367  0.4835  0.9888
 9545SOL    HW240269   1.716   1.564  13.102  0.2743  0.2422 -0.2711
 9546SOL     OW40270   1.753   3.385   5.511 -0.2108  0.1828 -0.0099
 9546SOL    HW140271   1.693   3.324   5.468  1.0125  0.4343 -2.0700
 9546SOL    HW240272   1.786   3.326   5.579 -1.0038 -0.1408  0.0992
 9547SOL     OW40273   4.641   3.264   6.303 -0.4399  0.3679  0.1270
 9547SOL    HW140274   4.672   3.347   6.264 -0.0891  0.2823  0.2221
 9547SOL    HW240275   4.560   3.297   6.341  0.2714 -0.6117  2.4875
 9548SOL     OW40276   1.053   2.546  13.973 -0.4614 -0.3153 -0.2331
 9548SOL    HW140277   1.033   2.454  13.956  0.9693 -0.9181  1.3536
 9548SOL    HW240278   1.031   2.557  14.065  0.1549  1.4527 -0.2798
 9549SOL     OW40279   2.435   2.632   5.681  0.0351 -0.1743  0.3134
 9549SOL    HW140280   2.433   2.541   5.652  1.2148  0.4835 -1.8881
 9549SOL    HW240281   2.346   2.640   5.716  0.1631  1.4304  0.2892
 9550SOL     OW40282   4.118   3.822   5.375 -0.5938  0.1016  0.1393
 9550SOL    HW140283   4.102   3.914   5.393 -0.9243  0.1385 -0.3230
 9550SOL    HW240284   4.121   3.789   5.465 -0.9495  1.4145  0.6224
 9551SOL     OW40285   0.581   3.410   7.442 -0.2608 -0.5035 -0.0317
 9551SOL    HW140286   0.627   3.327   7.428  1.3945  0.2072  1.2088
 9551SOL    HW240287   0.538   3.423   7.358  0.9521 -2.7116 -1.0059
 9552SOL     OW40288   3.142   4.249  11.775 -0.7423 -0.2923  0.1922
 9552SOL    HW140289   3.060   4.277  11.734 -0.3078  1.1684  0.3070
 9552SOL    HW240290   3.165   4.331  11.819 -1.8172  0.2758 -0.2754
 9553SOL     OW40291   3.203   0.345   9.806 -0.4554  0.2261 -0.0972
 9553SOL    HW140292   3.259   0.318   9.733  0.2290  0.9612  0.1570
 9553SOL    HW240293   3.255   0.344   9.886  0.4281  2.6025 -0.6476
 9554SOL     OW40294   2.436   3.428   5.233 -0.3346  0.2395 -0.7578
 9554SOL    HW140295   2.351   3.458   5.266 -0.9143 -1.3698 -0.7949
 9554SOL    HW240296   2.438   3.470   5.147  1.8164  2.7600  0.5429
 9555SOL     OW40297   1.727   4.152  16.675  0.6418 -0.1165  0.7417
 9555SOL    HW140298   1.672   4.227  16.652  1.4501  0.3469  0.3154
 9555SOL    HW240299   1.741   4.168  16.769 -0.2366 -0.5804  0.9460
 9556SOL     OW40300   1.866   1.696   9.038 -0.0127 -0.4046  0.1681
 9556SOL    HW140301   1.837   1.606   9.022  0.0983 -0.6006  1.0557
 9556SOL    HW240302   1.940   1.670   9.093 -0.9879  0.0503  1.6905
 9557SOL     OW40303   4.251   2.295   8.168  0.5886 -0.0398  0.0012
 9557SOL    HW140304   4.316   2.277   8.236 -0.6147 -2.3791  0.5326
 9557SOL    HW240305   4.215   2.208   8.152 -0.7591  0.4984  0.1556
 9558SOL     OW40306   2.640   2.921  14.303 -0.1034 -0.3017  0.1807
 9558SOL    HW140307   2.569   2.866  14.338 -0.6884 -0.0475 -0.6100
 9558SOL    HW240308   2.608   2.942  14.215  1.8711 -1.5103 -0.8079
 9559SOL     OW40309   2.177   3.479  11.845  0.2585  0.1572  0.2779
 9559SOL    HW140310   2.111   3.411  11.861 -2.6254  2.0032 -3.6360
 9559SOL    HW240311   2.225   3.494  11.926  2.5156  0.3797 -1.1028
 9560SOL     OW40312   3.637   3.207   9.604 -0.0868  0.9869 -0.1552
 9560SOL    HW140313   3.663   3.146   9.674 -0.7164 -2.1929 -2.6973
 9560SOL    HW240314   3.544   3.221   9.622  0.4491  1.7252  2.0333
 9561SOL     OW40315   2.187   2.988   5.576  0.6101  0.1440  0.3355
 9561SOL    HW140316   2.135   2.919   5.619 -1.6974  0.8878 -1.2421
 9561SOL    HW240317   2.196   2.952   5.488  1.3929  1.0202  0.0647
 9562SOL     OW40318   4.121   2.081   2.634  0.6639 -0.0093 -0.4999
 9562SOL    HW140319   4.060   2.089   2.561 -2.7973 -2.2251  2.1411
 9562SOL    HW240320   4.120   1.987   2.650  1.4858  0.0818  0.0694
 9563SOL     OW40321   3.931   2.130   9.120 -0.1220 -0.4678  0.0640
 9563SOL    HW140322   3.897   2.140   9.209 -0.3955 -0.8493  0.0032
 9563SOL    HW240323   3.869   2.193   9.082 -0.2381 -0.7735 -0.2501
 9564SOL     OW40324   2.040   1.286  16.184  0.6163 -0.2408 -0.2950
 9564SOL    HW140325   2.125   1.257  16.152  1.8925  0.8659  2.1274
 9564SOL    HW240326   2.022   1.199  16.219 -2.3374  1.0534  1.3966
 9565SOL     OW40327   4.662   1.174   8.947 -0.7066  0.0954 -0.4077
 9565SOL    HW140328   4.723   1.147   8.878 -0.9959  1.0883 -1.0465
 9565SOL    HW240329   4.614   1.243   8.902 -0.6554  1.1133  1.1048
 9566SOL     OW40330   2.538   2.553   3.625  0.0412 -0.1560 -0.1495
 9566SOL    HW140331   2.470   2.485   3.625 -0.4844  0.3805 -1.7996
 9566SOL    HW240332   2.620   2.504   3.620 -0.0511 -0.4355  1.0746
 9567SOL     OW40333   0.448   4.136  11.436 -0.1909 -0.2447 -0.6197
 9567SOL    HW140334   0.492   4.052  11.452 -1.3241 -0.7498 -0.1934
 9567SOL    HW240335   0.520   4.198  11.420  0.2543 -0.4590  0.5281
 9568SOL     OW40336   4.109   1.250  15.137  0.1006  0.4827 -0.1814
 9568SOL    HW140337   4.028   1.200  15.136  1.1563 -1.2319 -0.3823
 9568SOL    HW240338   4.079   1.325  15.085 -1.2200  0.7291  0.9561
 9569SOL     OW40339   4.505   1.251   6.906  0.4430  0.2349  0.0690
 9569SOL    HW140340   4.573   1.313   6.933  1.6508 -0.9660 -0.2243
 9569SOL    HW240341   4.510   1.181   6.970 -1.1434  0.6002  0.5964
 9570SOL     OW40342   2.753   0.864   4.713 -0.3027 -0.1209  0.1033
 9570SOL    HW140343   2.686   0.932   4.708  0.5644  0.6737 -0.7609
 9570SOL    HW240344   2.755   0.831   4.623  0.2649  0.0638  0.0526
 9571SOL     OW40345   4.396   4.629   4.443 -0.0875 -0.3824 -0.0211
 9571SOL    HW140346   4.431   4.610   4.356 -0.2618  1.0498 -0.4105
 9571SOL    HW240347   4.450   4.561   4.483  1.1901 -0.2059 -1.4672
   4.73714   4.73714  17.74688
