Membrane in water
40347
    1TMC1    C1    1   3.690   1.551  11.082 -0.2683 -0.1899  0.9659
    1TMC1    C2    2   3.681   1.672  11.022 -0.5248  0.8005  0.5357
    1TMC1    C3    3   3.691   1.670  10.884  0.2632  0.1662  0.0421
    1TMC1    C4    4   3.691   1.433  11.009 -0.2931  0.7890  0.3929
    1TMC1    C5    5   3.691   1.446  10.876 -0.6117 -0.1314  0.3591
    1TMC1    C6    6   3.694   1.560  10.807 -0.1377  0.0034  0.3848
    1TMC1     C    7   3.684   1.547  11.226  0.1722 -0.1657 -0.6257
    1TMC1     O    8   3.664   1.654  11.282 -0.3515 -0.1474 -0.1845
    1TMC1     H    9   3.682   1.769  11.071  1.1469  0.9982  0.1031
    1TMC1    H1   10   3.686   1.335  11.054  0.0945  0.8636  0.6022
    1TMC1    H2   11   3.682   1.565  10.699  1.2850 -1.3778  0.1519
    1TMC1    C7   12   3.697   1.322  10.806  0.3676 -0.7887 -0.0706
    1TMC1    C8   13   3.706   1.801  10.815  0.2036  0.1693 -0.2056
    1TMC1    O1   14   3.662   1.216  10.859 -0.2829  0.5911  0.4166
    1TMC1    O2   15   3.679   1.816  10.699  0.4848 -0.0444  0.3156
    1TMC1    O3   16   3.778   1.338  10.697  0.6182 -0.5888 -0.3934
    1TMC1    H3   17   3.824   1.424  10.701 -2.5680  1.0468  0.6892
    1TMC1    O5   18   3.797   1.871  10.886 -0.2155 -0.4660 -0.1908
    1TMC1    H5   19   3.821   1.831  10.973  1.5709 -1.5347 -1.1796
    2MPD2     C   20   3.600   1.311  11.681 -0.6340  0.4709 -0.3011
    2MPD2    C1   21   3.646   1.441  11.652 -0.1937 -0.1870  0.4981
    2MPD2    C2   22   3.677   1.474  11.522  0.8891  0.6405  0.2048
    2MPD2    C3   23   3.654   1.384  11.417  0.1686 -0.0859  0.6201
    2MPD2    C4   24   3.602   1.258  11.449  0.5290 -0.0164 -0.1279
    2MPD2    C5   25   3.578   1.220  11.578 -0.7726 -0.5562 -0.5437
    2MPD2     H   26   3.701   1.577  11.496  0.5636  1.0151  1.4077
    2MPD2    H1   27   3.567   1.193  11.369  0.7985  0.1823 -0.4056
    2MPD2    H2   28   3.563   1.282  11.778 -0.7355 -1.5707 -0.9572
    2MPD2    H3   29   3.541   1.119  11.593 -4.5258  0.9925  0.7468
    2MPD2     N   30   3.667   1.415  11.280 -0.0048  0.1557  0.0582
    2MPD2    H5   31   3.650   1.342  11.212  1.2783 -0.0903  0.0030
    2MPD2    N1   32   3.662   1.542  11.743 -0.4521 -0.2121  0.6925
    2MPD2    H7   33   3.718   1.624  11.721  0.7100 -0.3539  3.0635
    3TMC1    C1   34   3.089   2.258  10.751  0.7290  0.5749 -0.1040
    3TMC1    C2   35   3.024   2.140  10.730  0.0576 -0.2444  0.0780
    3TMC1    C3   36   3.047   2.070  10.620 -0.3388 -0.3270 -1.1503
    3TMC1    C4   37   3.177   2.304  10.653  0.4629 -0.3698 -0.2018
    3TMC1    C5   38   3.207   2.215  10.548  0.1563  0.0421  0.1365
    3TMC1    C6   39   3.137   2.104  10.527  0.1876  0.2425  0.0401
    3TMC1     C   40   3.048   2.336  10.867 -0.3544  0.1192 -0.5863
    3TMC1     O   41   2.984   2.280  10.959  0.1909  1.3172 -0.3727
    3TMC1     H   42   2.938   2.116  10.793  1.0834 -0.7144  1.3015
    3TMC1    H1   43   3.242   2.388  10.673 -1.7642  0.9194  1.6435
    3TMC1    H2   44   3.145   2.039  10.441  0.8342  1.3875 -0.7649
    3TMC1    C7   45   3.283   2.265  10.436 -0.3172  0.4410 -0.5443
    3TMC1    C8   46   2.966   1.955  10.578 -0.0850  0.3755 -0.4048
    3TMC1    O1   47   3.343   2.186  10.369  0.9588  0.1297  0.8494
    3TMC1    O2   48   2.951   1.929  10.461 -0.0887  0.0534 -0.5210
    3TMC1    O3   49   3.208   2.364  10.391 -0.4973  0.2897  0.0091
    3TMC1    H3   50   3.180   2.432  10.456  0.4748 -1.0847  1.8600
    3TMC1    O5   51   2.950   1.874  10.684  0.1488 -0.1742  0.1310
    3TMC1    H5   52   3.024   1.900  10.744  0.2065  0.2701 -0.1317
    4MPD2     C   53   2.965   2.797  11.063  0.3567 -0.4231 -0.8729
    4MPD2    C1   54   3.004   2.821  10.930 -0.3286  1.0126  0.2340
    4MPD2    C2   55   3.046   2.704  10.862  0.2358 -0.2334 -0.5951
    4MPD2    C3   56   3.038   2.578  10.923 -0.2873  0.1630  0.3851
    4MPD2    C4   57   2.999   2.566  11.053 -0.0875 -0.5549 -0.6066
    4MPD2    C5   58   2.959   2.677  11.118  0.2061  0.2281 -0.4476
    4MPD2     H   59   3.081   2.721  10.761 -0.4789 -0.5116 -0.8979
    4MPD2    H1   60   2.985   2.467  11.097 -0.0081 -0.4673 -0.3832
    4MPD2    H2   61   2.944   2.883  11.126 -0.7371 -1.2644 -0.0873
    4MPD2    H3   62   2.922   2.661  11.219  3.2664  0.2151  0.6886
    4MPD2     N   63   3.071   2.468  10.843 -0.4159  0.2521  0.6831
    4MPD2    H5   64   3.110   2.486  10.751  0.5631 -0.2779  0.9946
    4MPD2    N1   65   3.000   2.947  10.865  0.5054  0.1228 -0.3487
    4MPD2    H7   66   3.059   2.955  10.782 -2.6434  3.5451 -2.2596
    5TCq1    O1   67   4.274   4.492  11.749 -0.1478 -0.2947  0.7955
    5TCq1    C1   68   4.244   4.410  11.651 -0.1383 -0.4594  0.3396
    5TCq1    O2   69   4.322   4.359  11.571  0.2165 -0.1181 -0.0159
    5TCq1    C2   70   4.095   4.417  11.633  0.1051  0.5052 -0.4596
    5TCq1    C3   71   4.011   4.476  11.731 -0.0388 -0.0084  0.5732
    5TCq1    C4   72   3.887   4.517  11.693  0.0984  0.7870 -0.6283
    5TCq1    C5   73   3.833   4.499  11.568 -0.4452  0.2234  0.5707
    5TCq1    C6   74   3.920   4.444  11.476 -0.5598  0.4051 -0.0447
    5TCq1    C7   75   4.053   4.402  11.503  0.4762  0.0178 -0.2673
    5TCq1    C8   76   3.881   4.443  11.338 -0.3946 -0.0129 -0.0417
    5TCq1    O4   77   3.936   4.359  11.267 -0.1184  0.8279 -0.1968
    5TCq1    C9   78   3.795   4.558  11.795 -0.1703 -0.2116 -0.4715
    5TCq1    O5   79   3.834   4.582  11.917  0.4848 -0.1958 -0.0926
    5TCq1    O6   80   3.676   4.547  11.764  0.2788 -0.4437  0.1955
    5TCq1    H1   81   4.193   4.540  11.777 -0.4896 -0.5969  0.3225
    5TCq1    H2   82   4.029   4.471  11.838  0.1737  0.0662  0.5401
    5TCq1    H3   83   3.729   4.523  11.548 -1.0640 -0.7268  2.6137
    5TCq1    H4   84   4.113   4.355  11.425  1.7435  1.1782  0.0128
    6MPD2     C   85   3.646   4.660  11.164  0.1663 -0.1455 -0.4592
    6MPD2    C1   86   3.721   4.548  11.191 -0.4655  0.4110 -0.1343
    6MPD2    C2   87   3.712   4.441  11.092  0.6738 -0.2750 -0.1147
    6MPD2    C3   88   3.630   4.449  10.978  0.9088 -0.1073 -0.7382
    6MPD2    C4   89   3.558   4.571  10.960 -0.1148  0.2757  0.0496
    6MPD2    C5   90   3.563   4.672  11.056 -0.1216 -0.3924 -0.7252
    6MPD2     H   91   3.784   4.360  11.091 -0.1893 -1.0375 -0.3096
    6MPD2    H1   92   3.494   4.577  10.872  0.7254  2.0077 -0.4547
    6MPD2    H2   93   3.646   0.013  11.229 -0.1330 -0.5604  0.1036
    6MPD2    H3   94   3.511   0.033  11.050  1.4472  0.4577 -0.7929
    6MPD2     N   95   3.626   4.332  10.896 -0.1315 -0.1731  0.0301
    6MPD2    H5   96   3.686   4.256  10.925  2.0130  2.7204  3.0868
    6MPD2    N1   97   3.779   4.535  11.312 -0.4999  0.2143 -0.5324
    6MPD2    H7   98   3.759   4.603  11.385 -2.8699 -1.4655  0.3920
    7TCq1    O1   99   1.496   0.146  13.426 -0.0981  0.0289 -0.0086
    7TCq1    C1  100   1.439   0.202  13.311 -0.4920  0.7400  0.0954
    7TCq1    O2  101   1.409   0.323  13.296 -0.0698 -0.5131  0.8081
    7TCq1    C2  102   1.432   0.107  13.213  0.0096  0.6508 -0.5612
    7TCq1    C3  103   1.305   0.103  13.158  0.0437 -0.0791 -0.7351
    7TCq1    C4  104   1.272   4.726  13.086 -0.1528 -0.1223 -0.1730
    7TCq1    C5  105   1.357   4.616  13.082 -0.3397  0.4979  0.4788
    7TCq1    C6  106   1.475   4.619  13.153  0.1509 -0.2180 -0.6791
    7TCq1    C7  107   1.516   0.002  13.214  0.4040  0.3972  0.1163
    7TCq1    C8  108   1.551   4.498  13.147  0.3330 -0.0852 -0.3809
    7TCq1    O4  109   1.501   4.405  13.082 -0.2253  0.8809  0.0913
    7TCq1    C9  110   1.156   4.725  13.002  0.0357 -0.6376  0.3899
    7TCq1    O5  111   1.107   4.610  12.970  0.1923 -0.7166  0.1961
    7TCq1    O6  112   1.087   0.095  12.998 -0.4992 -0.2327  0.1396
    7TCq1    H1  113   1.477   0.050  13.433  1.3642 -0.3146 -0.7795
    7TCq1    H2  114   1.244   0.191  13.140 -2.6290 -1.6334  0.7857
    7TCq1    H3  115   1.334   4.529  13.022 -0.1655  0.6517  0.1894
    7TCq1    H4  116   1.613   0.006  13.263  1.8824  1.7761 -2.9257
    8MPD2     C  117   1.921   4.192  13.340  0.1319 -0.1731 -0.3749
    8MPD2    C1  118   1.799   4.156  13.284  0.2343 -0.5568 -0.0730
    8MPD2    C2  119   1.709   4.255  13.249 -0.6139 -0.3420 -0.1217
    8MPD2    C3  120   1.749   4.388  13.259  0.1013  0.5915  0.1531
    8MPD2    C4  121   1.871   4.417  13.314  0.4204  0.6164  0.0364
    8MPD2    C5  122   1.953   4.315  13.356 -0.0667  0.0413  0.5072
    8MPD2     H  123   1.607   4.235  13.221 -1.0766  0.1466  1.1950
    8MPD2    H1  124   1.900   4.517  13.346 -0.8828  1.5982 -1.8531
    8MPD2    H2  125   1.999   4.118  13.355 -0.2080 -0.5763 -0.6085
    8MPD2    H3  126   2.045   4.346  13.404 -1.1865  1.2923  1.8675
    8MPD2     N  127   1.671   4.498  13.224 -0.2453 -0.0179 -0.1103
    8MPD2    H5  128   1.704   4.588  13.257 -0.7212  0.1652 -0.1233
    8MPD2    N1  129   1.771   4.017  13.275 -0.3770  0.3767 -0.0310
    8MPD2    H7  130   1.847   3.955  13.304  0.6891  2.4525  1.6205
    9TMC1    C1  131   3.568   3.514  10.959 -0.0760  0.0286 -0.0363
    9TMC1    C2  132   3.541   3.624  10.888 -0.2810 -0.0276  0.7948
    9TMC1    C3  133   3.571   3.635  10.757 -0.3164 -0.3684 -0.3150
    9TMC1    C4  134   3.618   3.405  10.888 -0.2360 -0.0199 -0.2117
    9TMC1    C5  135   3.666   3.427  10.764  0.0427 -0.4508 -0.0086
    9TMC1    C6  136   3.644   3.536  10.699 -0.4287 -0.0317  0.1971
    9TMC1     C  137   3.477   3.481  11.064  0.7728 -0.2905  0.5283
    9TMC1     O  138   3.391   3.563  11.086 -0.0766 -0.1933 -0.1522
    9TMC1     H  139   3.483   3.709  10.922 -0.1322  0.4126 -0.0427
    9TMC1    H1  140   3.620   3.311  10.942 -1.4496  0.7113  1.1074
    9TMC1    H2  141   3.662   3.539  10.592  1.9505  1.2954  0.6212
    9TMC1    C7  142   3.735   3.319  10.699 -0.0616  0.4561  0.3881
    9TMC1    C8  143   3.584   3.769  10.708 -0.5754  0.1245 -0.6513
    9TMC1    O1  144   3.738   3.209  10.747  0.2301 -0.1664  0.3740
    9TMC1    O2  145   3.487   3.838  10.684  0.2676 -0.3208 -0.2488
    9TMC1    O3  146   3.822   3.378  10.617 -0.2357  0.4225 -0.1171
    9TMC1    H3  147   3.820   3.475  10.630 -4.1239  0.4987 -1.3138
    9TMC1    O5  148   3.684   3.802  10.794  0.2550 -0.6361 -0.0510
    9TMC1    H5  149   3.754   3.736  10.813  0.1236 -0.5917  0.5697
   10MPD2     C  150   3.315   3.339  11.266 -0.1838  0.2530 -0.1448
   10MPD2    C1  151   3.448   3.321  11.250 -0.0232  0.4762 -0.0860
   10MPD2    C2  152   3.520   3.223  11.317  0.3705  0.3712 -0.7983
   10MPD2    C3  153   3.455   3.134  11.396 -0.8047  0.1539  0.3386
   10MPD2    C4  154   3.318   3.139  11.402  0.2980  0.4810 -0.1266
   10MPD2    C5  155   3.248   3.236  11.336 -0.4854 -0.3891  0.4749
   10MPD2     H  156   3.627   3.222  11.302  0.5800 -1.0056  0.7540
   10MPD2    H1  157   3.265   3.069  11.465  0.3708  0.8006  0.2877
   10MPD2    H2  158   3.252   3.407  11.210 -1.4099  1.0342  2.1949
   10MPD2    H3  159   3.140   3.239  11.343 -0.4265 -0.9745  1.5998
   10MPD2     N  160   3.517   3.038  11.473  0.8039  0.4475 -0.4401
   10MPD2    H5  161   3.463   2.964  11.519  1.4216  0.0377 -0.3805
   10MPD2    N1  162   3.520   3.385  11.149 -0.4676  0.5143 -0.7710
   10MPD2    H7  163   3.614   3.350  11.134 -0.8054 -0.1449 -1.3601
   11TCq1    O1  164   4.279   3.133  14.095  0.6742  0.2582 -0.0640
   11TCq1    C1  165   4.325   3.010  14.117  1.2632  0.3487  0.4385
   11TCq1    O2  166   4.447   2.979  14.119  0.4079 -0.9291 -0.1329
   11TCq1    C2  167   4.230   2.923  14.177 -0.3833  0.0473 -0.3678
   11TCq1    C3  168   4.277   2.805  14.229 -0.2669 -0.1510  0.4994
   11TCq1    C4  169   4.189   2.701  14.257 -0.2865  0.1732  0.0518
   11TCq1    C5  170   4.051   2.711  14.228  0.1171 -0.1320 -0.0980
   11TCq1    C6  171   4.005   2.831  14.176  0.0437  0.7693 -0.3787
   11TCq1    C7  172   4.095   2.940  14.151 -0.3318  0.0459  0.4034
   11TCq1    C8  173   3.867   2.820  14.109  0.1412  0.0741  0.4650
   11TCq1    O4  174   3.786   2.914  14.116  0.3548  0.5700  0.1107
   11TCq1    C9  175   4.234   2.585  14.329 -0.0372 -0.5749  0.0986
   11TCq1    O5  176   4.359   2.570  14.342 -0.5976 -0.4782 -0.1857
   11TCq1    O6  177   4.150   2.491  14.349  0.2123 -0.8805  0.0273
   11TCq1    H1  178   4.196   3.150  14.144  0.1280  3.0495 -1.9499
   11TCq1    H2  179   4.380   2.808  14.262 -0.4777 -1.7007  1.3103
   11TCq1    H3  180   3.979   2.640  14.267  0.5782  0.3961  1.6893
   11TCq1    H4  181   4.058   3.024  14.093 -0.2282 -0.2512 -0.0915
   12MPD2     C  182   3.606   2.685  14.046  0.0900 -0.2798  0.1906
   12MPD2    C1  183   3.731   2.652  13.994 -0.0422 -0.2693  0.4666
   12MPD2    C2  184   3.737   2.546  13.900 -0.0185  0.2733  0.2841
   12MPD2    C3  185   3.620   2.482  13.854  0.2009  0.1841  0.2476
   12MPD2    C4  186   3.503   2.521  13.915 -0.2572 -0.9035  1.1536
   12MPD2    C5  187   3.495   2.621  14.005 -0.3728  0.4183  0.0446
   12MPD2     H  188   3.834   2.529  13.856  0.0410 -2.2463  1.4305
   12MPD2    H1  189   3.405   2.481  13.893 -0.2288  0.0635 -0.7595
   12MPD2    H2  190   3.602   2.747  14.135 -1.6489 -1.8709  1.2186
   12MPD2    H3  191   3.401   2.645  14.054  1.0976  2.7497  1.7075
   12MPD2     N  192   3.613   2.387  13.746  0.2707 -0.4740  0.4887
   12MPD2    H5  193   3.523   2.357  13.712  0.8369  2.5642 -3.6764
   12MPD2    N1  194   3.854   2.702  14.046  0.0244  0.0581  0.0541
   12MPD2    H7  195   3.938   2.648  14.032 -0.1629 -0.2180 -0.0108
   13TCq1    O1  196   3.231   2.717  10.257  0.2471  0.0399  0.3398
   13TCq1    C1  197   3.336   2.797  10.232 -0.2754  0.5919 -0.3370
   13TCq1    O2  198   3.350   2.904  10.289  0.5267 -0.6944  0.4500
   13TCq1    C2  199   3.443   2.707  10.213  0.3353  0.4316 -0.5765
   13TCq1    C3  200   3.445   2.625  10.103  0.4390  1.2482  0.4538
   13TCq1    C4  201   3.508   2.506  10.115 -0.4412 -0.0587  0.2104
   13TCq1    C5  202   3.558   2.477  10.240 -0.0092  0.8154 -0.3648
   13TCq1    C6  203   3.572   2.565  10.346 -0.5980  0.1308  0.3331
   13TCq1    C7  204   3.504   2.678  10.332 -0.0688  0.1128  0.2502
   13TCq1    C8  205   3.583   2.526  10.491  0.3999  0.6094  0.1413
   13TCq1    O4  206   3.585   2.615  10.573 -0.6154 -0.0397  0.4534
   13TCq1    C9  207   3.530   2.416  10.007 -0.1880 -0.0431  0.2595
   13TCq1    O5  208   3.574   2.300  10.037  0.0838 -0.0322 -0.2965
   13TCq1    O6  209   3.515   2.460   9.888  0.2941 -0.0506  0.2918
   13TCq1    H1  210   3.219   2.633  10.209  3.4921 -0.6363  0.7555
   13TCq1    H2  211   3.397   2.657  10.012 -0.1132 -0.9886 -0.0543
   13TCq1    H3  212   3.608   2.381  10.252 -1.7945  0.0853  1.2711
   13TCq1    H4  213   3.495   2.742  10.419  1.5117  0.8295 -0.1104
   14MPD2     C  214   3.571   2.187  10.641  0.1846 -0.4487 -0.1587
   14MPD2    C1  215   3.561   2.322  10.638  0.8464  0.2189  0.1952
   14MPD2    C2  216   3.527   2.390  10.752 -0.6115 -0.0859 -0.0255
   14MPD2    C3  217   3.475   2.319  10.858 -0.8050 -0.7645 -0.1687
   14MPD2    C4  218   3.471   2.183  10.863  0.1599  0.2421  0.2666
   14MPD2    C5  219   3.525   2.120  10.756  0.1349 -0.4544  0.0319
   14MPD2     H  220   3.521   2.498  10.757  1.7003  0.0419  0.1377
   14MPD2    H1  221   3.419   2.126  10.940  0.9421 -1.4827 -0.4691
   14MPD2    H2  222   3.589   2.124  10.555 -1.9744 -2.2439  0.7217
   14MPD2    H3  223   3.515   2.013  10.744 -1.3393 -0.0340 -2.3596
   14MPD2     N  224   3.421   2.388  10.962  0.1282  0.3438 -0.3949
   14MPD2    H5  225   3.451   2.485  10.958  0.0405  0.4403  1.1507
   14MPD2    N1  226   3.580   2.389  10.518 -0.0174 -0.3369 -0.2420
   14MPD2    H7  227   3.592   2.334  10.434  0.8476  0.4458 -0.6328
   15TCq1    O1  228   0.299   1.028   1.521  0.4131 -0.6619 -0.0599
   15TCq1    C1  229   0.320   1.121   1.616 -0.0025  0.1059  0.3724
   15TCq1    O2  230   0.285   1.239   1.605  0.3451  0.5153  0.4077
   15TCq1    C2  231   0.382   1.056   1.731 -0.4910 -0.0722 -0.3029
   15TCq1    C3  232   0.327   1.092   1.848  1.0980  0.2705 -0.2089
   15TCq1    C4  233   0.353   1.017   1.957 -0.4093  0.6712  0.0290
   15TCq1    C5  234   0.443   0.917   1.952 -0.2100 -0.1183  0.3634
   15TCq1    C6  235   0.505   0.892   1.837 -0.3844  0.3445  0.5519
   15TCq1    C7  236   0.478   0.959   1.720  0.3983  0.9208 -0.4969
   15TCq1    C8  237   0.635   0.821   1.828 -0.4088 -0.1970  0.2240
   15TCq1    O4  238   0.687   0.807   1.726  0.3435 -0.1924  0.2885
   15TCq1    C9  239   0.298   1.058   2.086 -0.7139 -0.2150 -0.2272
   15TCq1    O5  240   0.370   1.035   2.188  0.4911 -0.1119  0.3186
   15TCq1    O6  241   0.181   1.099   2.093  0.2317  0.6946 -0.8732
   15TCq1    H1  242   0.333   0.937   1.538  0.0961 -0.7583  0.0481
   15TCq1    H2  243   0.263   1.178   1.862  0.2755 -0.1309 -1.4628
   15TCq1    H3  244   0.463   0.851   2.035 -0.8900 -1.5205 -0.5954
   15TCq1    H4  245   0.523   0.940   1.623  0.1600  0.0540 -0.4371
   16MPD2     C  246   0.835   0.697   2.117 -0.8096  0.5281 -0.5898
   16MPD2    C1  247   0.815   0.724   1.980 -0.4436  0.0442 -0.4457
   16MPD2    C2  248   0.909   0.692   1.887 -0.1666 -0.4026 -0.0161
   16MPD2    C3  249   1.023   0.634   1.928  0.0877  0.2844 -0.1051
   16MPD2    C4  250   1.040   0.606   2.062  0.5918  0.4220 -0.0853
   16MPD2    C5  251   0.952   0.638   2.156  1.3150  1.2367 -0.1223
   16MPD2     H  252   0.885   0.707   1.782  1.2496  1.4955 -0.0707
   16MPD2    H1  253   1.121   0.546   2.104  0.1148  0.6802  1.1998
   16MPD2    H2  254   0.752   0.715   2.184  1.2066 -0.9687  2.3269
   16MPD2    H3  255   0.972   0.610   2.259  1.9494 -0.5687 -0.7309
   16MPD2     N  256   1.121   0.605   1.828  0.0890 -0.3768  0.4372
   16MPD2    H5  257   1.089   0.617   1.732  0.1616  0.7833  0.5561
   16MPD2    N1  258   0.686   0.786   1.952 -0.2558  0.6951 -0.3872
   16MPD2    H7  259   0.634   0.822   2.032  2.0163  1.5914  0.6597
   17TMC1    C1  260   3.241   1.139   9.950  0.3212  0.1874 -0.4715
   17TMC1    C2  261   3.159   1.166  10.055  0.4061  0.5675  0.1934
   17TMC1    C3  262   3.058   1.079  10.085 -0.4550 -0.3743 -0.0868
   17TMC1    C4  263   3.242   1.022   9.882 -0.3724 -0.6661 -0.0058
   17TMC1    C5  264   3.143   0.933   9.925  0.4780 -0.3354  0.1146
   17TMC1    C6  265   3.053   0.954  10.025 -0.9152 -0.3282  0.0004
   17TMC1     C  266   3.305   1.249   9.888 -0.2156  0.7233 -0.0070
   17TMC1     O  267   3.324   1.253   9.770 -0.1457 -0.4883  0.2934
   17TMC1     H  268   3.149   1.267  10.093  0.4386  0.9445 -0.7834
   17TMC1    H1  269   3.306   1.006   9.796  1.8188  0.1607  1.4807
   17TMC1    H2  270   2.977   0.879  10.046 -0.9555 -0.2718  0.0556
   17TMC1    C7  271   3.128   0.821   9.846  0.3024  0.1364 -0.5898
   17TMC1    C8  272   2.945   1.131  10.158  0.0911  0.1363 -0.0179
   17TMC1    O1  273   3.153   0.830   9.728 -0.2957 -0.0619  0.3000
   17TMC1    O2  274   2.956   1.211  10.249 -0.1308 -0.4969 -0.1847
   17TMC1    O3  275   3.124   0.713   9.928 -0.4599  0.1926 -0.4970
   17TMC1    H3  276   3.121   0.729  10.024  1.8304  3.3685 -0.9273
   17TMC1    O5  277   2.832   1.084  10.098  0.5055 -0.1637 -0.1401
   17TMC1    H5  278   2.843   1.029  10.017  0.6166 -1.6400  0.8673
   18MPD2     C  279   3.462   1.492   9.835 -0.9138  0.0096 -0.5141
   18MPD2    C1  280   3.450   1.437   9.959 -0.1222  0.0105  0.4542
   18MPD2    C2  281   3.522   1.490  10.064  0.2543 -0.1953 -0.4169
   18MPD2    C3  282   3.604   1.597  10.047 -0.0538 -0.4757 -0.3366
   18MPD2    C4  283   3.604   1.666   9.931 -0.5275 -0.5124  0.1336
   18MPD2    C5  284   3.542   1.609   9.819 -0.3015  0.2928  0.4087
   18MPD2     H  285   3.505   1.453  10.164  1.6426  0.9446  0.2430
   18MPD2    H1  286   3.663   1.757   9.920  0.8358 -1.2707  1.0825
   18MPD2    H2  287   3.413   1.446   9.751 -0.7816  0.6138 -0.9190
   18MPD2    H3  288   3.547   1.658   9.722  1.4105  0.4071  0.5699
   18MPD2     N  289   3.687   1.662  10.143 -0.1676 -0.2200 -0.6153
   18MPD2    H5  290   3.738   1.739  10.102  0.5327  0.1421  0.9384
   18MPD2    N1  291   3.373   1.322   9.983 -0.2054 -0.4718 -0.3501
   18MPD2    H7  292   3.377   1.288  10.079  0.4671 -2.0635 -0.9375
   19TMC2    C1  293   0.293   2.430  14.214  0.4735 -0.7151 -0.7309
   19TMC2    C2  294   0.236   2.515  14.309  0.4784  0.4713  0.3134
   19TMC2    C3  295   0.103   2.499  14.340  0.1003  0.1111 -0.7576
   19TMC2    C4  296   0.215   2.344  14.146  0.7083  0.7152  0.3966
   19TMC2    C5  297   0.090   2.327  14.182  0.2890 -0.3976  0.3777
   19TMC2    C6  298   0.039   2.398  14.280 -0.2394 -0.0819 -0.4496
   19TMC2     C  299   0.386   2.504  14.134  0.0825 -0.4551  0.4343
   19TMC2     O  300   0.392   2.624  14.161  0.0088 -0.0497  0.0773
   19TMC2     H  301   0.299   2.576  14.373  0.3507  0.5613  0.3532
   19TMC2    H1  302   0.255   2.286  14.063 -0.6181  1.7378 -0.9427
   19TMC2    H2  303   4.672   2.381  14.314  0.6767 -1.7342  1.4643
   19TMC2    C7  304   0.007   2.233  14.102  0.0314 -0.4873  0.4848
   19TMC2    C8  305   0.047   2.552  14.458 -1.0647  0.5201  0.4981
   19TMC2    O1  306   0.076   2.149  14.051  0.1152  0.2458  0.3811
   19TMC2    O2  307   0.020   2.474  14.544 -0.1795  0.3745  0.5393
   19TMC2    O5  308   0.100   2.673  14.485  0.0350  0.1451 -0.3230
   19TMC2    H5  309   0.125   2.720  14.402 -1.6805  1.1384 -0.2633
   20MPD2     C  310   0.639   2.575  13.988 -0.1562 -0.5953 -0.6350
   20MPD2    C1  311   0.601   2.448  14.027  0.0560 -0.4556  0.5370
   20MPD2    C2  312   0.698   2.344  14.028  0.4687  0.6794  0.3704
   20MPD2    C3  313   0.827   2.373  13.988 -0.4892  0.3617  0.1290
   20MPD2    C4  314   0.859   2.499  13.961  1.0821 -0.9124 -0.2192
   20MPD2    C5  315   0.772   2.601  13.955 -0.0945  0.0093  0.3658
   20MPD2     H  316   0.672   2.240  14.044  1.2549  0.4463  0.1318
   20MPD2    H1  317   0.963   2.530  13.957  1.2816 -1.7882 -1.8708
   20MPD2    H2  318   0.574   2.660  13.967  0.5085 -0.2554 -1.3330
   20MPD2    H3  319   0.803   2.704  13.939 -1.6386  0.5875  1.0104
   20MPD2     N  320   0.934   2.278  13.976  0.1745  0.1139 -0.1424
   20MPD2    H5  321   1.024   2.307  13.940 -0.2584 -0.5731 -1.7651
   20MPD2    N1  322   0.479   2.417  14.085  0.2669  0.7591  0.0840
   20MPD2    H7  323   0.464   2.318  14.106 -0.8454  0.5412 -1.6928
   21TMC2    C1  324   2.586   2.881  14.958 -0.4441  0.4495  0.5673
   21TMC2    C2  325   2.568   2.828  15.082  0.2879  0.4011  0.5695
   21TMC2    C3  326   2.480   2.890  15.168  0.0463 -0.1378  0.1451
   21TMC2    C4  327   2.501   2.980  14.918  0.4741  0.4504  0.2953
   21TMC2    C5  328   2.423   3.051  15.012 -0.5436  0.6423  0.3110
   21TMC2    C6  329   2.418   3.011  15.142  0.2243  0.8024 -0.0973
   21TMC2     C  330   2.665   2.812  14.863  0.0446  0.5264  0.0068
   21TMC2     O  331   2.727   2.710  14.896  0.0190  0.3453  0.2926
   21TMC2     H  332   2.616   2.734  15.107 -1.3708 -0.3144  1.0474
   21TMC2    H1  333   2.504   3.015  14.815  0.5512  0.9604  0.4715
   21TMC2    H2  334   2.336   3.046  15.203  0.4896 -0.8160  1.1882
   21TMC2    C7  335   2.321   3.139  14.974  0.1309 -0.2939  0.1730
   21TMC2    C8  336   2.433   2.817  15.285  0.0976 -0.1203 -0.0066
   21TMC2    O1  337   2.228   3.150  15.052 -0.0178 -0.2423  0.5841
   21TMC2    O2  338   2.387   2.876  15.380  0.2075 -0.2892 -0.5678
   21TMC2    O5  339   2.438   2.686  15.270 -0.2235  0.5969 -0.1719
   21TMC2    H5  340   2.458   2.641  15.185 -1.9560 -0.5577  0.0231
   22MPD2     C  341   2.877   2.782  14.401 -0.5291 -0.0994 -0.8618
   22MPD2    C1  342   2.900   2.703  14.506 -0.1597 -0.0243 -0.3103
   22MPD2    C2  343   2.835   2.734  14.624  0.7710  0.5667 -0.7940
   22MPD2    C3  344   2.731   2.829  14.622 -0.4775  0.6387  0.5405
   22MPD2    C4  345   2.688   2.892  14.503  0.2517  0.8915  0.0096
   22MPD2    C5  346   2.775   2.876  14.397 -0.3524  0.7048 -0.8931
   22MPD2     H  347   2.850   2.672  14.711  0.0349  1.3984 -0.0726
   22MPD2    H1  348   2.620   2.976  14.502 -0.7809  0.0497 -0.1749
   22MPD2    H2  349   2.935   2.778  14.309 -0.0404 -0.9104 -0.5220
   22MPD2    H3  350   2.739   2.929  14.309  2.5564  0.7726 -2.0352
   22MPD2     N  351   2.668   2.872  14.740  0.2714  0.2541 -0.5237
   22MPD2    H5  352   2.605   2.951  14.730 -0.8119 -0.3181  1.7362
   22MPD2    N1  353   2.991   2.594  14.519  0.3148 -0.1470 -0.6810
   22MPD2    H7  354   2.990   2.533  14.600  0.9881  1.4112  0.5025
   23TMC2    C1  355   4.220   3.909  14.717  0.3559 -0.0039 -1.1015
   23TMC2    C2  356   4.150   4.026  14.724  0.0124 -0.6090 -0.4571
   23TMC2    C3  357   4.050   4.051  14.636  0.1552 -0.0579  0.7336
   23TMC2    C4  358   4.187   3.810  14.621 -0.2617 -0.1686 -0.9306
   23TMC2    C5  359   4.074   3.831  14.539 -0.4354 -0.3332  0.9218
   23TMC2    C6  360   4.009   3.951  14.544  0.2375  0.3810 -0.7191
   23TMC2     C  361   4.348   3.900  14.785 -0.0475 -0.5067 -0.7488
   23TMC2     O  362   4.373   3.784  14.822 -0.3894  0.0765  0.3199
   23TMC2     H  363   4.181   4.086  14.808  2.0141 -2.0071 -0.2130
   23TMC2    H1  364   4.241   3.716  14.616 -1.7189 -1.0052 -0.9820
   23TMC2    H2  365   3.951   3.995  14.463 -2.3792 -0.6846  0.5659
   23TMC2    C7  366   4.034   3.724  14.444  0.7613  0.1228 -0.7300
   23TMC2    C8  367   3.955   4.156  14.669 -0.6425 -0.7459 -0.0362
   23TMC2    O1  368   4.116   3.641  14.407  0.7318  0.6078 -0.0868
   23TMC2    O2  369   3.840   4.154  14.624  0.5378  0.6604 -0.2858
   23TMC2    O5  370   3.986   4.213  14.780  0.4279 -0.0186  0.6450
   23TMC2    H5  371   4.078   4.247  14.775 -0.1053  1.0634 -1.7132
   24MPD2     C  372   0.013   4.081  15.035 -0.7161 -0.3839 -0.1884
   24MPD2    C1  373   4.673   3.963  15.054 -0.4496 -0.7610 -0.0097
   24MPD2    C2  374   4.563   3.943  14.977  0.2064 -0.1233  0.3262
   24MPD2    C3  375   4.538   4.028  14.873 -0.7245  0.1006  0.0199
   24MPD2    C4  376   4.619   4.140  14.853 -0.2485  0.5604  0.2747
   24MPD2    C5  377   4.720   4.166  14.942  0.2310  0.1441 -0.0922
   24MPD2     H  378   4.497   3.862  15.008  1.6282 -0.6995  1.8367
   24MPD2    H1  379   4.603   4.210  14.772  0.0695  0.1385 -0.1553
   24MPD2    H2  380   0.102   4.101  15.093 -0.8460  1.6139 -0.6496
   24MPD2    H3  381   0.053   4.250  14.931  0.5133 -0.1007 -0.2215
   24MPD2     N  382   4.423   4.016  14.787 -0.0507  0.2837  0.4544
   24MPD2    H5  383   4.397   4.097  14.731  1.0883 -0.3229 -0.9601
   24MPD2    N1  384   4.712   3.863  15.152 -0.1235  0.1795 -0.3950
   24MPD2    H7  385   4.649   3.784  15.163 -0.3227  0.3294 -0.4674
   25TMC2    C1  386   3.328   1.707  11.189 -0.5619  0.3265  0.1846
   25TMC2    C2  387   3.383   1.832  11.176 -0.1913  0.6259  1.0864
   25TMC2    C3  388   3.440   1.896  11.284  0.3202  0.4032  0.0692
   25TMC2    C4  389   3.327   1.659  11.318  0.4548  0.2829 -0.1812
   25TMC2    C5  390   3.372   1.732  11.426 -0.0937  0.0878  0.2404
   25TMC2    C6  391   3.432   1.856  11.413  0.6610 -0.4038  0.1910
   25TMC2     C  392   3.315   1.631  11.064 -0.1062  0.1944  0.4340
   25TMC2     O  393   3.332   1.697  10.958 -0.3622 -0.0009  0.4602
   25TMC2     H  394   3.371   1.881  11.080  0.3367 -1.4320 -0.0427
   25TMC2    H1  395   3.263   1.575  11.344  1.2667 -0.0766  0.6590
   25TMC2    H2  396   3.464   1.906  11.503 -1.6771  2.9597 -0.8354
   25TMC2    C7  397   3.315   1.689  11.546 -1.2742  0.5316 -0.1051
   25TMC2    C8  398   3.502   2.015  11.236  0.2743 -0.4106  0.3888
   25TMC2    O1  399   3.273   1.575  11.565  0.2798 -0.2502  0.3296
   25TMC2    O2  400   3.566   2.009  11.132  0.1787 -0.3036  0.3890
   25TMC2    O5  401   3.534   2.089  11.343  0.0943 -0.3900  0.3121
   25TMC2    H5  402   3.468   2.059  11.409 -0.6851 -1.5695 -1.0286
   26MPD2     C  403   3.299   1.239  10.751  0.0324 -0.5065 -0.0845
   26MPD2    C1  404   3.239   1.195  10.870 -0.1083 -0.4718 -0.0026
   26MPD2    C2  405   3.237   1.284  10.976  0.4830 -0.6266  0.2970
   26MPD2    C3  406   3.297   1.403  10.966  1.0440 -0.1890  0.3699
   26MPD2    C4  407   3.358   1.441  10.852  0.5301 -0.3379 -0.1532
   26MPD2    C5  408   3.362   1.358  10.745  0.1630  0.0159 -0.0315
   26MPD2     H  409   3.204   1.244  11.071 -0.8511 -1.3468 -0.4694
   26MPD2    H1  410   3.411   1.533  10.829 -0.4546  0.5474  1.1355
   26MPD2    H2  411   3.296   1.177  10.663 -0.7870  1.1324 -1.2105
   26MPD2    H3  412   3.415   1.390  10.656  1.4645  0.1869  0.8032
   26MPD2     N  413   3.289   1.494  11.078  0.7582 -0.5216  0.2329
   26MPD2    H5  414   3.269   1.461  11.172 -2.1284 -0.8316 -0.5026
   26MPD2    N1  415   3.175   1.066  10.855 -0.3035  0.3076  0.6865
   26MPD2    H7  416   3.180   1.017  10.767  0.9896  0.6674  0.5501
   27TMC2    C1  417   2.384   3.532  11.784 -0.0535 -0.5230  0.2098
   27TMC2    C2  418   2.434   3.557  11.660 -0.5645  0.8202 -0.4776
   27TMC2    C3  419   2.460   3.688  11.635  0.3648 -0.2406 -0.2598
   27TMC2    C4  420   2.380   3.626  11.884  0.4077  0.4362  0.8200
   27TMC2    C5  421   2.411   3.758  11.859 -0.1889  0.2582  0.1057
   27TMC2    C6  422   2.439   3.793  11.727  0.0523 -0.5044  0.5041
   27TMC2     C  423   2.298   3.415  11.785  0.6942 -0.2378 -0.9489
   27TMC2     O  424   2.302   3.350  11.683 -0.2360  0.3772 -0.3743
   27TMC2     H  425   2.453   3.483  11.583  1.3385 -0.6081  1.3898
   27TMC2    H1  426   2.346   3.594  11.982 -0.0780 -0.0654  0.4815
   27TMC2    H2  427   2.447   3.899  11.705 -2.5610 -0.4060 -0.0808
   27TMC2    C7  428   2.381   3.862  11.954  0.1303 -0.0565 -0.0807
   27TMC2    C8  429   2.505   3.713  11.502 -0.4164  0.2586 -0.6537
   27TMC2    O1  430   2.361   3.974  11.906  0.1134 -0.1517 -0.4634
   27TMC2    O2  431   2.460   3.644  11.415 -0.0698  0.9033  0.0203
   27TMC2    O5  432   2.542   3.847  11.497 -0.0406 -0.7368 -0.4767
   27TMC2    H5  433   2.603   3.873  11.570  0.8774 -0.0450 -1.4888
   28MPD2     C  434   2.021   3.068  12.029 -0.4269 -0.0174  0.3046
   28MPD2    C1  435   1.994   3.187  12.097 -0.1115 -0.5107 -0.1703
   28MPD2    C2  436   2.073   3.287  12.053 -0.0715  0.1094  0.6017
   28MPD2    C3  437   2.155   3.284  11.941  0.2255 -0.0283 -0.4428
   28MPD2    C4  438   2.184   3.161  11.887  0.4527 -0.0514 -0.0749
   28MPD2    C5  439   2.111   3.052  11.930  0.1454  0.7200  0.3354
   28MPD2     H  440   2.067   3.385  12.098  3.5442 -0.2051  1.6984
   28MPD2    H1  441   2.251   3.146  11.802  0.5986  1.2762 -0.1913
   28MPD2    H2  442   1.972   2.980  12.069  0.0065  0.4029  1.7495
   28MPD2    H3  443   2.134   2.956  11.886  3.4544  0.9498  1.5589
   28MPD2     N  444   2.224   3.400  11.899 -0.2236 -0.7305 -1.1528
   28MPD2    H5  445   2.223   3.484  11.956  0.9336 -1.3353 -0.2346
   28MPD2    N1  446   1.910   3.189  12.216 -0.1043  0.5947  0.6495
   28MPD2    H7  447   1.864   3.100  12.234  0.3353 -0.3473 -2.9018
   29TMC2    C1  448   2.003   1.321  14.295  0.1338  0.2659  0.0752
   29TMC2    C2  449   1.886   1.370  14.345  0.1904 -0.4833  0.3071
   29TMC2    C3  450   1.881   1.500  14.375 -0.0365 -0.3816  0.4784
   29TMC2    C4  451   2.111   1.400  14.273 -0.0168 -0.3504  0.5095
   29TMC2    C5  452   2.098   1.531  14.308  0.3883  1.0215 -0.2352
   29TMC2    C6  453   1.987   1.581  14.365  0.1935 -0.1021  0.2005
   29TMC2     C  454   2.005   1.190  14.225  0.3124  0.6515 -0.4162
   29TMC2     O  455   2.107   1.167  14.167 -0.1572  0.2223  0.2973
   29TMC2     H  456   1.795   1.311  14.348 -0.3781  0.4479  1.3694
   29TMC2    H1  457   2.198   1.360  14.221  0.0502 -0.6499  0.8491
   29TMC2    H2  458   1.979   1.682  14.402  2.4284 -0.0088  0.4471
   29TMC2    C7  459   2.211   1.622  14.275  0.0619  1.0104  0.6731
   29TMC2    C8  460   1.776   1.544  14.461  0.4209 -0.8549  0.1938
   29TMC2    O1  461   2.268   1.600  14.168 -0.3489  0.0267 -0.1206
   29TMC2    O2  462   1.711   1.461  14.525  0.2984  0.0276  0.2387
   29TMC2    O5  463   1.730   1.660  14.407 -0.2798  0.1308  0.3949
   29TMC2    H5  464   1.772   1.689  14.323 -0.0061  0.2499  0.5715
   30MPD2     C  465   1.765   0.778  14.007  0.0019 -0.1669 -0.0428
   30MPD2    C1  466   1.896   0.827  13.992 -0.0224  0.5551 -0.5228
   30MPD2    C2  467   1.943   0.941  14.057 -0.1179  0.7453 -0.4117
   30MPD2    C3  468   1.859   1.001  14.151 -0.3455  0.4410 -0.4287
   30MPD2    C4  469   1.733   0.948  14.168 -0.0290 -0.2497  0.2238
   30MPD2    C5  470   1.683   0.838  14.102 -0.2184  0.7994 -0.4803
   30MPD2     H  471   2.044   0.977  14.043  0.4569 -1.7691 -2.6472
   30MPD2    H1  472   1.657   0.990  14.232  0.6398 -0.9454  1.4827
   30MPD2    H2  473   1.732   0.683  13.967  2.1210  0.3960 -3.1634
   30MPD2    H3  474   1.584   0.800  14.122  0.6454 -1.7837 -0.9765
   30MPD2     N  475   1.883   1.116  14.226 -0.3637  0.6249  0.1618
   30MPD2    H5  476   1.796   1.146  14.267 -0.2780  0.8782  0.1582
   30MPD2    N1  477   1.976   0.766  13.899 -0.0941  0.6324 -0.0546
   30MPD2    H7  478   2.073   0.795  13.910  0.7036 -1.1936 -2.3075
   31TMC2    C1  479   4.576   3.888  15.511  0.4684  0.5304  0.2727
   31TMC2    C2  480   4.535   3.762  15.467 -0.5521 -0.2590  0.2950
   31TMC2    C3  481   4.533   3.658  15.544  0.3691  0.2274  0.1252
   31TMC2    C4  482   4.608   3.913  15.642  0.5277 -0.3527  0.0109
   31TMC2    C5  483   4.604   3.800  15.724  0.2941  0.0252 -0.3683
   31TMC2    C6  484   4.574   3.674  15.671  0.1704  0.1439 -0.1165
   31TMC2     C  485   4.552   3.998  15.420  0.5472  0.5692 -0.2173
   31TMC2     O  486   4.629   4.089  15.406  0.1748 -0.4011  0.0779
   31TMC2     H  487   4.504   3.753  15.363 -0.7763 -0.1387  0.3539
   31TMC2    H1  488   4.648   4.008  15.675 -0.5451 -1.0867  3.4208
   31TMC2    H2  489   4.594   3.584  15.728 -0.2898 -0.4711 -0.9169
   31TMC2    C7  490   4.607   3.812  15.871 -0.2950 -0.0571  0.3718
   31TMC2    C8  491   4.486   3.535  15.492  0.1909  0.0658  0.7180
   31TMC2    O1  492   4.567   3.711  15.929 -0.2303 -0.1732  0.3447
   31TMC2    O2  493   4.483   3.519  15.373  0.2634  0.1564  0.3679
   31TMC2    O5  494   4.391   3.484  15.583  0.0465  0.1499 -0.7109
   31TMC2    H5  495   4.397   3.517  15.675 -1.4475  2.4730 -1.4572
   32MPD2     C  496   4.232   4.228  15.085  0.1588  0.5498 -0.0081
   32MPD2    C1  497   4.363   4.258  15.116 -0.1763  0.0582  0.0767
   32MPD2    C2  498   4.427   4.175  15.207 -0.0350  1.0441 -0.0986
   32MPD2    C3  499   4.362   4.064  15.270  0.8752 -0.2526  0.4098
   32MPD2    C4  500   4.229   4.037  15.237  0.4140 -0.3790 -0.6697
   32MPD2    C5  501   4.168   4.118  15.147 -0.0393  0.5020  0.5996
   32MPD2     H  502   4.528   4.209  15.231  0.2850  0.8790 -1.1868
   32MPD2    H1  503   4.176   3.955  15.285 -3.0035  0.8778 -2.3358
   32MPD2    H2  504   4.174   4.279  15.009  1.2470 -1.1453 -1.9921
   32MPD2    H3  505   4.064   4.097  15.122  0.1212 -0.7813  1.0084
   32MPD2     N  506   4.425   3.983  15.372  0.7063  0.4533  0.0875
   32MPD2    H5  507   4.364   3.919  15.422  0.1853  0.8828  0.0071
   32MPD2    N1  508   4.422   4.370  15.053  0.5271  0.5700 -0.1634
   32MPD2    H7  509   4.358   4.415  14.988 -1.2792 -0.7032  0.7142
   33TMC2    C1  510   3.856   2.638   9.989  0.2201 -0.2583 -0.6548
   33TMC2    C2  511   3.764   2.738  10.017 -0.3664 -0.5631 -0.0103
   33TMC2    C3  512   3.776   2.840   9.927  0.3764 -0.3078 -0.4998
   33TMC2    C4  513   3.941   2.633   9.879  0.0752  0.2217 -0.0257
   33TMC2    C5  514   3.943   2.745   9.794 -0.0858 -0.8269 -0.0573
   33TMC2    C6  515   3.858   2.841   9.817 -0.0614 -0.2360 -0.6741
   33TMC2     C  516   3.880   2.530  10.085  0.1553 -0.1231  0.2083
   33TMC2     O  517   3.930   2.427  10.043 -0.3222  0.1657  0.9103
   33TMC2     H  518   3.689   2.738  10.095 -1.0371  0.1422 -0.6571
   33TMC2    H1  519   4.019   2.557   9.874  2.1445  2.1628  3.0253
   33TMC2    H2  520   3.862   2.928   9.753  0.1941  1.1243  1.1963
   33TMC2    C7  521   4.070   2.789   9.739 -0.0897  0.3514  0.2013
   33TMC2    C8  522   3.689   2.956   9.954 -0.5209 -0.3066  0.0871
   33TMC2    O1  523   4.067   2.874   9.653  0.6783 -0.5295 -0.2951
   33TMC2    O2  524   3.588   2.956  10.023 -0.1745  0.2092  0.8170
   33TMC2    O5  525   3.762   3.068   9.931  0.3167  0.2510  0.0138
   33TMC2    H5  526   3.851   3.044   9.896  0.0701 -0.4534 -0.1188
   34MPD2     C  527   3.917   2.377  10.562  0.3153  0.5006 -0.3684
   34MPD2    C1  528   3.895   2.298  10.451 -0.5272 -0.2655  0.2422
   34MPD2    C2  529   3.877   2.360  10.330 -0.4503  0.9075 -0.2183
   34MPD2    C3  530   3.888   2.497  10.321 -0.3952 -0.2072  0.2469
   34MPD2    C4  531   3.900   2.573  10.433  0.2319  0.5927 -0.0221
   34MPD2    C5  532   3.920   2.508  10.556  0.0099 -0.5105 -0.5779
   34MPD2     H  533   3.861   2.319  10.231 -0.4778 -0.6090  0.4134
   34MPD2    H1  534   3.906   2.681  10.448 -1.5566  0.5616  0.9343
   34MPD2    H2  535   3.922   2.335  10.661  1.5535  3.1396  0.6805
   34MPD2    H3  536   3.929   2.568  10.646  2.3311 -0.0531 -1.1191
   34MPD2     N  537   3.868   2.574  10.210  0.1083  0.2505  0.5766
   34MPD2    H5  538   3.866   2.675  10.226 -0.6279  0.5140 -1.1455
   34MPD2    N1  539   3.898   2.157  10.473  1.1703 -0.0064 -0.1287
   34MPD2    H7  540   3.907   2.127  10.570 -0.9789 -1.9389 -0.5194
   35TMC2    C1  541   0.933   3.564  10.929  0.0432 -0.7369  0.0646
   35TMC2    C2  542   0.874   3.562  10.805  0.4038  0.3116 -0.3180
   35TMC2    C3  543   0.741   3.586  10.801 -0.2153 -0.1418  0.3249
   35TMC2    C4  544   0.865   3.614  11.040 -0.2644  0.3122  0.0402
   35TMC2    C5  545   0.725   3.629  11.034 -0.0671  0.5945 -0.4120
   35TMC2    C6  546   0.662   3.616  10.913  0.0401  0.2948  1.0131
   35TMC2     C  547   1.078   3.545  10.938  0.0594  0.0363  0.6118
   35TMC2     O  548   1.147   3.574  10.842  0.0155  0.1052  0.3511
   35TMC2     H  549   0.933   3.549  10.715 -2.0538 -1.9052 -1.5861
   35TMC2    H1  550   0.917   3.621  11.135  0.8101  0.8914 -0.5940
   35TMC2    H2  551   0.556   3.632  10.900  0.6812  2.5926 -1.4456
   35TMC2    C7  552   0.655   3.591  11.151 -0.8250 -0.1133 -0.2902
   35TMC2    C8  553   0.681   3.597  10.670  0.0991 -0.1928 -0.0155
   35TMC2    O1  554   0.727   3.557  11.248 -0.1327 -0.4444  0.1119
   35TMC2    O2  555   0.567   3.564  10.650 -0.6690  0.1870 -0.1931
   35TMC2    O5  556   0.777   3.641  10.584  0.1322 -0.1607 -0.0227
   35TMC2    H5  557   0.848   3.690  10.630  0.0341  0.3719 -0.4549
   36MPD2     C  558   1.470   3.446  11.265  0.5202 -0.2795 -0.6231
   36MPD2    C1  559   1.360   3.375  11.306 -0.0336  0.1718  0.3017
   36MPD2    C2  560   1.245   3.380  11.228 -0.0571 -0.4974 -0.3382
   36MPD2    C3  561   1.234   3.455  11.117 -0.1397  0.7170  0.3382
   36MPD2    C4  562   1.354   3.512  11.071 -0.3071  0.0927 -0.6379
   36MPD2    C5  563   1.472   3.504  11.144 -0.3940  0.2209 -0.4107
   36MPD2     H  564   1.148   3.344  11.260 -0.2172 -0.4439 -0.7666
   36MPD2    H1  565   1.356   3.577  10.984 -0.1632  2.1130  0.8742
   36MPD2    H2  566   1.563   3.442  11.322 -0.1959  0.7505  0.6216
   36MPD2    H3  567   1.564   3.547  11.107 -0.1300  0.9108  1.0958
   36MPD2     N  568   1.108   3.478  11.056  0.0008  0.2603 -0.6486
   36MPD2    H5  569   1.032   3.457  11.121  1.7283 -1.7242  0.7366
   36MPD2    N1  570   1.368   3.338  11.441  0.1332  0.5703  0.0665
   36MPD2    H7  571   1.445   3.371  11.499 -2.0918  2.4832  1.9399
   37TMC2    C1  572   3.233   3.625  11.681  0.1416  0.2602  0.5199
   37TMC2    C2  573   3.136   3.636  11.591  0.0741  0.2926 -0.6627
   37TMC2    C3  574   3.172   3.655  11.459  0.9443  0.0259  0.7154
   37TMC2    C4  575   3.364   3.637  11.646 -0.3029 -0.3497  0.0848
   37TMC2    C5  576   3.401   3.650  11.518  0.1766  0.6152  0.7377
   37TMC2    C6  577   3.303   3.671  11.419  0.3194  0.3715 -0.2660
   37TMC2     C  578   3.196   3.633  11.821 -0.5743  0.2909  0.4729
   37TMC2     O  579   3.078   3.665  11.843 -0.4279  0.0841  0.1458
   37TMC2     H  580   3.032   3.623  11.619  0.9393 -1.5263  1.6302
   37TMC2    H1  581   3.441   3.632  11.722 -0.3856  0.6153  0.2355
   37TMC2    H2  582   3.336   3.660  11.316 -0.8036 -0.6067 -0.5292
   37TMC2    C7  583   3.542   3.643  11.494  0.3366  0.0706 -0.3267
   37TMC2    C8  584   3.082   3.599  11.359 -0.0763  0.3722 -0.2249
   37TMC2    O1  585   3.611   3.603  11.588 -0.7698  0.1299 -0.1486
   37TMC2    O2  586   3.105   3.627  11.241 -0.1483  0.0502 -0.1862
   37TMC2    O5  587   3.034   3.479  11.391 -0.3604  0.6404 -0.1983
   37TMC2    H5  588   3.056   3.450  11.482 -2.6695  1.0111  0.4542
   38MPD2     C  589   3.292   3.679  12.323  0.1055 -0.2272  0.7967
   38MPD2    C1  590   3.413   3.640  12.259 -0.0740  0.1833 -0.3627
   38MPD2    C2  591   3.407   3.610  12.121  0.2106 -0.0249  0.5710
   38MPD2    C3  592   3.286   3.620  12.053 -0.5620  0.7166 -0.1380
   38MPD2    C4  593   3.170   3.657  12.116  0.2131 -0.9131 -0.6913
   38MPD2    C5  594   3.175   3.692  12.255 -0.1473 -0.0933  1.1775
   38MPD2     H  595   3.496   3.582  12.067  0.3299 -0.2246  0.8677
   38MPD2    H1  596   3.079   3.641  12.060 -0.9469 -0.4262  1.0779
   38MPD2    H2  597   3.285   3.690  12.430  1.1384  0.6427  0.7704
   38MPD2    H3  598   3.081   3.704  12.307  0.3653 -0.4843  2.1912
   38MPD2     N  599   3.297   3.599  11.914  0.1274  0.1288 -0.4483
   38MPD2    H5  600   3.383   3.568  11.871  0.9869  0.3896  1.0799
   38MPD2    N1  601   3.534   3.635  12.330 -0.2415 -0.2518 -0.1621
   38MPD2    H7  602   3.612   3.583  12.290 -0.9591 -0.2719 -1.5512
   39TMC2    C1  603   1.045   0.252   2.063  0.0220  0.9228  0.6949
   39TMC2    C2  604   0.940   0.261   2.159 -0.1860  0.2344  0.2068
   39TMC2    C3  605   0.969   0.278   2.292 -0.1195 -0.2648  0.4546
   39TMC2    C4  606   1.174   0.267   2.104  0.4706  1.0806  0.5143
   39TMC2    C5  607   1.195   0.277   2.242  0.5285  0.5708 -0.2365
   39TMC2    C6  608   1.097   0.287   2.334 -0.1289  0.8970 -0.6373
   39TMC2     C  609   1.005   0.263   1.931 -0.4373  0.6843  0.2630
   39TMC2     O  610   0.894   0.310   1.913  0.3790 -0.3608  0.1633
   39TMC2     H  611   0.838   0.241   2.130 -0.3350  1.1636  0.1156
   39TMC2    H1  612   1.244   0.249   2.023  1.8217  1.2215  1.6444
   39TMC2    H2  613   1.115   0.276   2.440 -3.8109 -0.1406 -0.1291
   39TMC2    C7  614   1.324   0.240   2.300  0.1893  0.2236  0.5276
   39TMC2    C8  615   0.868   0.329   2.381  0.5848  0.7135  0.3405
   39TMC2    O1  616   1.335   0.219   2.419 -1.0133 -0.2867  0.1998
   39TMC2    O2  617   0.762   0.271   2.393 -0.4707 -0.1509  0.0420
   39TMC2    O5  618   0.921   0.417   2.466  0.0985  0.0363 -0.0740
   39TMC2    H5  619   1.017   0.434   2.459  0.3145 -0.5595  1.4505
   40MPD2     C  620   1.121   0.071   1.647 -0.7137  0.0091 -0.1237
   40MPD2    C1  621   1.073   0.180   1.713  0.6264  0.4952 -0.1603
   40MPD2    C2  622   0.989   0.263   1.643  0.4405  0.1286 -0.6777
   40MPD2    C3  623   0.976   0.254   1.503 -0.2681 -0.0911 -0.0626
   40MPD2    C4  624   1.032   0.147   1.443  1.3270  0.5703  0.2462
   40MPD2    C5  625   1.111   0.066   1.509 -0.1698  0.4200 -0.1541
   40MPD2     H  626   0.943   0.344   1.698  0.8638  0.3080 -0.5821
   40MPD2    H1  627   1.057   0.148   1.337 -1.8673  0.3057 -0.5067
   40MPD2    H2  628   1.187   0.012   1.710  0.3612 -1.3975 -2.5729
   40MPD2    H3  629   1.160   4.717   1.458 -3.8387 -0.7724 -1.7352
   40MPD2     N  630   0.904   0.342   1.424 -0.2207 -0.4248 -0.3359
   40MPD2    H5  631   0.877   0.309   1.332 -1.4270 -0.1002 -0.0889
   40MPD2    N1  632   1.086   0.194   1.851  0.2749 -0.4666 -0.1528
   40MPD2    H7  633   1.155   0.129   1.888 -1.3638 -1.6913  0.7565
   41TMC2    C1  634   0.035   3.539  13.919  0.1467 -0.3246 -0.9576
   41TMC2    C2  635   0.165   3.516  13.950 -0.0341 -0.1623 -0.1137
   41TMC2    C3  636   0.259   3.490  13.851  0.5393  0.5660  0.1031
   41TMC2    C4  637   4.719   3.547  13.796 -0.1928 -0.4673  0.2177
   41TMC2    C5  638   0.084   3.541  13.699  0.9073 -0.0022 -0.8159
   41TMC2    C6  639   0.219   3.502  13.722  0.1611 -0.0623 -0.4889
   41TMC2     C  640   4.674   3.527  14.034 -0.5708  0.7416 -0.7479
   41TMC2     O  641   4.575   3.461  14.015 -0.1495  0.1962  0.9611
   41TMC2     H  642   0.188   3.489  14.053 -1.6875 -0.6333  0.1423
   41TMC2    H1  643   4.613   3.570  13.783 -0.0592 -0.5845 -1.1105
   41TMC2    H2  644   0.289   3.501  13.639  1.6481 -2.4997  0.7931
   41TMC2    C7  645   0.057   3.615  13.585  0.2415  0.1208 -0.4568
   41TMC2    C8  646   0.399   3.476  13.878 -0.1193  0.6328 -0.0750
   41TMC2    O1  647   4.674   3.622  13.553 -0.1139  0.1272  0.4883
   41TMC2    O2  648   0.480   3.415  13.812 -0.0394 -0.7141  0.0683
   41TMC2    O5  649   0.421   3.505  14.011  0.0773 -0.1325  0.4220
   41TMC2    H5  650   0.350   3.562  14.048  2.3819  1.3507  2.5261
   42MPD2     C  651   4.558   3.522  14.305  0.5654  1.0438  0.0131
   42MPD2    C1  652   4.654   3.615  14.264 -0.0330  0.1262  0.2701
   42MPD2    C2  653   4.699   3.715  14.353 -0.3542 -0.1607  0.8509
   42MPD2    C3  654   4.654   3.720  14.484 -0.9702 -0.0260 -0.1469
   42MPD2    C4  655   4.558   3.624  14.524  0.2490 -0.4180 -0.7483
   42MPD2    C5  656   4.514   3.528  14.435 -0.1457  1.1879 -0.3651
   42MPD2     H  657   0.046   3.773  14.311 -1.7174  0.2057 -1.2349
   42MPD2    H1  658   4.511   3.637  14.621  0.6532 -3.4208 -0.1666
   42MPD2    H2  659   4.510   3.454  14.236  1.4696  0.9341 -0.5129
   42MPD2    H3  660   4.440   3.456  14.468  2.0225 -0.7092  0.3760
   42MPD2     N  661   4.714   3.810  14.576  0.5185 -0.1279 -0.1509
   42MPD2    H5  662   4.717   3.792  14.676 -1.4360 -0.2184 -0.1133
   42MPD2    N1  663   4.711   3.610  14.134  0.0147 -0.4584  0.0240
   42MPD2    H7  664   0.042   3.684  14.110  1.0254 -1.2822  0.1815
   43TMC2    C1  665   1.435   1.874   1.200 -0.6301 -0.3937  0.6734
   43TMC2    C2  666   1.327   1.796   1.226 -0.6003 -0.0913  0.3517
   43TMC2    C3  667   1.243   1.816   1.335  0.1850  0.2863  0.0809
   43TMC2    C4  668   1.468   1.981   1.283 -0.0224  0.2469 -0.1099
   43TMC2    C5  669   1.390   1.990   1.395 -0.1055 -0.1424  0.2643
   43TMC2    C6  670   1.273   1.917   1.420 -0.1365 -0.4871 -0.2096
   43TMC2     C  671   1.525   1.822   1.099  0.6426 -0.1387 -0.8251
   43TMC2     O  672   1.548   1.702   1.095 -0.2036 -0.1857  0.1940
   43TMC2     H  673   1.306   1.706   1.169  2.0925 -0.7831  0.4497
   43TMC2    H1  674   1.558   2.040   1.269  0.5140 -0.6283 -0.4217
   43TMC2    H2  675   1.216   1.922   1.512 -2.4679  0.5331 -1.6978
   43TMC2    C7  676   1.405   2.097   1.489 -0.1156 -0.1276 -0.5208
   43TMC2    C8  677   1.152   1.716   1.371  0.1156 -0.8654  0.0520
   43TMC2    O1  678   1.348   2.085   1.599  0.1046 -0.1078  0.2402
   43TMC2    O2  679   1.180   1.602   1.343 -0.2785 -0.0048 -0.1036
   43TMC2    O5  680   1.028   1.769   1.386 -0.0502 -0.4463 -0.0487
   43TMC2    H5  681   1.033   1.864   1.407 -0.9289 -0.6179  0.9712
   44MPD2     C  682   1.790   1.939   0.673 -0.1165 -0.1301  0.6420
   44MPD2    C1  683   1.760   1.816   0.728  0.0511 -0.3215 -0.4463
   44MPD2    C2  684   1.702   1.814   0.849 -0.1661 -0.1031 -0.1859
   44MPD2    C3  685   1.657   1.928   0.906  0.7371 -0.3305 -0.3016
   44MPD2    C4  686   1.666   2.048   0.841 -0.2320 -0.2302  0.1774
   44MPD2    C5  687   1.734   2.052   0.721  0.6408  0.6515  0.5215
   44MPD2     H  688   1.695   1.719   0.900  1.1227  0.7323  1.5347
   44MPD2    H1  689   1.627   2.140   0.881  0.3472 -0.1708  0.6125
   44MPD2    H2  690   1.841   1.951   0.579 -1.1550  1.7888  0.3340
   44MPD2    H3  691   1.770   2.148   0.687  0.2113 -0.7664 -3.8515
   44MPD2     N  692   1.579   1.926   1.022 -0.4184 -0.5821 -0.0437
   44MPD2    H5  693   1.544   2.015   1.056 -1.5853 -0.4408 -1.5826
   44MPD2    N1  694   1.799   1.686   0.679 -0.1039 -0.3625 -0.9867
   44MPD2    H7  695   1.785   1.605   0.738 -1.7757  0.1140 -0.7148
   45TMC2    C1  696   2.317   4.044   9.234  0.3799  0.7206 -0.0175
   45TMC2    C2  697   2.236   4.113   9.151  0.2175 -0.3414  0.0530
   45TMC2    C3  698   2.250   4.247   9.138 -0.1194 -0.4560 -0.6009
   45TMC2    C4  699   2.406   4.105   9.316  0.0605 -0.7610 -0.3713
   45TMC2    C5  700   2.427   4.243   9.298 -0.3410  0.4149  0.0756
   45TMC2    C6  701   2.350   4.314   9.210 -0.3220  0.0326 -0.5546
   45TMC2     C  702   2.315   3.896   9.230  0.2211  0.2796 -0.1092
   45TMC2     O  703   2.410   3.830   9.268 -0.4044  0.0931 -0.1065
   45TMC2     H  704   2.155   4.066   9.098  1.1654 -1.1472 -0.6642
   45TMC2    H1  705   2.467   4.041   9.379 -0.7916  0.9210  2.1368
   45TMC2    H2  706   2.363   4.421   9.215  2.9978 -0.3257 -1.9440
   45TMC2    C7  707   2.545   4.306   9.348  0.8263 -0.4035  0.1547
   45TMC2    C8  708   2.166   4.302   9.043 -0.2397  0.6493  1.1898
   45TMC2    O1  709   2.587   4.276   9.458 -0.4761  0.3677  0.6918
   45TMC2    O2  710   2.053   4.254   9.018  0.1266 -0.4643 -0.6904
   45TMC2    O5  711   2.227   4.404   8.983 -0.1287  0.2124 -0.0145
   45TMC2    H5  712   2.316   4.430   9.014  1.0817 -2.8387 -0.9579
   46MPD2     C  713   2.254   3.610   9.177  0.2555  0.5395  0.1324
   46MPD2    C1  714   2.162   3.711   9.173 -0.0131 -0.2793  0.2238
   46MPD2    C2  715   2.029   3.683   9.157  0.5244 -0.1951 -0.3279
   46MPD2    C3  716   1.979   3.553   9.156  0.0774 -0.5792  0.3774
   46MPD2    C4  717   2.075   3.451   9.147 -0.2197 -0.2329 -0.6244
   46MPD2    C5  718   2.210   3.478   9.164 -0.1358  0.5638 -0.3029
   46MPD2     H  719   1.962   3.768   9.150  0.2490 -0.4454 -0.7301
   46MPD2    H1  720   2.044   3.348   9.150 -1.9680  0.3061 -0.0884
   46MPD2    H2  721   2.360   3.619   9.196 -0.0452  1.5424  1.3402
   46MPD2    H3  722   2.280   3.395   9.172 -0.9711 -0.1177 -0.1666
   46MPD2     N  723   1.841   3.523   9.136 -0.8504 -0.3967 -0.5557
   46MPD2    H5  724   1.779   3.604   9.130 -0.2538  0.1957  1.2413
   46MPD2    N1  725   2.195   3.849   9.180  0.1252 -0.2591  0.6481
   46MPD2    H7  726   2.121   3.915   9.157  0.6334 -0.9345 -2.9388
   47TMC2    C1  727   4.598   0.253   9.161 -0.5016  1.0094  0.5812
   47TMC2    C2  728   4.643   0.237   9.034 -0.1280  0.1455 -0.1310
   47TMC2    C3  729   4.554   0.265   8.930  0.1619  0.1967 -0.2497
   47TMC2    C4  730   4.483   0.315   9.195 -0.7569  0.2397 -0.5561
   47TMC2    C5  731   4.402   0.347   9.087  0.0136 -0.0453 -0.2646
   47TMC2    C6  732   4.432   0.328   8.960 -0.3025 -0.3265 -0.0658
   47TMC2     C  733   4.695   0.246   9.266 -0.5822  0.3799  0.5060
   47TMC2     O  734   4.697   0.339   9.348 -0.2283 -0.0680  0.1496
   47TMC2     H  735   4.730   0.173   9.020 -1.8029 -2.0261 -0.4974
   47TMC2    H1  736   4.461   0.344   9.297  1.1704 -0.8030  0.1686
   47TMC2    H2  737   4.361   0.365   8.887 -0.2953  1.3381  0.7792
   47TMC2    C7  738   4.281   0.420   9.113 -0.5990 -0.0750  0.2652
   47TMC2    C8  739   4.578   0.216   8.798  0.1661 -0.9346 -0.0421
   47TMC2    O1  740   4.255   0.516   9.043  0.1330 -0.5190  0.1316
   47TMC2    O2  741   4.657   0.124   8.790 -0.4813  0.3004  1.0840
   47TMC2    O5  742   4.572   0.313   8.706  0.0897 -0.6481 -0.3561
   47TMC2    H5  743   4.516   0.389   8.733 -1.4886 -2.8113  2.3789
   48MPD2     C  744   0.202   0.203   9.430  0.4106 -0.2204 -0.3662
   48MPD2    C1  745   0.142   0.111   9.343 -0.2040 -0.1730  0.3259
   48MPD2    C2  746   0.208   4.727   9.336 -0.5412 -0.6495 -0.1503
   48MPD2    C3  747   0.321   4.692   9.411  0.7245 -0.4331  0.6919
   48MPD2    C4  748   0.376   0.042   9.497 -0.3177 -0.7912  0.0845
   48MPD2    C5  749   0.316   0.164   9.506 -0.9594  0.2677  0.2777
   48MPD2     H  750   0.180   4.663   9.253 -0.3013  0.4587 -1.1039
   48MPD2    H1  751   0.463   0.020   9.558  1.0895  0.6562 -1.3864
   48MPD2    H2  752   0.161   0.301   9.450  0.0945 -0.2624 -0.8313
   48MPD2    H3  753   0.352   0.244   9.570  2.1331 -0.2753 -0.7813
   48MPD2     N  754   0.374   4.563   9.394  0.3759  0.0218  0.2732
   48MPD2    H5  755   0.313   4.498   9.346  0.7566 -1.2954  1.5570
   48MPD2    N1  756   0.029   0.129   9.262 -0.4577  0.2537  1.1726
   48MPD2    H7  757   0.007   0.060   9.190 -0.1941  3.1806 -1.7423
   49TMC2    C1  758   3.245   1.758   9.954  0.3527 -0.4807 -0.1610
   49TMC2    C2  759   3.162   1.649   9.955  0.1942  0.5476  0.6233
   49TMC2    C3  760   3.068   1.635   9.865  0.2969 -0.7358 -0.6071
   49TMC2    C4  761   3.240   1.849   9.854 -0.1720 -0.7897 -0.6923
   49TMC2    C5  762   3.137   1.833   9.766 -0.5868  0.0190  0.3398
   49TMC2    C6  763   3.048   1.730   9.767  0.0376  0.2387 -0.1347
   49TMC2     C  764   3.311   1.791  10.080 -1.3504  0.3298  0.4369
   49TMC2     O  765   3.392   1.879  10.068 -0.2604 -0.0854  0.0080
   49TMC2     H  766   3.176   1.564  10.020 -1.2168  0.2298  0.5123
   49TMC2    H1  767   3.311   1.931   9.855 -0.8987 -0.1658 -0.1437
   49TMC2    H2  768   2.984   1.710   9.682  1.5061 -2.1157 -0.6827
   49TMC2    C7  769   3.123   1.934   9.669 -0.5494 -0.0272 -0.4515
   49TMC2    C8  770   2.981   1.523   9.858 -1.0011 -0.5816  0.1163
   49TMC2    O1  771   3.039   1.916   9.581 -0.6186 -0.7760 -0.3185
   49TMC2    O2  772   3.009   1.413   9.906  0.6971  0.2784 -0.3297
   49TMC2    O5  773   2.859   1.577   9.857  0.1395 -0.6142  0.2747
   49TMC2    H5  774   2.851   1.668   9.820  1.3137 -1.2333 -1.5249
   50MPD2     C  775   3.407   1.834  10.367 -0.0182  0.3214 -0.9419
   50MPD2    C1  776   3.292   1.763  10.331  0.3010 -0.7322  0.0889
   50MPD2    C2  777   3.224   1.688  10.424 -0.2813 -0.2609  0.7741
   50MPD2    C3  778   3.259   1.699  10.558 -0.1478  1.0451 -0.7730
   50MPD2    C4  779   3.366   1.781  10.594 -0.2600 -0.2940 -0.8354
   50MPD2    C5  780   3.445   1.839  10.497  0.3126 -0.1223 -0.7102
   50MPD2     H  781   3.143   1.621  10.398  2.1125 -1.6033 -3.2716
   50MPD2    H1  782   3.403   1.799  10.694 -1.2464  0.5189 -0.6201
   50MPD2    H2  783   3.471   1.879  10.292  0.5989 -0.9410 -1.1750
   50MPD2    H3  784   3.533   1.893  10.530 -0.2924  0.3308  0.1384
   50MPD2     N  785   3.182   1.632  10.657 -0.4518 -0.2341  0.2731
   50MPD2    H5  786   3.194   1.659  10.754 -4.0159 -0.5077  0.7903
   50MPD2    N1  787   3.260   1.735  10.195 -0.2701  0.0297 -0.1475
   50MPD2    H7  788   3.180   1.674  10.184 -0.4595  0.9101 -3.8136
   51TMC2    C1  789   4.710   4.490   1.658  0.3880  0.0178  0.0638
   51TMC2    C2  790   0.074   4.394   1.643  0.4739 -0.0457 -0.5247
   51TMC2    C3  791   0.174   4.398   1.733 -0.5778 -0.2091 -0.3370
   51TMC2    C4  792   4.698   4.580   1.762 -0.3205  0.3137  0.2787
   51TMC2    C5  793   0.076   4.577   1.845  0.5230 -0.0983 -0.7215
   51TMC2    C6  794   0.180   4.491   1.838 -0.5639 -0.1215 -0.2750
   51TMC2     C  795   4.621   4.515   1.541 -0.7762  0.4700  0.3868
   51TMC2     O  796   4.638   4.450   1.440  0.2160  0.8150 -0.4311
   51TMC2     H  797   0.071   4.324   1.561 -1.1648 -1.4528  0.7205
   51TMC2    H1  798   4.611   4.642   1.778 -0.3971  0.3220 -0.1729
   51TMC2    H2  799   0.258   4.489   1.913  0.2898 -1.2188 -1.1912
   51TMC2    C7  800   0.089   4.708   1.910  0.2733 -0.1968  0.0245
   51TMC2    C8  801   0.284   4.303   1.729  0.3462  0.0589 -0.3729
   51TMC2    O1  802   0.029   0.069   1.856  0.9164  0.5182 -0.2535
   51TMC2    O2  803   0.366   4.315   1.817 -0.1104 -0.4682 -0.2620
   51TMC2    O5  804   0.318   4.295   1.601  0.3437 -0.2374  0.4532
   51TMC2    H5  805   0.251   4.265   1.536  0.3570 -2.9040  1.6763
   52MPD2     C  806   4.297   0.098   1.289  0.5455  0.6179 -0.1955
   52MPD2    C1  807   4.376   0.005   1.236  0.1360 -0.2267  0.2221
   52MPD2    C2  808   4.446   4.660   1.325  0.4246 -0.3209 -0.1417
   52MPD2    C3  809   4.447   4.679   1.467 -0.0426 -0.5256  0.1155
   52MPD2    C4  810   4.374   0.048   1.512 -0.7505 -0.2527 -0.6741
   52MPD2    C5  811   4.294   0.119   1.428  0.5941  0.3429 -0.2880
   52MPD2     H  812   4.502   4.577   1.284  0.2192 -0.6171  0.1768
   52MPD2    H1  813   4.379   0.076   1.617  1.4260  0.5417 -0.9832
   52MPD2    H2  814   4.242   0.162   1.220  1.5808 -0.3083 -1.8903
   52MPD2    H3  815   4.251   0.210   1.467  1.1084 -0.3369  1.8675
   52MPD2     N  816   4.524   4.609   1.564 -0.0736 -0.3107 -0.0462
   52MPD2    H5  817   4.521   4.639   1.661  0.1144 -1.3428  0.2717
   52MPD2    N1  818   4.381   4.705   1.097  0.3985  0.3495 -0.1896
   52MPD2    H7  819   4.439   4.623   1.078  0.5577  0.0934  1.4081
   53TMC2    C1  820   4.281   3.634  11.505  0.6294 -0.0732 -0.2935
   53TMC2    C2  821   4.339   3.514  11.548 -0.1283  0.4189  0.2325
   53TMC2    C3  822   4.360   3.502  11.684  0.4047  0.2019 -0.0079
   53TMC2    C4  823   4.244   3.735  11.585  0.1954 -1.1651  0.1349
   53TMC2    C5  824   4.262   3.709  11.718  0.2169  0.0487 -0.2307
   53TMC2    C6  825   4.314   3.596  11.771  0.3004  0.4276 -0.0961
   53TMC2     C  826   4.199   3.630  11.390  0.6447  0.0061 -0.1065
   53TMC2     O  827   4.242   3.605  11.279  0.1920 -0.0026 -0.2703
   53TMC2     H  828   4.366   3.437  11.477  1.6699  1.8059 -0.6021
   53TMC2    H1  829   4.198   3.824  11.543  1.1439  0.0502  1.6767
   53TMC2    H2  830   4.316   3.581  11.878  1.2059 -0.6192 -0.2584
   53TMC2    C7  831   4.139   3.740  11.790  0.8971  0.4047  0.2335
   53TMC2    C8  832   4.401   3.383  11.743 -0.6641  0.3784  0.6253
   53TMC2    O1  833   4.027   3.729  11.729  0.4217 -0.2191 -0.0309
   53TMC2    O2  834   4.454   3.390  11.852 -0.0097 -0.0848  0.3781
   53TMC2    O5  835   4.325   3.274  11.711 -0.0548 -0.0588  0.1476
   53TMC2    H5  836   4.292   3.268  11.619 -1.6844 -1.7279  0.8429
   54MPD2     C  837   3.977   3.724  11.218 -0.2871  0.2414  0.1401
   54MPD2    C1  838   3.963   3.672  11.344  0.2778  0.0743  0.1656
   54MPD2    C2  839   3.834   3.640  11.396 -0.9511  0.4929  0.2126
   54MPD2    C3  840   3.718   3.664  11.315  0.9359 -0.0487  0.6859
   54MPD2    C4  841   3.735   3.710  11.185 -0.0135  0.7638 -0.2790
   54MPD2    C5  842   3.863   3.743  11.139  0.4761  0.3401 -0.2503
   54MPD2     H  843   3.827   3.630  11.504  2.3918 -1.8911  0.2005
   54MPD2    H1  844   3.659   3.740  11.114 -1.5724 -0.9187  0.6856
   54MPD2    H2  845   4.071   3.762  11.180  0.1679 -1.2190 -0.2173
   54MPD2    H3  846   3.864   3.785  11.039 -1.6797  0.0292 -0.4161
   54MPD2     N  847   3.581   3.659  11.364  0.3325 -0.2427 -0.3538
   54MPD2    H5  848   3.511   3.685  11.295  2.3077  2.2668 -1.4373
   54MPD2    N1  849   4.073   3.657  11.428  0.0565  0.1746  0.2759
   54MPD2    H7  850   4.060   3.633  11.526  1.8310 -0.1218  0.4345
   55TMC2    C1  851   4.546   1.744  17.723 -0.4520  0.0660  0.3322
   55TMC2    C2  852   4.519   1.709  17.596 -0.0314  0.0561 -0.2008
   55TMC2    C3  853   4.470   1.584  17.564  0.2778 -0.3351  0.0796
   55TMC2    C4  854   4.515   1.657   0.085 -0.4203 -0.6750 -0.1450
   55TMC2    C5  855   4.446   1.538   0.051 -0.0988 -0.8962  0.3744
   55TMC2    C6  856   4.424   1.498  17.660  0.6268  0.0384  1.0452
   55TMC2     C  857   4.570   1.880   0.033 -0.2007  0.3574 -0.3996
   55TMC2     O  858   4.540   1.896   0.152  0.4040 -0.4542 -0.3027
   55TMC2     H  859   4.548   1.778  17.517 -0.3570 -0.5316 -0.8307
   55TMC2    H1  860   4.542   1.684   0.187  1.5534 -0.1740 -0.8140
   55TMC2    H2  861   4.369   1.405  17.653  0.6550 -0.0689  2.1824
   55TMC2    C7  862   4.430   1.434   0.157 -0.4822  0.4364 -0.5010
   55TMC2    C8  863   4.437   1.548  17.423  0.1078  0.5818  0.7491
   55TMC2    O1  864   4.416   1.323   0.114 -0.2453 -0.3554 -0.2234
   55TMC2    O2  865   4.463   1.624  17.335 -0.0266 -0.2851 -0.0387
   55TMC2    O5  866   4.406   1.415  17.404  0.1089  0.1292 -0.2845
   55TMC2    H5  867   4.362   1.365  17.477 -1.6648  1.8247 -0.1795
   56MPD2     C  868   4.571   2.188  17.574 -0.1785  0.2366 -0.0554
   56MPD2    C1  869   4.555   2.109  17.689 -1.0009 -0.1345 -0.2525
   56MPD2    C2  870   4.507   2.168   0.068  0.2673  0.3277 -0.5299
   56MPD2    C3  871   4.480   2.302   0.073  0.5035  0.5640  0.1419
   56MPD2    C4  872   4.509   2.377  17.693 -0.7672 -0.3777  0.0356
   56MPD2    C5  873   4.546   2.321  17.575  0.1619 -0.3723 -0.7412
   56MPD2     H  874   4.489   2.112   0.160 -1.3685 -2.1733 -2.3595
   56MPD2    H1  875   4.498   2.485  17.691  2.7367 -0.0867 -3.5976
   56MPD2    H2  876   4.604   2.137  17.484  1.8621 -0.5553  1.1475
   56MPD2    H3  877   4.562   2.376  17.482 -1.4110  1.9982  0.4001
   56MPD2     N  878   4.424   2.355   0.191  0.3368  0.4893  0.4917
   56MPD2    H5  879   4.425   2.293   0.271 -0.8761  1.2725  1.1032
   56MPD2    N1  880   4.588   1.974  17.672 -0.1469 -0.7913 -0.1851
   56MPD2    H7  881   4.645   1.950  17.591 -1.7191  1.9021 -2.1128
   57TMC2    C1  882   3.516   2.507  13.246 -0.1141 -0.3116 -0.1669
   57TMC2    C2  883   3.504   2.386  13.182 -0.1484 -0.4885  0.0122
   57TMC2    C3  884   3.617   2.318  13.136  0.1250 -0.4806  0.3716
   57TMC2    C4  885   3.636   2.575  13.241 -0.2499 -0.2815 -0.0730
   57TMC2    C5  886   3.742   2.504  13.193  0.5194  0.2560 -0.4579
   57TMC2    C6  887   3.739   2.377  13.148 -0.4890  0.6333 -0.1637
   57TMC2     C  888   3.417   2.543  13.345  0.3743  0.2534 -0.5260
   57TMC2     O  889   3.435   2.653  13.396  0.0335  0.1707 -0.7723
   57TMC2     H  890   3.409   2.332  13.179 -0.0997 -0.5067 -1.2838
   57TMC2    H1  891   3.656   2.672  13.284 -1.4969 -0.1565  0.2176
   57TMC2    H2  892   3.830   2.325  13.119 -0.5500 -1.6019  3.7080
   57TMC2    C7  893   3.865   2.570  13.219  0.9053  0.2734 -0.2193
   57TMC2    C8  894   3.611   2.189  13.080 -0.3843  0.2389  0.2416
   57TMC2    O1  895   3.875   2.689  13.200 -0.1648  0.7970 -0.2392
   57TMC2    O2  896   3.695   2.101  13.103 -0.0057  0.1306  0.1688
   57TMC2    O5  897   3.483   2.160  13.045 -0.2788 -0.1354  0.3636
   57TMC2    H5  898   3.433   2.229  12.997  1.1368  0.4633 -0.2238
   58MPD2     C  899   3.047   2.459  13.671 -0.0183  0.0068 -0.2659
   58MPD2    C1  900   3.152   2.548  13.680  0.3624 -0.7678 -0.4261
   58MPD2    C2  901   3.240   2.554  13.577 -0.2266 -0.6211 -0.3706
   58MPD2    C3  902   3.238   2.451  13.477  0.5188  0.0643 -0.8353
   58MPD2    C4  903   3.140   2.349  13.478  0.3898 -0.0408 -0.9527
   58MPD2    C5  904   3.035   2.372  13.565 -0.4697 -0.2182 -0.0826
   58MPD2     H  905   3.317   2.629  13.589  0.2659 -1.0153 -1.0201
   58MPD2    H1  906   3.135   2.278  13.396 -2.5303  0.8874 -1.5897
   58MPD2    H2  907   2.963   2.448  13.739  1.1909  1.0414  1.3867
   58MPD2    H3  908   2.946   2.311  13.560 -0.9421  0.3842  1.1918
   58MPD2     N  909   3.324   2.448  13.372 -0.0064 -0.4630  0.8591
   58MPD2    H5  910   3.331   2.358  13.327 -0.0815 -0.6298  1.1776
   58MPD2    N1  911   3.171   2.634  13.788 -0.5216 -0.0002  0.1633
   58MPD2    H7  912   3.246   2.702  13.783  0.1701 -0.7092  0.9439
   59TMC2    C1  913   1.406   3.080  12.807  0.2348  0.4844 -0.0012
   59TMC2    C2  914   1.404   2.994  12.920 -0.0430  0.5800 -0.0098
   59TMC2    C3  915   1.366   2.867  12.892  0.1446  0.4063  0.7055
   59TMC2    C4  916   1.396   3.030  12.679  0.1424 -0.8152  0.2365
   59TMC2    C5  917   1.362   2.901  12.666 -0.2319 -0.1502  0.5789
   59TMC2    C6  918   1.350   2.814  12.772 -0.0055 -0.1772 -0.0993
   59TMC2     C  919   1.461   3.215  12.820 -0.5040  0.1129  0.0428
   59TMC2     O  920   1.436   3.299  12.732 -0.1566  0.7208  0.2954
   59TMC2     H  921   1.392   3.027  13.022 -2.0960  0.4501 -0.2175
   59TMC2    H1  922   1.408   3.098  12.596  1.7143 -1.7415 -0.3024
   59TMC2    H2  923   1.323   2.711  12.748  0.1247 -0.1889 -0.1981
   59TMC2    C7  924   1.396   2.826  12.544  0.0749  0.2881 -0.0890
   59TMC2    C8  925   1.331   2.779  13.002  0.3186  0.1896 -0.6232
   59TMC2    O1  926   1.436   2.713  12.556 -0.5353 -0.2421  0.0831
   59TMC2    O2  927   1.279   2.673  12.984 -0.0156  0.0152  0.5269
   59TMC2    O5  928   1.425   2.801  13.097  0.8012  0.4755 -0.1129
   59TMC2    H5  929   1.480   2.882  13.094  0.0931  0.9841  0.4831
   60MPD2     C  930   1.630   3.443  12.895 -0.4158  0.1304 -0.0377
   60MPD2    C1  931   1.627   3.328  12.969 -0.1527  0.1627  0.2245
   60MPD2    C2  932   1.700   3.318  13.089 -0.2931 -0.8256  0.4451
   60MPD2    C3  933   1.792   3.416  13.111 -1.0171  0.2847  0.0973
   60MPD2    C4  934   1.806   3.528  13.030  0.0562  0.1877 -0.7348
   60MPD2    C5  935   1.724   3.534  12.924 -0.3401  0.6540  0.0863
   60MPD2     H  936   1.693   3.233  13.156  0.6478 -1.4188 -0.2071
   60MPD2    H1  937   1.884   3.600  13.051 -2.2202  2.0183  1.4034
   60MPD2    H2  938   1.585   3.462  12.799 -0.0496 -0.4511 -0.3280
   60MPD2    H3  939   1.741   3.617  12.856 -1.0015  1.1613  0.5510
   60MPD2     N  940   1.893   3.411  13.209  0.4442 -0.0729 -0.0861
   60MPD2    H5  941   1.957   3.490  13.207 -1.1140  1.1141 -2.9160
   60MPD2    N1  942   1.544   3.218  12.928  0.1854  0.2540 -0.1597
   60MPD2    H7  943   1.564   3.136  12.985 -1.4750  2.4885  3.6218
   61TMC2    C1  944   0.856   4.654  15.869  0.3853 -0.0127 -0.0466
   61TMC2    C2  945   0.863   4.634  16.005 -0.4005 -1.2106  0.4838
   61TMC2    C3  946   0.822   0.003  16.086 -0.2318  0.1234  0.1343
   61TMC2    C4  947   0.825   0.045  15.812  0.7957  0.3057  0.3910
   61TMC2    C5  948   0.790   0.146  15.901  0.0690 -0.0457 -0.0829
   61TMC2    C6  949   0.788   0.133  16.039  0.3994  0.0246 -0.3936
   61TMC2     C  950   0.925   4.558  15.787  0.6806 -0.2834 -0.2889
   61TMC2     O  951   0.965   4.450  15.834 -0.0644 -0.3168  0.2648
   61TMC2     H  952   0.891   4.533  16.029 -1.5809 -1.3635  1.2343
   61TMC2    H1  953   0.830   0.076  15.709  0.9872  0.6682  0.5069
   61TMC2    H2  954   0.750   0.216  16.097 -0.2460 -1.3885  1.2283
   61TMC2    C7  955   0.788   0.274  15.837  0.3976 -0.4848  0.1348
   61TMC2    C8  956   0.851   0.003  16.231 -0.0546  0.6276  0.0875
   61TMC2    O1  957   0.758   0.279  15.720  0.1658 -0.6403  0.0362
   61TMC2    O2  958   0.868   0.108  16.293 -0.3791 -0.7602 -0.0335
   61TMC2    O5  959   0.908   4.623  16.274 -0.1888  0.1966  0.0644
   61TMC2    H5  960   0.894   4.534  16.235  0.8222  0.1616 -0.2199
   62MPD2     C  961   0.964   4.392  15.544  0.0126  0.2417 -0.3882
   62MPD2    C1  962   0.971   4.527  15.538  0.1715  0.2609  0.6776
   62MPD2    C2  963   1.002   4.592  15.422  0.3042 -0.4432 -0.8074
   62MPD2    C3  964   1.019   4.516  15.304 -0.9438  0.9154 -0.1942
   62MPD2    C4  965   0.995   4.380  15.308  0.1656 -0.2878 -0.8815
   62MPD2    C5  966   0.968   4.321  15.430  0.8435 -0.1837 -0.4707
   62MPD2     H  967   1.011   4.700  15.426  0.2350 -0.5514  1.8680
   62MPD2    H1  968   1.004   4.321  15.217 -0.1737 -2.0321  0.2143
   62MPD2    H2  969   0.951   4.340  15.638  0.2848 -1.7453 -1.4482
   62MPD2    H3  970   0.953   4.214  15.430 -0.9408  0.0672 -2.1735
   62MPD2     N  971   1.045   4.581  15.180 -0.1828  0.0187 -0.2332
   62MPD2    H5  972   1.037   4.535  15.090 -0.5933  2.4268 -1.4503
   62MPD2    N1  973   0.944   4.607  15.653  0.2014  0.7463 -0.1797
   62MPD2    H7  974   0.928   4.706  15.636  0.9342  1.2032  1.7532
   63TMC2    C1  975   0.299   4.258  10.563  0.2269 -0.3557 -0.0434
   63TMC2    C2  976   0.373   4.325  10.651  0.0390  0.1415  0.2949
   63TMC2    C3  977   0.474   4.404  10.611 -0.4802  0.0127 -0.4084
   63TMC2    C4  978   0.302   4.294  10.430 -0.3919 -0.3242  0.5954
   63TMC2    C5  979   0.395   4.387  10.389  0.0087  0.0647  0.3820
   63TMC2    C6  980   0.480   4.441  10.482 -0.4021 -0.5091  0.0589
   63TMC2     C  981   0.178   4.193  10.611 -0.1867  0.6505 -0.5775
   63TMC2     O  982   0.140   4.229  10.717  0.0341  0.0687 -0.2594
   63TMC2     H  983   0.360   4.315  10.759 -0.9149 -1.1144  0.0700
   63TMC2    H1  984   0.229   4.259  10.358 -1.8004  2.1622  0.8126
   63TMC2    H2  985   0.542   4.526  10.458 -0.2152 -0.6796 -0.0619
   63TMC2    C7  986   0.399   4.425  10.250  0.2267 -0.3135 -0.0570
   63TMC2    C8  987   0.541   4.476  10.711  0.1832  0.4844 -0.1084
   63TMC2    O1  988   0.314   4.391  10.169 -0.0876  0.0449  1.0167
   63TMC2    O2  989   0.515   4.471  10.831 -0.3606 -1.1089 -0.3543
   63TMC2    O5  990   0.671   4.501  10.663  0.3700 -0.3559 -0.5991
   63TMC2    H5  991   0.702   4.470  10.576  0.7285 -2.3096  0.2298
   64MPD2     C  992   4.678   3.736  10.682 -0.3549 -0.2394  0.1795
   64MPD2    C1  993   0.000   3.736  10.555  0.6269 -0.4039 -0.9229
   64MPD2    C2  994   0.067   3.851  10.517  0.2033  0.2845  0.2072
   64MPD2    C3  995   0.091   3.960  10.601 -0.9435  0.2749 -0.5063
   64MPD2    C4  996   0.032   3.954  10.728  0.1843  0.2653  0.4031
   64MPD2    C5  997   4.700   3.840  10.765  0.2069 -1.2012  0.0087
   64MPD2     H  998   0.115   3.847  10.419 -1.5070 -0.6882 -0.5902
   64MPD2    H1  999   0.049   4.036  10.797 -1.5297 -0.8000  2.0792
   64MPD2    H2 1000   4.633   3.648  10.725 -0.8304  1.0772  2.3603
   64MPD2    H3 1001   4.662   3.837  10.867 -2.1200  1.8613 -0.7520
   64MPD2     N 1002   0.160   4.072  10.553 -0.2227 -0.5877 -0.6703
   64MPD2    H5 1003   0.225   4.054  10.477  1.9358 -0.7993  1.2488
   64MPD2    N1 1004   4.726   3.638  10.458  0.6292 -0.4495  1.2089
   64MPD2    H7 1005   0.050   3.655  10.377  0.9658  0.7007  1.6892
   65TMC2    C1 1006   1.371   4.390  15.284 -0.4927 -0.5972  0.0030
   65TMC2    C2 1007   1.414   4.413  15.154  0.2558 -0.3382  0.2830
   65TMC2    C3 1008   1.465   4.534  15.125 -0.4614  0.4073 -0.1227
   65TMC2    C4 1009   1.359   4.487  15.379  0.1013 -0.9311 -0.4053
   65TMC2    C5 1010   1.395   4.615  15.338 -0.0071 -0.1175  0.5855
   65TMC2    C6 1011   1.443   4.641  15.212  0.2699  0.5732  0.2398
   65TMC2     C 1012   1.304   4.266  15.305 -0.4043  0.8391 -0.0422
   65TMC2     O 1013   1.281   4.202  15.202 -0.1011  0.6648 -0.3613
   65TMC2     H 1014   1.425   4.329  15.086  1.8374  0.9923 -1.0810
   65TMC2    H1 1015   1.297   4.467  15.465  0.6194 -2.7307 -0.4530
   65TMC2    H2 1016   1.463   0.009  15.182 -2.4244  1.5932  1.9253
   65TMC2    C7 1017   1.368   4.733  15.424 -0.4940  0.1767  0.4442
   65TMC2    C8 1018   1.456   4.566  14.980  0.0910 -0.0203  0.2402
   65TMC2    O1 1019   1.406   0.104  15.382  0.1622  0.5896  0.6947
   65TMC2    O2 1020   1.370   4.508  14.915 -0.0468  0.4216 -0.2758
   65TMC2    O5 1021   1.508   4.690  14.956 -0.2330  0.1542  0.3277
   65TMC2    H5 1022   1.575   4.716  15.023 -0.7276  0.8000  0.5751
   66MPD2     C 1023   1.162   4.093  15.602 -0.3151 -0.1326 -0.8979
   66MPD2    C1 1024   1.197   4.113  15.468  1.2001 -0.0751 -1.2518
   66MPD2    C2 1025   1.164   4.008  15.378 -0.2689  0.8307  0.2751
   66MPD2    C3 1026   1.102   3.893  15.421 -0.3308 -0.2655 -0.2330
   66MPD2    C4 1027   1.090   3.870  15.556  0.1477  0.1935  0.1760
   66MPD2    C5 1028   1.127   3.970  15.651 -0.8232  0.0677 -0.4606
   66MPD2     H 1029   1.185   4.021  15.272 -1.6854 -0.2907 -0.1585
   66MPD2    H1 1030   1.057   3.773  15.591  0.1161 -0.8269 -2.7136
   66MPD2    H2 1031   1.175   4.166  15.680 -0.8694 -1.4579  0.4360
   66MPD2    H3 1032   1.120   3.945  15.756 -2.2650  0.9504 -0.3538
   66MPD2     N 1033   1.067   3.787  15.332  0.3543  0.2915 -0.7582
   66MPD2    H5 1034   1.032   3.701  15.372  0.1038  0.2278 -1.1121
   66MPD2    N1 1035   1.266   4.234  15.430  0.1718  0.1151 -0.1983
   66MPD2    H7 1036   1.291   4.298  15.506 -1.1292  0.2780  0.1116
   67TMC2    C1 1037   1.703   2.783  14.330 -0.4687  0.4965 -0.5851
   67TMC2    C2 1038   1.718   2.705  14.442 -1.1965 -0.1582  0.4308
   67TMC2    C3 1039   1.735   2.768  14.562  1.3550  0.4459 -0.5605
   67TMC2    C4 1040   1.701   2.915  14.335 -0.9709 -0.0010  0.4258
   67TMC2    C5 1041   1.727   2.969  14.461  0.5401  0.8190  0.0183
   67TMC2    C6 1042   1.735   2.906  14.578 -0.4547  0.0828  0.6003
   67TMC2     C 1043   1.707   2.715  14.203 -0.3980 -0.6324 -0.5822
   67TMC2     O 1044   1.763   2.607  14.203  0.0707  0.2252 -0.1523
   67TMC2     H 1045   1.719   2.597  14.432  0.6248  0.2434 -4.1201
   67TMC2    H1 1046   1.684   2.980  14.249 -2.9745 -0.7537  0.2499
   67TMC2    H2 1047   1.763   2.947  14.674 -0.8661  0.3131  0.6185
   67TMC2    C7 1048   1.731   3.114  14.452 -0.0509 -0.1209 -0.3138
   67TMC2    C8 1049   1.741   2.705  14.697  0.3834  0.7527 -0.0713
   67TMC2    O1 1050   1.752   3.165  14.343  0.1029 -0.0353  0.0490
   67TMC2    O2 1051   1.701   2.776  14.787  0.2699  0.4642  0.4587
   67TMC2    O5 1052   1.700   2.578  14.675  0.3533  0.2507 -0.0747
   67TMC2    H5 1053   1.744   2.533  14.600  0.3187  1.3630 -0.7812
   68MPD2     C 1054   1.672   2.610  13.926 -0.2142  0.5945  0.0520
   68MPD2    C1 1055   1.580   2.691  13.994 -0.5532  0.3281  0.1129
   68MPD2    C2 1056   1.458   2.721  13.929  0.1445  0.0808 -0.8830
   68MPD2    C3 1057   1.422   2.653  13.819 -0.6147  0.7983  0.4633
   68MPD2    C4 1058   1.505   2.556  13.764  0.5539  0.0721 -0.0420
   68MPD2    C5 1059   1.638   2.550  13.806 -0.3285  0.4873 -0.3838
   68MPD2     H 1060   1.388   2.780  13.987 -0.8631 -1.2859 -0.7190
   68MPD2    H1 1061   1.483   2.504  13.671 -1.5510  1.6479 -0.4289
   68MPD2    H2 1062   1.768   2.584  13.968 -0.4830 -0.2769  0.1274
   68MPD2    H3 1063   1.701   2.469  13.772  0.4474  1.7524 -1.9687
   68MPD2     N 1064   1.296   2.670  13.752 -0.2963 -0.4677  0.5519
   68MPD2    H5 1065   1.281   2.607  13.674 -2.3483 -0.3787  0.8840
   68MPD2    N1 1066   1.614   2.755  14.117  0.4472 -0.6596  0.0350
   68MPD2    H7 1067   1.557   2.831  14.153  0.3470  0.0349 -1.5760
   69TMC2    C1 1068   3.530   4.303  12.098 -0.1297 -0.0167 -0.2717
   69TMC2    C2 1069   3.417   4.311  12.016 -0.5477  0.2414 -0.3964
   69TMC2    C3 1070   3.425   4.279  11.880 -0.5817 -0.6862 -0.3381
   69TMC2    C4 1071   3.647   4.253  12.045  0.2373 -0.4402 -0.0658
   69TMC2    C5 1072   3.653   4.229  11.909  0.7090  0.2399 -0.7024
   69TMC2    C6 1073   3.542   4.235  11.825 -0.4224  1.0171  0.3333
   69TMC2     C 1074   3.505   4.308  12.240  0.2090 -0.5526  0.0491
   69TMC2     O 1075   3.389   4.304  12.286 -0.2694 -0.1423 -0.3758
   69TMC2     H 1076   3.320   4.328  12.060 -1.0336 -1.7907 -0.6477
   69TMC2    H1 1077   3.729   4.222  12.110  0.1786  1.2209  0.8131
   69TMC2    H2 1078   3.548   4.201  11.722 -1.5760 -0.2964  0.7017
   69TMC2    C7 1079   3.785   4.183  11.857 -0.5732  0.2900  0.3478
   69TMC2    C8 1080   3.302   4.279  11.809  0.2367  0.0532 -0.7015
   69TMC2    O1 1081   3.778   4.098  11.773  0.0680 -0.0358  0.3202
   69TMC2    O2 1082   3.195   4.303  11.867 -0.2113 -0.2168  0.8320
   69TMC2    O5 1083   3.329   4.279  11.675  0.1363 -0.4314  0.0557
   69TMC2    H5 1084   3.403   4.338  11.650 -0.2969  0.2360  0.3680
   70MPD2     C 1085   3.750   4.386  12.509 -0.4492 -0.3506  0.7006
   70MPD2    C1 1086   3.633   4.336  12.459 -0.1419  0.6180 -0.0386
   70MPD2    C2 1087   3.530   4.289  12.545 -0.3088  0.6251  0.4029
   70MPD2    C3 1088   3.563   4.282  12.680 -0.1164 -0.0155 -0.2341
   70MPD2    C4 1089   3.685   4.319  12.728 -0.3187  0.0025 -0.0752
   70MPD2    C5 1090   3.775   4.374  12.643  0.5430 -0.3773  0.1163
   70MPD2     H 1091   3.441   4.243  12.504 -1.5677  2.4601  1.0959
   70MPD2    H1 1092   3.714   4.299  12.831  1.4540 -1.7212 -0.9014
   70MPD2    H2 1093   3.819   4.442  12.447 -1.2811  0.6116  0.6489
   70MPD2    H3 1094   3.876   4.399  12.676 -0.0844 -3.3043  4.1571
   70MPD2     N 1095   3.479   4.225  12.774  0.0776 -0.3994  0.3264
   70MPD2    H5 1096   3.519   4.205  12.865  0.8934 -3.5356 -0.7144
   70MPD2    N1 1097   3.622   4.326  12.311 -0.9412  0.4203  0.5936
   70MPD2    H7 1098   3.710   4.344  12.263 -1.7402 -0.0143 -1.0593
   71TMC2    C1 1099   1.053   4.428   1.603 -1.0378 -0.0017 -0.3446
   71TMC2    C2 1100   1.167   4.372   1.668  0.0843  0.3662  0.3083
   71TMC2    C3 1101   1.178   4.386   1.805 -0.0461 -0.7686 -0.6439
   71TMC2    C4 1102   0.955   4.495   1.665  0.4671  0.0864 -0.3532
   71TMC2    C5 1103   0.971   4.504   1.799  0.1794 -0.3465  0.2423
   71TMC2    C6 1104   1.075   4.444   1.874 -0.1790 -0.5300 -0.0810
   71TMC2     C 1105   1.045   4.430   1.458 -0.3689 -0.8147 -0.1132
   71TMC2     O 1106   0.988   4.521   1.409  0.0776  0.7173 -0.3784
   71TMC2     H 1107   1.246   4.319   1.616 -0.7858  0.4943 -1.1439
   71TMC2    H1 1108   0.874   4.548   1.616  0.0643 -0.7616 -0.6118
   71TMC2    H2 1109   1.095   4.469   1.978 -0.1256  1.4301 -0.5594
   71TMC2    C7 1110   0.881   4.594   1.873  0.1859  0.2550 -0.6591
   71TMC2    C8 1111   1.293   4.359   1.877  1.0553 -1.1033 -0.1517
   71TMC2    O1 1112   0.933   4.656   1.965  0.1696  0.0095  0.4832
   71TMC2    O2 1113   1.293   4.346   1.998  0.0964 -0.1893 -0.2295
   71TMC2    O5 1114   1.395   4.418   1.806  0.1091  0.4625  0.3877
   71TMC2    H5 1115   1.362   4.449   1.718  0.9535 -0.3971 -0.2330
   72MPD2     C 1116   1.203   4.247   1.000 -0.2492 -0.3155  0.1596
   72MPD2    C1 1117   1.150   4.369   1.036 -0.2407  0.3689 -0.8775
   72MPD2    C2 1118   1.115   4.394   1.169  0.3892  0.2326  0.3007
   72MPD2    C3 1119   1.129   4.301   1.264  0.2096 -0.2902 -0.2840
   72MPD2    C4 1120   1.189   4.178   1.227 -0.0073 -0.1032 -0.2274
   72MPD2    C5 1121   1.221   4.152   1.094  0.7119  0.4830 -0.6888
   72MPD2     H 1122   1.068   4.487   1.201  0.3412  0.3445 -0.0964
   72MPD2    H1 1123   1.199   4.104   1.305 -0.4221  1.2221  1.0804
   72MPD2    H2 1124   1.243   4.227   0.901  1.8809  0.8159  0.7861
   72MPD2    H3 1125   1.253   4.052   1.067  1.6786  0.5478  0.2168
   72MPD2     N 1126   1.116   4.327   1.405  0.3052 -1.0251 -0.2269
   72MPD2    H5 1127   1.143   4.255   1.470  1.2702 -1.3825 -1.0212
   72MPD2    N1 1128   1.151   4.478   0.946  0.0969 -0.5370 -0.2134
   72MPD2    H7 1129   1.119   4.562   0.992  2.9230  0.5442 -0.2337
   73TMC2    C1 1130   0.405   1.609  13.915  0.8782  0.0772 -0.3114
   73TMC2    C2 1131   0.284   1.599  13.857  0.2873  0.0187 -0.2998
   73TMC2    C3 1132   0.243   1.483  13.791 -0.5783  0.1425 -0.0155
   73TMC2    C4 1133   0.478   1.497  13.904  0.1967 -0.5521 -0.2720
   73TMC2    C5 1134   0.443   1.384  13.830 -0.1429 -0.4173 -0.2164
   73TMC2    C6 1135   0.322   1.369  13.780 -0.2885 -0.3861 -0.4959
   73TMC2     C 1136   0.483   1.716  13.867  0.0079  0.5586 -0.2733
   73TMC2     O 1137   0.583   1.678  13.805 -0.2554 -0.8086  0.5145
   73TMC2     H 1138   0.218   1.684  13.845  0.6682  0.1396 -1.5515
   73TMC2    H1 1139   0.581   1.494  13.938 -0.5933  1.2792  2.2859
   73TMC2    H2 1140   0.281   1.276  13.743 -0.8017 -1.2028  2.1867
   73TMC2    C7 1141   0.548   1.341  13.730  0.0273 -0.3513  0.3182
   73TMC2    C8 1142   0.110   1.473  13.751 -0.9719  0.1867 -0.3390
   73TMC2    O1 1143   0.545   1.227  13.692 -0.2630 -0.1139  0.0120
   73TMC2    O2 1144   0.087   1.390  13.660 -0.0542  0.1392  0.1563
   73TMC2    O5 1145   0.034   1.493  13.857 -0.8671  0.3485  0.3405
   73TMC2    H5 1146   0.083   1.541  13.928  0.2980  0.5935 -0.6241
   74MPD2     C 1147   0.589   2.193  13.738  0.1349 -0.2465 -0.2125
   74MPD2    C1 1148   0.665   2.081  13.719 -0.0742  0.3185  0.8492
   74MPD2    C2 1149   0.610   1.956  13.760 -0.4684 -0.1203 -0.1475
   74MPD2    C3 1150   0.484   1.958  13.825  0.9644  0.4035 -0.0835
   74MPD2    C4 1151   0.419   2.075  13.853  0.3943 -0.0733  0.0931
   74MPD2    C5 1152   0.466   2.189  13.798  0.3991  0.6532 -0.2722
   74MPD2     H 1153   0.673   1.868  13.751 -0.3673 -0.2518  1.6982
   74MPD2    H1 1154   0.316   2.066  13.883  0.5021  0.9101  0.7392
   74MPD2    H2 1155   0.619   2.287  13.693  0.7261 -0.2500  0.1667
   74MPD2    H3 1156   0.406   2.279  13.804  0.2997  0.5864 -0.2706
   74MPD2     N 1157   0.429   1.836  13.877  0.2915 -0.1218 -0.2216
   74MPD2    H5 1158   0.334   1.839  13.911  1.5462 -0.0297  3.2874
   74MPD2    N1 1159   0.783   2.098  13.643 -0.6125  0.3826  0.0428
   74MPD2    H7 1160   0.816   2.193  13.632 -0.1932  0.1561 -0.6600
   75TMC2    C1 1161   1.070   2.738  13.716  0.3836 -0.4231  0.2616
   75TMC2    C2 1162   1.005   2.628  13.677 -0.0781 -0.0014  0.4854
   75TMC2    C3 1163   0.881   2.637  13.614  0.3218  0.2808 -0.5946
   75TMC2    C4 1164   1.019   2.861  13.687 -0.0849 -0.3808 -0.2743
   75TMC2    C5 1165   0.900   2.864  13.610  0.9298  0.8007  0.2494
   75TMC2    C6 1166   0.824   2.754  13.571  0.0724  0.2204 -0.0517
   75TMC2     C 1167   1.192   2.743  13.796  0.3567 -0.3778 -0.1754
   75TMC2     O 1168   1.183   2.834  13.877  0.6158  0.3552  0.2307
   75TMC2     H 1169   1.039   2.532  13.714 -1.6304  0.1458  2.2813
   75TMC2    H1 1170   1.087   2.944  13.700  0.0322 -0.7615  1.5839
   75TMC2    H2 1171   0.738   2.759  13.506 -1.0981  2.9528  1.7324
   75TMC2    C7 1172   0.894   2.958  13.503  0.1380 -0.1356 -0.3478
   75TMC2    C8 1173   0.818   2.510  13.582 -0.1908  0.1492 -0.4904
   75TMC2    O1 1174   0.858   2.910  13.396  0.3019  0.0841 -0.0902
   75TMC2    O2 1175   0.875   2.401  13.596 -0.1053 -0.1587  0.4301
   75TMC2    O5 1176   0.686   2.537  13.606  0.3532  0.0760 -0.3718
   75TMC2    H5 1177   0.665   2.633  13.613 -1.8495 -0.5215  1.1464
   76TMC2    C1 1178   0.463   3.539  11.868  0.3564 -0.1798  0.1103
   76TMC2    C2 1179   0.438   3.415  11.917 -0.2685 -0.4846  0.5908
   76TMC2    C3 1180   0.500   3.370  12.025 -1.4223  0.0956 -0.3154
   76TMC2    C4 1181   0.540   3.630  11.939  0.1190  0.0036  0.0863
   76TMC2    C5 1182   0.583   3.589  12.060  0.5957 -0.8245 -0.9196
   76TMC2    C6 1183   0.572   3.459  12.103  0.0823  0.9364  0.5638
   76TMC2     C 1184   0.388   3.582  11.755  0.6984 -0.3138 -0.6588
   76TMC2     O 1185   0.275   3.535  11.753 -0.3034  0.2056  0.1042
   76TMC2     H 1186   0.369   3.355  11.859 -1.3800  0.4709  0.9208
   76TMC2    H1 1187   0.573   3.720  11.888 -4.2087  1.7829  0.4843
   76TMC2    H2 1188   0.624   3.429  12.194  0.9296  1.3199  0.2096
   76TMC2    C7 1189   0.683   3.671  12.124 -0.0747 -0.8033 -0.3060
   76TMC2    C8 1190   0.480   3.229  12.060  0.7412  0.3751  0.9865
   76TMC2    O1 1191   0.759   3.731  12.043  0.3705 -0.1099  0.4237
   76TMC2    O2 1192   0.379   3.177  12.016 -0.0050 -0.3824 -0.0783
   76TMC2    O5 1193   0.599   3.167  12.067 -0.2623 -0.1467  0.3903
   76TMC2    H5 1194   0.665   3.238  12.056  1.8861 -1.9408  1.6341
   77MPD2     C 1195   0.288   3.886  11.349 -0.1338  0.4762  0.0808
   77MPD2    C1 1196   0.202   3.825  11.436  0.2725 -0.2581  0.6004
   77MPD2    C2 1197   0.248   3.746  11.546 -0.2815  0.7314 -0.2622
   77MPD2    C3 1198   0.386   3.718  11.560 -0.7253 -0.8669  0.0109
   77MPD2    C4 1199   0.473   3.778  11.466  0.0287  0.1512 -0.3537
   77MPD2    C5 1200   0.424   3.855  11.366  0.9096  0.4438 -0.0246
   77MPD2     H 1201   0.175   3.710  11.618  0.6078 -0.3184  0.1092
   77MPD2    H1 1202   0.578   3.759  11.481 -0.1811  0.3852  1.4410
   77MPD2    H2 1203   0.264   3.946  11.262 -2.3381  0.4940  0.6991
   77MPD2    H3 1204   0.489   3.882  11.284 -0.7559 -0.4928 -1.6566
   77MPD2     N 1205   0.449   3.668  11.671  0.0253  0.1879 -0.0615
   77MPD2    H5 1206   0.549   3.685  11.677 -0.0045 -0.3080  1.6368
   77MPD2    N1 1207   0.066   3.846  11.426 -0.1609 -0.8168 -0.1915
   77MPD2    H7 1208   0.009   3.795  11.493 -1.1581  2.0887  1.1809
   78TMC2    C1 1209   1.617   4.585   2.164 -0.6087 -0.4469 -0.5059
   78TMC2    C2 1210   1.508   4.631   2.099 -0.7632  0.9014  0.3699
   78TMC2    C3 1211   1.524   4.700   1.982 -0.1408 -0.5447 -0.2118
   78TMC2    C4 1212   1.744   4.623   2.119 -0.0903  0.2272 -0.4407
   78TMC2    C5 1213   1.763   4.705   2.012 -0.4236  0.4095  0.0795
   78TMC2    C6 1214   1.646   0.017   1.947 -0.7001 -0.7350 -0.0993
   78TMC2     C 1215   1.602   4.578   2.306  0.2695 -0.4664  0.3593
   78TMC2     O 1216   1.493   4.609   2.345 -0.1552  0.0720 -0.0389
   78TMC2     H 1217   1.412   4.582   2.113 -1.4436  1.4895 -2.2397
   78TMC2    H1 1218   1.828   4.593   2.180 -0.7624 -0.9296 -0.0888
   78TMC2    H2 1219   1.654   0.085   1.863  0.8869 -1.4125 -0.4946
   78TMC2    C7 1220   1.881   4.705   1.931  0.8516  0.1574 -0.2403
   78TMC2    C8 1221   1.400   0.025   1.925 -0.2456  0.0624  0.8510
   78TMC2    O1 1222   1.884   0.053   1.837  0.5427 -0.3625 -0.3566
   78TMC2    O2 1223   1.293   4.720   1.971 -0.5872  0.2751  0.0007
   78TMC2    O5 1224   1.420   0.137   1.855  0.5681 -0.1861  0.3404
   78TMC2    H5 1225   1.511   0.127   1.821  1.0658  0.0520  1.6029
   79MPD1     C 1226   1.731   4.522   2.789  0.2429  0.1680  0.1478
   79MPD1    C1 1227   1.636   4.599   2.736  0.5380  0.0557  0.0346
   79MPD1    C2 1228   1.636   4.604   2.597 -0.1998  0.0499 -0.5923
   79MPD1    C3 1229   1.723   4.537   2.510 -0.2127  0.1353  0.3498
   79MPD1    C4 1230   1.819   4.455   2.572 -0.7816  0.6372 -0.2631
   79MPD1    C5 1231   1.818   4.448   2.710 -0.2012  0.7806 -0.1006
   79MPD1     H 1232   1.566   4.678   2.557  1.3543  0.5935 -2.3273
   79MPD1    H1 1233   1.889   4.405   2.507 -1.3643  0.0616 -0.4440
   79MPD1    H2 1234   1.726   4.503   2.896  0.7446  1.1995  0.3486
   79MPD1    H3 1235   1.892   4.381   2.753 -1.1004 -1.8381 -2.6394
   79MPD1     N 1236   1.715   4.539   2.375 -0.5292 -0.3959 -0.2501
   79MPD1    H5 1237   1.783   4.492   2.317 -0.6315 -2.8009  1.5606
   79MPD1    N1 1238   1.540   4.656   2.821 -0.4449 -0.1140 -0.2314
   79MPD1    H6 1239   1.491   0.002   2.780  1.6670  1.5948  0.6006
   79MPD1    H7 1240   1.577   4.685   2.911 -0.6546  2.0153 -0.8264
   80TMC2    C1 1241   3.563   2.997  11.891 -0.4061 -0.3154 -0.9509
   80TMC2    C2 1242   3.552   3.123  11.836 -0.1585  0.1749  0.0087
   80TMC2    C3 1243   3.430   3.157  11.786  0.0220 -0.2686  0.0360
   80TMC2    C4 1244   3.464   2.908  11.890  0.6378 -0.2663  0.0021
   80TMC2    C5 1245   3.341   2.949  11.844 -0.5917  0.3305 -0.0987
   80TMC2    C6 1246   3.322   3.076  11.797  0.3979 -0.5283 -0.3738
   80TMC2     C 1247   3.692   2.956  11.941 -0.2918 -0.1383  0.5964
   80TMC2     O 1248   3.717   2.833  11.945 -0.7864 -0.6025  0.5361
   80TMC2     H 1249   3.640   3.180  11.810  0.5687  0.5581  3.2901
   80TMC2    H1 1250   3.489   2.805  11.915  1.3345 -0.0760  0.0713
   80TMC2    H2 1251   3.225   3.121  11.783  1.6200  2.5266  0.8274
   80TMC2    C7 1252   3.229   2.885  11.910 -0.2485  0.4960  0.2254
   80TMC2    C8 1253   3.422   3.290  11.755  0.9004  0.9302  0.3437
   80TMC2    O1 1254   3.115   2.918  11.882  0.1906  0.3234 -0.4776
   80TMC2    O2 1255   3.327   3.334  11.689  0.2202 -0.2250 -0.4804
   80TMC2    O5 1256   3.479   3.358  11.858  0.4292 -0.2221  0.9412
   80TMC2    H5 1257   3.528   3.312  11.929 -0.4350 -1.5513  0.6685
   81MPD2     C 1258   3.912   2.948  12.146 -1.2444 -0.1181 -0.1305
   81MPD2    C1 1259   3.841   3.063  12.113 -0.0713  0.2258  0.4684
   81MPD2    C2 1260   3.864   3.184  12.179  0.5769 -0.1249  0.2129
   81MPD2    C3 1261   3.950   3.190  12.286  0.0959  0.3605 -0.0402
   81MPD2    C4 1262   4.028   3.079  12.318 -0.0932  0.2747  0.2048
   81MPD2    C5 1263   4.014   2.968  12.236 -0.0917  0.0567  0.1078
   81MPD2     H 1264   3.808   3.268  12.139  3.1681  0.9146 -1.2060
   81MPD2    H1 1265   4.105   3.077  12.394 -0.8412 -0.9178  0.9353
   81MPD2    H2 1266   3.882   2.847  12.119 -0.2815 -0.0092 -1.6104
   81MPD2    H3 1267   4.069   2.878  12.261  1.7072  0.5163 -2.2098
   81MPD2     N 1268   3.946   3.304  12.364  0.1508  0.1860 -0.5927
   81MPD2    H5 1269   3.981   3.285  12.458 -2.7438 -0.4782  0.3579
   81MPD2    N1 1270   3.747   3.066  12.009 -0.5693 -0.1730  0.1388
   81MPD2    H7 1271   3.693   3.151  11.998 -1.3334 -0.8704 -1.5656
   82TMC2    C1 1272   2.161   2.479  11.278  0.4241 -0.2650 -0.5024
   82TMC2    C2 1273   2.290   2.440  11.263  0.4515  0.0785 -0.2369
   82TMC2    C3 1274   2.345   2.343  11.342  0.5488 -0.7370  0.4982
   82TMC2    C4 1275   2.083   2.416  11.360  0.1292  0.3612  0.0058
   82TMC2    C5 1276   2.136   2.309  11.435 -1.6075  0.8050 -0.2320
   82TMC2    C6 1277   2.267   2.273  11.432  0.1855  0.0891 -0.0970
   82TMC2     C 1278   2.105   2.563  11.172 -0.7834  0.0842  0.1613
   82TMC2     O 1279   1.994   2.528  11.135  0.5361  0.0873 -0.2273
   82TMC2     H 1280   2.354   2.492  11.193 -2.8107  1.2816 -2.3725
   82TMC2    H1 1281   1.979   2.443  11.369  0.5172  1.8593 -0.0125
   82TMC2    H2 1282   2.317   2.215  11.509 -1.6031  1.0668  1.7717
   82TMC2    C7 1283   2.039   2.209  11.482 -0.4054 -0.5550 -0.5869
   82TMC2    C8 1284   2.486   2.317  11.346 -0.1399 -0.1288 -0.0990
   82TMC2    O1 1285   2.058   2.161  11.592 -0.4357  0.3534 -0.6488
   82TMC2    O2 1286   2.520   2.218  11.409  0.0211  0.0834  0.6445
   82TMC2    O5 1287   2.532   2.439  11.362 -0.4502  0.0115 -0.1210
   82TMC2    H5 1288   2.471   2.513  11.341  0.1351  0.5272  0.0283
   83MPD2     C 1289   2.167   2.839  10.751  0.7817  0.4089 -0.0444
   83MPD2    C1 1290   2.050   2.794  10.810  0.2091 -0.1694  0.5504
   83MPD2    C2 1291   2.058   2.728  10.929 -0.5490  0.1287  1.1570
   83MPD2    C3 1292   2.183   2.711  10.995  0.1722  0.2778 -0.6994
   83MPD2    C4 1293   2.293   2.763  10.937 -0.1125  0.5498  0.0897
   83MPD2    C5 1294   2.289   2.829  10.819  0.3009  0.0053 -0.6230
   83MPD2     H 1295   1.968   2.679  10.965 -0.3272 -0.9112  0.2570
   83MPD2    H1 1296   2.385   2.749  10.993 -0.6004  3.6845  1.6428
   83MPD2    H2 1297   2.167   2.898  10.660  0.4261  1.7883  0.8459
   83MPD2    H3 1298   2.376   2.879  10.778  0.5546  0.3191  0.2803
   83MPD2     N 1299   2.197   2.641  11.115 -0.8777  0.0746 -0.4596
   83MPD2    H5 1300   2.289   2.640  11.159 -0.9091  1.3355 -0.3552
   83MPD2    N1 1301   1.930   2.814  10.736  0.4188 -0.3366 -0.1167
   83MPD2    H7 1302   1.935   2.844  10.639  0.3168 -0.3872 -0.1379
   84TMC2    C1 1303   2.965   1.507  10.981 -0.6273  0.4077  0.7538
   84TMC2    C2 1304   2.898   1.389  10.978 -0.4881  0.3056  0.3064
   84TMC2    C3 1305   2.878   1.321  10.864 -0.4766  0.3265 -0.3969
   84TMC2    C4 1306   3.012   1.561  10.868 -0.1469  0.5686  0.4337
   84TMC2    C5 1307   3.013   1.486  10.752  0.0840 -0.8543  0.1543
   84TMC2    C6 1308   2.949   1.363  10.751 -0.2087  0.1999  0.0966
   84TMC2     C 1309   2.964   1.587  11.104  0.2934 -0.2836 -0.4688
   84TMC2     O 1310   2.988   1.702  11.093 -0.2566  0.4048 -0.4383
   84TMC2     H 1311   2.853   1.344  11.067  0.7069  1.7903  1.6558
   84TMC2    H1 1312   3.058   1.659  10.877  0.6135  0.4837 -2.3205
   84TMC2    H2 1313   2.970   1.292  10.672 -2.9710 -0.7125  0.1871
   84TMC2    C7 1314   3.089   1.529  10.634 -0.2015 -0.3527 -0.6310
   84TMC2    C8 1315   2.810   1.197  10.861  0.6926  0.3969 -0.0335
   84TMC2    O1 1316   3.066   1.463  10.535 -0.1054 -0.2304  0.3175
   84TMC2    O2 1317   2.812   1.116  10.951  0.6590 -0.4558 -0.4018
   84TMC2    O5 1318   2.761   1.191  10.736  0.0733 -0.5652 -0.7240
   84TMC2    H5 1319   2.755   1.275  10.686  0.0470 -0.4102 -0.4598
   85TMC2    C1 1320   3.889   0.096  15.859  0.7547  0.0226 -0.0326
   85TMC2    C2 1321   3.794   0.124  15.766  0.3952 -0.4308 -0.1711
   85TMC2    C3 1322   3.837   0.168  15.644  0.1466  0.0231  0.0942
   85TMC2    C4 1323   4.023   0.115  15.833  0.5797  0.5584 -0.5514
   85TMC2    C5 1324   4.058   0.165  15.717 -0.1051  0.4320  0.4137
   85TMC2    C6 1325   3.966   0.191  15.615  0.1085  0.5233 -0.0235
   85TMC2     C 1326   3.855   0.028  15.981  0.3200  0.1957  0.2001
   85TMC2     O 1327   3.924   0.072  16.077 -0.4768 -0.0135 -0.5171
   85TMC2     H 1328   3.691   0.123  15.797  0.0867  1.6945 -1.1588
   85TMC2    H1 1329   4.087   0.102  15.920 -0.0934  0.9526  0.0064
   85TMC2    H2 1330   3.990   0.227  15.516 -0.1577 -0.0268 -0.2902
   85TMC2    C7 1331   4.196   0.121  15.683  0.2219 -0.0888 -0.4257
   85TMC2    C8 1332   3.741   0.208  15.544 -0.1706 -0.4491 -0.0438
   85TMC2    O1 1333   4.255   0.046  15.756  0.1014  0.0212  0.1540
   85TMC2    O2 1334   3.764   0.285  15.451 -0.5130 -0.3381  0.5169
   85TMC2    O5 1335   3.634   0.122  15.562  0.1193  0.0502 -0.3025
   85TMC2    H5 1336   3.661   0.058  15.632 -0.0208 -0.2334 -0.5092
   86MPD2     C 1337   3.586   4.443  16.282  0.1174  0.3523  0.5329
   86MPD2    C1 1338   3.556   4.413  16.155  0.1415 -0.0955 -0.6032
   86MPD2    C2 1339   3.603   4.493  16.058  0.0954 -0.2524 -0.1256
   86MPD2    C3 1340   3.697   4.595  16.091 -0.3972 -0.2522 -0.4172
   86MPD2    C4 1341   3.723   4.624  16.218 -0.0917  0.7131  0.1285
   86MPD2    C5 1342   3.671   4.551  16.311  0.5605 -0.6410 -0.3808
   86MPD2     H 1343   3.576   4.463  15.957 -1.9971  0.1338  0.3249
   86MPD2    H1 1344   3.777   4.712  16.251  0.2309  0.7383 -0.4642
   86MPD2    H2 1345   3.531   4.397  16.363  0.0509  2.4590  1.6678
   86MPD2    H3 1346   3.702   4.576  16.412  1.5531  0.8356 -1.0685
   86MPD2     N 1347   3.747   4.675  15.979  0.5858 -0.6330 -0.4297
   86MPD2    H5 1348   3.708   4.669  15.886  0.4016 -0.6637 -0.3507
   86MPD2    N1 1349   3.474   4.306  16.127 -0.2154  0.5568  0.2761
   86MPD2    H7 1350   3.424   4.313  16.038  0.4922 -0.3112 -0.1887
   87TMC2    C1 1351   2.150   3.811   0.871 -0.0598  0.5005 -0.5851
   87TMC2    C2 1352   2.271   3.748   0.851  0.7808 -0.1419  0.2939
   87TMC2    C3 1353   2.368   3.774   0.947 -0.1555  0.1244  0.4919
   87TMC2    C4 1354   2.122   3.892   0.977  0.5968 -0.1900 -0.4130
   87TMC2    C5 1355   2.221   3.920   1.062  0.3133 -0.1720  0.7827
   87TMC2    C6 1356   2.347   3.859   1.054 -0.2551 -0.4152 -0.4163
   87TMC2     C 1357   2.052   3.805   0.763 -0.0031  0.6810 -0.7283
   87TMC2     O 1358   2.088   3.747   0.661 -0.1140 -0.0926  0.5154
   87TMC2     H 1359   2.293   3.682   0.768 -0.8468 -2.2205  1.4994
   87TMC2    H1 1360   2.027   3.943   0.986 -0.2028 -1.3155 -2.4950
   87TMC2    H2 1361   2.431   3.891   1.115 -0.0128  2.0358 -2.0583
   87TMC2    C7 1362   2.182   4.011   1.169 -0.4415  0.0860 -0.1369
   87TMC2    C8 1363   2.499   3.720   0.931 -0.9683 -0.4416 -0.0453
   87TMC2    O1 1364   2.075   4.065   1.158  0.5949  0.1996 -0.5014
   87TMC2    O2 1365   2.588   3.729   1.014  0.0266 -0.0941  0.6838
   87TMC2    O5 1366   2.522   3.715   0.794 -0.6308  0.4129 -0.3889
   87TMC2    H5 1367   2.451   3.762   0.745  0.1878  1.6316 -0.4151
   88MPD2     C 1368   2.349   4.146   1.469 -0.7370  0.2319  0.3214
   88MPD2    C1 1369   2.265   4.142   1.365 -0.6230 -0.0737  0.1052
   88MPD2    C2 1370   2.157   4.238   1.364  0.3681 -0.0313  0.2165
   88MPD2    C3 1371   2.144   4.326   1.465 -0.0711  0.6859  1.0115
   88MPD2    C4 1372   2.236   4.321   1.566 -0.3886  1.0511  0.1367
   88MPD2    C5 1373   2.338   4.235   1.563  0.4897 -0.0227 -0.6888
   88MPD2     H 1374   2.074   4.243   1.295 -0.5807  1.5718  1.4693
   88MPD2    H1 1375   2.220   4.400   1.639 -1.0152  0.8639  0.2063
   88MPD2    H2 1376   2.435   4.079   1.465 -1.8553 -1.2695  1.2777
   88MPD2    H3 1377   2.419   4.242   1.634  0.6120  1.2870 -0.9688
   88MPD2     N 1378   2.038   4.414   1.469  0.6072  0.8826 -0.1456
   88MPD2    H5 1379   2.011   4.445   1.562 -0.1405  1.3911 -0.5332
   88MPD2    N1 1380   2.274   4.033   1.266 -0.8842  0.1936  0.3096
   88MPD2    H7 1381   2.354   3.971   1.262 -0.3762  0.7733  1.3565
   89TMC2    C1 1382   2.070   0.500   1.947  0.0875  0.1032 -0.6822
   89TMC2    C2 1383   2.201   0.473   1.919  0.0065  0.3351  0.1106
   89TMC2    C3 1384   2.256   0.517   1.805  0.0459 -0.6219  0.3627
   89TMC2    C4 1385   1.992   0.567   1.858 -0.8681  0.4745 -0.8906
   89TMC2    C5 1386   2.053   0.617   1.745 -0.6310 -0.5329 -0.0125
   89TMC2    C6 1387   2.189   0.597   1.721  0.0288  0.0314  0.4257
   89TMC2     C 1388   1.999   0.437   2.059 -0.4189  0.3071 -0.7403
   89TMC2     O 1389   2.070   0.431   2.156 -0.2530 -0.2396 -0.0711
   89TMC2     H 1390   2.264   0.421   1.990 -1.6481 -2.8296 -0.7761
   89TMC2    H1 1391   1.889   0.590   1.883 -1.2069  1.7716 -3.5472
   89TMC2    H2 1392   2.246   0.660   1.653  0.5859 -0.8272  0.0951
   89TMC2    C7 1393   1.980   0.729   1.686 -0.4108 -0.2442  0.0673
   89TMC2    C8 1394   2.397   0.541   1.811 -0.2785 -0.3703  0.1749
   89TMC2    O1 1395   1.870   0.745   1.735  0.6041 -0.7499  0.0289
   89TMC2    O2 1396   2.446   0.642   1.764 -0.4961  0.6249 -0.2716
   89TMC2    O5 1397   2.458   0.429   1.851  0.0547  0.6873  0.1513
   89TMC2    H5 1398   2.400   0.350   1.856 -0.1917  0.8140 -0.7439
   90MPD2     C 1399   1.614   0.190   2.314  0.4208 -0.0835  0.1434
   90MPD2    C1 1400   1.562   0.274   2.219 -0.6372 -0.1581 -0.3430
   90MPD2    C2 1401   1.647   0.331   2.130 -0.1045  0.2454 -0.1383
   90MPD2    C3 1402   1.784   0.335   2.147 -0.4210  0.1025 -0.1881
   90MPD2    C4 1403   1.832   0.261   2.257 -0.1778 -0.2924  0.1824
   90MPD2    C5 1404   1.754   0.181   2.334 -0.1884 -0.2770 -0.1593
   90MPD2     H 1405   1.614   0.381   2.039  0.7305 -2.0894 -1.7385
   90MPD2    H1 1406   1.939   0.265   2.277  0.0567 -1.6412 -0.7826
   90MPD2    H2 1407   1.545   0.128   2.370 -1.8422  0.3575 -2.1286
   90MPD2    H3 1408   1.794   0.113   2.409 -1.6040  0.0149  0.8546
   90MPD2     N 1409   1.863   0.412   2.050  0.3780  0.7255  0.4446
   90MPD2    H5 1410   1.806   0.445   1.974  0.6867 -2.8119 -1.3325
   90MPD2    N1 1411   1.419   0.282   2.207 -0.5103 -0.3607  0.6278
   90MPD2    H7 1412   1.395   0.331   2.121 -4.0282 -1.9368  0.7218
   91TMC2    C1 1413   3.682   1.196  16.077  0.5256  0.1750 -0.0622
   91TMC2    C2 1414   3.651   1.235  15.945  0.7520  0.6527  0.2183
   91TMC2    C3 1415   3.536   1.186  15.881  0.5440  0.0736 -0.6461
   91TMC2    C4 1416   3.595   1.114  16.133  0.0174  0.1281  0.3470
   91TMC2    C5 1417   3.481   1.080  16.066  0.3888  0.5367 -0.6405
   91TMC2    C6 1418   3.444   1.109  15.940 -0.5537 -0.1706  0.4292
   91TMC2     C 1419   3.815   1.197  16.124  0.0197  0.0981  0.2866
   91TMC2     O 1420   3.903   1.205  16.041 -0.0243  0.3240  0.5242
   91TMC2     H 1421   3.716   1.302  15.891  1.4593 -0.6077 -0.4834
   91TMC2    H1 1422   3.606   1.083  16.236 -0.9197 -1.1861  0.0462
   91TMC2    H2 1423   3.345   1.090  15.900 -1.3932  2.2169  1.3183
   91TMC2    C7 1424   3.393   0.980  16.129 -0.6868 -0.1955 -0.4779
   91TMC2    C8 1425   3.477   1.276  15.782 -0.0324 -0.5234 -0.1322
   91TMC2    O1 1426   3.411   0.960  16.247 -0.0584 -0.0487  0.3986
   91TMC2    O2 1427   3.357   1.301  15.776 -0.5032 -0.4463  0.5539
   91TMC2    O5 1428   3.573   1.284  15.690  0.0046  0.4712 -0.5098
   91TMC2    H5 1429   3.666   1.256  15.707  0.7496  1.6700 -2.6137
   92MPD2     C 1430   4.066   1.130  16.261 -0.2121  0.7533  0.4237
   92MPD2    C1 1431   3.946   1.129  16.322 -0.1017 -0.7555  0.1738
   92MPD2    C2 1432   3.938   1.076  16.453  0.2749  0.1513 -0.6500
   92MPD2    C3 1433   4.044   1.016  16.522 -0.6642  0.4955  0.4748
   92MPD2    C4 1434   4.167   1.014  16.451  0.2198 -0.1292 -0.0811
   92MPD2    C5 1435   4.164   1.062  16.321 -0.2485  0.5063  0.8601
   92MPD2     H 1436   3.846   1.085  16.511  1.6036  1.8380  1.2023
   92MPD2    H1 1437   4.259   0.977  16.494 -0.5126  0.0999  1.6690
   92MPD2    H2 1438   4.082   1.161  16.159  0.4891  0.0105  0.3021
   92MPD2    H3 1439   4.258   1.051  16.267 -1.8799 -2.0403 -1.4995
   92MPD2     N 1440   4.030   0.961  16.651  0.0838  0.6893  0.6596
   92MPD2    H5 1441   3.935   0.958  16.688 -0.0079 -2.2690  0.2051
   92MPD2    N1 1442   3.826   1.179  16.259  0.0532  0.3328  0.0486
   92MPD2    H7 1443   3.740   1.182  16.313 -0.9541 -0.5318 -1.5087
   93TMC2    C1 1444   1.430   0.718  13.766  0.7234 -0.1456 -0.4446
   93TMC2    C2 1445   1.412   0.689  13.637  0.3159  0.0485 -0.2146
   93TMC2    C3 1446   1.440   0.788  13.545  0.1227  0.4229  0.5765
   93TMC2    C4 1447   1.486   0.845  13.800 -0.2409 -0.2663 -0.2863
   93TMC2    C5 1448   1.537   0.933  13.705 -0.1174  0.0294 -0.0773
   93TMC2    C6 1449   1.508   0.907  13.577  0.9211 -0.0060 -0.0744
   93TMC2     C 1450   1.362   0.655  13.869 -0.4410 -0.4861 -0.1331
   93TMC2     O 1451   1.395   0.681  13.983 -0.7085 -0.0057  0.5241
   93TMC2     H 1452   1.384   0.589  13.605  1.9661 -0.2837 -0.6757
   93TMC2    H1 1453   1.515   0.868  13.902  1.1173 -1.3473 -0.4214
   93TMC2    H2 1454   1.558   0.972  13.507 -0.6160 -0.2857 -1.4304
   93TMC2    C7 1455   1.648   1.018  13.732 -0.0131  0.3296 -0.0874
   93TMC2    C8 1456   1.427   0.754  13.403 -0.4996 -0.0844  0.2430
   93TMC2    O1 1457   1.733   1.031  13.644  0.1315  0.4525 -0.1185
   93TMC2    O2 1458   1.402   0.639  13.366 -0.0935 -0.2761  0.0174
   93TMC2    O5 1459   1.439   0.867  13.330  0.3201 -0.0833 -0.4738
   93TMC2    H5 1460   1.460   0.951  13.377  1.7553 -2.0916  2.4430
   94MPD2     C 1461   1.119   0.566  14.021 -0.1052 -0.7176  0.2189
   94MPD2    C1 1462   1.122   0.588  13.885 -0.3641  0.6029 -0.2848
   94MPD2    C2 1463   1.002   0.597  13.810  0.0600  0.2205 -0.8990
   94MPD2    C3 1464   0.883   0.581  13.877  0.0349  0.4591 -0.1885
   94MPD2    C4 1465   0.883   0.549  14.013  0.3113  0.5598  0.1412
   94MPD2    C5 1466   0.998   0.560  14.087 -0.1900 -0.5782 -0.0943
   94MPD2     H 1467   1.002   0.612  13.702  2.1081 -0.1240 -0.9446
   94MPD2    H1 1468   0.791   0.519  14.062  0.5543  2.4778  1.7626
   94MPD2    H2 1469   1.212   0.572  14.076  0.6353 -1.8682 -0.9010
   94MPD2    H3 1470   0.997   0.538  14.193  1.8941  0.0643  0.0540
   94MPD2     N 1471   0.764   0.599  13.813  0.4943 -0.0277 -0.2875
   94MPD2    H5 1472   0.681   0.582  13.869  1.5522 -0.4594  1.1387
   94MPD2    N1 1473   1.249   0.601  13.813 -0.6241 -0.5910 -0.1197
   94MPD2    H7 1474   1.241   0.607  13.712  0.7865  1.4862 -0.0935
   95TMC2    C1 1475   0.314   3.152  15.607  0.1915  0.2620  0.4761
   95TMC2    C2 1476   0.317   3.225  15.723  0.4627  0.7851  0.3626
   95TMC2    C3 1477   0.254   3.174  15.834 -0.1626 -0.0360 -0.9383
   95TMC2    C4 1478   0.252   3.030  15.601 -0.2298 -0.6544 -0.2418
   95TMC2    C5 1479   0.188   2.989  15.713 -0.5218 -0.3089 -0.8248
   95TMC2    C6 1480   0.188   3.056  15.829 -0.2557 -0.0077 -0.5861
   95TMC2     C 1481   0.412   3.194  15.504 -0.6050  0.1706 -0.4045
   95TMC2     O 1482   0.475   3.295  15.533  0.4041 -0.1993 -0.5314
   95TMC2     H 1483   0.367   3.321  15.726 -0.4653  1.2903 -0.1429
   95TMC2    H1 1484   0.243   2.969  15.512 -0.2200  0.0110 -0.6897
   95TMC2    H2 1485   0.140   3.020  15.920 -0.2733 -0.8041 -0.9078
   95TMC2    C7 1486   0.141   2.847  15.718  0.1037  0.3244  0.3993
   95TMC2    C8 1487   0.304   3.206  15.957  0.3163  0.5260 -0.6087
   95TMC2    O1 1488   0.056   2.828  15.806  0.3167 -0.2333  0.0562
   95TMC2    O2 1489   0.418   3.250  15.946  0.5355 -0.1081  0.7489
   95TMC2    O5 1490   0.205   3.226  16.049 -0.2133 -0.1712 -0.2605
   95TMC2    H5 1491   0.118   3.190  16.023  0.5186 -0.2000 -2.6889
   96MPD2     C 1492   0.623   3.135  15.032  0.3190 -0.0839 -1.0497
   96MPD2    C1 1493   0.639   3.230  15.127  0.2094 -0.3049  0.2197
   96MPD2    C2 1494   0.569   3.232  15.247  0.0951 -0.1192 -0.3790
   96MPD2    C3 1495   0.484   3.126  15.273 -0.1376  0.0633  0.3352
   96MPD2    C4 1496   0.468   3.033  15.169 -0.0951  0.4786 -0.0894
   96MPD2    C5 1497   0.525   3.043  15.053  0.0490 -0.3212 -0.5212
   96MPD2     H 1498   0.583   3.313  15.318  1.1372 -0.6756  0.0545
   96MPD2    H1 1499   0.396   2.953  15.182 -1.9328  1.4960 -3.8474
   96MPD2    H2 1500   0.675   3.136  14.937  0.9495  0.8878 -0.7027
   96MPD2    H3 1501   0.503   2.965  14.980 -2.5861 -1.1345  1.1542
   96MPD2     N 1502   0.409   3.113  15.395  0.4931  0.2913 -0.7302
   96MPD2    H5 1503   0.345   3.035  15.395 -0.8116  1.3546 -0.9389
   96MPD2    N1 1504   0.728   3.332  15.086  0.2505  0.1437  0.7594
   96MPD2    H7 1505   0.762   3.337  14.991 -3.0991 -0.3508 -0.4927
   97TMC2    C1 1506   2.897   0.882  17.696 -0.9502 -0.0559  0.5699
   97TMC2    C2 1507   2.844   0.828  17.583  0.3051  0.4852 -0.6762
   97TMC2    C3 1508   2.799   0.913  17.490 -0.1786 -0.0490  0.1471
   97TMC2    C4 1509   2.912   1.018  17.712  0.2169  0.0501  0.0485
   97TMC2    C5 1510   2.857   1.100  17.615 -0.2767  0.5583 -0.6799
   97TMC2    C6 1511   2.800   1.049  17.502 -0.2742 -0.5490 -0.1725
   97TMC2     C 1512   2.968   0.788   0.048 -0.2912 -0.3616 -0.1003
   97TMC2     O 1513   2.918   0.677   0.063 -0.1751 -0.1445 -0.2451
   97TMC2     H 1514   2.830   0.721  17.570  0.7052  0.1700  1.4306
   97TMC2    H1 1515   2.928   1.041   0.081  0.8706 -0.7027  0.1149
   97TMC2    H2 1516   2.740   1.103  17.429 -0.0264  1.2368  0.9507
   97TMC2    C7 1517   2.826   1.237  17.650  0.6259 -0.3451  0.4685
   97TMC2    C8 1518   2.731   0.853  17.379 -0.2310  0.2489  1.0321
   97TMC2    O1 1519   2.747   1.301  17.579  0.0463 -0.0583  0.2276
   97TMC2    O2 1520   2.655   0.919  17.313 -0.1157  0.3447  1.0445
   97TMC2    O5 1521   2.811   0.755  17.328  0.0514  0.0509 -0.3602
   97TMC2    H5 1522   2.898   0.759  17.372 -0.1967 -0.5107  0.1821
   98MPD2     C 1523   3.350   0.676   0.361 -0.2819  0.3636 -0.1640
   98MPD2    C1 1524   3.235   0.603   0.342  0.3344 -0.1428 -0.5399
   98MPD2    C2 1525   3.134   0.652   0.259 -0.4334  0.0251  0.5400
   98MPD2    C3 1526   3.165   0.771   0.188  0.6707  0.4933  0.4397
   98MPD2    C4 1527   3.283   0.836   0.207  0.2850  0.0062  0.7168
   98MPD2    C5 1528   3.375   0.794   0.298 -0.1937 -0.3440  0.9067
   98MPD2     H 1529   3.037   0.605   0.246 -0.2907 -0.2538  0.4898
   98MPD2    H1 1530   3.305   0.926   0.151 -2.0815  1.1124  1.5317
   98MPD2    H2 1531   3.425   0.646   0.434 -0.1337  2.6677  0.6314
   98MPD2    H3 1532   3.466   0.852   0.307 -0.1931 -0.5734  2.3258
   98MPD2     N 1533   3.087   0.837   0.098 -0.0208  0.0946  0.5049
   98MPD2    H5 1534   3.110   0.928   0.059 -2.2787 -0.0032 -1.0739
   98MPD2    N1 1535   3.222   0.480   0.416 -0.2314 -0.3355 -0.9805
   98MPD2    H7 1536   3.307   0.445   0.460 -1.6954  0.3083  2.3179
   99TMC2    C1 1537   1.608   2.902   1.371  0.4650  0.0641  0.0655
   99TMC2    C2 1538   1.691   3.004   1.391 -0.2011  0.1326 -0.0817
   99TMC2    C3 1539   1.665   3.118   1.322 -0.4364  0.3948 -0.0718
   99TMC2    C4 1540   1.509   2.905   1.279 -0.5797  0.2452 -0.7296
   99TMC2    C5 1541   1.499   3.018   1.200 -0.0701 -0.0040 -0.0418
   99TMC2    C6 1542   1.573   3.127   1.217  1.1153 -0.2031  0.1951
   99TMC2     C 1543   1.630   2.793   1.466 -0.3553  0.1134  0.5665
   99TMC2     O 1544   1.710   2.808   1.559 -0.4629  0.3160 -0.3129
   99TMC2     H 1545   1.764   3.002   1.471 -1.8767 -0.9481  1.4235
   99TMC2    H1 1546   1.426   2.836   1.289 -0.3770 -0.0072 -0.7949
   99TMC2    H2 1547   1.556   3.207   1.146 -1.8071 -0.6111  0.4555
   99TMC2    C7 1548   1.407   3.017   1.089  0.2048 -0.5012 -0.0284
   99TMC2    C8 1549   1.774   3.210   1.308  0.7352  0.9951 -0.3798
   99TMC2    O1 1550   1.379   3.127   1.045  0.1205  0.1361 -0.4118
   99TMC2    O2 1551   1.768   3.318   1.253  0.0118  0.2480 -0.1241
   99TMC2    O5 1552   1.884   3.126   1.292  0.2792  0.8008  0.1780
   99TMC2    H5 1553   1.877   3.034   1.325  0.9861  0.9473  0.7445
  100MPD2     C 1554   1.582   2.558   1.628 -0.4410  0.1977  0.3449
  100MPD2    C1 1555   1.558   2.561   1.494  0.6472 -0.5197  0.1890
  100MPD2    C2 1556   1.519   2.447   1.429 -0.8499  0.8393  0.4528
  100MPD2    C3 1557   1.500   2.326   1.494 -0.2912  0.0447  0.3686
  100MPD2    C4 1558   1.521   2.325   1.630  0.2574  0.2325  0.3305
  100MPD2    C5 1559   1.564   2.438   1.697 -0.3454  0.6733 -0.1374
  100MPD2     H 1560   1.486   2.455   1.327  0.5543 -0.7694 -0.1251
  100MPD2    H1 1561   1.498   2.233   1.684  0.8651 -0.3079 -0.3360
  100MPD2    H2 1562   1.631   2.637   1.683 -0.2335 -0.1581  0.6628
  100MPD2    H3 1563   1.584   2.435   1.804  0.0275 -1.1435 -0.2497
  100MPD2     N 1564   1.461   2.207   1.425  0.3464 -0.1984  0.4694
  100MPD2    H5 1565   1.472   2.213   1.324 -1.3253  0.4908  0.3281
  100MPD2    N1 1566   1.577   2.676   1.416 -0.6002  0.0873 -0.0041
  100MPD2    H7 1567   1.532   2.681   1.325 -0.8999 -3.2495 -0.0576
  101TMC2    C1 1568   2.568   3.928  12.815 -0.3026 -0.2250 -0.5737
  101TMC2    C2 1569   2.480   4.030  12.832  0.2413  0.0129 -0.5124
  101TMC2    C3 1570   2.485   4.129  12.746  0.1541 -0.4820 -0.0089
  101TMC2    C4 1571   2.667   3.924  12.717 -0.1874 -0.0068  0.1312
  101TMC2    C5 1572   2.669   4.034  12.637 -0.3701  0.6152 -0.5566
  101TMC2    C6 1573   2.584   4.141  12.656 -0.2484  0.4592  0.2413
  101TMC2     C 1574   2.550   3.809  12.896 -0.0800  0.2239  0.2873
  101TMC2     O 1575   2.485   3.831  12.998 -0.1194  0.0609  0.3806
  101TMC2     H 1576   2.402   4.030  12.907  0.3679 -0.8326 -0.3816
  101TMC2    H1 1577   2.740   3.845  12.706 -0.8197 -0.5597 -0.0828
  101TMC2    H2 1578   2.597   4.224  12.587  0.5738  1.2581  1.3542
  101TMC2    C7 1579   2.740   4.030  12.510 -0.2129  0.4527 -0.8327
  101TMC2    C8 1580   2.406   4.245  12.762  1.1231 -0.0379  0.3648
  101TMC2    O1 1581   2.826   3.946  12.505 -0.1277 -0.3126  0.8082
  101TMC2    O2 1582   2.454   4.353  12.734 -0.2499  0.0918 -0.4993
  101TMC2    O5 1583   2.274   4.208  12.768 -0.4785  0.5227 -0.6444
  101TMC2    H5 1584   2.263   4.113  12.745 -0.1790 -0.0465  1.5092
  102MPD2     C 1585   2.562   3.447  12.793  0.5310  0.0672 -0.2147
  102MPD2    C1 1586   2.548   3.554  12.877 -0.6844  0.2890  0.1142
  102MPD2    C2 1587   2.486   3.534  13.000  0.0212 -0.7289 -0.9559
  102MPD2    C3 1588   2.452   3.408  13.036 -0.7951  0.1805  0.3971
  102MPD2    C4 1589   2.459   3.306  12.956 -0.5927  0.0211 -0.0721
  102MPD2    C5 1590   2.515   3.326  12.830 -0.0815  0.5653 -0.1141
  102MPD2     H 1591   2.478   3.617  13.069  1.0190 -0.1027 -1.5784
  102MPD2    H1 1592   2.430   3.204  12.977 -0.0072 -0.3484 -1.0845
  102MPD2    H2 1593   2.605   3.462  12.695 -0.2051  1.4430 -0.3398
  102MPD2    H3 1594   2.527   3.239  12.766 -0.5791 -0.1441  0.7616
  102MPD2     N 1595   2.398   3.389  13.169 -0.4274  0.0121 -0.3931
  102MPD2    H5 1596   2.372   3.472  13.222 -1.5299 -0.6195  0.0403
  102MPD2    N1 1597   2.582   3.687  12.833  0.0943 -0.1663 -0.0997
  102MPD2    H7 1598   2.614   3.687  12.736 -2.3533  0.7381 -0.9012
  103TMC2    C1 1599   0.756   3.788  12.921 -0.7029 -0.0086 -0.0347
  103TMC2    C2 1600   0.883   3.786  12.977  0.0947  0.4167  0.1906
  103TMC2    C3 1601   0.887   3.801  13.109  0.1696 -0.4178  0.6745
  103TMC2    C4 1602   0.641   3.799  12.993  0.3379  0.5911  0.8200
  103TMC2    C5 1603   0.659   3.821  13.131 -0.2344  0.5003 -0.0822
  103TMC2    C6 1604   0.781   3.825  13.193  0.6882 -0.1055  0.4801
  103TMC2     C 1605   0.735   3.788  12.770  0.6855 -0.3497 -0.7817
  103TMC2     O 1606   0.625   3.796  12.719 -0.3671 -0.2479  0.7389
  103TMC2     H 1607   0.977   3.784  12.922 -0.4380 -1.4738 -0.6468
  103TMC2    H1 1608   0.542   3.794  12.948  2.0351 -1.6680 -2.6080
  103TMC2    H2 1609   0.796   3.843  13.299  0.5965 -0.5175  0.5636
  103TMC2    C7 1610   0.549   3.851  13.222 -0.1691 -0.1204  0.4291
  103TMC2    C8 1611   1.019   3.807  13.169 -0.4748 -0.6263  0.0114
  103TMC2    O1 1612   0.583   3.832  13.338  0.9329 -0.4799  0.3108
  103TMC2    O2 1613   1.026   3.861  13.280 -0.0526  0.3130 -0.0964
  103TMC2    O5 1614   1.067   3.689  13.143  0.2101  0.2844  0.9002
  103TMC2    H5 1615   1.013   3.630  13.086 -1.9783  2.4137  0.7726
  104MPD2     C 1616   0.985   3.826  12.499  0.5396 -0.3401 -0.0986
  104MPD2    C1 1617   0.865   3.788  12.554  0.3371 -0.3298 -0.5545
  104MPD2    C2 1618   0.763   3.743  12.476  0.1036  0.5159  0.3707
  104MPD2    C3 1619   0.778   3.733  12.339 -0.3634  0.8494  0.3121
  104MPD2    C4 1620   0.898   3.779  12.287 -0.1507 -0.2828  0.3028
  104MPD2    C5 1621   1.001   3.824  12.365  0.3492  0.2635  0.2201
  104MPD2     H 1622   0.668   3.712  12.517 -0.3190  0.4758 -0.6325
  104MPD2    H1 1623   0.927   3.785  12.183  0.1114 -0.8237  0.3460
  104MPD2    H2 1624   1.064   3.859  12.566  0.4180  0.6814 -0.4551
  104MPD2    H3 1625   1.090   3.865  12.317 -0.3970 -0.7960 -2.0521
  104MPD2     N 1626   0.680   3.674  12.260  0.4572 -0.7633  0.0625
  104MPD2    H5 1627   0.600   3.635  12.308  0.0690  1.0850  0.8922
  104MPD2    N1 1628   0.854   3.793  12.698 -0.1424 -0.2662  0.1486
  104MPD2    H7 1629   0.937   3.825  12.747 -0.2462 -0.4826  0.4682
  105TMC2    C1 1630   1.699   3.556   0.028 -0.4711  0.1575 -0.1110
  105TMC2    C2 1631   1.818   3.613  17.722 -0.4269 -0.4436 -0.2239
  105TMC2    C3 1632   1.843   3.746   0.029  0.1819  0.4197  0.1172
  105TMC2    C4 1633   1.613   3.620   0.118  0.4293  0.8830  0.2891
  105TMC2    C5 1634   1.656   3.739   0.170  0.0191  0.5082  0.1743
  105TMC2    C6 1635   1.772   3.807   0.126  0.1129 -0.3834 -0.1100
  105TMC2     C 1636   1.678   3.413   0.015 -1.0547  0.6748 -0.1407
  105TMC2     O 1637   1.592   3.363   0.089 -0.0367  0.1095  0.2390
  105TMC2     H 1638   1.890   3.568  17.654 -0.9415 -0.7578 -0.5538
  105TMC2    H1 1639   1.521   3.576   0.154  0.8368 -0.5582 -0.4409
  105TMC2    H2 1640   1.786   3.912   0.150  0.5419 -0.2739 -0.8689
  105TMC2    C7 1641   1.591   3.782   0.295 -0.0010  0.2352  0.1620
  105TMC2    C8 1642   1.963   3.798  17.710 -0.8229 -0.6008  0.3806
  105TMC2    O1 1643   1.485   3.729   0.324 -0.1605  0.0162 -0.6157
  105TMC2    O2 1644   2.053   3.726  17.678  0.2100  0.0938 -0.7354
  105TMC2    O5 1645   1.966   3.935  17.719  0.4131 -0.2040 -0.0784
  105TMC2    H5 1646   1.877   3.975  17.724 -0.5439 -2.1515 -1.9758
  106MPD2     C 1647   1.800   2.953  17.575  0.1643 -0.1856 -0.6188
  106MPD2    C1 1648   1.875   3.045  17.506 -0.1473 -0.8188 -0.7319
  106MPD2    C2 1649   1.866   3.178  17.545 -0.4848  0.0483 -0.2433
  106MPD2    C3 1650   1.775   3.221  17.639 -0.3833 -0.1667 -0.0710
  106MPD2    C4 1651   1.702   3.126  17.705  0.1128 -0.4772  0.0123
  106MPD2    C5 1652   1.721   2.991  17.677  0.8188 -0.1712 -0.3705
  106MPD2     H 1653   1.929   3.246  17.489 -1.1022  1.0687  0.3035
  106MPD2    H1 1654   1.622   3.140   0.042  0.0908  1.0223 -0.2976
  106MPD2    H2 1655   1.786   2.851  17.540 -4.1985  0.0762  0.3466
  106MPD2    H3 1656   1.655   2.915  17.717 -2.2422  1.5700 -2.1883
  106MPD2     N 1657   1.762   3.354  17.658 -0.1879  0.9930  0.4576
  106MPD2    H5 1658   1.825   3.414  17.606 -0.1342  0.1472 -0.4505
  106MPD2    N1 1659   1.948   3.011  17.387 -0.2523 -0.8222  1.1626
  106MPD2    H7 1660   1.996   3.087  17.339 -0.5781 -0.6538  1.0978
  107TMC2    C1 1661   2.691   2.260  11.659  0.1723  0.4072 -0.8212
  107TMC2    C2 1662   2.757   2.340  11.564 -0.4226  0.0287  0.4737
  107TMC2    C3 1663   2.851   2.280  11.488 -0.2597  0.3372  0.1576
  107TMC2    C4 1664   2.743   2.140  11.692 -0.5528  0.2221 -0.2510
  107TMC2    C5 1665   2.854   2.100  11.623  0.4608 -0.4868 -0.7072
  107TMC2    C6 1666   2.908   2.162  11.517  0.4981  0.1682 -0.3926
  107TMC2     C 1667   2.577   2.303  11.729 -0.2427  0.0308  0.1352
  107TMC2     O 1668   2.541   2.234  11.820 -0.1094 -0.3645  0.0301
  107TMC2     H 1669   2.709   2.432  11.533 -0.1554 -0.0065 -0.0333
  107TMC2    H1 1670   2.693   2.076  11.764  1.3891 -2.3306 -1.1529
  107TMC2    H2 1671   2.988   2.115  11.461  0.0733  1.9030 -2.4536
  107TMC2    C7 1672   2.892   1.955  11.650 -0.1475  0.0273  0.2040
  107TMC2    C8 1673   2.895   2.354  11.374 -0.9198 -0.0790 -0.9819
  107TMC2    O1 1674   2.878   1.912  11.767  0.4167  0.2850  0.2205
  107TMC2    O2 1675   2.902   2.475  11.373  0.2417 -0.6538  0.0564
  107TMC2    O5 1676   2.951   2.265  11.285 -0.0814  0.4007  0.4283
  107TMC2    H5 1677   2.908   2.177  11.279  1.0408 -0.0601 -0.8825
  108MPD2     C 1678   2.362   2.599  11.654 -0.3868  0.0319  0.2592
  108MPD2    C1 1679   2.413   2.497  11.731 -0.0587 -0.3064 -0.1072
  108MPD2    C2 1680   2.376   2.486  11.864  0.7037 -1.1431  0.5567
  108MPD2    C3 1681   2.262   2.556  11.906 -0.0837  0.7001 -0.2069
  108MPD2    C4 1682   2.195   2.645  11.822 -0.5881  0.5516  0.5629
  108MPD2    C5 1683   2.257   2.672  11.704 -0.7117 -0.2533 -0.8272
  108MPD2     H 1684   2.428   2.416  11.927  0.8337 -0.0998  1.6021
  108MPD2    H1 1685   2.102   2.697  11.840 -0.2042  0.9966  1.3001
  108MPD2    H2 1686   2.404   2.614  11.555 -2.7755  1.5346 -0.5335
  108MPD2    H3 1687   2.206   2.736  11.633 -0.9879  0.6590  0.2016
  108MPD2     N 1688   2.195   2.542  12.033  0.2171  0.3269  0.3399
  108MPD2    H5 1689   2.121   2.608  12.057  1.9483  1.5898  2.2559
  108MPD2    N1 1690   2.525   2.426  11.684 -0.0017  0.1791 -0.4221
  108MPD2    H7 1691   2.554   2.453  11.591 -2.1715  0.4740 -0.9961
  109TMC2    C1 1692   2.051   4.477   0.408  0.0475 -0.4035  0.1062
  109TMC2    C2 1693   2.074   4.353   0.344  0.0691  0.7800  0.5734
  109TMC2    C3 1694   2.190   4.336   0.279 -0.5211 -0.1087 -0.0409
  109TMC2    C4 1695   2.141   4.580   0.416 -0.5374 -0.2024 -0.9092
  109TMC2    C5 1696   2.269   4.550   0.364 -0.0973 -0.8608  0.3703
  109TMC2    C6 1697   2.292   4.425   0.302 -0.3068 -0.4217 -1.0683
  109TMC2     C 1698   1.961   4.463   0.517 -0.0723 -0.5021 -0.9559
  109TMC2     O 1699   1.854   4.399   0.511  0.0349  0.3651 -0.0088
  109TMC2     H 1700   1.998   4.275   0.344 -0.5822  1.3960 -0.7763
  109TMC2    H1 1701   2.112   4.680   0.446  1.7575 -0.0669  0.8778
  109TMC2    H2 1702   2.395   4.407   0.273  0.3291  0.5831  0.5088
  109TMC2    C7 1703   2.374   4.624   0.422 -0.0198 -1.1742 -0.3654
  109TMC2    C8 1704   2.215   4.205   0.221 -0.3421 -0.1039  0.4673
  109TMC2    O1 1705   2.488   4.609   0.385 -0.6018  0.3078  0.6581
  109TMC2    O2 1706   2.155   4.105   0.242 -0.4963 -0.0911 -0.1690
  109TMC2    O5 1707   2.288   4.217   0.111  0.0061 -0.0551  0.3604
  109TMC2    H5 1708   2.324   4.307   0.097  0.1771 -0.2033 -0.1578
  110MPD2     C 1709   1.864   4.702   0.961 -0.4369 -0.1609 -1.2148
  110MPD2    C1 1710   2.001   4.673   0.952  0.0010 -0.0118  0.0143
  110MPD2    C2 1711   2.048   4.600   0.845  0.6399  0.3501  0.8336
  110MPD2    C3 1712   1.966   4.558   0.741 -0.1869 -0.5429 -0.7970
  110MPD2    C4 1713   1.826   4.577   0.756  0.1521  0.0633 -0.1437
  110MPD2    C5 1714   1.780   4.661   0.860  0.4495  0.6229  0.6553
  110MPD2     H 1715   2.154   4.578   0.834  0.2595 -1.9300  1.5704
  110MPD2    H1 1716   1.753   4.558   0.678  1.3776  0.7152 -1.4653
  110MPD2    H2 1717   1.827   0.022   1.048  0.5153  0.0186 -0.9210
  110MPD2    H3 1718   1.674   4.673   0.877  0.2897 -0.5387  0.5046
  110MPD2     N 1719   2.031   4.510   0.620 -0.2911 -0.0842  0.1178
  110MPD2    H5 1720   2.132   4.511   0.618 -0.2624  1.9972  2.8317
  110MPD2    N1 1721   2.087   4.731   1.048 -0.3796 -0.0295  0.3351
  110MPD2    H7 1722   2.052   0.050   1.127 -1.1622 -0.4460  0.2742
  111TMC2    C1 1723   2.927   3.914  10.939 -0.0718  0.1653  0.1944
  111TMC2    C2 1724   2.985   3.815  10.864  0.6389  0.1797  0.2222
  111TMC2    C3 1725   3.112   3.774  10.903  0.0661  0.4775 -0.6040
  111TMC2    C4 1726   2.978   3.966  11.050  0.7506 -0.2253  0.4166
  111TMC2    C5 1727   3.097   3.911  11.093 -0.0587 -0.3439  0.1424
  111TMC2    C6 1728   3.164   3.823  11.018 -0.5448  0.2298 -0.4579
  111TMC2     C 1729   2.792   3.948  10.900 -0.1139  0.3732 -1.1374
  111TMC2     O 1730   2.767   3.918  10.784  0.5594 -0.5178 -0.0875
  111TMC2     H 1731   2.935   3.770  10.778 -0.1418  0.9095  0.2914
  111TMC2    H1 1732   2.937   4.056  11.095 -0.6009 -0.0047 -1.2602
  111TMC2    H2 1733   3.259   3.785  11.052 -1.6836 -2.5639 -0.4120
  111TMC2    C7 1734   3.160   3.945  11.215  0.2570  0.6358 -0.4429
  111TMC2    C8 1735   3.154   3.637  10.865 -0.8588 -0.1400 -0.4770
  111TMC2    O1 1736   3.098   3.960  11.317 -0.3057 -0.0472 -0.0447
  111TMC2    O2 1737   3.134   3.594  10.753  0.3583 -0.8754  0.0524
  111TMC2    O5 1738   3.126   3.563  10.975  0.1546  0.0103 -0.3268
  111TMC2    H5 1739   3.169   3.609  11.050  0.6604  1.1013 -1.2906
  112MPD2     C 1740   2.333   4.153  10.936  0.7134 -0.6276  0.0339
  112MPD2    C1 1741   2.401   4.097  10.831 -0.8734 -0.6581  0.4537
  112MPD2    C2 1742   2.531   4.044  10.846  0.6620  0.0766 -0.5728
  112MPD2    C3 1743   2.588   4.054  10.971  0.3275  0.0497  0.0286
  112MPD2    C4 1744   2.520   4.119  11.077 -0.3009 -0.4495 -0.5103
  112MPD2    C5 1745   2.395   4.170  11.058 -0.5628  0.0219  0.2221
  112MPD2     H 1746   2.575   3.999  10.758  1.3344  1.0152 -0.7157
  112MPD2    H1 1747   2.576   4.134  11.169  1.9206  0.2413 -1.9812
  112MPD2    H2 1748   2.236   4.199  10.918  1.6640  1.8380  1.1995
  112MPD2    H3 1749   2.349   4.212  11.147  2.1217  0.5279  1.3873
  112MPD2     N 1750   2.716   4.003  10.997 -0.1330 -0.0160  0.0206
  112MPD2    H5 1751   2.751   4.009  11.092  1.2572  2.6308 -0.6701
  112MPD2    N1 1752   2.353   4.090  10.698  0.3237  0.0525 -0.5499
  112MPD2    H7 1753   2.415   4.047  10.630 -0.4313 -1.1769 -0.4523
  113TMC2    C1 1754   0.333   2.393   0.505  0.7159 -0.6180  0.0406
  113TMC2    C2 1755   0.283   2.493   0.428  0.5683 -0.0748  0.9247
  113TMC2    C3 1756   0.164   2.470   0.361  0.4261 -0.0794  0.6989
  113TMC2    C4 1757   0.262   2.281   0.540  0.1844  0.3553  0.3926
  113TMC2    C5 1758   0.142   2.267   0.478  0.2083  0.8508 -0.0731
  113TMC2    C6 1759   0.091   2.356   0.386  0.2785  0.5918 -0.1000
  113TMC2     C 1760   0.472   2.399   0.537  0.0949  0.0463 -0.2196
  113TMC2     O 1761   0.516   2.509   0.555 -0.2796  0.3350  0.1789
  113TMC2     H 1762   0.359   2.567   0.408  0.2229  0.3049  1.0125
  113TMC2    H1 1763   0.301   2.205   0.607  1.4889 -0.2126 -0.9965
  113TMC2    H2 1764   4.733   2.340   0.331  0.4352  0.5497 -0.3474
  113TMC2    C7 1765   0.063   2.143   0.501  0.3257  0.5164  0.0587
  113TMC2    C8 1766   0.118   2.565   0.259 -0.6655 -0.0744  0.1366
  113TMC2    O1 1767   4.702   2.130   0.425  0.1394  0.3325 -0.0667
  113TMC2    O2 1768   0.016   2.541   0.197 -0.2735 -0.3200  0.2462
  113TMC2    O5 1769   0.145   2.686   0.315  0.3103  0.3696 -0.2169
  113TMC2    H5 1770   0.227   2.693   0.368 -0.3387 -0.4396  0.8891
  114MPD2     C 1771   0.932   2.159   0.594 -0.7168  0.0718 -0.6533
  114MPD2    C1 1772   0.905   2.289   0.575 -0.5825 -0.7672  0.1244
  114MPD2    C2 1773   0.780   2.331   0.554  0.1761 -0.1017 -0.5854
  114MPD2    C3 1774   0.672   2.244   0.563 -0.5833 -0.3233 -0.1438
  114MPD2    C4 1775   0.697   2.111   0.582  0.7335 -0.2630  0.2035
  114MPD2    C5 1776   0.825   2.069   0.594  0.2603  0.3594  0.1075
  114MPD2     H 1777   0.757   2.435   0.532  3.5077  1.2335  2.3111
  114MPD2    H1 1778   0.619   2.036   0.577 -0.3097  0.8745 -0.6586
  114MPD2    H2 1779   1.030   2.114   0.604 -0.0048  1.5754 -0.9513
  114MPD2    H3 1780   0.846   1.964   0.615 -1.7812  0.3349  2.0502
  114MPD2     N 1781   0.537   2.275   0.545  0.0851  0.1369  0.7351
  114MPD2    H5 1782   0.481   2.191   0.531  1.1059 -0.5997  1.1290
  114MPD2    N1 1783   1.007   2.386   0.580 -0.6563 -0.4192  0.3604
  114MPD2    H7 1784   0.992   2.482   0.552  1.9550 -0.5294 -1.3863
  115TMC2    C1 1785   1.501   4.705   0.019 -0.1641 -0.0856 -0.1811
  115TMC2    C2 1786   1.591   4.668  17.665 -0.0112  0.4956 -0.0373
  115TMC2    C3 1787   1.668   0.032  17.618 -0.2317  0.2566  0.7166
  115TMC2    C4 1788   1.477   0.099   0.063  0.0253  0.9192 -0.2970
  115TMC2    C5 1789   1.567   0.196   0.022 -0.5131 -1.1633 -0.1076
  115TMC2    C6 1790   1.655   0.160  17.661  0.3379 -0.4828 -0.5784
  115TMC2     C 1791   1.386   4.632   0.004  0.3766  0.4726 -0.1119
  115TMC2     O 1792   1.395   4.522  17.691 -0.2428  0.3412  0.3376
  115TMC2     H 1793   1.600   4.565  17.634 -1.0900 -0.0658  1.5106
  115TMC2    H1 1794   1.421   0.129   0.151  0.6498  0.7928  0.1415
  115TMC2    H2 1795   1.734   0.229  17.634  0.5280 -0.3074  0.4229
  115TMC2    C7 1796   1.543   0.339   0.043 -0.4500 -0.3258  0.4029
  115TMC2    C8 1797   1.771   4.728  17.528  0.8907  0.2823 -0.1009
  115TMC2    O1 1798   1.470   0.368   0.136  0.0415  0.0602  1.1116
  115TMC2    O2 1799   1.807   4.612  17.522 -0.2622  0.0859  0.4231
  115TMC2    O5 1800   1.814   0.096  17.459 -0.1132 -0.2149  0.2951
  115TMC2    H5 1801   1.762   0.179  17.465 -0.4109 -0.4307  0.7205
  116MPD2     C 1802   0.884   4.634  17.680 -0.4595  0.4068  0.3556
  116MPD2    C1 1803   0.977   4.556  17.610 -0.2724 -0.4863  0.0994
  116MPD2    C2 1804   1.111   4.580  17.647  1.0410 -0.6978 -0.4662
  116MPD2    C3 1805   1.142   4.679   0.010  0.4079 -0.4252  0.5559
  116MPD2    C4 1806   1.047   0.011   0.073 -0.1338 -0.0313  0.3215
  116MPD2    C5 1807   0.919   4.721   0.041 -0.2450 -0.7092  0.1182
  116MPD2     H 1808   1.184   4.525  17.590  2.0879  2.3251 -2.0350
  116MPD2    H1 1809   1.076   0.087   0.144 -0.9658  0.5982 -0.0118
  116MPD2    H2 1810   0.779   4.636  17.655 -0.6582  0.9325  1.2238
  116MPD2    H3 1811   0.842   0.052   0.079  2.0933  2.7319 -1.0208
  116MPD2     N 1812   1.280   4.701   0.048 -1.1294 -0.1259 -0.5606
  116MPD2    H5 1813   1.295   0.049   0.106 -0.6702 -0.7527  0.1952
  116MPD2    N1 1814   0.932   4.464  17.506 -0.4261  0.0436  0.7446
  116MPD2    H7 1815   0.831   4.464  17.501 -0.4768  1.1357  1.6935
  117TMC2    C1 1816   4.366   1.446  13.829 -0.2214 -0.1340 -0.1190
  117TMC2    C2 1817   4.436   1.355  13.897  0.5094 -0.0409  0.4684
  117TMC2    C3 1818   4.509   1.401  14.006  0.5895 -0.1960  0.0755
  117TMC2    C4 1819   4.394   1.583  13.838  0.1892  0.2431 -0.4206
  117TMC2    C5 1820   4.475   1.623  13.940 -0.5129 -0.0981  0.1730
  117TMC2    C6 1821   4.520   1.531  14.029 -0.1506 -0.7739  0.3331
  117TMC2     C 1822   4.242   1.403  13.760 -0.6511  0.5061  0.7366
  117TMC2     O 1823   4.199   1.290  13.780  0.4477 -0.7998  0.4269
  117TMC2     H 1824   4.412   1.249  13.904 -1.9094  0.1365 -4.9665
  117TMC2    H1 1825   4.357   1.651  13.762 -0.7795  1.1021  0.8200
  117TMC2    H2 1826   4.577   1.567  14.114  2.4819 -1.3899 -1.1368
  117TMC2    C7 1827   4.515   1.763  13.955 -0.3362 -1.1794 -0.2252
  117TMC2    C8 1828   4.602   1.314  14.069  0.5393 -0.1842 -0.6967
  117TMC2    O1 1829   4.621   1.782  14.018 -0.1282 -0.7879  0.1505
  117TMC2    O2 1830   4.640   1.323  14.183 -0.1468  0.2488 -0.3249
  117TMC2    O5 1831   4.652   1.222  13.978  0.3655  0.1323  0.2565
  117TMC2    H5 1832   4.590   1.225  13.902 -1.7427 -0.0535  1.9473
  118MPD2     C 1833   4.277   2.036  13.969 -0.7360  0.0915 -0.5326
  118MPD2    C1 1834   4.405   1.981  13.960 -0.1446  0.2487 -0.4147
  118MPD2    C2 1835   4.513   2.050  14.005  0.4031 -0.4205  0.4770
  118MPD2    C3 1836   4.499   2.178  14.058  0.3545  0.3734 -0.1566
  118MPD2    C4 1837   4.378   2.231  14.063 -0.2553  0.6693  0.1387
  118MPD2    C5 1838   4.265   2.158  14.028  0.3477  0.0770  0.3624
  118MPD2     H 1839   4.613   2.007  14.005  1.1190  1.2130  0.4748
  118MPD2    H1 1840   4.351   2.321  14.117  1.9095  1.8121 -0.7087
  118MPD2    H2 1841   4.192   1.974  13.944 -1.1333 -0.1279  1.3900
  118MPD2    H3 1842   4.172   2.209  14.054 -0.3426 -0.1806 -1.6462
  118MPD2     N 1843   4.605   2.253  14.112  0.6015 -0.7026  0.0668
  118MPD2    H5 1844   4.577   2.339  14.159 -1.1624 -2.0755  1.5003
  118MPD2    N1 1845   4.411   1.842  13.924 -0.5965 -0.4663  0.4226
  118MPD2    H7 1846   4.325   1.811  13.882 -0.0007 -1.3056 -0.1867
  119TMC2    C1 1847   3.114   2.838  13.400  0.4508  0.3704  0.1354
  119TMC2    C2 1848   3.181   2.794  13.289 -0.2141  0.0727 -0.6004
  119TMC2    C3 1849   3.115   2.696  13.222 -0.1410 -0.1154  0.0839
  119TMC2    C4 1850   2.997   2.789  13.441  0.2875  0.4407 -0.0009
  119TMC2    C5 1851   2.931   2.700  13.357  0.6778  0.6293  0.6457
  119TMC2    C6 1852   2.987   2.649  13.249  0.1903  0.4236  0.6333
  119TMC2     C 1853   3.185   2.928  13.488  0.2441 -0.0704  0.4954
  119TMC2     O 1854   3.111   2.997  13.561 -0.0542  0.1050 -0.0232
  119TMC2     H 1855   3.275   2.839  13.261 -0.8302 -0.1548 -3.1095
  119TMC2    H1 1856   2.959   2.834  13.532 -0.9050 -1.2297  0.3238
  119TMC2    H2 1857   2.955   2.555  13.206 -1.5283  1.3497 -0.1469
  119TMC2    C7 1858   2.825   2.622  13.414  0.1445 -0.5874 -0.2124
  119TMC2    C8 1859   3.158   2.658  13.093  0.4493  0.4194 -0.1541
  119TMC2    O1 1860   2.764   2.546  13.342  0.4528 -0.4723 -0.1307
  119TMC2    O2 1861   3.226   2.557  13.077  0.3134  0.1328 -0.5317
  119TMC2    O5 1862   3.043   2.673  13.028  1.0370  0.7879  0.0281
  119TMC2    H5 1863   2.981   2.745  13.052  1.4510  1.3714 -0.6869
  120MPD2     C 1864   3.574   2.945  13.824 -0.3416  0.6492  0.2008
  120MPD2    C1 1865   3.449   3.002  13.836 -0.1159  0.0731  0.0890
  120MPD2    C2 1866   3.365   2.991  13.722  0.5749 -0.1519 -0.2825
  120MPD2    C3 1867   3.413   2.936  13.603  0.0794  0.0157 -0.1408
  120MPD2    C4 1868   3.538   2.884  13.599  0.5966 -0.3815 -0.2817
  120MPD2    C5 1869   3.617   2.885  13.709  0.0879  0.2859  0.9738
  120MPD2     H 1870   3.263   3.028  13.731 -0.5272 -2.4461 -3.4541
  120MPD2    H1 1871   3.587   2.854  13.507  0.5706  0.4988 -0.5779
  120MPD2    H2 1872   3.641   2.922  13.906  1.3702  5.0179  0.0263
  120MPD2    H3 1873   3.717   2.845  13.693 -0.8502 -0.9764 -1.6164
  120MPD2     N 1874   3.320   2.892  13.500  0.2689 -0.4143  0.7031
  120MPD2    H5 1875   3.367   2.822  13.443 -1.3183 -0.3133 -0.7320
  120MPD2    N1 1876   3.410   3.043  13.964  0.1341 -0.3831 -0.4322
  120MPD2    H7 1877   3.487   3.067  14.026 -0.3459 -2.7968  1.1352
  121TMC2    C1 1878   0.320   4.212  14.025  0.1455  0.0471  0.6859
  121TMC2    C2 1879   0.379   4.166  14.143  0.7886 -0.1547  0.0234
  121TMC2    C3 1880   0.332   4.047  14.195 -0.2147  0.6169 -0.0919
  121TMC2    C4 1881   0.228   4.135  13.961 -0.4073  0.7285  0.3578
  121TMC2    C5 1882   0.188   4.013  14.021 -0.0041 -0.2184 -0.5271
  121TMC2    C6 1883   0.241   3.966  14.139  0.4130 -0.5554  0.1580
  121TMC2     C 1884   0.362   4.340  13.973  0.0914  0.3103  0.1508
  121TMC2     O 1885   0.419   4.413  14.051  0.1015  0.0951  0.8166
  121TMC2     H 1886   0.450   4.228  14.197  0.8190 -0.4735  0.3502
  121TMC2    H1 1887   0.186   4.176  13.870  2.2690 -0.8532 -1.5667
  121TMC2    H2 1888   0.197   3.882  14.192 -0.5100  0.0258  0.3278
  121TMC2    C7 1889   0.051   3.965  14.001  1.1284  0.4219 -0.7010
  121TMC2    C8 1890   0.390   3.989  14.319  0.1100  0.1416 -0.1812
  121TMC2    O1 1891   0.032   3.847  14.002  0.1563  0.1686  0.1923
  121TMC2    O2 1892   0.378   3.871  14.355  0.1328  0.0759  0.4240
  121TMC2    O5 1893   0.399   4.093  14.401 -0.4153 -0.6974 -0.4391
  121TMC2    H5 1894   0.403   4.185  14.367  2.0284 -0.0172  1.6761
  122MPD2     C 1895   0.470   4.570  13.808  0.1156 -0.5871  0.2877
  122MPD2    C1 1896   0.393   4.471  13.758 -0.2595  0.0276 -0.2992
  122MPD2    C2 1897   0.348   4.476  13.626 -0.1922  0.1944  0.4612
  122MPD2    C3 1898   0.390   4.583  13.544 -0.2496 -0.6929  0.1018
  122MPD2    C4 1899   0.446   4.690  13.606 -0.0826 -1.0308 -0.4985
  122MPD2    C5 1900   0.493   4.682  13.732  0.3879  0.1169  0.3263
  122MPD2     H 1901   0.295   4.395  13.578  0.6362 -0.6581  0.9842
  122MPD2    H1 1902   0.477   0.042  13.548 -0.5430  0.8245  2.0040
  122MPD2    H2 1903   0.510   4.562  13.908 -0.0643  1.1442  0.4796
  122MPD2    H3 1904   0.557   0.028  13.766  2.6269 -1.2867 -0.5884
  122MPD2     N 1905   0.337   4.602  13.414 -0.0058 -0.4040  0.3120
  122MPD2    H5 1906   0.356   4.686  13.360 -0.4173 -0.4202  0.1433
  122MPD2    N1 1907   0.352   4.352  13.836 -0.4959 -0.0957 -0.5096
  122MPD2    H7 1908   0.309   4.276  13.785  1.4183 -0.5230 -1.4927
  123TMC2    C1 1909   2.978   3.037  10.231  0.5818 -0.4718 -0.8875
  123TMC2    C2 1910   2.937   3.166  10.240  0.1160 -0.1540 -0.3880
  123TMC2    C3 1911   2.939   3.245  10.128  0.2011  0.0470  0.4926
  123TMC2    C4 1912   3.015   2.986  10.112 -0.6755  0.1774 -0.4176
  123TMC2    C5 1913   2.986   3.059   9.996  0.3165  0.1337  0.0617
  123TMC2    C6 1914   2.950   3.188  10.006 -0.1921  0.1651 -0.3934
  123TMC2     C 1915   2.953   2.956  10.343 -0.0549 -0.6928 -0.7174
  123TMC2     O 1916   2.969   3.016  10.451 -0.3139  0.0187  0.0396
  123TMC2     H 1917   2.897   3.210  10.330  0.4401 -1.8214  0.5808
  123TMC2    H1 1918   3.051   2.884  10.104  1.1907  0.9124 -1.6013
  123TMC2    H2 1919   2.941   3.252   9.918  2.5055  0.9418 -0.0981
  123TMC2    C7 1920   3.009   3.005   9.861 -0.4195 -0.8364 -0.2327
  123TMC2    C8 1921   2.945   3.388  10.162  1.0087 -0.2767 -0.5980
  123TMC2    O1 1922   3.057   2.893   9.866  0.1035 -0.2554  0.1393
  123TMC2    O2 1923   2.920   3.435  10.272 -0.5840 -0.2516  0.1933
  123TMC2    O5 1924   3.018   3.449  10.066  0.2653 -0.1183  0.0952
  123TMC2    H5 1925   3.063   3.379  10.015  0.3891  0.5745 -0.7455
  124MPD2     C 1926   2.785   2.520  10.572  1.0213  0.6691  0.0344
  124MPD2    C1 1927   2.816   2.495  10.440 -0.3936 -0.6299  0.2913
  124MPD2    C2 1928   2.855   2.598  10.355 -0.6362  0.4772 -0.1547
  124MPD2    C3 1929   2.885   2.723  10.410 -0.0124  0.2807 -0.3996
  124MPD2    C4 1930   2.873   2.734  10.544 -0.0665  0.7667  0.3905
  124MPD2    C5 1931   2.814   2.641  10.624  0.1420  0.1774  0.5479
  124MPD2     H 1932   2.854   2.580  10.248  0.8375 -1.1092  0.0990
  124MPD2    H1 1933   2.892   2.837  10.571  0.2792  0.5736  0.8755
  124MPD2    H2 1934   2.758   2.435  10.634 -2.8994  2.1332  0.3904
  124MPD2    H3 1935   2.803   2.659  10.731  0.0173  0.3011  0.5145
  124MPD2     N 1936   2.924   2.825  10.319  1.2371 -0.0517  0.0142
  124MPD2    H5 1937   2.917   2.793  10.223 -0.1340  3.3213 -0.9942
  124MPD2    N1 1938   2.807   2.362  10.401  0.1329  0.4929 -0.8898
  124MPD2    H7 1939   2.769   2.293  10.465  0.9233  1.5006  0.6617
  125TMC2    C1 1940   3.783   1.083   9.184 -0.1536  0.0026  0.1613
  125TMC2    C2 1941   3.656   1.131   9.190 -0.6490  0.1086 -0.0345
  125TMC2    C3 1942   3.551   1.044   9.202  0.0049 -1.0483 -0.6174
  125TMC2    C4 1943   3.808   0.948   9.170  0.7719  0.3142  0.6816
  125TMC2    C5 1944   3.701   0.867   9.189  0.6062 -0.4047  0.6004
  125TMC2    C6 1945   3.577   0.913   9.198  0.5219 -0.8115  0.4637
  125TMC2     C 1946   3.897   1.168   9.221  0.2662 -0.5895  0.3591
  125TMC2     O 1947   3.988   1.113   9.282  0.1762  1.2722 -0.2550
  125TMC2     H 1948   3.630   1.236   9.181  0.3372  0.2684 -0.9879
  125TMC2    H1 1949   3.911   0.917   9.170  0.6267 -0.1482 -0.2469
  125TMC2    H2 1950   3.499   0.838   9.196 -1.7922  1.6513 -0.4631
  125TMC2    C7 1951   3.713   0.734   9.242 -0.1644 -0.6897  0.2972
  125TMC2    C8 1952   3.428   1.096   9.151  0.0855  0.0990  0.0946
  125TMC2    O1 1953   3.621   0.683   9.309 -0.7918 -0.4072  0.1192
  125TMC2    O2 1954   3.426   1.137   9.035  0.0306 -0.4733 -0.0770
  125TMC2    O5 1955   3.365   1.164   9.246 -0.6067 -0.0731  0.3823
  125TMC2    H5 1956   3.388   1.117   9.329  1.0960 -1.6709 -0.9669
  126MPD1     C 1957   4.129   1.625   9.257 -0.1440  0.3234  0.1800
  126MPD1    C1 1958   4.022   1.636   9.172 -1.0122  0.0240  0.0565
  126MPD1    C2 1959   3.938   1.524   9.150 -0.0217  0.4616  0.4743
  126MPD1    C3 1960   3.958   1.403   9.210  0.1979 -0.1424 -0.3688
  126MPD1    C4 1961   4.069   1.398   9.291 -0.8711  0.5114  0.8498
  126MPD1    C5 1962   4.147   1.502   9.320 -0.1604  0.2166 -0.5448
  126MPD1     H 1963   3.861   1.540   9.075  1.6754 -2.5501 -1.9141
  126MPD1    H1 1964   4.091   1.309   9.348 -1.9131 -0.3706 -0.1142
  126MPD1    H2 1965   4.201   1.705   9.272  0.1252  0.3261 -1.1351
  126MPD1    H3 1966   4.236   1.492   9.381 -0.1381 -0.1750 -0.6379
  126MPD1     N 1967   3.873   1.295   9.188 -0.4409 -0.1984  0.1479
  126MPD1    H5 1968   3.789   1.315   9.134 -0.6787  1.5948  1.2182
  126MPD1    N1 1969   4.010   1.760   9.106 -0.1992  0.2256  0.4439
  126MPD1    H6 1970   3.913   1.786   9.089 -0.2051 -0.2588 -0.2584
  126MPD1    H7 1971   4.061   1.837   9.150  0.2452  0.3859 -0.3672
  127TMC2    C1 1972   4.585   3.467   9.402 -0.2785  0.1926 -0.5099
  127TMC2    C2 1973   4.469   3.459   9.331  1.2179  0.0493  0.5572
  127TMC2    C3 1974   4.367   3.374   9.372 -0.4976  0.1103 -0.5221
  127TMC2    C4 1975   4.616   3.387   9.506  0.1425  0.2800  0.3317
  127TMC2    C5 1976   4.520   3.288   9.540  0.0407  0.0604  0.1759
  127TMC2    C6 1977   4.398   3.286   9.472 -0.5328  0.7220 -0.1893
  127TMC2     C 1978   4.681   3.575   9.385 -0.1474  0.3742 -0.4416
  127TMC2     O 1979   0.009   3.620   9.484  0.3572  0.2140 -0.3711
  127TMC2     H 1980   4.440   3.531   9.256 -1.6078  0.1718  1.7505
  127TMC2    H1 1981   4.711   3.389   9.557  0.2537  0.5972  0.1118
  127TMC2    H2 1982   4.323   3.216   9.508  0.9738 -0.2484  1.0384
  127TMC2    C7 1983   4.558   3.188   9.640 -0.1678  0.2399 -1.0896
  127TMC2    C8 1984   4.233   3.401   9.316  0.0120  0.7180 -0.2694
  127TMC2    O1 1985   4.677   3.174   9.659  0.4414 -0.4493 -0.0712
  127TMC2    O2 1986   4.213   3.474   9.221  0.3821 -0.3297  0.0359
  127TMC2    O5 1987   4.142   3.367   9.413 -0.1769  0.0386 -0.2865
  127TMC2    H5 1988   4.191   3.313   9.480 -1.2883  0.4109  0.8198
  128MPD2     C 1989   4.726   3.773   9.083  0.1494 -0.0879 -0.2967
  128MPD2    C1 1990   0.017   3.731   9.213 -1.0078 -0.1916  0.9475
  128MPD2    C2 1991   0.111   3.807   9.279 -0.1697  0.3864 -0.3862
  128MPD2    C3 1992   0.181   3.905   9.211 -0.2559 -1.0064  0.1051
  128MPD2    C4 1993   0.171   3.923   9.074  0.4330  0.2472  0.3440
  128MPD2    C5 1994   0.063   3.867   9.009 -0.0963  0.7403 -0.9375
  128MPD2     H 1995   0.134   3.784   9.382  1.0690  0.9889 -0.5304
  128MPD2    H1 1996   0.239   3.983   9.015  0.0556  0.7981  0.4673
  128MPD2    H2 1997   4.652   3.721   9.023 -0.4991  0.9984 -0.4231
  128MPD2    H3 1998   0.045   3.890   8.905  2.0634  1.3377 -1.1870
  128MPD2     N 1999   0.272   3.976   9.283 -0.7391 -0.0807 -0.2916
  128MPD2    H5 2000   0.278   3.947   9.380  2.2761  1.0663 -0.1317
  128MPD2    N1 2001   4.666   3.629   9.260  0.1678 -0.0694 -0.3848
  128MPD2    H7 2002   4.604   3.585   9.193 -2.0808  1.6483  0.5654
  129TMC2    C1 2003   4.178   3.811   1.228 -0.1448 -0.0577  0.7990
  129TMC2    C2 2004   4.213   3.816   1.363 -0.0761 -0.1338  1.0216
  129TMC2    C3 2005   4.160   3.720   1.443  0.8113  0.1429  0.6496
  129TMC2    C4 2006   4.081   3.728   1.185 -0.0719  0.3627  0.1797
  129TMC2    C5 2007   4.024   3.638   1.271 -0.0167  0.3462 -0.2554
  129TMC2    C6 2008   4.063   3.634   1.402 -0.0948 -0.1569  0.5056
  129TMC2     C 2009   4.201   3.930   1.151  0.5234  0.5588 -0.2226
  129TMC2     O 2010   4.229   4.030   1.213  0.4217 -0.2948 -0.0460
  129TMC2     H 2011   4.283   3.890   1.401 -0.5297 -1.2673  4.0886
  129TMC2    H1 2012   4.053   3.726   1.080  0.1251  0.8450  0.1143
  129TMC2    H2 2013   4.005   3.575   1.473 -0.3606  0.0743  0.4809
  129TMC2    C7 2014   3.922   3.555   1.217  0.6962  0.7344 -0.5075
  129TMC2    C8 2015   4.223   3.702   1.570  0.0902  0.3513  0.6684
  129TMC2    O1 2016   3.860   3.615   1.131 -0.1151  0.2534  0.3761
  129TMC2    O2 2017   4.290   3.787   1.626 -0.5584 -0.5150 -0.3905
  129TMC2    O5 2018   4.214   3.574   1.609  0.6295  0.0919  0.6605
  129TMC2    H5 2019   4.168   3.519   1.542  2.5644 -0.8533  0.1016
  130MPD2     C 2020   4.285   3.903   0.805  0.5625  0.4747 -0.6542
  130MPD2    C1 2021   4.263   3.972   0.920  0.2948  0.9303  0.7880
  130MPD2    C2 2022   4.261   4.114   0.916  0.2692 -0.4140  0.1589
  130MPD2    C3 2023   4.270   4.180   0.793 -0.3245 -0.4016  0.3068
  130MPD2    C4 2024   4.289   4.114   0.676  0.2731 -0.7230  0.5240
  130MPD2    C5 2025   4.303   3.974   0.686  0.0639 -0.5942 -0.2863
  130MPD2     H 2026   4.238   4.166   1.008  1.0203  0.1170  0.0430
  130MPD2    H1 2027   4.320   4.167   0.587  1.6008  1.0918  2.0741
  130MPD2    H2 2028   4.300   3.795   0.800 -1.1856  0.1196  1.7908
  130MPD2    H3 2029   4.333   3.920   0.596  2.0358  1.0771 -0.6229
  130MPD2     N 2030   4.276   4.318   0.797 -1.0007  0.6100  0.8370
  130MPD2    H5 2031   4.289   4.363   0.887 -0.9638 -0.5503  1.4121
  130MPD2    N1 2032   4.220   3.889   1.021 -0.1600  0.1821 -0.7760
  130MPD2    H7 2033   4.222   3.789   1.004 -0.3425  0.2973 -1.4972
  131TMC2    C1 2034   2.548   2.940   9.634 -0.2287 -0.2730 -0.0886
  131TMC2    C2 2035   2.467   2.977   9.527 -0.1065 -0.3911 -0.0985
  131TMC2    C3 2036   2.430   3.113   9.513 -0.2393  0.2652 -0.1111
  131TMC2    C4 2037   2.585   3.032   9.724 -0.3727 -0.0807  0.4643
  131TMC2    C5 2038   2.539   3.160   9.722 -0.6733 -0.1695  0.7079
  131TMC2    C6 2039   2.471   3.201   9.613 -0.1638  0.2679  0.6935
  131TMC2     C 2040   2.563   2.802   9.676  0.3536  0.5424 -0.8039
  131TMC2     O 2041   2.646   2.784   9.759 -0.3343  0.5927 -0.2854
  131TMC2     H 2042   2.439   2.915   9.442 -0.6931  1.5287 -1.3052
  131TMC2    H1 2043   2.638   2.995   9.811 -1.6358 -1.1951  0.7580
  131TMC2    H2 2044   2.431   3.302   9.619 -0.7674  0.3215 -3.8348
  131TMC2    C7 2045   2.606   3.252   9.814  0.3847 -0.2025 -0.9056
  131TMC2    C8 2046   2.314   3.153   9.427  0.1256  0.5998 -0.4070
  131TMC2    O1 2047   2.636   3.216   9.930  0.5389 -0.1147 -0.1563
  131TMC2    O2 2048   2.230   3.079   9.377 -0.0042 -0.4827  0.4891
  131TMC2    O5 2049   2.363   3.263   9.371 -0.3875  0.0723  0.4839
  131TMC2    H5 2050   2.443   3.302   9.414 -1.2472  0.4033  1.8052
  132MPD2     C 2051   2.396   2.494   9.569 -0.1074 -0.3865  0.2618
  132MPD2    C1 2052   2.477   2.573   9.645 -0.0984  0.4658 -0.3488
  132MPD2    C2 2053   2.545   2.511   9.756  0.1855 -0.0062 -0.4037
  132MPD2    C3 2054   2.521   2.382   9.797 -0.1708 -0.1359  0.2734
  132MPD2    C4 2055   2.435   2.309   9.720 -0.4395  0.0556  0.2559
  132MPD2    C5 2056   2.387   2.362   9.600 -0.8178 -0.3732  0.4679
  132MPD2     H 2057   2.614   2.565   9.821  0.7254 -0.2269 -0.7944
  132MPD2    H1 2058   2.438   2.201   9.721  0.4361  0.0850  1.1863
  132MPD2    H2 2059   2.344   2.527   9.480  2.2113 -0.3160 -1.0479
  132MPD2    H3 2060   2.340   2.298   9.527 -0.9886  0.0276  0.2241
  132MPD2     N 2061   2.570   2.324   9.915  0.3841 -0.2499  0.6092
  132MPD2    H5 2062   2.634   2.376   9.974 -0.0538  0.6736  0.2576
  132MPD2    N1 2063   2.476   2.715   9.620  0.4937 -0.2709  0.4734
  132MPD2    H7 2064   2.406   2.751   9.556  0.1723 -2.0836 -0.1819
  133TMC2    C1 2065   1.681   4.420   9.185 -0.3481  0.0837 -0.3051
  133TMC2    C2 2066   1.624   4.532   9.131  0.3656 -0.0205  0.2378
  133TMC2    C3 2067   1.689   4.650   9.154 -0.5428 -0.4934  0.0554
  133TMC2    C4 2068   1.800   4.419   9.252  1.1056  0.2281  0.9941
  133TMC2    C5 2069   1.860   4.539   9.285 -0.0503  0.2111 -0.0349
  133TMC2    C6 2070   1.805   4.654   9.240  0.6919  0.1382  0.4975
  133TMC2     C 2071   1.630   4.295   9.137 -0.0122 -0.1644 -0.1097
  133TMC2     O 2072   1.701   4.197   9.113  0.1831  0.0556  0.1296
  133TMC2     H 2073   1.546   4.534   9.056  0.7814  3.5765 -0.0998
  133TMC2    H1 2074   1.850   4.326   9.276  0.8229  0.3339  1.9911
  133TMC2    H2 2075   1.853   0.016   9.254  1.7799 -0.7048  2.4692
  133TMC2    C7 2076   1.995   4.525   9.326 -0.4854  0.0289 -0.6213
  133TMC2    C8 2077   1.615   0.036   9.158 -0.0027 -0.3633  0.4293
  133TMC2    O1 2078   2.032   4.408   9.332  0.6410 -0.4838 -0.7734
  133TMC2    O2 2079   1.673   0.147   9.163  0.2767 -0.5561  0.3621
  133TMC2    O5 2080   1.495   0.016   9.209  0.3102  0.0272 -0.8705
  133TMC2    H5 2081   1.467   4.656   9.219 -0.5569  0.5662  1.6552
  134MPD2     C 2082   1.270   4.225   9.117  0.3916  0.2206 -0.0852
  134MPD2    C1 2083   1.406   4.194   9.109 -0.0871 -0.0839 -0.2679
  134MPD2    C2 2084   1.448   4.061   9.095 -0.7334  0.1288  0.5200
  134MPD2    C3 2085   1.352   3.967   9.085 -0.0962 -0.3078 -0.1556
  134MPD2    C4 2086   1.214   4.000   9.082  0.4556 -0.1546 -0.6689
  134MPD2    C5 2087   1.173   4.127   9.101 -0.1699 -0.6076  0.0265
  134MPD2     H 2088   1.552   4.033   9.104 -0.4412  1.4892  1.4363
  134MPD2    H1 2089   1.142   3.920   9.070 -0.5205  0.1675  2.8297
  134MPD2    H2 2090   1.242   4.329   9.132 -0.3657 -0.2440  1.6660
  134MPD2    H3 2091   1.066   4.146   9.105  0.3781  2.1310  1.9412
  134MPD2     N 2092   1.390   3.827   9.071  0.0956  0.0416  0.1467
  134MPD2    H5 2093   1.311   3.764   9.067  0.4597 -0.4500  0.7073
  134MPD2    N1 2094   1.494   4.300   9.128 -0.1219 -0.0892 -0.1002
  134MPD2    H7 2095   1.458   4.390   9.157 -1.3452 -1.4662  2.7490
  135TMC2    C1 2096   4.141   0.666   9.558  0.4066  0.1946  0.7414
  135TMC2    C2 2097   4.231   0.562   9.561  0.6655 -0.2821  0.0634
  135TMC2    C3 2098   4.200   0.460   9.649  0.4226  0.1991 -0.0295
  135TMC2    C4 2099   4.034   0.674   9.641 -0.1070  0.8962 -0.6633
  135TMC2    C5 2100   4.017   0.574   9.732 -0.0447  0.7382  0.8227
  135TMC2    C6 2101   4.094   0.463   9.729  0.5819 -0.3237 -0.0033
  135TMC2     C 2102   4.170   0.782   9.476 -0.6949  0.1695 -0.6667
  135TMC2     O 2103   4.113   0.887   9.506 -0.5027  0.8519  0.2246
  135TMC2     H 2104   4.314   0.543   9.494  0.2799  0.5894 -0.6647
  135TMC2    H1 2105   3.977   0.766   9.647  0.5607  1.3640 -1.4026
  135TMC2    H2 2106   4.091   0.389   9.809  1.0509 -0.5700 -0.2140
  135TMC2    C7 2107   3.932   0.598   9.847 -0.0740  0.0437 -0.2397
  135TMC2    C8 2108   4.276   0.339   9.623  0.2823 -0.5438 -0.1743
  135TMC2    O1 2109   3.916   0.718   9.874  0.0157  0.1869 -0.2442
  135TMC2    O2 2110   4.314   0.315   9.511 -0.3585 -0.3068 -0.1412
  135TMC2    O5 2111   4.297   0.267   9.731 -0.5920  0.3471  0.6607
  135TMC2    H5 2112   4.280   0.316   9.814 -2.6455 -0.7813  0.9010
  136MPD2     C 2113   4.247   0.944   9.238  0.3559 -0.2968 -0.5504
  136MPD2    C1 2114   4.302   0.828   9.268 -0.8995  0.0076 -0.4412
  136MPD2    C2 2115   4.409   0.777   9.198  0.2682 -0.4995  0.2258
  136MPD2    C3 2116   4.455   0.837   9.081 -0.1330  0.3149  0.1722
  136MPD2    C4 2117   4.390   0.955   9.047  0.2575  0.5861 -0.1126
  136MPD2    C5 2118   4.292   1.009   9.129 -0.8469  0.0033 -0.1533
  136MPD2     H 2119   4.446   0.682   9.236 -1.8952 -0.9083  1.2773
  136MPD2    H1 2120   4.407   1.002   8.951 -1.5407  0.6013 -0.4231
  136MPD2    H2 2121   4.167   0.977   9.303  0.7747 -1.2670  0.4530
  136MPD2    H3 2122   4.247   1.105   9.105 -0.0954  0.0786 -1.2738
  136MPD2     N 2123   4.554   0.778   8.992  0.6599 -0.1536  0.6446
  136MPD2    H5 2124   4.563   0.816   8.898 -1.8097  1.2832  1.0113
  136MPD2    N1 2125   4.268   0.755   9.385 -0.2158  0.1368  0.2745
  136MPD2    H7 2126   4.329   0.675   9.401 -1.1795 -0.6958 -0.2016
  137TMC2    C1 2127   3.631   3.614   9.015  0.1200  0.0016 -0.3861
  137TMC2    C2 2128   3.716   3.551   8.940 -0.1968 -0.0874  0.2742
  137TMC2    C3 2129   3.687   3.542   8.809 -0.5271 -0.0470  1.1338
  137TMC2    C4 2130   3.505   3.642   8.970  0.5577  0.2423 -1.2080
  137TMC2    C5 2131   3.482   3.651   8.835  0.0897 -0.1796 -0.4201
  137TMC2    C6 2132   3.573   3.596   8.749 -0.4045  0.0818  0.1442
  137TMC2     C 2133   3.669   3.631   9.155 -0.2659 -0.3478  0.1837
  137TMC2     O 2134   3.787   3.612   9.182 -0.2898  0.2521 -0.1492
  137TMC2     H 2135   3.814   3.528   8.978 -0.7114 -1.6411  0.6794
  137TMC2    H1 2136   3.441   3.692   9.041 -0.0715 -2.2675  0.0138
  137TMC2    H2 2137   3.550   3.595   8.643  0.1141 -1.2240  0.0464
  137TMC2    C7 2138   3.347   3.682   8.787  1.4196 -0.0499  0.3005
  137TMC2    C8 2139   3.785   3.495   8.707 -0.9997 -0.2047  0.0392
  137TMC2    O1 2140   3.338   3.655   8.668 -0.7787  0.8827 -0.0430
  137TMC2    O2 2141   3.783   3.535   8.595 -0.2397  0.0715  0.2025
  137TMC2    O5 2142   3.870   3.404   8.763  0.5559 -0.1601  0.0544
  137TMC2    H5 2143   3.846   3.385   8.856  1.0524  1.3341  0.4757
  138MPD2     C 2144   3.440   3.647   9.437 -1.1667 -0.2245  0.2523
  138MPD2    C1 2145   3.558   3.667   9.376 -0.2001 -0.6262  0.5573
  138MPD2    C2 2146   3.669   3.704   9.456  0.0687  0.4452  0.0259
  138MPD2    C3 2147   3.661   3.718   9.593  0.4282 -0.8237 -0.1471
  138MPD2    C4 2148   3.540   3.694   9.656 -0.1185 -0.0017 -0.2612
  138MPD2    C5 2149   3.430   3.664   9.575  0.3724 -0.1859  0.1754
  138MPD2     H 2150   3.763   3.716   9.402  0.0351  1.2866  0.1508
  138MPD2    H1 2151   3.529   3.718   9.761  0.8279  0.7545 -0.3350
  138MPD2    H2 2152   3.355   3.621   9.376 -0.7518 -3.2779  0.9716
  138MPD2    H3 2153   3.333   3.663   9.624  1.3026 -0.2682  2.0108
  138MPD2     N 2154   3.781   3.758   9.657 -0.0760  0.0529  0.6004
  138MPD2    H5 2155   3.866   3.756   9.603 -0.1613 -0.5867  0.4948
  138MPD2    N1 2156   3.559   3.644   9.236 -0.3973 -0.1220 -0.4704
  138MPD2    H7 2157   3.470   3.636   9.188 -2.1932  0.7171  2.6774
  139TMC2    C1 2158   4.718   2.497  13.845 -0.1691 -0.3237 -0.5860
  139TMC2    C2 2159   0.065   2.579  13.915 -0.7246  0.3898  0.5143
  139TMC2    C3 2160   0.036   2.704  13.908 -0.9219  0.2799  0.9219
  139TMC2    C4 2161   4.606   2.538  13.773  0.1485 -1.1740 -0.0387
  139TMC2    C5 2162   4.567   2.670  13.788 -0.3775 -1.0347 -0.7657
  139TMC2    C6 2163   4.654   2.753  13.852  0.4257 -0.0388  1.1024
  139TMC2     C 2164   0.056   2.379  13.803  0.2351 -0.0131  0.5033
  139TMC2     O 2165   0.172   2.363  13.831  0.1573  0.1569 -0.3462
  139TMC2     H 2166   0.158   2.544  13.959 -1.1426 -1.0904  0.2120
  139TMC2    H1 2167   4.561   2.466  13.704 -0.2505 -0.3419 -0.6456
  139TMC2    H2 2168   4.638   2.858  13.874 -2.0809 -0.3045  0.5516
  139TMC2    C7 2169   4.470   2.729  13.711  0.5550  0.1025 -0.4294
  139TMC2    C8 2170   0.141   2.799  13.918  0.1295  0.4563  0.6655
  139TMC2    O1 2171   4.481   2.849  13.684 -0.2139 -0.4535  0.3954
  139TMC2    O2 2172   0.163   2.873  14.009 -0.2740 -0.1969  0.2911
  139TMC2    O5 2173   0.135   2.841  13.794 -0.2758  0.1472  0.4328
  139TMC2    H5 2174   0.112   2.767  13.733 -1.1568 -0.2668  1.2632
  140MPD2     C 2175   4.636   2.069  13.702 -0.3693  0.5910  0.0621
  140MPD2    C1 2176   0.004   2.159  13.710  0.1520  0.7424  1.0844
  140MPD2    C2 2177   0.129   2.118  13.670 -0.1358 -0.2686  0.0002
  140MPD2    C3 2178   0.147   1.995  13.615 -0.3035  0.2320 -0.3742
  140MPD2    C4 2179   0.039   1.908  13.605 -0.2472 -0.8994  0.5044
  140MPD2    C5 2180   4.653   1.945  13.646  0.2680  0.6510 -0.3130
  140MPD2     H 2181   0.217   2.182  13.674  0.4360 -1.0824  0.5524
  140MPD2    H1 2182   0.053   1.815  13.552 -1.3585 -0.1079 -1.1763
  140MPD2    H2 2183   4.535   2.098  13.727 -0.1884  0.2560  1.1822
  140MPD2    H3 2184   4.569   1.877  13.640  1.2579 -0.8440  2.5188
  140MPD2     N 2185   0.277   1.966  13.567  0.1425  0.3240 -0.5176
  140MPD2    H5 2186   0.340   2.046  13.574  3.5471 -2.2643 -1.3391
  140MPD2    N1 2187   4.703   2.295  13.744 -0.3566  0.0681 -0.1086
  140MPD2    H7 2188   4.604   2.311  13.762 -0.5365  1.3608 -2.3557
  141TMC2    C1 2189   0.113   3.998  14.635  1.1793 -0.6470  0.6175
  141TMC2    C2 2190   0.176   3.930  14.736  0.2829 -0.2545  0.1065
  141TMC2    C3 2191   0.274   3.992  14.810  0.3166 -0.7379 -0.4671
  141TMC2    C4 2192   0.135   4.137  14.624 -0.2550 -0.0068 -0.5738
  141TMC2    C5 2193   0.217   4.201  14.715 -0.2338 -0.8716  0.2023
  141TMC2    C6 2194   0.292   4.129  14.805  0.0240 -0.2252  0.4019
  141TMC2     C 2195   0.042   3.931  14.530  0.1559  0.5620  0.5825
  141TMC2     O 2196   0.042   3.995  14.425  0.5422 -0.3718 -0.3887
  141TMC2     H 2197   0.155   3.825  14.752  1.2337 -0.7898 -2.1865
  141TMC2    H1 2198   0.091   4.188  14.539 -0.9769  0.1716 -0.0866
  141TMC2    H2 2199   0.338   4.191  14.882  1.1320 -1.7680  0.9906
  141TMC2    C7 2200   0.244   4.341  14.676  0.5454 -0.1910 -0.7983
  141TMC2    C8 2201   0.333   3.915  14.911 -0.6451 -0.7649 -0.4287
  141TMC2    O1 2202   0.198   4.383  14.572 -0.1710 -0.2010 -0.4950
  141TMC2    O2 2203   0.292   3.803  14.936 -0.5393  0.5796 -0.3393
  141TMC2    O5 2204   0.453   3.969  14.945 -0.1221  0.1928  0.0025
  141TMC2    H5 2205   0.465   4.044  14.883  0.5644  0.5398  0.5594
  142TMC2    C1 2206   2.792   2.259   9.631  0.3959  0.6103 -0.5550
  142TMC2    C2 2207   2.716   2.222   9.525 -0.1070 -0.2551  0.2467
  142TMC2    C3 2208   2.686   2.320   9.430 -0.9176 -0.0978 -0.1951
  142TMC2    C4 2209   2.849   2.380   9.638  0.1915  0.1504  0.2907
  142TMC2    C5 2210   2.823   2.470   9.543 -0.6828 -0.2278 -0.3274
  142TMC2    C6 2211   2.745   2.443   9.438  0.0645  0.2671 -0.6836
  142TMC2     C 2212   2.816   2.164   9.741  0.1847  0.3199 -0.2173
  142TMC2     O 2213   2.763   2.055   9.732 -0.1313 -0.0316  0.3287
  142TMC2     H 2214   2.686   2.118   9.528 -1.1302  0.0401  0.3376
  142TMC2    H1 2215   2.902   2.405   9.730  1.4783  3.2264 -1.2750
  142TMC2    H2 2216   2.722   2.514   9.359 -1.0487 -0.4734 -1.0141
  142TMC2    C7 2217   2.876   2.600   9.576  0.0922  0.0927 -0.5871
  142TMC2    C8 2218   2.660   2.271   9.292  0.4455 -0.3751  0.0914
  142TMC2    O1 2219   2.931   2.616   9.685  0.3590  0.1906  0.1897
  142TMC2    O2 2220   2.688   2.334   9.193 -0.3877  0.0084 -0.2786
  142TMC2    O5 2221   2.550   2.185   9.303 -0.0246  0.1088  0.5759
  142TMC2    H5 2222   2.521   2.156   9.393  1.6117 -1.9017  0.4490
  143MPD2     C 2223   3.070   1.990  10.160  0.2868  0.8320 -0.3987
  143MPD2    C1 2224   2.948   1.952  10.112  0.5224  0.3640 -0.2458
  143MPD2    C2 2225   2.908   2.014   9.993 -0.2048 -0.1589 -0.3332
  143MPD2    C3 2226   2.973   2.121   9.930  0.0852  0.3916 -0.5014
  143MPD2    C4 2227   3.090   2.162   9.987 -0.0748  0.8928 -0.5569
  143MPD2    C5 2228   3.131   2.096  10.097 -0.0485 -0.8274 -0.3760
  143MPD2     H 2229   2.811   1.983   9.954  0.2438 -0.0871 -1.5170
  143MPD2    H1 2230   3.157   2.237   9.945  0.4069  0.7849  0.0175
  143MPD2    H2 2231   3.117   1.944  10.246 -0.8454  0.8022  0.2057
  143MPD2    H3 2232   3.227   2.128  10.136 -0.5665  2.9908 -2.1945
  143MPD2     N 2233   2.926   2.191   9.814 -0.4536  0.4086 -0.3842
  143MPD2    H5 2234   2.983   2.270   9.783  0.6234 -0.7350 -1.3399
  143MPD2    N1 2235   2.874   1.856  10.187 -0.1701 -0.1971 -0.8211
  143MPD2    H7 2236   2.914   1.840  10.279  0.4875  1.2967 -0.8521
  144TMC2    C1 2237   0.914   1.232   1.052 -0.7457  0.0223 -0.4519
  144TMC2    C2 2238   0.990   1.121   1.052 -0.2517 -0.2153 -0.5194
  144TMC2    C3 2239   1.119   1.132   1.073  0.9428  0.8137 -0.1621
  144TMC2    C4 2240   0.967   1.361   1.055 -0.0640  0.8294  0.3116
  144TMC2    C5 2241   1.106   1.362   1.081 -0.2188 -0.7158 -0.2844
  144TMC2    C6 2242   1.182   1.248   1.090 -0.2663  0.4930  0.6413
  144TMC2     C 2243   0.787   1.214   0.975 -0.6283 -0.2500  0.0256
  144TMC2     O 2244   0.759   1.097   0.940  0.3447 -0.4302  0.0599
  144TMC2     H 2245   0.941   1.024   1.053  0.5988 -0.6219  0.4808
  144TMC2    H1 2246   0.910   1.453   1.047  0.5754  1.2898  1.0532
  144TMC2    H2 2247   1.290   1.258   1.086 -0.1321 -1.6361 -1.0066
  144TMC2    C7 2248   1.181   1.479   1.050 -0.4843 -0.0376 -0.0978
  144TMC2    C8 2249   1.204   1.012   1.046 -0.2884 -0.9039 -0.4847
  144TMC2    O1 2250   1.299   1.474   1.037  0.2462 -0.2267  0.3828
  144TMC2    O2 2251   1.159   0.911   0.991 -0.8933 -0.5303 -0.4335
  144TMC2    O5 2252   1.326   1.032   1.090  0.4833 -0.4413 -0.1693
  144TMC2    H5 2253   1.328   1.089   1.170  0.9459  1.3842 -1.4978
  145MPD2     C 2254   0.356   1.396   0.752  0.2776 -0.3610 -0.2958
  145MPD2    C1 2255   0.426   1.277   0.737  0.7645  0.2566 -0.6330
  145MPD2    C2 2256   0.543   1.253   0.812 -0.2550 -0.9500 -0.5871
  145MPD2    C3 2257   0.577   1.343   0.913  0.2159 -0.1640  0.9088
  145MPD2    C4 2258   0.506   1.460   0.926 -0.5295 -0.9740 -0.2874
  145MPD2    C5 2259   0.396   1.483   0.850 -0.8085 -0.2334  0.2332
  145MPD2     H 2260   0.599   1.162   0.796  0.3448 -0.9596  1.5378
  145MPD2    H1 2261   0.533   1.528   1.006 -0.3777 -0.7452 -0.5330
  145MPD2    H2 2262   0.268   1.421   0.695 -0.1844  0.5697  0.8178
  145MPD2    H3 2263   0.335   1.571   0.867 -2.7808 -1.1481 -2.0696
  145MPD2     N 2264   0.707   1.325   0.982 -0.8034 -0.8577 -0.3622
  145MPD2    H5 2265   0.737   1.403   1.039 -0.8498 -1.0926 -0.0208
  145MPD2    N1 2266   0.381   1.179   0.643 -0.4067  0.2987  0.5892
  145MPD2    H7 2267   0.433   1.094   0.664  0.9385  0.3340 -2.5404
  146TMC2    C1 2268   2.390   0.184  12.476 -0.5985  0.1677  0.5749
  146TMC2    C2 2269   2.301   0.201  12.372 -0.0056 -0.1763 -0.7152
  146TMC2    C3 2270   2.303   0.112  12.270 -0.3295  0.5542  0.1024
  146TMC2    C4 2271   2.463   0.065  12.481 -0.2237  0.2055 -0.2654
  146TMC2    C5 2272   2.451   4.710  12.376  0.3530 -0.1962  0.2667
  146TMC2    C6 2273   2.377   4.733  12.265 -0.0276  0.0555 -0.1468
  146TMC2     C 2274   2.383   0.283  12.580  0.2342  0.0471 -0.3853
  146TMC2     O 2275   2.329   0.387  12.548 -0.2877  0.0931 -0.3102
  146TMC2     H 2276   2.253   0.297  12.352 -1.3991 -0.5533  0.8560
  146TMC2    H1 2277   2.540   0.050  12.556  0.5242 -2.6672 -1.5922
  146TMC2    H2 2278   2.370   4.657  12.188 -0.7315 -1.4961  1.4579
  146TMC2    C7 2279   2.555   4.614  12.356 -0.9955  0.5052 -0.0531
  146TMC2    C8 2280   2.203   0.131  12.161  0.4673  0.3319 -0.3071
  146TMC2    O1 2281   2.551   4.569  12.244  0.4910  0.4193  0.3919
  146TMC2    O2 2282   2.100   0.189  12.190 -0.1008  0.2606 -0.0016
  146TMC2    O5 2283   2.254   0.089  12.043  0.0617  0.2719  0.4756
  146TMC2    H5 2284   2.347   0.059  12.047 -0.3533 -0.9865  0.8443
  147MPD2     C 2285   2.947   4.307  12.476  0.0860  0.8277  0.0966
  147MPD2    C1 2286   2.887   4.351  12.596  0.3772  0.1063  0.2998
  147MPD2    C2 2287   2.783   4.431  12.595 -1.0068  0.0207  0.8139
  147MPD2    C3 2288   2.732   4.480  12.474 -0.3776  0.2103 -0.4986
  147MPD2    C4 2289   2.793   4.432  12.353 -0.8519 -0.3112  0.9370
  147MPD2    C5 2290   2.897   4.347  12.355 -0.5685  0.1202 -0.1791
  147MPD2     H 2291   2.736   4.458  12.689 -2.1737 -2.2880  0.8861
  147MPD2    H1 2292   2.764   4.461  12.253  1.7371  1.0219  0.5749
  147MPD2    H2 2293   3.036   4.245  12.472 -0.5107 -0.0041 -0.4755
  147MPD2    H3 2294   2.954   4.320  12.267 -0.6013  0.3171 -0.2615
  147MPD2     N 2295   2.620   4.575  12.475 -0.2360  0.1145 -0.1154
  147MPD2    H5 2296   2.605   4.621  12.564  0.0515  1.1444 -0.6002
  147MPD2    N1 2297   2.945   4.311  12.713  0.4148  0.3675  0.4602
  147MPD2    H7 2298   3.039   4.273  12.710  0.0369 -0.3233 -2.7055
  148TMC2    C1 2299   2.106   3.699   9.896  0.1013 -0.2529 -0.4066
  148TMC2    C2 2300   2.083   3.818   9.958 -0.9844 -0.2395  0.0834
  148TMC2    C3 2301   2.170   3.852  10.058 -0.0022  0.2107 -1.1665
  148TMC2    C4 2302   2.212   3.614   9.938  0.2970  0.9134  0.8596
  148TMC2    C5 2303   2.290   3.655  10.035  0.0548 -0.2376  0.0004
  148TMC2    C6 2304   2.275   3.774  10.104 -0.0679 -0.2629  0.4152
  148TMC2     C 2305   1.994   3.635   9.840  0.3626  0.1538 -0.0195
  148TMC2     O 2306   1.903   3.702   9.789  0.4702  0.3344  0.5781
  148TMC2     H 2307   1.999   3.880   9.929  0.3862  1.4765 -0.1951
  148TMC2    H1 2308   2.231   3.531   9.872  0.0069  2.4732 -1.1709
  148TMC2    H2 2309   2.343   3.807  10.181 -0.1805 -2.7088  1.5672
  148TMC2    C7 2310   2.362   3.544  10.099  0.1875 -0.1939  0.1727
  148TMC2    C8 2311   2.125   3.969  10.127 -0.1983 -0.1596 -0.3769
  148TMC2    O1 2312   2.339   3.442  10.043 -0.1693 -0.0211  0.7837
  148TMC2    O2 2313   2.062   4.060  10.071 -0.0330 -0.5416 -0.1892
  148TMC2    O5 2314   2.107   3.924  10.252  0.9568 -0.0663  0.1924
  148TMC2    H5 2315   2.177   3.862  10.281 -0.6142 -1.8680  0.1855
  149MPD2     C 2316   1.763   3.446   9.786 -0.2354  0.5528 -0.7634
  149MPD2    C1 2317   1.884   3.410   9.849  0.1333 -0.6339 -1.0741
  149MPD2    C2 2318   1.898   3.276   9.884 -0.2426 -0.5487 -0.1082
  149MPD2    C3 2319   1.796   3.185   9.867  0.2175 -0.7203 -0.1821
  149MPD2    C4 2320   1.681   3.222   9.805 -0.5148  0.0634  0.2775
  149MPD2    C5 2321   1.664   3.350   9.761  0.5690 -0.6191 -0.2662
  149MPD2     H 2322   1.996   3.249   9.921 -0.0885 -0.7015 -0.6261
  149MPD2    H1 2323   1.597   3.158   9.783 -0.8852  1.3271 -2.0179
  149MPD2    H2 2324   1.740   3.549   9.762  1.9381  1.5304  1.4037
  149MPD2    H3 2325   1.565   3.379   9.727 -0.3563 -1.8226  1.3758
  149MPD2     N 2326   1.812   3.047   9.900  0.2646 -0.5123  0.0423
  149MPD2    H5 2327   1.748   2.980   9.858  0.7925 -1.2781  0.4537
  149MPD2    N1 2328   1.987   3.503   9.888 -0.0896 -0.1316 -0.8960
  149MPD2    H7 2329   2.059   3.463   9.946 -1.0043 -1.4669 -0.6808
  150TMC2    C1 2330   4.581   2.923  12.156 -0.2918 -0.3474  0.0144
  150TMC2    C2 2331   4.615   2.970  12.028  0.1832 -0.0735  0.1225
  150TMC2    C3 2332   4.722   3.044  12.017 -0.0271  0.1341 -0.3424
  150TMC2    C4 2333   4.662   2.947  12.259 -0.3714 -0.0151  0.6823
  150TMC2    C5 2334   0.033   3.019  12.240  0.5013 -0.3127 -0.4441
  150TMC2    C6 2335   0.064   3.077  12.123 -0.2209  0.6810 -0.2763
  150TMC2     C 2336   4.459   2.844  12.182 -0.4027  0.6759 -0.5493
  150TMC2     O 2337   4.447   2.780  12.287 -0.2917  0.9446 -0.4342
  150TMC2     H 2338   4.542   2.967  11.947 -1.4154 -0.7547  1.5938
  150TMC2    H1 2339   4.627   2.910  12.354 -0.4073 -0.3170  0.5514
  150TMC2    H2 2340   0.142   3.151  12.117 -0.0373  0.4189 -1.1132
  150TMC2    C7 2341   0.122   3.045  12.351  0.8050  0.3798 -0.7205
  150TMC2    C8 2342   4.727   3.127  11.900  0.3743 -0.2596 -0.0116
  150TMC2    O1 2343   0.201   3.130  12.342  0.0932 -0.4343  0.0841
  150TMC2    O2 2344   4.634   3.142  11.824  0.1588  0.0481 -0.1631
  150TMC2    O5 2345   0.109   3.203  11.889 -0.1215 -0.5341  0.6933
  150TMC2    H5 2346   0.181   3.171  11.946  1.0860 -0.3047 -0.7053
  151MPD2     C 2347   4.049   2.575  12.039 -0.2038  0.5205  0.0267
  151MPD2    C1 2348   4.070   2.676  11.950 -0.7153  0.3046 -0.1903
  151MPD2    C2 2349   4.173   2.775  11.956 -0.4692 -0.4220  0.0477
  151MPD2    C3 2350   4.249   2.764  12.073  0.5982 -0.2798 -0.5804
  151MPD2    C4 2351   4.226   2.668  12.166  0.7192 -0.0199 -0.6468
  151MPD2    C5 2352   4.126   2.573  12.147 -1.0166 -0.6694  0.0255
  151MPD2     H 2353   4.185   2.854  11.883 -0.3721  1.1801  1.8077
  151MPD2    H1 2354   4.287   2.649  12.254 -0.4709 -0.5797  0.0610
  151MPD2    H2 2355   3.971   2.503  12.020 -1.2264  1.4734  0.6287
  151MPD2    H3 2356   4.112   2.496  12.222 -1.2487  0.4720  1.1530
  151MPD2     N 2357   4.362   2.849  12.086 -0.2574  0.3159  0.2620
  151MPD2    H5 2358   4.378   2.920  12.015 -0.2980 -0.2296 -0.2933
  151MPD2    N1 2359   3.970   2.672  11.852  0.8188 -0.1819 -0.1941
  151MPD2    H7 2360   3.891   2.608  11.857 -0.1969  0.6098 -5.7754
  152TMC2    C1 2361   4.365   2.757  12.946  1.0138  0.1213  0.3554
  152TMC2    C2 2362   4.454   2.676  13.004 -0.2181 -0.4658 -0.1602
  152TMC2    C3 2363   4.584   2.709  12.978 -0.0577 -0.0440 -0.6412
  152TMC2    C4 2364   4.396   2.866  12.868 -0.0906  0.6326  0.6298
  152TMC2    C5 2365   4.532   2.883  12.839  0.0817  0.4125 -0.8042
  152TMC2    C6 2366   4.630   2.799  12.885 -0.1415 -0.1711  0.0743
  152TMC2     C 2367   4.232   2.708  12.933  0.0616  0.6259  0.0476
  152TMC2     O 2368   4.150   2.794  12.914  0.6913  0.1959  0.6323
  152TMC2     H 2369   4.421   2.606  13.081  2.3107 -0.9370  0.4852
  152TMC2    H1 2370   4.324   2.933  12.822 -1.3898  1.0170  3.2399
  152TMC2    H2 2371   0.000   2.819  12.864 -0.3067 -0.6963 -1.2015
  152TMC2    C7 2372   4.565   2.985  12.739 -0.6698  0.1864  0.5384
  152TMC2    C8 2373   4.680   2.654  13.070  0.7974  0.2042  0.6410
  152TMC2    O1 2374   4.481   3.026  12.659  0.0324  0.5282 -0.2687
  152TMC2    O2 2375   0.066   2.672  13.054  0.3105  0.0278 -0.2149
  152TMC2    O5 2376   4.618   2.651  13.187  0.3670 -0.2150  0.3362
  152TMC2    H5 2377   4.671   2.628  13.266 -0.2756  0.2937  0.9147
  153MPD2     C 2378   4.130   2.363  12.894 -0.1448 -0.3613  0.6673
  153MPD2    C1 2379   4.118   2.497  12.921  0.4629 -0.1869 -0.0901
  153MPD2    C2 2380   3.988   2.543  12.898  0.2765 -0.1558 -0.1668
  153MPD2    C3 2381   3.881   2.465  12.854 -0.3748 -0.4565 -0.3233
  153MPD2    C4 2382   3.901   2.334  12.841  0.1449 -0.3358  0.4010
  153MPD2    C5 2383   4.023   2.283  12.870 -0.6971 -0.0711 -0.5488
  153MPD2     H 2384   3.976   2.651  12.906  1.4319  0.0457 -1.2197
  153MPD2    H1 2385   3.823   2.261  12.821 -1.0743  1.2515 -0.6472
  153MPD2    H2 2386   4.233   2.327  12.895  0.1270  0.4574  2.1989
  153MPD2    H3 2387   4.041   2.176  12.873 -1.1340 -0.1538 -0.9000
  153MPD2     N 2388   3.754   2.527  12.840 -0.3333  0.2449 -0.1700
  153MPD2    H5 2389   3.738   2.626  12.855  2.5537  0.7074 -0.2516
  153MPD2    N1 2390   4.230   2.569  12.942  0.5453  0.2689  0.2454
  153MPD2    H7 2391   4.313   2.513  12.955  0.5590  0.2309 -0.0048
  154TMC2    C1 2392   0.636   3.830   0.079 -1.0752 -0.0598 -0.2886
  154TMC2    C2 2393   0.544   3.931   0.067 -0.1585 -0.0560  0.0117
  154TMC2    C3 2394   0.445   3.920  17.708 -0.2708 -0.2706 -0.0287
  154TMC2    C4 2395   0.646   3.739  17.713 -0.6751 -0.2429  0.1402
  154TMC2    C5 2396   0.543   3.735  17.622 -0.0309 -0.6628 -0.1511
  154TMC2    C6 2397   0.440   3.821  17.622  0.1310 -0.3328  0.3853
  154TMC2     C 2398   0.760   3.844   0.158  0.4690  0.4832  0.3878
  154TMC2     O 2399   0.847   3.763   0.170 -0.5886  0.0605  0.1952
  154TMC2     H 2400   0.524   3.990   0.156 -0.6349 -3.0828  1.9156
  154TMC2    H1 2401   0.733   3.674  17.708  0.0648  0.7422  0.2364
  154TMC2    H2 2402   0.363   3.829  17.547 -0.2204  0.7564  0.8548
  154TMC2    C7 2403   0.519   3.597  17.571 -1.3313 -0.4470 -0.0165
  154TMC2    C8 2404   0.357   4.043  17.702 -0.2745  0.1504 -0.1176
  154TMC2    O1 2405   0.609   3.519  17.560 -0.1154  0.0933 -0.1753
  154TMC2    O2 2406   0.401   4.145   0.013 -0.2167  0.5288 -0.2002
  154TMC2    O5 2407   0.228   4.013  17.673 -0.5529 -0.0475 -0.3918
  154TMC2    H5 2408   0.204   3.920  17.691  0.7987 -0.2312  0.4674
  155MPD2     C 2409   0.866   4.143   0.341 -0.0649  0.0289  0.4081
  155MPD2    C1 2410   0.856   4.011   0.305 -0.3324 -0.1236  0.0903
  155MPD2    C2 2411   0.934   3.916   0.382 -0.2435  0.2177  0.1605
  155MPD2    C3 2412   1.021   3.962   0.475  0.7446  0.6278 -0.3031
  155MPD2    C4 2413   1.034   4.098   0.501  0.5444  0.0976 -0.7371
  155MPD2    C5 2414   0.955   4.187   0.434  0.4924 -0.1842  0.2165
  155MPD2     H 2415   0.925   3.809   0.368 -0.6411  0.0133  1.9969
  155MPD2    H1 2416   1.106   4.141   0.570 -1.0019  0.0279  0.9269
  155MPD2    H2 2417   0.793   4.213   0.302  1.8184  1.2225 -0.9817
  155MPD2    H3 2418   0.959   4.294   0.454  1.1721  0.0036 -0.9556
  155MPD2     N 2419   1.084   3.867   0.549  0.1548 -0.2528 -0.4103
  155MPD2    H5 2420   1.041   3.776   0.535 -0.0165 -0.0146 -1.4049
  155MPD2    N1 2421   0.755   3.973   0.212  0.1995  0.2829 -0.2086
  155MPD2    H7 2422   0.691   4.043   0.174  2.5863  3.4808  1.6936
  156TMC2    C1 2423   4.568   4.629  11.542 -0.5695  0.0267  0.2404
  156TMC2    C2 2424   4.609   4.518  11.474 -0.1664  0.3607 -0.1294
  156TMC2    C3 2425   4.530   4.472  11.371  1.2911  0.3598  0.5040
  156TMC2    C4 2426   4.457   4.698  11.506 -0.0442 -0.3657 -0.2017
  156TMC2    C5 2427   4.385   4.648  11.405 -0.8943 -0.0336 -0.3653
  156TMC2    C6 2428   4.409   4.526  11.342 -0.2955  0.6110  0.2787
  156TMC2     C 2429   4.654   4.695  11.629 -0.4051 -0.6387  0.3798
  156TMC2     O 2430   4.643   0.084  11.623 -0.1527 -0.4943 -0.1509
  156TMC2     H 2431   4.704   4.468  11.492 -0.1763  0.5864  0.5465
  156TMC2    H1 2432   4.411   0.046  11.560  0.8444  1.0113 -1.5577
  156TMC2    H2 2433   4.337   4.466  11.288 -0.6783  2.2204 -0.9823
  156TMC2    C7 2434   4.257   4.702  11.366  0.5267 -0.4696  0.0600
  156TMC2    C8 2435   4.556   4.330  11.338 -0.2306 -0.2358  0.1340
  156TMC2    O1 2436   4.177   4.635  11.300 -0.7785  0.4729  0.0950
  156TMC2    O2 2437   4.641   4.262  11.390  0.0054  0.3845  0.1129
  156TMC2    O5 2438   4.505   4.309  11.218  0.4690 -0.1732 -0.1081
  156TMC2    H5 2439   4.494   4.385  11.158 -0.8455  1.9726  2.8961
  157MPD2     C 2440   0.102   4.551  11.917  0.5270 -1.1042  0.5853
  157MPD2    C1 2441   0.064   4.648  11.824  0.9144  0.0554  0.4898
  157MPD2    C2 2442   0.068   0.046  11.866 -0.1317 -0.1244 -0.3362
  157MPD2    C3 2443   0.104   0.076  11.996  0.4752  0.2558 -0.0582
  157MPD2    C4 2444   0.144   4.719  12.080  0.2924 -0.0032 -0.1907
  157MPD2    C5 2445   0.143   4.587  12.046  0.2504 -0.0674  0.5513
  157MPD2     H 2446   0.044   0.122  11.793  0.5966  0.5324  0.1023
  157MPD2    H1 2447   0.171   0.011  12.182  0.7261  0.6015 -0.4604
  157MPD2    H2 2448   0.122   4.449  11.886 -0.1286 -1.5718  1.7201
  157MPD2    H3 2449   0.158   4.516  12.126  2.0070  1.3206  1.4616
  157MPD2     N 2450   0.085   0.217  12.020 -0.2847 -0.0162  0.0742
  157MPD2    H5 2451   0.047   0.274  11.945 -0.0979 -1.0120 -0.7768
  157MPD2    N1 2452   4.723   4.611  11.712  0.0492  0.5571  0.7668
  157MPD2    H7 2453   4.695   4.513  11.706 -1.5744  0.9914  1.2252
  158TMC2    C1 2454   0.309   3.547  12.987 -0.2926  0.1145  1.2964
  158TMC2    C2 2455   0.371   3.609  12.886  0.0317 -0.5110  0.5098
  158TMC2    C3 2456   0.296   3.645  12.778  0.2617 -0.4364 -0.5740
  158TMC2    C4 2457   0.174   3.562  13.003  1.3203  0.5608 -0.1878
  158TMC2    C5 2458   0.100   3.593  12.893  0.1077 -0.2145  0.3163
  158TMC2    C6 2459   0.164   3.641  12.774  0.3791  0.1661 -0.1320
  158TMC2     C 2460   0.397   3.492  13.088  0.2145  0.1287 -0.0038
  158TMC2     O 2461   0.516   3.523  13.096  0.4391  0.0589 -0.3064
  158TMC2     H 2462   0.477   3.595  12.868 -0.1650 -0.2049 -0.8949
  158TMC2    H1 2463   0.132   3.548  13.102 -1.4129 -1.2050 -1.5671
  158TMC2    H2 2464   0.105   3.675  12.689 -0.2440 -0.4652  0.0523
  158TMC2    C7 2465   4.690   3.630  12.913 -0.2852  0.3871 -0.4153
  158TMC2    C8 2466   0.370   3.656  12.651 -1.0587  0.0711  0.4530
  158TMC2    O1 2467   4.644   3.690  12.818  0.1912  0.9416  0.2084
  158TMC2    O2 2468   0.416   3.551  12.604  0.0552  0.9990 -0.2946
  158TMC2    O5 2469   0.304   3.752  12.581 -0.3923  0.0250 -0.1967
  158TMC2    H5 2470   0.266   3.823  12.636  0.4501  1.8775 -2.0216
  159MPD2     C 2471   0.427   3.275  13.543 -0.0260  0.1193 -0.9930
  159MPD2    C1 2472   0.290   3.271  13.503  0.1630 -0.2083  0.6917
  159MPD2    C2 2473   0.261   3.314  13.376  0.2944  0.1137 -0.6668
  159MPD2    C3 2474   0.365   3.361  13.295 -0.5594  0.4786  0.0874
  159MPD2    C4 2475   0.500   3.352  13.336  0.6094 -0.4491  0.5055
  159MPD2    C5 2476   0.532   3.304  13.456  0.0284 -0.0455 -0.4835
  159MPD2     H 2477   0.162   3.301  13.333 -0.3033 -1.2230  1.1261
  159MPD2    H1 2478   0.575   3.382  13.262 -1.3974  0.4998 -1.1510
  159MPD2    H2 2479   0.455   3.243  13.643 -1.7591 -0.6444 -0.7628
  159MPD2    H3 2480   0.635   3.317  13.488  0.4201 -2.0704 -0.9298
  159MPD2     N 2481   0.322   3.413  13.172 -0.1648  0.1077  0.1436
  159MPD2    H5 2482   0.223   3.420  13.151 -0.0266 -0.4532 -0.7188
  159MPD2    N1 2483   0.194   3.219  13.593  0.3183 -0.6886 -0.3183
  159MPD2    H7 2484   0.230   3.177  13.678 -0.5857  1.0289  0.9191
  160TMC2    C1 2485   3.912   1.616   1.704 -0.2974 -0.1755  0.0211
  160TMC2    C2 2486   3.914   1.484   1.743  0.1675  0.2161 -0.4436
  160TMC2    C3 2487   4.040   1.428   1.763  0.2859  0.1630 -0.0999
  160TMC2    C4 2488   4.019   1.695   1.687  0.1794  0.0277  0.1173
  160TMC2    C5 2489   4.139   1.632   1.705  0.1580 -0.1540  0.0686
  160TMC2    C6 2490   4.155   1.503   1.749  0.0413  0.9073  0.3978
  160TMC2     C 2491   3.780   1.671   1.674  0.6834  0.0947  0.0561
  160TMC2     O 2492   3.685   1.594   1.685  0.2338  0.2029 -0.1799
  160TMC2     H 2493   3.823   1.428   1.758 -0.4921  1.0839 -1.2422
  160TMC2    H1 2494   4.009   1.800   1.662  2.1237  0.1876 -0.0284
  160TMC2    H2 2495   4.255   1.467   1.769 -0.0613  0.9001  0.9076
  160TMC2    C7 2496   4.264   1.711   1.706  0.1156  0.2045 -0.0368
  160TMC2    C8 2497   4.063   1.308   1.832 -0.1091  0.4957 -0.1463
  160TMC2    O1 2498   4.359   1.660   1.767  0.7028 -1.0384  0.5747
  160TMC2    O2 2499   4.171   1.249   1.835 -0.4583 -0.2324 -0.3269
  160TMC2    O5 2500   3.968   1.295   1.932  0.1742 -0.0750 -0.7509
  160TMC2    H5 2501   3.885   1.348   1.928  1.3762  1.9811  1.5446
  161MPD2     C 2502   3.535   1.826   1.575  0.2767 -0.4655  0.6742
  161MPD2    C1 2503   3.665   1.864   1.559 -0.2245 -0.4117  0.0311
  161MPD2    C2 2504   3.677   1.985   1.485  1.1608 -0.0246 -0.2933
  161MPD2    C3 2505   3.574   2.057   1.439  0.0365  0.3088  0.4064
  161MPD2    C4 2506   3.444   2.013   1.461 -0.1392  0.8069  0.2601
  161MPD2    C5 2507   3.427   1.895   1.522  0.0494  0.0764  0.9161
  161MPD2     H 2508   3.780   2.018   1.474  2.3381 -3.3217  0.6587
  161MPD2    H1 2509   3.366   2.080   1.427  1.9240  1.5734 -2.9713
  161MPD2    H2 2510   3.505   1.739   1.632  1.7127 -0.2967  1.6864
  161MPD2    H3 2511   3.327   1.853   1.519  0.3528 -0.4123 -2.5304
  161MPD2     N 2512   3.583   2.181   1.372  0.0130  0.2121  0.5952
  161MPD2    H5 2513   3.497   2.229   1.351  0.7198  1.0860 -0.2721
  161MPD2    N1 2514   3.782   1.786   1.602  0.2071 -0.1208  0.5254
  161MPD2    H7 2515   3.868   1.834   1.579 -0.6318  0.4661 -1.4565
  162TMC2    C1 2516   2.566   4.214   1.042  0.0252 -0.4864  0.3482
  162TMC2    C2 2517   2.505   4.273   1.144  0.8548  0.2242 -0.1075
  162TMC2    C3 2518   2.584   4.330   1.241 -0.7029 -0.0614 -0.1654
  162TMC2    C4 2519   2.705   4.204   1.040 -0.8030 -0.0940 -0.2164
  162TMC2    C5 2520   2.777   4.269   1.138  0.3174 -0.3721 -0.7350
  162TMC2    C6 2521   2.720   4.327   1.242  0.2476 -0.9856 -0.0536
  162TMC2     C 2522   2.487   4.172   0.922 -0.0600 -0.0242  0.2632
  162TMC2     O 2523   2.553   4.139   0.824 -0.2502  0.2814 -0.1601
  162TMC2     H 2524   2.397   4.279   1.153  0.6117 -0.8395 -2.3766
  162TMC2    H1 2525   2.760   4.166   0.956 -3.0478  0.3616 -1.8986
  162TMC2    H2 2526   2.782   4.385   1.309 -2.0598 -0.1742  1.3906
  162TMC2    C7 2527   2.918   4.238   1.143 -0.1214 -0.2060  0.2609
  162TMC2    C8 2528   2.529   4.419   1.339 -0.1401 -0.1918  0.1693
  162TMC2    O1 2529   2.988   4.319   1.208  0.6484  0.0168 -0.5349
  162TMC2    O2 2530   2.600   4.460   1.426  0.0731 -0.2304  0.1038
  162TMC2    O5 2531   2.414   4.475   1.284 -0.4233 -0.1844  0.0684
  162TMC2    H5 2532   2.371   4.435   1.205 -0.9120 -0.5293  0.5107
  163MPD2     C 2533   2.115   4.137   0.589  0.3850  0.3733  0.7564
  163MPD2    C1 2534   2.229   4.060   0.600  0.6949 -0.2232 -0.2615
  163MPD2    C2 2535   2.311   4.070   0.714 -0.6089 -0.2328 -0.7741
  163MPD2    C3 2536   2.271   4.155   0.822  0.1644 -0.2545  0.2885
  163MPD2    C4 2537   2.150   4.213   0.816  0.1316 -0.2133  0.3831
  163MPD2    C5 2538   2.080   4.210   0.701 -0.1036 -0.1564 -0.1535
  163MPD2     H 2539   2.406   4.020   0.724 -0.4374  0.4317  0.9925
  163MPD2    H1 2540   2.109   4.266   0.901  3.0052  1.7913  0.5111
  163MPD2    H2 2541   2.053   4.132   0.500  1.8086 -0.0088 -0.2050
  163MPD2    H3 2542   1.983   4.258   0.693  0.4826  0.6977 -2.3068
  163MPD2     N 2543   2.354   4.185   0.931  0.7811  0.6428 -0.1738
  163MPD2    H5 2544   2.309   4.226   1.012  0.3972 -0.7240  0.3117
  163MPD2    N1 2545   2.260   3.986   0.489  0.1255  0.4331  0.1456
  163MPD2    H7 2546   2.194   3.985   0.412  1.3165 -0.1718 -0.8530
  164TMC2    C1 2547   2.949   3.172  10.810 -0.3023  0.0047 -0.1227
  164TMC2    C2 2548   3.030   3.172  10.703 -0.1706 -0.1266 -0.0902
  164TMC2    C3 2549   3.038   3.281  10.619 -0.5418  0.2624  0.2457
  164TMC2    C4 2550   2.873   3.284  10.844 -0.4030 -0.5096  0.2694
  164TMC2    C5 2551   2.880   3.393  10.759 -0.2798  0.0879 -0.6205
  164TMC2    C6 2552   2.954   3.392  10.642 -0.1469  0.2335 -0.8245
  164TMC2     C 2553   2.927   3.057  10.899 -0.3636  0.1371  0.6497
  164TMC2     O 2554   2.851   3.077  10.996 -0.2316 -0.1325  0.5873
  164TMC2     H 2555   3.091   3.086  10.677  0.6790 -0.2722  2.3891
  164TMC2    H1 2556   2.811   3.286  10.933 -0.8464  4.8062 -0.1702
  164TMC2    H2 2557   2.961   3.472  10.569  1.6459  0.2350 -0.6646
  164TMC2    C7 2558   2.802   3.509  10.787 -0.7660  0.0467  0.7407
  164TMC2    C8 2559   3.152   3.301  10.533 -0.0220  0.1159 -0.1765
  164TMC2    O1 2560   2.768   3.566  10.682 -0.5788  0.4683  0.2587
  164TMC2    O2 2561   3.214   3.210  10.488  0.3789 -0.5252 -0.2172
  164TMC2    O5 2562   3.203   3.418  10.574  0.4003  0.1361  0.4640
  164TMC2    H5 2563   3.139   3.476  10.621  0.0269  0.7196 -0.7829
  165TMC2    C1 2564   0.081   0.646   1.991 -0.3286  0.0990 -0.4760
  165TMC2    C2 2565   0.032   0.688   2.111 -0.1821  0.5337  0.4360
  165TMC2    C3 2566   4.726   0.819   2.110  0.8895  0.6352 -0.0598
  165TMC2    C4 2567   0.059   0.706   1.865  0.4802  0.0866  0.0234
  165TMC2    C5 2568   0.007   0.826   1.877 -0.5775 -0.0192 -0.0033
  165TMC2    C6 2569   4.729   0.891   1.997  0.2829  0.4780 -0.0497
  165TMC2     C 2570   0.141   0.509   1.980 -1.2174  0.3750  0.4318
  165TMC2     O 2571   0.135   0.450   1.873  0.1178  0.0543 -0.9690
  165TMC2     H 2572   0.028   0.628   2.202  0.6665 -1.0308 -0.5536
  165TMC2    H1 2573   0.077   0.659   1.769 -0.7788 -1.5005  0.5826
  165TMC2    H2 2574   4.707   0.996   2.014  2.6986  0.7444  1.4831
  165TMC2    C7 2575   0.015   0.917   1.762 -0.7057  0.3304  0.2928
  165TMC2    C8 2576   4.675   0.880   2.230  0.6545 -0.5406  0.2977
  165TMC2    O1 2577   0.050   0.870   1.655  0.4554  0.5789 -0.2039
  165TMC2    O2 2578   4.612   0.820   2.315 -0.5166  0.1337 -0.3907
  165TMC2    O5 2579   0.002   1.004   2.245 -0.3974  0.4951  0.5528
  165TMC2    H5 2580   0.066   1.030   2.176 -1.5127 -0.7692 -0.9677
  166MPD2     C 2581   0.283   0.060   2.202 -0.0132 -0.4248 -0.4441
  166MPD2    C1 2582   0.221   0.088   2.087  0.5040  0.7245 -1.0452
  166MPD2    C2 2583   0.198   0.216   2.050 -0.5671  0.1027 -0.4399
  166MPD2    C3 2584   0.221   0.326   2.132  0.6550 -0.0469  0.7297
  166MPD2    C4 2585   0.275   0.296   2.252  0.5395 -0.9640  0.2050
  166MPD2    C5 2586   0.316   0.170   2.281 -0.3127  0.2965 -0.1500
  166MPD2     H 2587   0.154   0.246   1.956 -0.1562 -1.6240 -1.1870
  166MPD2    H1 2588   0.304   0.376   2.319  0.4478 -0.0967 -0.7848
  166MPD2    H2 2589   0.305   4.693   2.235  3.4880  1.5397  3.2723
  166MPD2    H3 2590   0.376   0.158   2.369  0.8052  1.0365 -0.8097
  166MPD2     N 2591   0.193   0.464   2.102 -0.2845 -0.4887 -0.1286
  166MPD2    H5 2592   0.200   0.536   2.172  0.0025 -0.8040  0.1675
  166MPD2    N1 2593   0.174   4.706   2.015  0.3934  0.4849 -0.2215
  166MPD2    H7 2594   0.189   4.616   2.059 -1.8269 -0.0121 -0.4811
  167TMC2    C1 2595   2.202   3.719  12.751  0.5013  0.3472  0.8447
  167TMC2    C2 2596   2.203   3.750  12.885  0.0592 -0.2932 -0.2969
  167TMC2    C3 2597   2.176   3.649  12.973  0.4558  0.0012  0.5146
  167TMC2    C4 2598   2.179   3.597  12.696  0.1322 -0.1950  0.3917
  167TMC2    C5 2599   2.145   3.502  12.792  0.5976  0.2456  1.2464
  167TMC2    C6 2600   2.144   3.529  12.929 -0.3168 -0.0101  0.0299
  167TMC2     C 2601   2.224   3.829  12.669 -0.3575 -0.7524 -0.0724
  167TMC2     O 2602   2.211   3.942  12.718  0.0770  0.1241  0.3141
  167TMC2     H 2603   2.206   3.852  12.922  0.5191  0.8595 -3.5197
  167TMC2    H1 2604   2.159   3.581  12.591  0.9158 -1.9314  0.4890
  167TMC2    H2 2605   2.111   3.455  13.002 -0.3324  1.0678  1.1168
  167TMC2    C7 2606   2.145   3.364  12.753  0.5310 -1.0203  0.8970
  167TMC2    C8 2607   2.183   3.667  13.119 -0.0234  1.0491  0.3992
  167TMC2    O1 2608   2.103   3.284  12.835 -0.1560  0.3583  0.3833
  167TMC2    O2 2609   2.112   3.608  13.198 -0.1443 -0.0142 -0.2218
  167TMC2    O5 2610   2.258   3.780  13.140  0.3321  0.7088 -0.0963
  167TMC2    H5 2611   2.321   3.797  13.067  1.4120 -0.6656  0.5261
  168MPD2     C 2612   2.250   4.011  12.427 -0.4309  0.3148  0.1541
  168MPD2    C1 2613   2.294   3.882  12.436  0.4132 -0.1959 -0.5933
  168MPD2    C2 2614   2.341   3.829  12.318 -0.1248 -0.1994 -0.0151
  168MPD2    C3 2615   2.344   3.891  12.197  0.2338 -0.3568 -0.5357
  168MPD2    C4 2616   2.304   4.017  12.195  0.6812  0.2322 -0.1247
  168MPD2    C5 2617   2.254   4.078  12.306 -0.7974 -0.6440 -0.1367
  168MPD2     H 2618   2.379   3.727  12.315  0.2258 -0.0295 -1.5427
  168MPD2    H1 2619   2.300   4.072  12.102 -0.2326 -1.2586 -0.9709
  168MPD2    H2 2620   2.226   4.068  12.516 -0.2101  0.5131  0.0870
  168MPD2    H3 2621   2.227   4.182  12.300  3.3335  0.5454  2.1326
  168MPD2     N 2622   2.386   3.819  12.083  0.0120  0.8619 -0.3312
  168MPD2    H5 2623   2.421   3.724  12.096  0.8092  0.8868 -2.2701
  168MPD2    N1 2624   2.272   3.795  12.544  0.4480  0.1393  0.4266
  168MPD2    H7 2625   2.318   3.704  12.540  0.8057  0.3398  0.0188
  169MPD1     C 2626   0.245   3.457   9.185  0.5132 -0.2682  0.0674
  169MPD1    C1 2627   0.281   3.395   9.302  0.5446  0.8146 -0.3231
  169MPD1    C2 2628   0.209   3.287   9.352  0.5305  0.2538  0.2803
  169MPD1    C3 2629   0.094   3.242   9.287 -0.1670  0.3372 -0.1200
  169MPD1    C4 2630   0.064   3.305   9.164  0.4746  0.9245 -0.3803
  169MPD1    C5 2631   0.140   3.409   9.114  0.0665  0.1790 -0.3427
  169MPD1     H 2632   0.218   3.242   9.450  1.6725 -1.5986 -0.6866
  169MPD1    H1 2633   4.708   3.276   9.111  0.9466 -1.5025  0.1276
  169MPD1    H2 2634   0.307   3.536   9.144 -2.1941  1.1297 -1.3370
  169MPD1    H3 2635   0.109   3.454   9.021 -1.0430 -0.0203 -0.0702
  169MPD1     N 2636   0.028   3.127   9.331 -0.0682 -0.0065  0.6349
  169MPD1    H5 2637   0.064   3.081   9.414 -2.6235  1.1128  2.3670
  169MPD1    N1 2638   0.389   3.447   9.374  0.5013  0.3300 -0.3974
  169MPD1    H6 2639   0.449   3.385   9.427 -0.5861 -1.0839 -0.8063
  169MPD1    H7 2640   0.431   3.529   9.330  0.7463 -0.0675 -0.8997
  170MPD1     C 2641   3.560   0.526  12.879 -0.3595 -0.0640 -0.5591
  170MPD1    C1 2642   3.517   0.658  12.870 -0.6655  0.1663  0.3775
  170MPD1    C2 2643   3.460   0.715  12.983  0.5937  0.1209 -0.3265
  170MPD1    C3 2644   3.466   0.657  13.108 -0.0372 -0.1574  0.1417
  170MPD1    C4 2645   3.524   0.538  13.118  0.5965 -0.0074 -0.3037
  170MPD1    C5 2646   3.563   0.466  13.005 -0.2615 -0.2860  0.4486
  170MPD1     H 2647   3.420   0.815  12.995 -1.0141 -0.4561 -0.8668
  170MPD1    H1 2648   3.530   0.481  13.211  0.4688 -0.7484 -0.7479
  170MPD1    H2 2649   3.601   0.465  12.799  0.7494  0.7165 -0.5722
  170MPD1    H3 2650   3.592   0.362  13.017 -0.9468 -0.5528 -0.2335
  170MPD1     N 2651   3.414   0.729  13.212 -0.2370  0.0084 -0.0660
  170MPD1    H5 2652   3.368   0.815  13.185  0.6931  0.9992  1.4887
  170MPD1    N1 2653   3.519   0.721  12.741 -0.1884 -0.3366 -0.2537
  170MPD1    H6 2654   3.603   0.704  12.686 -0.4241 -0.5383 -0.5489
  170MPD1    H7 2655   3.508   0.820  12.765 -0.8098 -0.0094 -1.8754
  171MPD1     C 2656   1.597   2.084  14.983  0.5594  0.1895 -0.3783
  171MPD1    C1 2657   1.480   2.045  15.053  0.8614 -0.3000  0.6879
  171MPD1    C2 2658   1.505   1.970  15.167  0.6068 -0.4938  0.1947
  171MPD1    C3 2659   1.631   1.945  15.214 -0.3065  0.4895 -0.3444
  171MPD1    C4 2660   1.747   1.985  15.146  0.2759 -0.5117  0.1010
  171MPD1    C5 2661   1.721   2.058  15.032  1.2454 -0.7679  0.8406
  171MPD1     H 2662   1.423   1.936  15.229  0.5689 -0.0950  0.3641
  171MPD1    H1 2663   1.850   1.976  15.178  1.0072 -2.1379 -2.7531
  171MPD1    H2 2664   1.587   2.131  14.886  0.4938  0.0732 -0.4283
  171MPD1    H3 2665   1.804   2.083  14.967 -1.9994  0.0591 -2.9110
  171MPD1     N 2666   1.666   1.896  15.339 -0.9533  0.5390  0.7030
  171MPD1    H5 2667   1.763   1.868  15.351 -0.7064  0.6375 -1.0454
  171MPD1    N1 2668   1.354   2.071  14.988  0.0979  0.3769 -0.3946
  171MPD1    H6 2669   1.349   2.169  14.960  4.0355  0.4052 -1.0757
  171MPD1    H7 2670   1.279   2.061  15.055 -0.7767 -0.5360 -1.5154
  172MPD1     C 2671   0.819   0.718   0.089  0.0611  0.0138  0.3212
  172MPD1    C1 2672   0.744   0.834   0.123  0.4947  0.2778 -0.3491
  172MPD1    C2 2673   0.759   0.893   0.246 -0.2025  0.1505  0.3440
  172MPD1    C3 2674   0.856   0.840   0.333  0.6756  0.3693 -0.7144
  172MPD1    C4 2675   0.924   0.723   0.305 -0.4016  0.0404 -0.2387
  172MPD1    C5 2676   0.906   0.663   0.181 -0.3840 -0.2975 -0.4384
  172MPD1     H 2677   0.699   0.978   0.276 -0.3137 -0.3493  1.5009
  172MPD1    H1 2678   0.999   0.677   0.369 -1.0534  1.2645  1.4091
  172MPD1    H2 2679   0.812   0.670  17.728 -0.3046  1.6684 -0.4740
  172MPD1    H3 2680   0.958   0.573   0.151 -0.9394 -0.2888 -1.4470
  172MPD1     N 2681   0.877   0.900   0.455  0.2170  0.0686 -0.4435
  172MPD1    H5 2682   0.958   0.860   0.502 -0.8819 -0.9666  0.5816
  172MPD1    N1 2683   0.675   0.904   0.020  0.5313 -0.4117 -0.5528
  172MPD1    H6 2684   0.623   0.839  17.696  2.8405 -0.0855 -2.9044
  172MPD1    H7 2685   0.617   0.983   0.046 -0.0055 -0.8592 -0.3611
  173MPD1     C 2686   2.789   1.665  13.575  0.2143 -0.6334 -0.0675
  173MPD1    C1 2687   2.729   1.701  13.690 -0.0039  0.5765  0.4908
  173MPD1    C2 2688   2.707   1.599  13.779  0.9736  0.3547  0.1526
  173MPD1    C3 2689   2.768   1.475  13.765  0.5024 -0.2320  0.6274
  173MPD1    C4 2690   2.847   1.452  13.657  0.7223 -0.1878  0.3491
  173MPD1    C5 2691   2.858   1.553  13.564 -0.2714 -0.5912  0.4416
  173MPD1     H 2692   2.648   1.628  13.865  1.6591  0.0013  0.7442
  173MPD1    H1 2693   2.896   1.357  13.638  0.8448 -0.2092  0.7723
  173MPD1    H2 2694   2.785   1.734  13.492 -0.3788  1.1506  1.4577
  173MPD1    H3 2695   2.910   1.528  13.473 -0.7408  0.6291 -0.1580
  173MPD1     N 2696   2.737   1.379  13.862  0.2499 -0.0961  0.3661
  173MPD1    H5 2697   2.676   1.420  13.932 -2.7092  0.3069 -2.4337
  173MPD1    N1 2698   2.657   1.823  13.699 -0.6190 -0.4730  0.3377
  173MPD1    H6 2699   2.706   1.897  13.649  0.1931 -0.1918  1.5471
  173MPD1    H7 2700   2.660   1.846  13.798 -0.6852  0.5498  0.1064
  174MPD1     C 2701   3.287   1.053  14.559 -0.0132 -0.0411 -0.1386
  174MPD1    C1 2702   3.292   0.982  14.438 -0.4136 -0.7558  0.0666
  174MPD1    C2 2703   3.174   0.976  14.372  0.1017  0.0830  0.2755
  174MPD1    C3 2704   3.059   1.042  14.410  1.3501  0.5327  0.5040
  174MPD1    C4 2705   3.060   1.111  14.528 -0.3513 -0.6028  0.2858
  174MPD1    C5 2706   3.176   1.118  14.602  0.0253 -0.7509 -0.0908
  174MPD1     H 2707   3.174   0.906  14.289 -0.3546 -1.9504  1.9704
  174MPD1    H1 2708   2.977   1.172  14.561  0.3164  0.9411 -0.8636
  174MPD1    H2 2709   3.376   1.058  14.622  1.7830 -1.2211 -2.5892
  174MPD1    H3 2710   3.176   1.184  14.689 -0.9405  1.2576 -1.6154
  174MPD1     N 2711   2.934   1.039  14.338  0.1362  0.3076 -0.4660
  174MPD1    H5 2712   2.866   1.096  14.387  2.0966  1.7338  0.5830
  174MPD1    N1 2713   3.403   0.892  14.421 -0.2676 -0.2265  0.3878
  174MPD1    H6 2714   3.487   0.925  14.467  1.3212 -2.2966 -1.0515
  174MPD1    H7 2715   3.419   0.887  14.321 -0.2655 -0.4105  0.3969
  175MPD1     C 2716   0.614   2.076  15.679  0.0707 -0.1294  0.6543
  175MPD1    C1 2717   0.729   2.048  15.755 -0.1273 -0.0471 -0.3679
  175MPD1    C2 2718   0.713   1.993  15.880 -0.3487  0.4161  0.2400
  175MPD1    C3 2719   0.585   1.985  15.938 -0.0908 -0.7421  0.0485
  175MPD1    C4 2720   0.477   2.015  15.860  0.2210  0.3830  0.2870
  175MPD1    C5 2721   0.490   2.058  15.733  0.0300  0.1219 -0.1408
  175MPD1     H 2722   0.799   1.970  15.943 -0.3823  2.6883  1.1068
  175MPD1    H1 2723   0.373   2.002  15.888 -0.2191  0.5364 -1.2585
  175MPD1    H2 2724   0.621   2.116  15.578  1.5666 -1.2681  0.2984
  175MPD1    H3 2725   0.397   2.071  15.679 -0.1196  0.8579  0.2905
  175MPD1     N 2726   0.549   1.933  16.066 -0.1748  0.0870 -0.1094
  175MPD1    H5 2727   0.454   1.949  16.098 -0.4014  0.4149 -0.9418
  175MPD1    N1 2728   0.850   2.089  15.705 -0.6175  0.3047 -0.7528
  175MPD1    H6 2729   0.860   2.082  15.604  3.1387  2.9550 -0.6049
  175MPD1    H7 2730   0.922   2.032  15.749 -0.6859  0.0844 -0.9272
  176MPD1     C 2731   1.647   4.209   0.089  0.0474  0.4685  0.5524
  176MPD1    C1 2732   1.732   4.182  17.718 -0.1843  0.2103  0.0099
  176MPD1    C2 2733   1.835   4.262  17.695  0.3152 -0.2397 -0.1462
  176MPD1    C3 2734   1.864   4.381   0.033 -0.0877 -0.5719 -0.1778
  176MPD1    C4 2735   1.765   4.413   0.132  0.0665 -0.7157  0.2163
  176MPD1    C5 2736   1.667   4.326   0.156  0.4363  0.0997 -0.1870
  176MPD1     H 2737   1.907   4.235  17.619  1.3884 -0.6095  1.0016
  176MPD1    H1 2738   1.771   4.495   0.202 -0.6643  0.4151 -1.0613
  176MPD1    H2 2739   1.570   4.148   0.133  0.2002  1.7360  2.5940
  176MPD1    H3 2740   1.607   4.335   0.247  0.0396  0.6704 -0.5061
  176MPD1     N 2741   1.978   4.452  17.723 -0.0361 -0.7885 -0.5160
  176MPD1    H5 2742   2.028   4.412  17.644 -0.7394 -0.8291 -0.9365
  176MPD1    N1 2743   1.727   4.058  17.653  0.6819  0.0758 -0.0243
  176MPD1    H6 2744   1.635   4.017  17.639  1.8117 -2.2956 -0.5818
  176MPD1    H7 2745   1.777   4.058  17.565 -2.1587  0.0107 -1.6447
  177MPD1     C 2746   0.674   3.727   9.975 -0.3738  0.1145  0.2096
  177MPD1    C1 2747   0.543   3.736   9.944  0.1863  0.0529 -0.0070
  177MPD1    C2 2748   0.514   3.818   9.833 -0.0641 -0.4470  0.0358
  177MPD1    C3 2749   0.600   3.906   9.782 -0.3332  0.0016  0.5227
  177MPD1    C4 2750   0.728   3.908   9.829  0.3764  0.2359 -0.9295
  177MPD1    C5 2751   0.769   3.821   9.928 -0.0084  0.2416 -0.3598
  177MPD1     H 2752   0.411   3.832   9.803  0.4598  0.0462 -1.4938
  177MPD1    H1 2753   0.795   3.977   9.779  0.9122  0.8332  0.5991
  177MPD1    H2 2754   0.704   3.642  10.035 -0.5086  0.4541  0.7563
  177MPD1    H3 2755   0.868   3.823   9.973 -0.4912  0.9756  0.6518
  177MPD1     N 2756   0.555   3.989   9.676 -0.5288  0.6483  0.1250
  177MPD1    H5 2757   0.463   3.970   9.636  0.5562  1.6684 -2.8545
  177MPD1    N1 2758   0.447   3.656  10.006  0.5178 -0.7510  0.4535
  177MPD1    H6 2759   0.469   3.631  10.102 -1.8116  1.2773  1.5280
  177MPD1    H7 2760   0.355   3.699  10.007  1.6531  1.7087 -0.4574
  178MPD1     C 2761   2.697   0.449  17.366 -0.9178 -0.2966  0.4450
  178MPD1    C1 2762   2.805   0.382  17.423 -0.1280  0.0095 -0.3236
  178MPD1    C2 2763   2.892   0.317  17.342  0.1272  0.4354 -0.1619
  178MPD1    C3 2764   2.882   0.328  17.204 -0.2280 -0.8765  0.4114
  178MPD1    C4 2765   2.781   0.398  17.149  0.0950  0.2611 -0.2349
  178MPD1    C5 2766   2.693   0.463  17.230 -0.6550  0.2121  0.0268
  178MPD1     H 2767   2.969   0.253  17.384 -2.2757 -0.9532  2.0699
  178MPD1    H1 2768   2.768   0.411  17.043  0.0440  0.4115 -0.2104
  178MPD1    H2 2769   2.620   0.487  17.432 -1.5667 -2.3972  0.9225
  178MPD1    H3 2770   2.609   0.507  17.178  0.7714  0.7423 -1.8169
  178MPD1     N 2771   2.972   0.268  17.117  0.5257  0.0770  0.2311
  178MPD1    H5 2772   2.945   0.264  17.019 -1.0970 -0.0699  0.6841
  178MPD1    N1 2773   2.810   0.351  17.560  0.1721 -0.5941  0.1263
  178MPD1    H6 2774   2.776   0.424  17.622  2.1686 -0.5704  1.1763
  178MPD1    H7 2775   2.905   0.330  17.589  0.1569  1.4760  1.6875
  179MPD1     C 2776   1.383   3.153  15.983  0.2941  0.1672  0.0269
  179MPD1    C1 2777   1.491   3.150  15.890  0.7654 -0.2988 -0.3177
  179MPD1    C2 2778   1.574   3.040  15.882  0.4726 -0.3191 -0.2550
  179MPD1    C3 2779   1.557   2.936  15.967  0.2867  1.2018 -0.4813
  179MPD1    C4 2780   1.452   2.941  16.060 -0.0430 -0.3038  0.3531
  179MPD1    C5 2781   1.370   3.048  16.068 -0.6624 -0.3813 -0.2847
  179MPD1     H 2782   1.657   3.041  15.813 -1.9444  2.3070 -3.1020
  179MPD1    H1 2783   1.447   2.864  16.137  0.4803 -1.3835 -0.6879
  179MPD1    H2 2784   1.304   3.226  15.990  1.2402  1.3353 -1.4115
  179MPD1    H3 2785   1.303   3.057  16.153 -0.0191  0.1998  0.1746
  179MPD1     N 2786   1.642   2.827  15.979 -0.6895  0.0013 -0.2914
  179MPD1    H5 2787   1.613   2.765  16.054  0.7795  0.1015  0.3726
  179MPD1    N1 2788   1.526   3.267  15.821  0.0845  0.7887  0.2456
  179MPD1    H6 2789   1.451   3.334  15.805 -0.5737  0.0139  0.0988
  179MPD1    H7 2790   1.574   3.254  15.733 -0.2854 -2.4842  0.5244
  180MPD1     C 2791   3.467   4.201  15.021 -0.3745 -0.7405 -0.7712
  180MPD1    C1 2792   3.518   4.265  14.913 -0.2665  0.7118  0.2293
  180MPD1    C2 2793   3.426   4.348  14.845 -0.2581  0.1495  0.2920
  180MPD1    C3 2794   3.301   4.373  14.893  0.7532  0.4076 -0.6288
  180MPD1    C4 2795   3.257   4.314  15.008 -0.1995 -0.2136  0.1378
  180MPD1    C5 2796   3.339   4.226  15.068 -0.4423 -0.6479  0.7495
  180MPD1     H 2797   3.449   4.401  14.753 -0.8215 -1.3985 -0.7515
  180MPD1    H1 2798   3.158   4.324  15.051  0.0750  0.5024  0.6135
  180MPD1    H2 2799   3.522   4.132  15.084 -3.0046 -1.9779  0.2023
  180MPD1    H3 2800   3.311   4.169  15.156 -0.1268 -2.5343 -0.3915
  180MPD1     N 2801   3.220   4.465  14.819 -0.4661 -0.2814  0.4382
  180MPD1    H5 2802   3.244   4.493  14.725 -2.6609 -1.6295 -0.5303
  180MPD1    N1 2803   3.643   4.239  14.850  0.1598  0.9950  0.2027
  180MPD1    H6 2804   3.689   4.306  14.788  1.8807  0.9867  1.4615
  180MPD1    H7 2805   3.714   4.213  14.918 -0.5510 -0.9374  0.2014
  181MPD1     C 2806   3.964   1.754   9.917  0.4506 -0.0948  0.1270
  181MPD1    C1 2807   4.007   1.829  10.016  0.1940 -0.0014 -0.2782
  181MPD1    C2 2808   4.103   1.762  10.094  0.2436  0.3982 -0.1022
  181MPD1    C3 2809   4.145   1.631  10.078 -1.3013  0.0681  0.3869
  181MPD1    C4 2810   4.085   1.556   9.977  0.4368  0.0494  0.6919
  181MPD1    C5 2811   4.001   1.626   9.898  0.3995 -0.4251 -0.0285
  181MPD1     H 2812   4.138   1.813  10.183 -0.0026  0.8702 -0.2779
  181MPD1    H1 2813   4.115   1.453   9.962 -1.8965 -0.3961 -0.8709
  181MPD1    H2 2814   3.888   1.797   9.853  0.6671  1.4124  0.8732
  181MPD1    H3 2815   3.961   1.570   9.815 -1.1816  2.2048 -1.0284
  181MPD1     N 2816   4.250   1.574  10.158  0.5029  0.8842 -0.1948
  181MPD1    H5 2817   4.262   1.474  10.146 -1.4425  0.7678 -1.1509
  181MPD1    N1 2818   3.980   1.963  10.014  0.1832 -0.9725 -0.7774
  181MPD1    H6 2819   3.981   2.007  10.105  1.1301 -1.0205 -0.7619
  181MPD1    H7 2820   3.892   1.997   9.975  1.9288  1.8015 -2.3098
  182MPD1     C 2821   0.669   0.167   1.501  0.3231  0.6714 -0.6403
  182MPD1    C1 2822   0.677   0.117   1.377  0.0546  0.0645  0.3240
  182MPD1    C2 2823   0.570   0.146   1.287  0.7328  0.2260 -0.1338
  182MPD1    C3 2824   0.479   0.249   1.313 -1.1077 -0.2035 -0.4212
  182MPD1    C4 2825   0.498   0.318   1.432 -0.5055  0.1635 -0.0164
  182MPD1    C5 2826   0.588   0.278   1.522  0.0962 -0.5268 -0.0890
  182MPD1     H 2827   0.580   0.112   1.185  2.7610 -2.3541  0.9271
  182MPD1    H1 2828   0.426   0.398   1.449 -0.1675  0.3199  0.6963
  182MPD1    H2 2829   0.731   0.140   1.586  0.2683 -1.4323 -1.2676
  182MPD1    H3 2830   0.585   0.323   1.621  0.2947  1.9873 -1.2516
  182MPD1     N 2831   0.384   0.289   1.226 -0.1871  0.4163  0.1037
  182MPD1    H5 2832   0.325   0.366   1.254  0.3596  1.1035 -0.6256
  182MPD1    N1 2833   0.761   0.007   1.348  0.2169 -0.0475 -0.2720
  182MPD1    H6 2834   0.851   0.007   1.396 -2.2787 -1.9137  4.4149
  182MPD1    H7 2835   0.783   4.729   1.249  0.3993  1.6911 -0.4402
  183MPD1     C 2836   0.442   1.217   8.489 -0.2559  0.1042 -0.2065
  183MPD1    C1 2837   0.409   1.319   8.565 -0.5290 -0.2370 -0.1976
  183MPD1    C2 2838   0.423   1.306   8.699  0.7164  0.3977 -0.1607
  183MPD1    C3 2839   0.480   1.193   8.755  0.2680  0.7735  0.3216
  183MPD1    C4 2840   0.513   1.094   8.677  0.6466 -0.5223 -0.2757
  183MPD1    C5 2841   0.500   1.103   8.541  0.3288  0.4706 -0.3074
  183MPD1     H 2842   0.400   1.392   8.761  1.2679  0.9659 -0.7421
  183MPD1    H1 2843   0.570   1.009   8.712  1.4946  0.2558  0.2123
  183MPD1    H2 2844   0.416   1.206   8.384 -0.4007  1.2338 -0.2850
  183MPD1    H3 2845   0.540   1.026   8.476 -3.0862 -1.9073  0.4051
  183MPD1     N 2846   0.490   1.201   8.899 -0.5116  0.0272  0.9247
  183MPD1    H5 2847   0.458   1.292   8.930  0.2064  0.5297  0.1892
  183MPD1    N1 2848   0.343   1.428   8.516 -0.1293 -0.1361 -0.3242
  183MPD1    H6 2849   0.355   1.509   8.575 -0.7861 -0.2610 -0.0164
  183MPD1    H7 2850   0.383   1.463   8.429  0.1977  0.6454  0.1449
  184MPD1     C 2851   4.220   3.717  10.031  0.2104 -0.5648 -0.2420
  184MPD1    C1 2852   4.175   3.655   9.919  0.3104 -0.2573 -0.3024
  184MPD1    C2 2853   4.241   3.668   9.799  0.6085  0.1902  0.3571
  184MPD1    C3 2854   4.348   3.756   9.783 -0.3556  0.1017  0.1740
  184MPD1    C4 2855   4.387   3.817   9.896 -0.2788 -0.6424  0.0698
  184MPD1    C5 2856   4.329   3.796  10.023  0.3426  0.3238  0.2682
  184MPD1     H 2857   4.201   3.604   9.721 -0.6493  0.2634  0.9430
  184MPD1    H1 2858   4.478   3.875   9.898  0.5597 -1.9908  0.5533
  184MPD1    H2 2859   4.168   3.718  10.126  2.2637  0.5325  0.8605
  184MPD1    H3 2860   4.357   3.852  10.111  2.4083  1.4675 -1.0977
  184MPD1     N 2861   4.411   3.802   9.664  0.3626  0.3965  0.4722
  184MPD1    H5 2862   4.492   3.861   9.681  0.1452  0.8219  0.0219
  184MPD1    N1 2863   4.098   3.537   9.932  0.2906  0.1278 -0.3203
  184MPD1    H6 2864   4.046   3.517   9.847 -1.5590 -2.3071  1.3509
  184MPD1    H7 2865   4.027   3.543  10.005 -0.1997  1.3184 -0.9011
  185MPD1     C 2866   4.190   3.607   8.682  0.0874 -0.1897 -0.0383
  185MPD1    C1 2867   4.212   3.738   8.688 -0.4808 -0.2607 -0.6888
  185MPD1    C2 2868   4.259   3.788   8.805  0.1078  0.8160 -0.0978
  185MPD1    C3 2869   4.292   3.702   8.910 -0.4744 -0.4216 -0.0020
  185MPD1    C4 2870   4.258   3.568   8.903 -0.0924  0.2015 -0.5361
  185MPD1    C5 2871   4.202   3.523   8.785 -0.7212 -0.1794 -1.0704
  185MPD1     H 2872   4.287   3.892   8.815 -2.2116  1.6531 -2.4195
  185MPD1    H1 2873   4.280   3.490   8.976  0.2137 -0.9660 -1.8620
  185MPD1    H2 2874   4.157   3.575   8.584  2.6132 -1.5790 -0.4514
  185MPD1    H3 2875   4.170   3.420   8.776  0.7460 -0.7187 -0.0621
  185MPD1     N 2876   4.345   3.749   9.036  0.1545  0.8636  0.4759
  185MPD1    H5 2877   4.346   3.682   9.112 -0.4619 -0.9783 -1.1273
  185MPD1    N1 2878   4.189   3.830   8.577  0.0342 -0.5681 -0.4256
  185MPD1    H6 2879   4.238   3.918   8.590 -2.1405  0.9529 -2.7079
  185MPD1    H7 2880   4.226   3.783   8.494 -0.6370 -1.9582  0.0612
  186MPD1     C 2881   3.351   2.627  15.711  0.5504  0.5633 -0.7333
  186MPD1    C1 2882   3.302   2.600  15.839  0.1975 -0.2381  0.1479
  186MPD1    C2 2883   3.276   2.711  15.915  0.0246 -0.7478  0.8829
  186MPD1    C3 2884   3.288   2.838  15.855 -0.4748  0.4530  0.0032
  186MPD1    C4 2885   3.330   2.856  15.727 -0.0034  0.1121  0.7028
  186MPD1    C5 2886   3.369   2.750  15.652  0.4450  1.0321  0.1888
  186MPD1     H 2887   3.261   2.705  16.022  0.0470  0.3786  0.9457
  186MPD1    H1 2888   3.339   2.956  15.688 -0.9646  0.7383  2.1129
  186MPD1    H2 2889   3.384   2.545  15.649 -1.4033 -1.0445  0.3506
  186MPD1    H3 2890   3.405   2.755  15.550  0.4425 -0.6107  0.1004
  186MPD1     N 2891   3.257   2.952  15.932  0.3314  0.3115 -0.0845
  186MPD1    H5 2892   3.285   3.038  15.887 -0.0103  0.6446  0.3427
  186MPD1    N1 2893   3.309   2.476  15.905 -0.4400  0.5098 -0.4401
  186MPD1    H6 2894   3.308   2.392  15.848 -0.2146 -0.0253  0.3488
  186MPD1    H7 2895   3.236   2.472  15.976 -0.7308 -0.8450 -0.8149
  187MPD1     C 2896   2.056   0.662   0.256  0.2319  0.5166  0.8383
  187MPD1    C1 2897   1.960   0.621   0.165  0.2911  0.1210 -0.5978
  187MPD1    C2 2898   2.003   0.558   0.045 -0.1867 -0.6364 -0.1415
  187MPD1    C3 2899   2.134   0.541   0.010 -1.3847 -0.0457  0.1552
  187MPD1    C4 2900   2.221   0.608   0.086 -0.3670  0.4354  0.4767
  187MPD1    C5 2901   2.188   0.668   0.207 -0.4883 -0.0509  0.2011
  187MPD1     H 2902   1.927   0.511  17.719 -0.0499 -0.2370 -0.6183
  187MPD1    H1 2903   2.323   0.617   0.052 -0.7126  0.6264 -0.5009
  187MPD1    H2 2904   2.032   0.686   0.359  2.3956 -0.9875  1.7088
  187MPD1    H3 2905   2.265   0.709   0.271  0.1049 -1.1140  0.1641
  187MPD1     N 2906   2.167   0.475  17.622 -0.1433  0.0914 -0.1116
  187MPD1    H5 2907   2.261   0.493  17.591 -0.2421 -0.9830 -1.0606
  187MPD1    N1 2908   1.824   0.613   0.206  0.3470  0.2462  0.1003
  187MPD1    H6 2909   1.753   0.618   0.133 -0.6194  2.1310  1.1658
  187MPD1    H7 2910   1.802   0.673   0.285 -1.3833  0.3410 -0.4682
  188MPD1     C 2911   2.405   0.385   9.833  0.7723 -0.0893  0.6604
  188MPD1    C1 2912   2.271   0.381   9.784 -0.7103 -0.3342 -0.4934
  188MPD1    C2 2913   2.208   0.262   9.787  0.2148  0.5819 -0.5171
  188MPD1    C3 2914   2.263   0.142   9.831 -0.3363 -0.1645 -0.4496
  188MPD1    C4 2915   2.393   0.153   9.864 -0.3174  0.7934 -0.1265
  188MPD1    C5 2916   2.460   0.271   9.875 -0.5812  0.7338  0.6543
  188MPD1     H 2917   2.105   0.261   9.751 -1.1096  1.8596  3.2203
  188MPD1    H1 2918   2.455   0.070   9.897 -0.4866  0.5535 -0.4100
  188MPD1    H2 2919   2.473   0.467   9.812  0.4923  0.5083  2.0609
  188MPD1    H3 2920   2.563   0.258   9.907 -1.0754  0.8843  2.3106
  188MPD1     N 2921   2.201   0.016   9.836  0.1310 -0.3734  0.0483
  188MPD1    H5 2922   2.256   4.669   9.862 -0.6838 -0.9404 -0.0105
  188MPD1    N1 2923   2.225   0.498   9.708 -0.3573 -0.2752 -0.3035
  188MPD1    H6 2924   2.125   0.510   9.696 -0.2739 -1.9464 -2.4242
  188MPD1    H7 2925   2.265   0.589   9.731 -0.1218 -0.3785 -0.3058
  189MPD1     C 2926   3.961   1.209   0.716 -0.0740 -0.1913 -0.4470
  189MPD1    C1 2927   3.831   1.170   0.700 -0.5963  0.1608 -0.6630
  189MPD1    C2 2928   3.739   1.263   0.655  0.3213  0.0041 -0.1032
  189MPD1    C3 2929   3.774   1.392   0.619 -0.9673  0.6902 -0.4028
  189MPD1    C4 2930   3.904   1.427   0.625 -0.3469 -0.0273 -0.1615
  189MPD1    C5 2931   3.994   1.337   0.674  0.1507  0.3090  0.6103
  189MPD1     H 2932   3.637   1.232   0.639  0.4355 -1.2297  1.5907
  189MPD1    H1 2933   3.936   1.526   0.595 -1.3731  0.6234  0.8652
  189MPD1    H2 2934   4.034   1.137   0.750  0.3196  0.3968 -0.0477
  189MPD1    H3 2935   4.100   1.362   0.681 -0.2691  2.4074 -0.5530
  189MPD1     N 2936   3.676   1.477   0.565  0.2856 -0.5646 -0.2731
  189MPD1    H5 2937   3.580   1.444   0.569 -0.3060  1.5576  2.8865
  189MPD1    N1 2938   3.794   1.053   0.766 -0.3277  0.2959  0.4125
  189MPD1    H6 2939   3.863   0.979   0.753 -0.5609  0.1111  0.2323
  189MPD1    H7 2940   3.703   1.018   0.736 -0.5474  0.1195  1.2712
  190MPD1     C 2941   2.679   0.173  15.374 -0.3731 -0.3121  0.3285
  190MPD1    C1 2942   2.651   0.132  15.502 -0.3266  0.2875  0.1811
  190MPD1    C2 2943   2.741   0.042  15.551 -0.2724  0.0694  0.1984
  190MPD1    C3 2944   2.841   4.711  15.472  0.3091  0.3666 -0.7096
  190MPD1    C4 2945   2.855   0.026  15.347  0.2069 -0.3895 -0.1018
  190MPD1    C5 2946   2.781   0.129  15.297  0.7134  0.1078 -1.2079
  190MPD1     H 2947   2.729   0.004  15.651  2.4241  1.2643  0.9736
  190MPD1    H1 2948   2.924   4.719  15.273  0.0038 -0.0612 -0.4737
  190MPD1    H2 2949   2.621   0.250  15.323  0.2744  1.2915  2.0218
  190MPD1    H3 2950   2.782   0.171  15.197  1.7569  0.7724 -0.9183
  190MPD1     N 2951   2.923   4.612  15.530  0.2820  0.4275 -0.2757
  190MPD1    H5 2952   2.904   4.589  15.627  0.4113 -0.1031 -0.3731
  190MPD1    N1 2953   2.561   0.185  15.591 -0.8936  0.5686 -0.2728
  190MPD1    H6 2954   2.477   0.208  15.538  0.5886  1.1317 -2.3963
  190MPD1    H7 2955   2.530   0.122  15.665 -1.3094  0.9609 -0.1074
  191MPD1     C 2956   2.165   1.100  13.365  0.1254  0.2617 -0.6293
  191MPD1    C1 2957   2.229   1.175  13.268 -0.0520  0.0969 -0.2538
  191MPD1    C2 2958   2.157   1.285  13.217  0.6407  0.7134  1.3219
  191MPD1    C3 2959   2.033   1.321  13.262 -0.2013  0.7086 -0.5120
  191MPD1    C4 2960   1.970   1.254  13.368  0.5980  0.5713  0.2666
  191MPD1    C5 2961   2.042   1.134  13.405  0.2430  0.3916  0.1549
  191MPD1     H 2962   2.195   1.349  13.138  0.6545 -1.7433 -0.6743
  191MPD1    H1 2963   1.869   1.281  13.394  0.2760 -1.7240  1.4434
  191MPD1    H2 2964   2.218   1.011  13.394  1.0627  1.0568  0.1068
  191MPD1    H3 2965   2.003   1.069  13.483  0.1941 -0.1279 -0.3053
  191MPD1     N 2966   1.973   1.433  13.201  0.7506 -0.1649 -0.0564
  191MPD1    H5 2967   2.018   1.466  13.117  0.2464  1.3466  0.2691
  191MPD1    N1 2968   2.356   1.129  13.221  0.0632 -0.1468  0.5209
  191MPD1    H6 2969   2.412   1.086  13.294  0.3163  1.1843  1.1017
  191MPD1    H7 2970   2.402   1.202  13.166  0.1424  0.8943  1.9792
  192MPD1     C 2971   1.097   2.070  13.096 -0.5418 -0.8930  0.1529
  192MPD1    C1 2972   1.105   1.934  13.076 -0.3117  0.1983 -0.1101
  192MPD1    C2 2973   1.230   1.879  13.061  0.1289 -0.3010  0.1169
  192MPD1    C3 2974   1.345   1.952  13.082 -0.1282 -0.5959  0.1132
  192MPD1    C4 2975   1.332   2.082  13.111  0.0783  0.0610  0.3167
  192MPD1    C5 2976   1.210   2.140  13.127  0.5225  0.2369 -0.5857
  192MPD1     H 2977   1.235   1.773  13.036 -1.6575 -0.4060  0.2227
  192MPD1    H1 2978   1.421   2.142  13.127  0.6799  0.2905 -4.0254
  192MPD1    H2 2979   0.999   2.116  13.101  0.9019  2.2742 -0.7153
  192MPD1    H3 2980   1.201   2.247  13.142  1.4933  0.1572  0.5744
  192MPD1     N 2981   1.472   1.893  13.081  0.0840  0.3355  0.6056
  192MPD1    H5 2982   1.550   1.958  13.085  0.1514  0.2267  1.0359
  192MPD1    N1 2983   0.984   1.867  13.039 -0.5078 -0.2212 -0.2475
  192MPD1    H6 2984   0.993   1.767  13.055  0.9018  0.0332  0.6071
  192MPD1    H7 2985   0.901   1.906  13.083  0.2774  0.5975  0.4943
  193MPD1     C 2986   1.082   1.630  17.224  0.3676  0.2674  0.3865
  193MPD1    C1 2987   1.170   1.622  17.129  0.5377  0.2090 -0.5214
  193MPD1    C2 2988   1.276   1.709  17.131 -0.2038 -0.0868  0.1660
  193MPD1    C3 2989   1.286   1.810  17.224 -0.6835  0.1095  0.2282
  193MPD1    C4 2990   1.181   1.824  17.313 -0.4426 -0.6174 -0.3594
  193MPD1    C5 2991   1.081   1.730  17.318 -0.3268 -1.0455  0.3547
  193MPD1     H 2992   1.350   1.700  17.052 -1.4733  0.0743 -1.0345
  193MPD1    H1 2993   1.185   1.908  17.381 -0.4312 -1.9941  1.3491
  193MPD1    H2 2994   0.998   1.562  17.216  0.8083  0.1019 -2.8499
  193MPD1    H3 2995   0.998   1.755  17.383 -0.4890 -0.8973  0.0946
  193MPD1     N 2996   1.389   1.904  17.240  0.6366 -0.3229  0.8462
  193MPD1    H5 2997   1.384   1.972  17.316 -1.5319  1.8627 -1.2666
  193MPD1    N1 2998   1.173   1.510  17.046 -0.0218  0.2661 -0.4606
  193MPD1    H6 2999   1.087   1.459  17.032  0.3914 -0.5239 -0.1444
  193MPD1    H7 3000   1.227   1.528  16.962 -0.1384 -0.0374 -0.5972
  194MPD1     C 3001   0.007   4.100  17.043 -0.5596  0.2924  0.7502
  194MPD1    C1 3002   4.696   4.001  16.959 -0.5821  0.1056 -0.1671
  194MPD1    C2 3003   4.639   3.894  17.021  0.1637 -0.3550  0.1102
  194MPD1    C3 3004   4.607   3.888  17.156  0.0709  0.5695  0.8699
  194MPD1    C4 3005   4.646   3.997  17.234 -0.1636 -0.4167 -0.7959
  194MPD1    C5 3006   4.722   4.096  17.175 -0.3315 -0.2751  0.2495
  194MPD1     H 3007   4.612   3.820  16.946 -3.1259  0.7414  0.2190
  194MPD1    H1 3008   4.626   4.003  17.340  2.0991  2.2076 -0.5441
  194MPD1    H2 3009   0.061   4.188  17.008 -3.3062  1.4727 -0.5347
  194MPD1    H3 3010   0.028   4.174  17.239 -0.9482 -0.9636  1.4739
  194MPD1     N 3011   4.532   3.786  17.217 -0.3916 -0.1731 -0.1337
  194MPD1    H5 3012   4.523   3.781  17.318  0.7849  1.3463  0.0560
  194MPD1    N1 3013   4.729   4.008  16.822 -0.6702 -0.6112 -0.1229
  194MPD1    H6 3014   4.658   3.977  16.756 -0.7911  1.1218 -0.8138
  194MPD1    H7 3015   0.026   4.099  16.788 -2.8377 -0.9483 -3.0291
  195MPD1     C 3016   1.460   0.736   1.383  0.1054 -0.3107 -0.1708
  195MPD1    C1 3017   1.585   0.688   1.405  0.0942 -0.2937 -0.3898
  195MPD1    C2 3018   1.660   0.630   1.300  0.0219  0.0821 -0.3933
  195MPD1    C3 3019   1.602   0.619   1.174  0.5493  0.1730  0.5480
  195MPD1    C4 3020   1.479   0.686   1.154 -0.4604 -0.6053  1.1120
  195MPD1    C5 3021   1.415   0.749   1.259 -1.0381 -0.4724  0.4782
  195MPD1     H 3022   1.765   0.605   1.312 -0.2136  0.1574  1.7050
  195MPD1    H1 3023   1.416   0.678   1.066  2.4071  0.2378 -1.0372
  195MPD1    H2 3024   1.396   0.776   1.461 -1.0458 -0.7048 -0.8999
  195MPD1    H3 3025   1.316   0.791   1.240  0.6689  1.8176 -3.4212
  195MPD1     N 3026   1.670   0.575   1.055  0.2835  0.5212 -0.1736
  195MPD1    H5 3027   1.621   0.576   0.965  0.3691 -1.3195 -0.2566
  195MPD1    N1 3028   1.634   0.670   1.538 -0.2540  0.3423 -0.5686
  195MPD1    H6 3029   1.593   0.722   1.615  1.6170 -1.4408  1.6500
  195MPD1    H7 3030   1.734   0.691   1.546 -0.2630  0.0741  0.2619
  196MPD1     C 3031   0.577   4.534   0.186  0.2774  0.7226  0.2150
  196MPD1    C1 3032   0.611   4.669   0.206 -0.7450  0.3456  0.5725
  196MPD1    C2 3033   0.683   4.701   0.319  1.0533 -0.1112 -0.1580
  196MPD1    C3 3034   0.736   4.602   0.403 -0.1657  0.4722 -0.6282
  196MPD1    C4 3035   0.698   4.469   0.385  0.1315  0.1920 -0.1467
  196MPD1    C5 3036   0.607   4.441   0.282 -0.2187  0.2002  0.1953
  196MPD1     H 3037   0.716   0.069   0.329  1.5436 -0.1096 -1.6871
  196MPD1    H1 3038   0.718   4.396   0.463  0.7344 -0.6437 -1.0795
  196MPD1    H2 3039   0.514   4.508   0.102 -0.7234 -0.1163  1.2282
  196MPD1    H3 3040   0.553   4.349   0.265 -0.9075  0.5906  0.2694
  196MPD1     N 3041   0.834   4.626   0.506  0.3344 -0.1135  0.8092
  196MPD1    H5 3042   0.856   4.551   0.570  1.1482 -1.1360 -0.6796
  196MPD1    N1 3043   0.555   0.034   0.118  0.0862  0.0075 -0.1797
  196MPD1    H6 3044   0.556   0.011   0.019  1.1696  0.9007 -0.3671
  196MPD1    H7 3045   0.597   0.125   0.136 -0.7029  0.0019  1.6978
  197MPD1     C 3046   0.473   1.972  17.095  0.4885 -0.2825  0.5418
  197MPD1    C1 3047   0.416   2.092  17.110 -0.4814  0.0924  0.1091
  197MPD1    C2 3048   0.430   2.186  17.013 -0.1702  0.3581  0.1701
  197MPD1    C3 3049   0.473   2.145  16.889 -0.7235 -0.6153  0.0478
  197MPD1    C4 3050   0.519   2.018  16.861 -0.2421  0.6352 -0.5858
  197MPD1    C5 3051   0.517   1.934  16.971  1.0758  0.7876  0.2833
  197MPD1     H 3052   0.400   2.287  17.037 -1.3386 -0.1597  0.8895
  197MPD1    H1 3053   0.543   1.989  16.759  2.5594  1.6679 -0.2320
  197MPD1    H2 3054   0.466   1.895  17.171 -2.3967 -0.3856  0.1683
  197MPD1    H3 3055   0.562   1.837  16.957 -2.4899 -0.6688 -1.0173
  197MPD1     N 3056   0.477   2.235  16.776  0.0211  0.1448 -0.1404
  197MPD1    H5 3057   0.517   2.197  16.690  2.6404 -1.6288  1.8462
  197MPD1    N1 3058   0.356   2.127  17.227 -0.0320 -0.1377 -0.8676
  197MPD1    H6 3059   0.284   2.199  17.219 -1.1180 -0.7819  3.2195
  197MPD1    H7 3060   0.318   2.048  17.280 -0.5666  3.4743  4.1774
  198MPD1     C 3061   2.229   0.767  15.505 -0.2549 -1.1664 -0.1907
  198MPD1    C1 3062   2.200   0.634  15.531  0.0900  0.6400 -0.3137
  198MPD1    C2 3063   2.315   0.558  15.555 -0.1705 -0.3179  0.2004
  198MPD1    C3 3064   2.443   0.603  15.544 -1.0294  0.5069  0.6128
  198MPD1    C4 3065   2.464   0.734  15.499 -0.1059  0.2270  0.2623
  198MPD1    C5 3066   2.357   0.820  15.480 -0.2406 -0.3170  0.5912
  198MPD1     H 3067   2.304   0.451  15.565 -1.1725 -0.2941 -0.6538
  198MPD1    H1 3068   2.561   0.776  15.475  0.7765 -1.6054  0.5790
  198MPD1    H2 3069   2.147   0.838  15.507 -0.1470 -1.0235 -1.1488
  198MPD1    H3 3070   2.367   0.925  15.456 -0.5858 -0.3351  0.3598
  198MPD1     N 3071   2.556   0.518  15.564  0.1941 -0.3165  0.3770
  198MPD1    H5 3072   2.541   0.420  15.586  0.7562 -0.0249  2.0400
  198MPD1    N1 3073   2.070   0.579  15.536 -0.0051 -0.0045 -0.1317
  198MPD1    H6 3074   2.068   0.513  15.613 -1.3387  0.7361  0.4714
  198MPD1    H7 3075   1.996   0.648  15.550 -0.9364 -0.9970 -0.0966
  199MPD1     C 3076   4.715   1.687   9.935 -0.0651 -0.2513 -1.0434
  199MPD1    C1 3077   4.650   1.591   9.862  0.8479  0.0328  0.0748
  199MPD1    C2 3078   4.530   1.630   9.794  0.6881 -0.0359  0.0543
  199MPD1    C3 3079   4.467   1.750   9.819 -0.0032 -0.6901 -0.0520
  199MPD1    C4 3080   4.545   1.840   9.891  0.2693 -0.2393  0.0725
  199MPD1    C5 3081   4.662   1.815   9.952  0.3862  0.0504  0.8573
  199MPD1     H 3082   4.496   1.553   9.725 -1.2385  1.3569 -0.5386
  199MPD1    H1 3083   4.502   1.939   9.906  0.3966  0.0262 -1.2769
  199MPD1    H2 3084   0.069   1.654   9.989 -0.7359  0.5464  0.5389
  199MPD1    H3 3085   4.716   1.883  10.017 -0.0995  1.1016  0.1481
  199MPD1     N 3086   4.350   1.791   9.760  0.1602  0.2201  0.2290
  199MPD1    H5 3087   4.306   1.877   9.788 -0.2584  0.8063 -2.2097
  199MPD1    N1 3088   4.724   1.482   9.817  0.2318 -0.0218  0.1209
  199MPD1    H6 3089   0.050   1.442   9.889 -0.8198 -1.5912  0.1237
  199MPD1    H7 3090   4.662   1.407   9.787  1.1998  0.0439 -2.0284
  200MPD1     C 3091   4.312   2.701  14.797  0.4625 -0.0542 -0.5334
  200MPD1    C1 3092   4.362   2.627  14.691  0.6611  0.6513 -0.9401
  200MPD1    C2 3093   4.338   2.492  14.687 -0.3177 -0.0903 -0.3458
  200MPD1    C3 3094   4.257   2.431  14.782 -0.2988 -0.2533 -0.3966
  200MPD1    C4 3095   4.200   2.506  14.884  0.0874  0.0267  0.5724
  200MPD1    C5 3096   4.237   2.636  14.893  0.5157  0.4716 -0.4110
  200MPD1     H 3097   4.378   2.426  14.611  0.5907  0.6512 -0.5091
  200MPD1    H1 3098   4.142   2.463  14.965 -1.4054 -0.0096 -0.5172
  200MPD1    H2 3099   4.343   2.805  14.800 -1.0307  0.3578  0.1590
  200MPD1    H3 3100   4.216   2.690  14.984  1.9406  0.4886 -0.0905
  200MPD1     N 3101   4.217   2.295  14.766 -1.0581  0.0896  0.2350
  200MPD1    H5 3102   4.255   2.246  14.686  0.4316  0.9801  0.3893
  200MPD1    N1 3103   4.449   2.688  14.601  0.4993 -0.2191 -0.4042
  200MPD1    H6 3104   4.442   2.644  14.510 -1.8847 -0.3513 -0.1470
  200MPD1    H7 3105   4.417   2.782  14.577  1.1729 -0.4317 -2.1193
  201MPD1     C 3106   1.385   1.325  12.895 -0.2164 -0.2957  0.6946
  201MPD1    C1 3107   1.383   1.230  12.799  0.0716 -1.1463 -0.1920
  201MPD1    C2 3108   1.459   1.118  12.828 -0.7390  0.2189  0.1785
  201MPD1    C3 3109   1.531   1.095  12.943  0.7062  0.0373  0.3476
  201MPD1    C4 3110   1.543   1.202  13.027  0.7017 -0.2998  0.6549
  201MPD1    C5 3111   1.465   1.315  13.001  0.1335  0.0971  0.0430
  201MPD1     H 3112   1.465   1.044  12.750 -1.6837  0.8690 -0.5031
  201MPD1    H1 3113   1.601   1.199  13.118  0.4984  0.0596  0.7972
  201MPD1    H2 3114   1.331   1.418  12.887  1.3118  0.4522 -0.7575
  201MPD1    H3 3115   1.476   1.403  13.064 -0.3596  0.7985 -0.8457
  201MPD1     N 3116   1.582   0.969  12.973 -0.3085 -0.5784  0.4058
  201MPD1    H5 3117   1.561   0.892  12.911  0.3942  0.7684 -1.5095
  201MPD1    N1 3118   1.302   1.245  12.687 -0.4905 -0.4170  0.1125
  201MPD1    H6 3119   1.321   1.181  12.609 -1.2766 -3.6650  2.5712
  201MPD1    H7 3120   1.294   1.337  12.644 -1.7880 -0.7527 -0.3593
  202MPD1     C 3121   0.807   0.367   8.741 -0.0431 -0.1783 -0.6985
  202MPD1    C1 3122   0.904   0.265   8.762  0.2939 -0.4547 -0.0852
  202MPD1    C2 3123   0.955   0.256   8.889  0.7715  0.9062  0.3047
  202MPD1    C3 3124   0.903   0.322   8.996 -0.0842  0.3733 -0.5616
  202MPD1    C4 3125   0.798   0.412   8.975 -0.3150 -0.4415 -0.1865
  202MPD1    C5 3126   0.760   0.439   8.852 -0.5365 -0.4614  0.1661
  202MPD1     H 3127   1.056   0.217   8.896  0.6750  0.7069  0.5804
  202MPD1    H1 3128   0.755   0.456   9.065  1.7217  0.4617  0.3387
  202MPD1    H2 3129   0.761   0.384   8.645  0.8219 -0.7343 -1.2091
  202MPD1    H3 3130   0.685   0.516   8.838  1.0201  0.9466 -0.4397
  202MPD1     N 3131   0.948   0.303   9.128 -0.7979  0.1433 -0.2406
  202MPD1    H5 3132   0.903   0.358   9.200  0.5456 -0.7438  1.2804
  202MPD1    N1 3133   0.991   0.235   8.651  0.6630  0.2178 -0.4382
  202MPD1    H6 3134   1.043   0.152   8.676 -2.1627 -1.0093  1.2386
  202MPD1    H7 3135   0.945   0.217   8.562  0.2629  1.0483 -0.4015
  203MPD1     C 3136   4.469   1.490  12.537 -0.1696  0.1161 -0.0934
  203MPD1    C1 3137   4.504   1.433  12.420  0.1480 -0.1191  0.8050
  203MPD1    C2 3138   4.557   1.304  12.419  0.2507  0.4526  0.2416
  203MPD1    C3 3139   4.562   1.223  12.528  0.1486 -0.0438 -0.3783
  203MPD1    C4 3140   4.512   1.281  12.642  0.2190  0.3166  0.1463
  203MPD1    C5 3141   4.470   1.409  12.648 -0.2766 -0.3895  0.2099
  203MPD1     H 3142   4.603   1.274  12.325  1.6471 -1.1716  1.4399
  203MPD1    H1 3143   4.489   1.216  12.727 -3.0124 -0.7813 -1.5953
  203MPD1    H2 3144   4.443   1.594  12.548  0.9257  0.0485  3.3124
  203MPD1    H3 3145   4.440   1.449  12.743  0.2985 -1.1757  0.7228
  203MPD1     N 3146   4.633   1.095  12.533  0.5022  0.0223  0.6340
  203MPD1    H5 3147   4.673   1.067  12.444 -0.7206  1.2585 -0.2988
  203MPD1    N1 3148   4.509   1.505  12.300 -0.4097 -0.2806 -0.2854
  203MPD1    H6 3149   4.442   1.582  12.296 -1.2003 -1.0049 -1.1363
  203MPD1    H7 3150   4.509   1.443  12.219 -2.3089  1.0006 -1.2539
  204MPD1     C 3151   3.845   2.826  17.696 -0.8881  0.4847 -0.1765
  204MPD1    C1 3152   3.903   2.832  17.569  0.4874  0.2752 -0.0651
  204MPD1    C2 3153   3.986   2.735  17.530  0.5447  0.3720 -0.9568
  204MPD1    C3 3154   4.005   2.612  17.595 -0.4539  0.0550 -0.7452
  204MPD1    C4 3155   3.944   2.601  17.726  0.4748  0.3750 -0.0025
  204MPD1    C5 3156   3.873   2.711   0.037  0.5578 -0.3742 -0.3208
  204MPD1     H 3157   4.043   2.749  17.439  0.2785 -1.2468 -1.3702
  204MPD1    H1 3158   3.953   2.516   0.057 -0.1759  2.3111  2.5576
  204MPD1    H2 3159   3.779   2.901   0.003 -1.7425 -1.7440  2.4299
  204MPD1    H3 3160   3.824   2.691   0.132 -3.1033  0.4987 -2.0101
  204MPD1     N 3161   4.082   2.515  17.535 -0.0960  0.4833  0.2736
  204MPD1    H5 3162   4.123   2.543  17.447 -1.8499  1.1839 -0.3268
  204MPD1    N1 3163   3.908   2.961  17.508  1.1212 -0.0781  0.4286
  204MPD1    H6 3164   3.921   2.947  17.408 -0.8220  1.3160 -0.0205
  204MPD1    H7 3165   3.832   3.023  17.534  0.1995 -1.5302  1.2182
  205MPD1     C 3166   3.295   1.744  17.292 -0.7277 -0.2333 -0.4776
  205MPD1    C1 3167   3.274   1.614  17.254 -0.5269 -0.3562  0.7692
  205MPD1    C2 3168   3.371   1.520  17.296  0.1956 -0.1061  0.1444
  205MPD1    C3 3169   3.487   1.556  17.357  0.2676  0.0399 -0.0093
  205MPD1    C4 3170   3.508   1.690  17.386  0.7591  0.0010 -0.5550
  205MPD1    C5 3171   3.413   1.776  17.354  0.1901  0.5149  0.2220
  205MPD1     H 3172   3.351   1.415  17.283 -0.7092 -0.0443  1.0773
  205MPD1    H1 3173   3.602   1.731  17.423 -0.1123 -0.0389  1.6817
  205MPD1    H2 3174   3.234   1.830  17.271  0.4542  0.5388 -0.7744
  205MPD1    H3 3175   3.417   1.883  17.368  1.2941  0.5465 -0.3788
  205MPD1     N 3176   3.592   1.466  17.396 -0.2325  0.5677 -0.1183
  205MPD1    H5 3177   3.672   1.516  17.432 -0.4482  0.3860  0.6125
  205MPD1    N1 3178   3.144   1.581  17.203 -0.5607 -0.6365 -0.2492
  205MPD1    H6 3179   3.134   1.486  17.166  0.3347 -0.9491  0.2928
  205MPD1    H7 3180   3.096   1.650  17.147  2.4439 -0.0669 -2.1001
  206MPD1     C 3181   4.311   4.114  17.371 -0.2239 -0.1977 -0.4036
  206MPD1    C1 3182   4.257   3.994  17.345  0.0917 -0.4600 -0.1617
  206MPD1    C2 3183   4.257   3.944  17.215  0.7555  0.2484 -0.1046
  206MPD1    C3 3184   4.307   4.026  17.112 -0.2827 -0.1210  0.2613
  206MPD1    C4 3185   4.366   4.147  17.141 -0.1245  0.0687 -0.5884
  206MPD1    C5 3186   4.355   4.200  17.268  0.7781  0.3790  0.6707
  206MPD1     H 3187   4.223   3.843  17.197  2.8009 -0.8101  1.9858
  206MPD1    H1 3188   4.414   4.199  17.059 -0.9043 -0.2622 -1.2638
  206MPD1    H2 3189   4.330   4.146  17.473 -0.3053  1.9187 -1.0499
  206MPD1    H3 3190   4.400   4.294  17.300  2.1655  0.8947 -2.7420
  206MPD1     N 3191   4.314   3.981  16.980  0.0822  0.3799 -0.2414
  206MPD1    H5 3192   4.352   4.047  16.913 -2.8840  2.6053  0.2547
  206MPD1    N1 3193   4.218   3.909  17.455  0.7638  0.0394  0.0428
  206MPD1    H6 3194   4.197   3.960  17.541 -1.1996  2.2859 -1.7914
  206MPD1    H7 3195   4.151   3.833  17.447 -1.0017  1.5397  0.5333
  207MPD1     C 3196   2.358   0.911  10.068  0.7450  0.5956  0.8037
  207MPD1    C1 3197   2.395   1.017   9.994  0.1408  0.6835 -0.8115
  207MPD1    C2 3198   2.460   1.120  10.046 -0.0876  0.7541 -0.0958
  207MPD1    C3 3199   2.511   1.121  10.174  0.2066 -0.0095  0.1533
  207MPD1    C4 3200   2.487   1.009  10.244  0.2439  0.8238  0.1371
  207MPD1    C5 3201   2.402   0.915  10.200 -0.9918  0.1184 -0.5755
  207MPD1     H 3202   2.480   1.207   9.985 -0.3933  0.0879 -1.1420
  207MPD1    H1 3203   2.489   1.015  10.352  0.0460 -1.1607  0.2404
  207MPD1    H2 3204   2.303   0.827  10.028  4.2773 -1.3885  0.0240
  207MPD1    H3 3205   2.380   0.833  10.268  0.5507 -1.5508 -2.0792
  207MPD1     N 3206   2.587   1.230  10.227  1.1223  0.0386 -0.6118
  207MPD1    H5 3207   2.636   1.206  10.313  0.6989  0.1277 -0.3434
  207MPD1    N1 3208   2.337   1.035   9.868  0.4300 -0.0550  0.2869
  207MPD1    H6 3209   2.341   0.948   9.815 -0.6352  0.2026 -0.2329
  207MPD1    H7 3210   2.393   1.105   9.819  0.4869  0.3705  0.9696
  208MPD1     C 3211   0.084   0.789  17.067 -0.6463 -0.2197 -0.6926
  208MPD1    C1 3212   4.707   0.837  17.136  0.0283 -0.1400 -0.1712
  208MPD1    C2 3213   4.665   0.770  17.244 -0.1381 -1.3198  0.0769
  208MPD1    C3 3214   0.006   0.672  17.306 -0.1617 -0.1110 -0.6811
  208MPD1    C4 3215   0.129   0.637  17.248  0.0824  0.2216  0.2384
  208MPD1    C5 3216   0.165   0.694  17.129 -0.0712  0.3071  0.4294
  208MPD1     H 3217   4.559   0.782  17.262 -0.1270 -1.0369 -0.0550
  208MPD1    H1 3218   0.198   0.565  17.291  0.9417  1.5190  1.0129
  208MPD1    H2 3219   0.111   0.823  16.968 -1.1239  3.1159  0.3389
  208MPD1    H3 3220   0.257   0.662  17.081  0.4195  0.5959  1.1788
  208MPD1     N 3221   4.682   0.601  17.415 -0.1019  0.0358  0.1075
  208MPD1    H5 3222   4.587   0.629  17.439  0.8005  1.4461  1.9901
  208MPD1    N1 3223   4.623   0.929  17.066  0.6592  0.3597 -0.5352
  208MPD1    H6 3224   4.682   0.982  17.002 -1.3694 -0.0118 -2.6910
  208MPD1    H7 3225   4.574   0.999  17.122  0.1640  0.1058 -0.6590
  209MPD1     C 3226   2.435   0.656  10.931  0.1397  0.1429 -0.2570
  209MPD1    C1 3227   2.508   0.757  10.875 -0.0982 -0.5346 -0.5732
  209MPD1    C2 3228   2.565   0.844  10.953  0.0644  0.0513  0.0682
  209MPD1    C3 3229   2.525   0.855  11.082  0.4148 -0.0499  0.1108
  209MPD1    C4 3230   2.445   0.754  11.144 -0.6682  0.0017 -0.1075
  209MPD1    C5 3231   2.409   0.647  11.064  0.1602  0.5254 -0.1808
  209MPD1     H 3232   2.630   0.918  10.908  0.8774 -0.2166  0.8182
  209MPD1    H1 3233   2.426   0.744  11.250  0.1999  4.4150  0.4661
  209MPD1    H2 3234   2.393   0.575  10.873 -2.1879  0.4355  1.0307
  209MPD1    H3 3235   2.349   0.566  11.104 -0.8283  0.6880 -1.3390
  209MPD1     N 3236   2.569   0.968  11.158  0.2632 -0.1630 -0.0534
  209MPD1    H5 3237   2.612   1.040  11.101 -0.3287  0.8055  0.7034
  209MPD1    N1 3238   2.556   0.730  10.751  0.1345  0.4340 -0.2711
  209MPD1    H6 3239   2.482   0.696  10.689  1.0365 -1.0639 -0.5416
  209MPD1    H7 3240   2.578   0.823  10.718 -0.0624  0.4224 -0.4403
  210MPD1     C 3241   2.705   1.344  12.111  0.0143 -0.5179  0.0120
  210MPD1    C1 3242   2.708   1.452  12.024 -0.0175 -0.5624 -0.2055
  210MPD1    C2 3243   2.671   1.432  11.892 -0.1158  0.4594  0.2385
  210MPD1    C3 3244   2.638   1.303  11.841  0.3268 -0.0132  0.4876
  210MPD1    C4 3245   2.636   1.201  11.925 -0.2005  0.5693 -0.5453
  210MPD1    C5 3246   2.668   1.223  12.057 -0.5364 -0.3820 -0.6225
  210MPD1     H 3247   2.679   1.510  11.817 -1.9422 -2.0351 -2.5932
  210MPD1    H1 3248   2.597   1.101  11.905  0.9022  0.0910 -0.3031
  210MPD1    H2 3249   2.726   1.352  12.217  0.5042 -1.9428  0.0175
  210MPD1    H3 3250   2.651   1.148  12.133  1.4033 -1.3747 -1.1620
  210MPD1     N 3251   2.619   1.280  11.701  0.3469 -0.0270 -0.0635
  210MPD1    H5 3252   2.608   1.183  11.673  1.6107  0.2200 -1.4030
  210MPD1    N1 3253   2.715   1.579  12.084  0.2621 -0.7949 -0.1521
  210MPD1    H6 3254   2.753   1.649  12.020  1.4044 -1.2996 -0.0277
  210MPD1    H7 3255   2.780   1.581  12.163 -2.5798 -1.0608  2.1536
  211MPD1     C 3256   4.492   0.292  17.249 -0.7610  0.9878 -0.1825
  211MPD1    C1 3257   4.549   0.390  17.176  0.3402 -0.2013  0.8991
  211MPD1    C2 3258   4.471   0.494  17.131  0.4881  0.7346  0.5210
  211MPD1    C3 3259   4.337   0.506  17.168 -0.9551 -0.6071  0.3223
  211MPD1    C4 3260   4.287   0.403  17.244 -0.1305  0.3289  0.3315
  211MPD1    C5 3261   4.369   0.306  17.294  0.3486  0.0740 -0.4269
  211MPD1     H 3262   4.513   0.560  17.055 -0.1165 -0.3091 -0.7167
  211MPD1    H1 3263   4.184   0.406  17.275  0.2252  0.6380  1.4995
  211MPD1    H2 3264   4.552   0.207  17.282  0.4392  2.2301  0.8439
  211MPD1    H3 3265   4.333   0.237  17.369  2.2759 -1.2168 -0.6739
  211MPD1     N 3266   4.261   0.607  17.107 -0.4177  0.2294 -0.3332
  211MPD1    H5 3267   4.304   0.679  17.049 -0.4966 -0.5136 -1.3106
  211MPD1    N1 3268   4.681   0.378  17.139  0.3705  0.4131  0.3212
  211MPD1    H6 3269   4.726   0.318  17.207  1.7218  0.4570 -0.5443
  211MPD1    H7 3270   0.004   0.460  17.123  2.1086 -0.6972  0.8625
  212MPD1     C 3271   4.255   4.058  16.293 -0.0612  0.1082  0.3107
  212MPD1    C1 3272   4.196   4.113  16.403 -0.3121 -0.0849 -0.1082
  212MPD1    C2 3273   4.086   4.054  16.464 -0.3483  0.4146 -0.3257
  212MPD1    C3 3274   4.034   3.937  16.417 -0.4433 -0.4503  0.1121
  212MPD1    C4 3275   4.084   3.883  16.301 -0.0378 -1.0382 -0.1809
  212MPD1    C5 3276   4.198   3.943  16.247  0.5402  0.3038 -0.6776
  212MPD1     H 3277   4.040   4.104  16.548  0.1760  1.4473 -0.6506
  212MPD1    H1 3278   4.043   3.793  16.256  2.2913 -2.0338 -0.2820
  212MPD1    H2 3279   4.333   4.106  16.234 -0.4453  1.4004  0.8681
  212MPD1    H3 3280   4.236   3.899  16.155 -0.8918 -2.6689  0.1419
  212MPD1     N 3281   3.921   3.873  16.474  0.4632  0.2500  0.2399
  212MPD1    H5 3282   3.889   3.783  16.440 -0.6094  1.1294 -1.0561
  212MPD1    N1 3283   4.227   4.244  16.446  0.3205 -0.6569  0.1125
  212MPD1    H6 3284   4.326   4.255  16.468  0.7109 -0.5619 -1.6367
  212MPD1    H7 3285   4.190   4.278  16.534  2.5081  1.1855  0.3419
  213MPD1     C 3286   1.948   4.705  14.658 -0.1446 -0.9950  0.2494
  213MPD1    C1 3287   2.038   0.065  14.707 -0.6846  0.2576 -0.6377
  213MPD1    C2 3288   2.007   0.115  14.827 -0.3756  0.5324 -0.4858
  213MPD1    C3 3289   1.932   0.051  14.923  0.3547 -0.2596 -0.4690
  213MPD1    C4 3290   1.881   4.662  14.884  1.0971  0.7168 -0.0121
  213MPD1    C5 3291   1.881   4.630  14.752 -0.1952 -0.3031  0.6165
  213MPD1     H 3292   2.050   0.208  14.861 -1.5722  0.8387  0.2054
  213MPD1    H1 3293   1.840   4.601  14.964  0.8846  1.6083  0.5635
  213MPD1    H2 3294   1.941   4.687  14.551  1.3560 -2.2419  0.3580
  213MPD1    H3 3295   1.825   4.541  14.726 -3.3642  1.4610  1.4746
  213MPD1     N 3296   1.915   0.114  15.051  0.5397 -0.3985  0.3485
  213MPD1    H5 3297   1.968   0.200  15.058 -1.2308  0.6468  1.0439
  213MPD1    N1 3298   2.089   0.156  14.615  0.3479 -0.2074  0.2472
  213MPD1    H6 3299   2.115   0.120  14.523 -2.0699  0.0224 -0.5085
  213MPD1    H7 3300   2.164   0.213  14.654  0.1546 -0.7782  1.4362
  214MPD1     C 3301   1.162   0.508  15.021  0.5943  0.0638 -0.2143
  214MPD1    C1 3302   1.269   0.587  15.008 -0.0126  0.6437 -0.2305
  214MPD1    C2 3303   1.377   0.564  15.097 -0.4670 -0.2275  0.5444
  214MPD1    C3 3304   1.381   0.442  15.168 -0.0797  0.0114 -1.1327
  214MPD1    C4 3305   1.263   0.370  15.181  0.3150  0.0691 -0.3433
  214MPD1    C5 3306   1.158   0.402  15.109  0.2486 -0.3761  0.1189
  214MPD1     H 3307   1.465   0.627  15.086 -0.4042  0.1570  3.3020
  214MPD1    H1 3308   1.248   0.279  15.238 -0.6571 -0.9720 -2.2565
  214MPD1    H2 3309   1.069   0.531  14.971 -0.6080 -0.8964  1.5426
  214MPD1    H3 3310   1.072   0.336  15.120  0.8932 -1.5163 -1.5698
  214MPD1     N 3311   1.495   0.406  15.246  0.8704  0.1102  0.3313
  214MPD1    H5 3312   1.484   0.327  15.308 -1.3847 -0.6998 -1.0994
  214MPD1    N1 3313   1.257   0.704  14.931  0.1208  0.3493 -0.6217
  214MPD1    H6 3314   1.191   0.696  14.853  0.4965 -0.0742 -0.8903
  214MPD1    H7 3315   1.343   0.735  14.887  1.4947 -1.6127  0.6782
  215MPD1     C 3316   2.223   0.445  10.159 -0.4715 -0.1553 -0.2752
  215MPD1    C1 3317   2.149   0.548  10.120  0.3467 -0.4828 -0.8346
  215MPD1    C2 3318   2.135   0.653  10.207  0.0219  0.2292  0.4490
  215MPD1    C3 3319   2.196   0.646  10.338 -0.1794  0.2527  0.4992
  215MPD1    C4 3320   2.286   0.552  10.368 -0.1880 -0.9953  0.0189
  215MPD1    C5 3321   2.294   0.448  10.276 -0.6948 -0.8486  0.8772
  215MPD1     H 3322   2.060   0.730  10.191 -0.3265 -0.5103 -1.4395
  215MPD1    H1 3323   2.336   0.534  10.462 -0.8173  1.3254  0.8017
  215MPD1    H2 3324   2.236   0.362  10.090 -0.1076  2.2030 -3.0494
  215MPD1    H3 3325   2.365   0.368  10.293  0.8151  0.2381 -0.3667
  215MPD1     N 3326   2.180   0.764  10.414  0.2425 -0.2572 -0.8224
  215MPD1    H5 3327   2.118   0.835  10.378  0.3916  1.6836  2.7390
  215MPD1    N1 3328   2.075   0.529  10.000  0.1226 -0.0175 -0.4787
  215MPD1    H6 3329   2.057   0.618   9.954 -0.5674  1.1910  2.1631
  215MPD1    H7 3330   2.128   0.473   9.934 -0.1463 -0.8438  0.0117
  216MPD1     C 3331   3.404   4.005  17.472  0.2418 -0.0748 -0.6392
  216MPD1    C1 3332   3.326   3.959  17.576 -0.4132  0.0097  0.3004
  216MPD1    C2 3333   3.287   3.826  17.574  0.0549  0.0835 -0.0144
  216MPD1    C3 3334   3.313   3.739  17.472  0.4544  0.1312  0.3670
  216MPD1    C4 3335   3.376   3.795  17.367 -0.4718 -0.2116  0.7000
  216MPD1    C5 3336   3.423   3.922  17.372  0.0439 -0.2295  0.5100
  216MPD1     H 3337   3.238   3.799  17.667  0.7966 -1.0076  0.0530
  216MPD1    H1 3338   3.391   3.743  17.273 -0.6147 -0.0900  0.6087
  216MPD1    H2 3339   3.432   4.109  17.478 -1.3753  0.4769 -2.9271
  216MPD1    H3 3340   3.487   3.958  17.293 -0.8943 -0.9958 -0.6045
  216MPD1     N 3341   3.268   3.606  17.473  0.4006 -0.9826  0.5400
  216MPD1    H5 3342   3.216   3.584  17.556 -0.3545 -0.1778  0.2779
  216MPD1    N1 3343   3.304   4.034  17.695 -0.1673  0.7439 -0.0675
  216MPD1    H6 3344   3.230   4.007   0.024 -0.5475  1.0729 -0.3663
  216MPD1    H7 3345   3.306   4.135  17.683 -0.1486  0.6688 -0.7255
  217MPD1     C 3346   0.323   0.936   8.192  0.8478 -0.3423 -0.3664
  217MPD1    C1 3347   0.203   0.968   8.262  0.2644 -0.2241 -0.8293
  217MPD1    C2 3348   0.156   0.884   8.355  0.4991 -0.0073 -0.5099
  217MPD1    C3 3349   0.224   0.765   8.384 -0.0952  0.1626  0.3987
  217MPD1    C4 3350   0.346   0.744   8.331 -0.0488  0.0584 -0.2266
  217MPD1    C5 3351   0.393   0.827   8.235  0.3655 -0.0635 -0.3211
  217MPD1     H 3352   0.065   0.906   8.411  0.8990  1.0095 -0.2664
  217MPD1    H1 3353   0.407   0.658   8.357  0.0650  0.9694  2.5071
  217MPD1    H2 3354   0.375   0.999   8.120  0.7317 -0.6675 -0.7331
  217MPD1    H3 3355   0.493   0.820   8.194 -0.2913 -0.6159 -1.8609
  217MPD1     N 3356   0.181   0.671   8.483 -0.1772  0.6934  0.2756
  217MPD1    H5 3357   0.243   0.594   8.508  0.5617  0.3124 -2.6892
  217MPD1    N1 3358   0.130   1.086   8.236 -0.0743  0.3400  0.1325
  217MPD1    H6 3359   0.187   1.163   8.200 -1.7717  2.6442  2.3129
  217MPD1    H7 3360   0.083   1.126   8.317  1.1587  0.3251  0.8484
  218MPD1     C 3361   1.300   1.576  12.668  0.0824 -0.7105 -0.2333
  218MPD1    C1 3362   1.341   1.537  12.540  0.2545  0.3909  0.3209
  218MPD1    C2 3363   1.471   1.553  12.505  0.3185  0.8960 -1.1275
  218MPD1    C3 3364   1.565   1.611  12.589 -0.3455 -1.3647  0.4817
  218MPD1    C4 3365   1.529   1.660  12.715 -0.3085  0.5964  0.4093
  218MPD1    C5 3366   1.391   1.644  12.746  0.1409 -0.2926  0.3035
  218MPD1     H 3367   1.513   1.516  12.412  1.3317 -1.6783  0.3629
  218MPD1    H1 3368   1.595   1.714  12.782  0.3459 -0.1711  0.3775
  218MPD1    H2 3369   1.200   1.554  12.703  0.1380 -1.4313 -0.5230
  218MPD1    H3 3370   1.360   1.677  12.844 -0.6734 -1.1363  0.3318
  218MPD1     N 3371   1.699   1.619  12.536 -0.0911 -0.4007 -0.4570
  218MPD1    H5 3372   1.713   1.590  12.440 -0.1237 -1.3266 -0.1890
  218MPD1    N1 3373   1.247   1.473  12.461 -0.3032 -0.2434 -0.0174
  218MPD1    H6 3374   1.273   1.480  12.362  2.6744  1.3251  0.8778
  218MPD1    H7 3375   1.146   1.479  12.468 -0.4163 -2.5231  0.2019
  219MPD1     C 3376   2.289   1.885  11.774  0.5580 -0.6694  0.6004
  219MPD1    C1 3377   2.156   1.899  11.812 -0.2492 -0.1901 -0.2617
  219MPD1    C2 3378   2.122   1.842  11.937  0.1796  0.0164 -0.3350
  219MPD1    C3 3379   2.217   1.794  12.029  0.1564 -0.4774 -0.2867
  219MPD1    C4 3380   2.350   1.796  11.995 -0.1703 -1.0571 -0.4984
  219MPD1    C5 3381   2.385   1.836  11.865  0.0773  0.1499  0.0800
  219MPD1     H 3382   2.015   1.838  11.953 -0.2735  1.7911 -2.8814
  219MPD1    H1 3383   2.424   1.744  12.056  0.6231 -0.1704 -0.7047
  219MPD1    H2 3384   2.326   1.912  11.676 -2.0877  1.6830  0.2520
  219MPD1    H3 3385   2.490   1.831  11.839  0.3640 -3.6374  2.0854
  219MPD1     N 3386   2.187   1.733  12.151  0.2468 -0.9534 -0.5182
  219MPD1    H5 3387   2.267   1.729  12.213  0.7372 -1.6718 -1.2033
  219MPD1    N1 3388   2.056   1.924  11.717  0.1842 -0.4053  0.0437
  219MPD1    H6 3389   2.088   1.989  11.645 -0.0852 -1.9042 -1.4243
  219MPD1    H7 3390   1.968   1.959  11.753  0.0546  0.3122 -0.9467
  220MPD1     C 3391   1.662   1.132  11.431 -0.0239 -0.6546  0.1508
  220MPD1    C1 3392   1.764   1.212  11.378  0.7311  0.0178  0.5995
  220MPD1    C2 3393   1.720   1.333  11.314 -1.1389  0.7232  0.0198
  220MPD1    C3 3394   1.590   1.361  11.309 -0.1171 -0.1511  0.4138
  220MPD1    C4 3395   1.493   1.283  11.371 -0.3419  0.2031 -0.2164
  220MPD1    C5 3396   1.535   1.177  11.446 -0.4121 -0.6437 -0.1732
  220MPD1     H 3397   1.798   1.387  11.261 -0.5621  1.4833  1.6633
  220MPD1    H1 3398   1.391   1.315  11.383 -0.6159 -0.6322 -0.3134
  220MPD1    H2 3399   1.680   1.028  11.454  1.3435 -1.0053 -2.5765
  220MPD1    H3 3400   1.457   1.113  11.484 -1.9924  1.2287 -0.2722
  220MPD1     N 3401   1.556   1.465  11.224  0.0879  0.2003  0.2178
  220MPD1    H5 3402   1.634   1.511  11.177  1.8553 -1.7147  1.2949
  220MPD1    N1 3403   1.899   1.172  11.356  0.3033  0.1399  0.3515
  220MPD1    H6 3404   1.937   1.105  11.422  2.8018 -0.4795 -1.6858
  220MPD1    H7 3405   1.962   1.250  11.341  0.2232 -0.4874 -3.4384
  221MPD1     C 3406   3.879   0.459  15.846  0.7525  0.1519  0.2178
  221MPD1    C1 3407   3.965   0.534  15.770 -0.3043 -0.7830  0.8339
  221MPD1    C2 3408   4.094   0.552  15.818 -0.0266 -0.4544 -0.3503
  221MPD1    C3 3409   4.132   0.483  15.934  0.1410  0.1189 -0.1421
  221MPD1    C4 3410   4.043   0.404  16.002 -0.1212  0.0688  0.5269
  221MPD1    C5 3411   3.911   0.406  15.964  0.2765  0.3193 -0.5854
  221MPD1     H 3412   4.163   0.615  15.764 -1.0205 -0.4162 -1.5648
  221MPD1    H1 3413   4.077   0.348  16.088  3.5387  0.1539 -0.8911
  221MPD1    H2 3414   3.777   0.439  15.814  0.9231  0.9245 -0.8113
  221MPD1    H3 3415   3.835   0.360  16.026  1.6480 -0.1402  0.7542
  221MPD1     N 3416   4.265   0.480  15.982  0.4961  0.7527  1.1808
  221MPD1    H5 3417   4.282   0.416  16.058 -0.1489 -0.0887  0.6087
  221MPD1    N1 3418   3.921   0.588  15.651 -0.4495 -0.0572  0.1869
  221MPD1    H6 3419   3.819   0.594  15.651 -0.5247 -1.3396  0.5770
  221MPD1    H7 3420   3.964   0.680  15.646 -0.7736  0.1098  0.4770
  222MPD1     C 3421   4.063   4.462  16.988  0.2724  0.3302 -0.3649
  222MPD1    C1 3422   3.962   4.526  16.927 -0.2245  0.4475 -0.4072
  222MPD1    C2 3423   3.849   4.559  17.002 -0.1634  0.0637  0.5078
  222MPD1    C3 3424   3.829   4.517  17.135 -0.3704  0.5841 -0.6292
  222MPD1    C4 3425   3.943   4.457  17.194 -0.2771 -0.1434 -0.0655
  222MPD1    C5 3426   4.055   4.424  17.120  0.4142  0.1579  0.5369
  222MPD1     H 3427   3.764   4.607  16.954  0.8842  0.2679 -1.1554
  222MPD1    H1 3428   3.950   4.438  17.300  1.4291 -1.1567 -0.3527
  222MPD1    H2 3429   4.156   4.437  16.939  0.3199  0.2184 -0.2179
  222MPD1    H3 3430   4.136   4.363  17.158 -0.6955 -1.4868  0.2522
  222MPD1     N 3431   3.714   4.552  17.208 -0.0138  0.7013  0.0436
  222MPD1    H5 3432   3.713   4.548  17.310  1.0636  3.1012  0.1404
  222MPD1    N1 3433   3.981   4.578  16.798 -0.0524 -0.7561  0.6963
  222MPD1    H6 3434   3.903   4.608  16.741  0.6768 -1.6900 -0.7887
  222MPD1    H7 3435   4.044   4.526  16.738 -1.6126 -0.9585 -0.7525
  223MPD1     C 3436   2.615   4.566  17.208  0.2007  0.1109 -0.1745
  223MPD1    C1 3437   2.653   4.569  17.339  1.3197 -0.2072  0.0793
  223MPD1    C2 3438   2.792   4.586  17.369  0.0479  0.0972  0.8830
  223MPD1    C3 3439   2.882   4.587  17.266  0.4408  0.3038  0.7441
  223MPD1    C4 3440   2.832   4.586  17.138 -0.0592  0.3036 -0.0621
  223MPD1    C5 3441   2.701   4.569  17.105 -0.2088  0.1474  0.5324
  223MPD1     H 3442   2.823   4.605  17.471 -1.0854  0.5495  1.1363
  223MPD1    H1 3443   2.904   4.608  17.061  0.4129 -3.6332 -0.7221
  223MPD1    H2 3444   2.510   4.556  17.184 -0.1015 -1.0998  1.6231
  223MPD1    H3 3445   2.666   4.564  17.003  0.3406  0.6375  0.3151
  223MPD1     N 3446   3.019   4.608  17.296  0.0554  0.1594 -0.1430
  223MPD1    H5 3447   3.052   4.619  17.392 -0.6249 -0.4815  0.1586
  223MPD1    N1 3448   2.552   4.591  17.437 -0.3048 -0.2481  0.7268
  223MPD1    H6 3449   2.460   4.554  17.412 -0.3191  0.4805 -0.3353
  223MPD1    H7 3450   2.574   4.560  17.531  0.7585  0.6595  0.7795
  224MPD1     C 3451   0.228   0.933   8.801 -0.0930 -0.6987  0.3951
  224MPD1    C1 3452   0.173   1.018   8.889  0.5502  0.3346  0.0098
  224MPD1    C2 3453   0.156   0.988   9.027  0.6589  0.1333  0.5589
  224MPD1    C3 3454   0.205   0.865   9.071  0.3401 -0.1749 -0.2496
  224MPD1    C4 3455   0.278   0.785   8.985 -0.2191 -0.2439 -0.0569
  224MPD1    C5 3456   0.283   0.816   8.851  0.1766  0.0366  0.4008
  224MPD1     H 3457   0.091   1.046   9.091  2.1722  2.2010  0.2349
  224MPD1    H1 3458   0.325   0.694   9.020  0.0315  0.6317  1.9180
  224MPD1    H2 3459   0.212   0.952   8.695  0.1406 -1.4473  0.2261
  224MPD1    H3 3460   0.332   0.748   8.784 -0.7412  0.5068 -0.7472
  224MPD1     N 3461   0.207   0.824   9.200 -0.3998 -0.4609  0.2358
  224MPD1    H5 3462   0.230   0.728   9.225 -1.2324 -1.9024 -4.5768
  224MPD1    N1 3463   0.112   1.136   8.835 -0.9048  0.2107  0.4251
  224MPD1    H6 3464   0.138   1.164   8.740  1.3833 -1.2929  0.6158
  224MPD1    H7 3465   0.131   1.210   8.902  1.3664 -1.1476  1.2602
  225MPD1     C 3466   1.979   2.136  12.399 -0.5038  0.0533  0.5129
  225MPD1    C1 3467   1.900   2.066  12.303  0.6114  0.7983 -0.3021
  225MPD1    C2 3468   1.772   2.028  12.342  0.1717 -0.5311  0.1002
  225MPD1    C3 3469   1.722   2.053  12.467 -0.2321  0.5920  0.6533
  225MPD1    C4 3470   1.798   2.126  12.551 -0.0620 -0.2744 -0.4465
  225MPD1    C5 3471   1.920   2.172  12.519 -1.0971  0.1104  0.4829
  225MPD1     H 3472   1.718   1.970  12.268  1.5908  0.3100 -1.6030
  225MPD1    H1 3473   1.768   2.152  12.653  1.8405  0.5264 -0.1015
  225MPD1    H2 3474   2.079   2.173  12.384  1.0420 -2.6479  4.3654
  225MPD1    H3 3475   1.980   2.228  12.591 -0.4179 -1.2542  0.9843
  225MPD1     N 3476   1.598   2.011  12.518  0.6463 -0.6324  0.4192
  225MPD1    H5 3477   1.573   2.054  12.606 -0.6018 -1.4216  0.4464
  225MPD1    N1 3478   1.943   2.061  12.173  0.4704  0.4151  0.2915
  225MPD1    H6 3479   1.887   2.000  12.114  0.7787  0.9472 -0.5554
  225MPD1    H7 3480   2.038   2.026  12.164  0.2117 -0.0968 -0.4435
  226MPD1     C 3481   0.040   2.531  10.026  0.5565 -0.1575  0.0149
  226MPD1    C1 3482   4.652   2.471  10.046 -0.6025  0.6043 -0.5615
  226MPD1    C2 3483   4.620   2.368   9.968  0.6793 -0.1162 -0.1992
  226MPD1    C3 3484   4.701   2.318   9.863 -0.2978  0.5394  0.4825
  226MPD1    C4 3485   0.094   2.379   9.849 -0.2620 -0.0673 -0.9960
  226MPD1    C5 3486   0.126   2.488   9.928  0.2950 -0.3131  0.1999
  226MPD1     H 3487   4.529   2.313   9.986  1.0009 -0.4985  0.2549
  226MPD1    H1 3488   0.166   2.349   9.773 -0.2990 -0.6389 -0.8067
  226MPD1    H2 3489   0.080   2.617  10.078 -1.2781  1.4476 -1.2072
  226MPD1    H3 3490   0.221   2.536   9.908 -0.8551  1.3492 -1.2572
  226MPD1     N 3491   4.649   2.215   9.780  0.1748  0.7281 -0.5560
  226MPD1    H5 3492   4.548   2.215   9.772  0.1345  0.4475 -0.0261
  226MPD1    N1 3493   4.586   2.488  10.169 -0.0647  0.0205 -0.2816
  226MPD1    H6 3494   4.612   2.583  10.195  2.4037 -0.9275  0.7049
  226MPD1    H7 3495   4.486   2.479  10.155 -0.2348  0.7621  0.4686
  227MPD1     C 3496   4.500   2.620   9.020 -0.6160 -0.0645 -0.5626
  227MPD1    C1 3497   4.619   2.601   9.084 -0.1843  0.2130 -0.1720
  227MPD1    C2 3498   4.615   2.504   9.182 -0.0417 -0.5961 -1.2715
  227MPD1    C3 3499   4.508   2.430   9.225 -0.0904  0.8659 -0.5897
  227MPD1    C4 3500   4.392   2.471   9.174 -0.9380  0.4989 -0.9749
  227MPD1    C5 3501   4.388   2.557   9.068  0.1631  0.2393 -0.4105
  227MPD1     H 3502   4.706   2.482   9.237 -1.2270  0.6726  1.1816
  227MPD1    H1 3503   4.296   2.428   9.200 -0.8474  0.4341 -0.7515
  227MPD1    H2 3504   4.493   2.692   8.940  3.5876 -0.8200 -1.5879
  227MPD1    H3 3505   4.294   2.571   9.017  0.0477  3.1827  0.6256
  227MPD1     N 3506   4.515   2.323   9.318 -0.2662  0.2695  1.0430
  227MPD1    H5 3507   4.606   2.294   9.355 -0.2968 -0.2602  0.7110
  227MPD1    N1 3508   0.003   2.645   9.022 -0.5181  0.5706 -0.4781
  227MPD1    H6 3509   4.715   2.733   8.975 -2.9162  0.7877  1.0431
  227MPD1    H7 3510   0.076   2.673   9.087 -1.2196 -0.0682  0.5815
  228MPD1     C 3511   3.352   0.217  13.280  0.7314 -0.4740  0.0447
  228MPD1    C1 3512   3.252   0.155  13.359 -0.2308  0.2697 -0.0510
  228MPD1    C2 3513   3.209   0.035  13.321  0.0989  0.3115 -0.4920
  228MPD1    C3 3514   3.260   4.689  13.221  0.8269 -0.6322 -0.4291
  228MPD1    C4 3515   3.368   0.011  13.154  0.0270  0.0889 -0.1951
  228MPD1    C5 3516   3.403   0.138  13.177 -0.0800  0.3448  0.1337
  228MPD1     H 3517   3.116   0.003  13.366  0.1350 -1.8268 -1.9490
  228MPD1    H1 3518   3.426   4.688  13.083 -0.0891  0.8780 -0.9253
  228MPD1    H2 3519   3.390   0.317  13.291  0.9045 -0.2922 -2.3468
  228MPD1    H3 3520   3.490   0.181  13.129  1.2227 -2.0536  0.3261
  228MPD1     N 3521   3.206   4.566  13.194  0.0932  0.2375 -0.3453
  228MPD1    H5 3522   3.119   4.543  13.242  0.0021  1.6439  0.1462
  228MPD1    N1 3523   3.171   0.242  13.433 -0.2852  0.1010  0.0588
  228MPD1    H6 3524   3.105   0.200  13.498  0.3525 -2.2297 -0.7854
  228MPD1    H7 3525   3.223   0.320  13.471 -0.6519  1.7123 -2.7291
  229MPD1     C 3526   2.803   3.422  14.176 -0.3287 -0.8628 -0.1366
  229MPD1    C1 3527   2.748   3.422  14.299 -0.0046 -0.0651  0.3492
  229MPD1    C2 3528   2.812   3.357  14.403 -0.4598 -0.5861  0.0237
  229MPD1    C3 3529   2.924   3.283  14.380  0.4694  0.1829  0.2423
  229MPD1    C4 3530   2.973   3.284  14.252 -0.2637 -0.1038  0.0147
  229MPD1    C5 3531   2.915   3.354  14.157  0.6355  0.1522  0.2075
  229MPD1     H 3532   2.776   3.373  14.504 -1.9355  0.7793 -0.7157
  229MPD1    H1 3533   3.065   3.231  14.231  0.1219  1.2360 -1.6979
  229MPD1    H2 3534   2.768   3.485  14.095  0.5907 -2.3960 -1.7094
  229MPD1    H3 3535   2.949   3.369  14.055  1.5490  1.0181  0.6382
  229MPD1     N 3536   2.981   3.199  14.484 -0.4354 -0.5742  0.0034
  229MPD1    H5 3537   3.046   3.127  14.455 -0.2887  0.0371 -1.1712
  229MPD1    N1 3538   2.636   3.503  14.321 -0.0603  0.2436 -0.0443
  229MPD1    H6 3539   2.599   3.488  14.414  1.1596 -0.0521  0.3991
  229MPD1    H7 3540   2.569   3.490  14.246  0.2654  1.4296 -0.5365
  230MPD1     C 3541   3.278   3.423  15.429 -0.2273  0.3825  0.2166
  230MPD1    C1 3542   3.177   3.476  15.352 -0.4938  0.0144  0.1905
  230MPD1    C2 3543   3.142   3.411  15.237 -0.4393 -0.1565  0.2341
  230MPD1    C3 3544   3.206   3.289  15.203  0.5708 -0.1815 -0.0665
  230MPD1    C4 3545   3.312   3.247  15.283 -0.0402 -0.5699 -0.2828
  230MPD1    C5 3546   3.351   3.322  15.389  0.3376 -0.0556 -0.0864
  230MPD1     H 3547   3.058   3.454  15.184  0.6797  0.4977 -0.9776
  230MPD1    H1 3548   3.387   3.177  15.249 -0.3308 -0.7328 -0.5997
  230MPD1    H2 3549   3.317   3.472  15.517 -1.6746  0.3332  0.8881
  230MPD1    H3 3550   3.439   3.295  15.445 -0.5901 -2.0175  0.4470
  230MPD1     N 3551   3.178   3.227  15.072  0.0890 -0.3914 -0.1255
  230MPD1    H5 3552   3.106   3.277  15.022 -1.3372 -1.0134  1.2915
  230MPD1    N1 3553   3.101   3.581  15.403  1.1633 -0.5636 -0.0093
  230MPD1    H6 3554   3.151   3.644  15.464  1.1440 -1.4475  0.9187
  230MPD1    H7 3555   3.047   3.626  15.329 -1.5777 -1.1460  1.6286
  231MPD1     C 3556   1.759   0.769  15.695 -0.2076  1.0775 -0.3095
  231MPD1    C1 3557   1.663   0.710  15.612  0.1183 -0.3203  0.3031
  231MPD1    C2 3558   1.669   0.725  15.472  0.0452 -0.2516 -0.0540
  231MPD1    C3 3559   1.759   0.815  15.408  0.2108 -0.0417  0.2717
  231MPD1    C4 3560   1.838   0.889  15.492  0.3550 -0.3789 -0.2963
  231MPD1    C5 3561   1.844   0.861  15.628  0.0912 -0.2184  0.2375
  231MPD1     H 3562   1.595   0.679  15.408 -0.4261  0.6994 -0.1966
  231MPD1    H1 3563   1.910   0.960  15.452  0.5994  1.1272  2.8740
  231MPD1    H2 3564   1.767   0.742  15.800  0.8926  0.9138 -0.4334
  231MPD1    H3 3565   1.924   0.908  15.683  0.1301  1.6064 -1.3760
  231MPD1     N 3566   1.764   0.819  15.266 -0.2544 -0.1709  0.2126
  231MPD1    H5 3567   1.715   0.747  15.213  1.3757  0.2842 -1.9106
  231MPD1    N1 3568   1.572   0.613  15.670 -0.0897  0.3948 -0.2092
  231MPD1    H6 3569   1.490   0.588  15.616 -1.4506  0.5335  1.7653
  231MPD1    H7 3570   1.543   0.636  15.765 -0.4902 -0.4715 -0.1178
  232MPD1     C 3571   3.330   1.965   1.096  0.1792 -0.4498 -0.1160
  232MPD1    C1 3572   3.217   1.892   1.111  0.5768 -0.4858 -0.7592
  232MPD1    C2 3573   3.114   1.911   1.019  0.7382  0.0222  0.2254
  232MPD1    C3 3574   3.123   2.002   0.917  0.2283 -0.7606  0.4595
  232MPD1    C4 3575   3.242   2.070   0.906  0.0363  0.4072 -0.1809
  232MPD1    C5 3576   3.344   2.048   0.989  0.2657 -0.0285 -0.0044
  232MPD1     H 3577   3.026   1.853   1.043  0.6137 -0.4833 -1.4951
  232MPD1    H1 3578   3.259   2.149   0.834 -1.5016 -0.8150 -1.8936
  232MPD1    H2 3579   3.408   1.955   1.172  0.0020  1.5754  0.3332
  232MPD1    H3 3580   3.431   2.111   0.979  0.7910 -0.9024 -0.8907
  232MPD1     N 3581   3.005   2.028   0.844 -0.1883  0.3424  0.8551
  232MPD1    H5 3582   2.920   1.978   0.871  0.6240 -2.2955 -1.5663
  232MPD1    N1 3583   3.201   1.808   1.226  0.2324 -0.2501 -0.5081
  232MPD1    H6 3584   3.123   1.748   1.201 -1.9081  1.5402  1.7774
  232MPD1    H7 3585   3.289   1.770   1.261  1.3424  3.4183  0.6768
  233MPD1     C 3586   3.637   1.284   1.569 -0.8728 -0.2446 -0.0948
  233MPD1    C1 3587   3.731   1.335   1.485  0.0679  0.1825 -0.2506
  233MPD1    C2 3588   3.853   1.268   1.475 -0.2008  0.3072  0.5062
  233MPD1    C3 3589   3.878   1.153   1.553 -0.4111 -0.1545 -0.1589
  233MPD1    C4 3590   3.780   1.108   1.632  0.3878 -0.5151  0.2324
  233MPD1    C5 3591   3.661   1.176   1.642 -0.3865 -0.5464  0.0768
  233MPD1     H 3592   3.917   1.298   1.392 -0.7385 -0.5281 -0.2187
  233MPD1    H1 3593   3.783   1.026   1.703 -2.8373 -0.0934  0.8631
  233MPD1    H2 3594   3.549   1.345   1.586 -0.6437 -0.1821  0.8734
  233MPD1    H3 3595   3.580   1.155   1.711 -0.7019 -0.7752 -0.3673
  233MPD1     N 3596   4.005   1.087   1.557 -0.4103  0.5676 -0.7000
  233MPD1    H5 3597   4.029   1.021   1.630  0.3948  0.6388 -0.9076
  233MPD1    N1 3598   3.692   1.433   1.397 -0.2211  0.2497  1.1412
  233MPD1    H6 3599   3.774   1.484   1.365 -1.7834  0.2396 -2.9378
  233MPD1    H7 3600   3.637   1.501   1.449 -1.7468  0.3676 -0.6301
  234MPD1     C 3601   0.767   3.935   9.234 -0.1108 -0.3833 -0.3736
  234MPD1    C1 3602   0.708   4.001   9.125  0.5831 -0.7932  0.6519
  234MPD1    C2 3603   0.720   4.138   9.124  0.2620 -0.6538  0.5085
  234MPD1    C3 3604   0.800   4.208   9.220 -0.1840  0.0556  0.5937
  234MPD1    C4 3605   0.871   4.137   9.311  0.6505  0.7412 -0.2104
  234MPD1    C5 3606   0.845   4.003   9.330 -0.0790  0.5247 -0.5101
  234MPD1     H 3607   0.662   4.195   9.052  0.3979  0.9439  1.6732
  234MPD1    H1 3608   0.925   4.180   9.394 -1.3017 -0.4207  1.6288
  234MPD1    H2 3609   0.763   3.828   9.222 -0.1109 -0.5549  1.1703
  234MPD1    H3 3610   0.894   3.938   9.401 -0.1902  1.3379  0.3062
  234MPD1     N 3611   0.787   4.344   9.239 -0.3820 -0.0914 -0.1547
  234MPD1    H5 3612   0.725   4.388   9.171  2.8340 -0.1312 -3.0966
  234MPD1    N1 3613   0.625   3.935   9.032 -0.5026 -0.0225 -0.1450
  234MPD1    H6 3614   0.634   3.834   9.028 -0.4975 -0.0987  1.8179
  234MPD1    H7 3615   0.597   3.974   8.943 -2.1661  1.8444  1.1908
  235MPD1     C 3616   2.293   1.524  10.489  0.1699  0.6853  0.0791
  235MPD1    C1 3617   2.333   1.526  10.359 -0.4971  0.2625  0.4721
  235MPD1    C2 3618   2.384   1.644  10.310 -0.0248  0.3640 -0.0213
  235MPD1    C3 3619   2.417   1.750  10.394  0.1367 -0.3416 -0.7211
  235MPD1    C4 3620   2.392   1.738  10.527  0.4326 -0.2669  0.0179
  235MPD1    C5 3621   2.332   1.627  10.573 -0.2311 -0.0013 -0.2787
  235MPD1     H 3622   2.405   1.659  10.205  0.0564  0.2878 -0.0148
  235MPD1    H1 3623   2.406   1.820  10.596 -1.0047 -1.1311  1.3455
  235MPD1    H2 3624   2.243   1.439  10.533 -0.2027 -0.3603 -2.3425
  235MPD1    H3 3625   2.295   1.634  10.674 -0.1505 -2.5355 -0.0676
  235MPD1     N 3626   2.459   1.868  10.330  0.2488  0.7405  0.3561
  235MPD1    H5 3627   2.441   1.877  10.231 -0.8168  1.5293  0.6241
  235MPD1    N1 3628   2.287   1.431  10.270  0.4655 -0.2469  0.4964
  235MPD1    H6 3629   2.269   1.339  10.310 -0.2995 -0.2819  0.0730
  235MPD1    H7 3630   2.349   1.421  10.191 -2.0743 -2.2880 -1.2365
  236MPD1     C 3631   1.549   2.375   9.433  0.1830  0.8155 -0.7748
  236MPD1    C1 3632   1.650   2.321   9.509  0.2029 -0.3597  0.3699
  236MPD1    C2 3633   1.711   2.396   9.608  1.1982  0.3991  0.1540
  236MPD1    C3 3634   1.676   2.526   9.631  0.6299  0.3888 -0.4025
  236MPD1    C4 3635   1.594   2.593   9.531 -0.1454 -0.6272  0.0949
  236MPD1    C5 3636   1.530   2.509   9.441  0.4741  0.1026 -0.6153
  236MPD1     H 3637   1.781   2.345   9.673  3.2630  1.2214 -1.4406
  236MPD1    H1 3638   1.571   2.699   9.540 -1.2075 -0.7431 -1.1825
  236MPD1    H2 3639   1.503   2.322   9.351 -1.3214 -0.4049  0.8456
  236MPD1    H3 3640   1.444   2.548   9.388 -0.5760 -1.4124 -0.0548
  236MPD1     N 3641   1.737   2.602   9.738 -0.0627 -0.6872  0.3775
  236MPD1    H5 3642   1.723   2.702   9.743 -1.3797 -0.8308 -0.6116
  236MPD1    N1 3643   1.676   2.186   9.509  0.2656  0.0417 -0.4982
  236MPD1    H6 3644   1.760   2.155   9.558 -1.0037 -2.7755 -0.1434
  236MPD1    H7 3645   1.659   2.127   9.428  1.2802  1.1986 -1.5528
  237MPD1     C 3646   1.974   1.977  14.693 -0.6721 -0.0543 -1.4930
  237MPD1    C1 3647   1.999   1.917  14.810  0.3164 -0.2694 -0.2968
  237MPD1    C2 3648   1.901   1.845  14.865 -0.3254 -0.1717  0.0205
  237MPD1    C3 3649   1.785   1.821  14.798  0.5606 -0.0367 -0.0412
  237MPD1    C4 3650   1.758   1.883  14.682 -0.7511 -0.2281  0.6750
  237MPD1    C5 3651   1.858   1.952  14.624  0.4478 -0.0744 -0.8916
  237MPD1     H 3652   1.915   1.795  14.960  1.7235  0.4341  0.0308
  237MPD1    H1 3653   1.662   1.880  14.632 -0.6007  1.8432  0.2811
  237MPD1    H2 3654   2.050   2.043  14.655 -0.2665  2.0241  2.9920
  237MPD1    H3 3655   1.835   2.012  14.536  1.4322 -0.1565 -1.2044
  237MPD1     N 3656   1.667   1.764  14.861  0.3435 -0.1907 -0.1588
  237MPD1    H5 3657   1.579   1.782  14.815  0.9926  0.9415 -0.9444
  237MPD1    N1 3658   2.114   1.940  14.883  0.1857 -0.0270 -0.0308
  237MPD1    H6 3659   2.126   1.867  14.953  1.4097 -1.2447 -1.5075
  237MPD1    H7 3660   2.200   1.955  14.831  0.6772  1.2034  1.1326
  238MPD1     C 3661   3.655   4.562  15.060  0.1434 -0.5508 -0.1910
  238MPD1    C1 3662   3.689   4.665  14.980 -0.0609 -0.1198 -0.3524
  238MPD1    C2 3663   3.585   0.006  14.933  0.0535  0.0637  0.6661
  238MPD1    C3 3664   3.455   4.722  14.978 -0.0200 -0.0521 -0.2546
  238MPD1    C4 3665   3.431   4.619  15.075  0.1733 -0.1346  0.2965
  238MPD1    C5 3666   3.533   4.533  15.111  0.2661  0.4608  0.0016
  238MPD1     H 3667   3.612   0.091  14.872  1.9203 -2.3492 -1.9102
  238MPD1    H1 3668   3.333   4.592  15.114  0.3910  0.3325  1.1737
  238MPD1    H2 3669   3.729   4.489  15.093 -1.0331 -1.3031  0.7792
  238MPD1    H3 3670   3.527   4.448  15.178  0.6944  0.4418  0.0207
  238MPD1     N 3671   3.344   0.060  14.922  0.3733 -0.1194  0.1699
  238MPD1    H5 3672   3.247   0.042  14.945  0.7856 -1.9632  0.4067
  238MPD1    N1 3673   3.811   4.676  14.912  0.8283  0.5845 -0.3040
  238MPD1    H6 3674   3.831   0.038  14.885  0.1344  0.4175 -1.3903
  238MPD1    H7 3675   3.888   4.640  14.968  1.0126  0.8211 -0.4055
  239MPD1     C 3676   3.681   1.125  15.042  0.3551 -0.3192 -0.7125
  239MPD1    C1 3677   3.561   1.188  15.063 -0.2678  0.5076  0.2065
  239MPD1    C2 3678   3.505   1.246  14.953  0.3232 -0.0403 -0.5671
  239MPD1    C3 3679   3.564   1.235  14.829  0.0950 -0.8637  1.0111
  239MPD1    C4 3680   3.683   1.167  14.809  0.2748  0.3016 -0.3796
  239MPD1    C5 3681   3.734   1.107  14.916  0.5776  0.7055  0.1987
  239MPD1     H 3682   3.407   1.290  14.970  0.3407 -0.3874  0.4703
  239MPD1    H1 3683   3.728   1.161  14.710 -0.2940 -0.9175 -0.5680
  239MPD1    H2 3684   3.722   1.079  15.131 -0.2914 -0.9622 -0.7424
  239MPD1    H3 3685   3.823   1.045  14.907 -0.6628 -0.7634 -1.7512
  239MPD1     N 3686   3.514   1.306  14.714 -0.6440  0.0054  0.0489
  239MPD1    H5 3687   3.577   1.296  14.634  1.7574 -0.7904  2.0491
  239MPD1    N1 3688   3.519   1.227  15.193 -0.2603  0.0037  0.3423
  239MPD1    H6 3689   3.422   1.259  15.190  0.0398  0.5808 -3.2472
  239MPD1    H7 3690   3.518   1.148  15.258 -2.4888  1.0274  1.5731
  240MPD1     C 3691   3.488   0.450  13.761 -0.0094 -0.3513  0.3089
  240MPD1    C1 3692   3.358   0.482  13.740 -0.2257  0.1150  0.1611
  240MPD1    C2 3693   3.289   0.532  13.849 -0.5136  0.3620 -0.6090
  240MPD1    C3 3694   3.340   0.543  13.975  0.5064  0.0798 -0.2433
  240MPD1    C4 3695   3.477   0.519  14.000  0.2814 -0.3352  0.4266
  240MPD1    C5 3696   3.539   0.476  13.885 -0.0561 -0.0198  0.4369
  240MPD1     H 3697   3.184   0.548  13.831 -0.8149 -1.5916 -0.5569
  240MPD1    H1 3698   3.524   0.515  14.098 -1.9672  1.0598  1.5826
  240MPD1    H2 3699   3.556   0.414  13.685  0.1224 -0.1599  0.3346
  240MPD1    H3 3700   3.641   0.441  13.890  1.1877  3.3102 -2.1682
  240MPD1     N 3701   3.250   0.578  14.071 -0.2067 -0.1466  0.1650
  240MPD1    H5 3702   3.156   0.599  14.039  0.1670  1.5275  0.1497
  240MPD1    N1 3703   3.304   0.460  13.614  0.3101 -0.0493  0.1411
  240MPD1    H6 3704   3.373   0.476  13.541 -2.0932 -1.6203 -2.4229
  240MPD1    H7 3705   3.217   0.504  13.587  1.0319 -0.5567 -3.0266
  241MPD1     C 3706   3.337   0.942  14.982 -0.0355 -0.0743 -0.4165
  241MPD1    C1 3707   3.205   0.905  14.986 -0.3774  0.2062  0.1136
  241MPD1    C2 3708   3.157   0.836  14.878  0.0894  0.2423  0.3028
  241MPD1    C3 3709   3.238   0.803  14.774  0.4177 -0.6825 -0.3486
  241MPD1    C4 3710   3.375   0.824  14.782 -0.2773  0.0485 -0.2972
  241MPD1    C5 3711   3.420   0.905  14.883 -0.1464  0.6616 -0.1142
  241MPD1     H 3712   3.051   0.813  14.877  0.3629 -1.0497  0.8235
  241MPD1    H1 3713   3.435   0.788  14.699 -0.7554  0.2206 -0.7169
  241MPD1    H2 3714   3.368   1.005  15.065  0.5099  0.7618 -1.2558
  241MPD1    H3 3715   3.526   0.925  14.886 -0.0786  0.5533 -2.0553
  241MPD1     N 3716   3.191   0.735  14.658  0.2360  0.3907 -0.4147
  241MPD1    H5 3717   3.268   0.714  14.595  1.0884 -1.9081  1.3978
  241MPD1    N1 3718   3.120   0.908  15.104 -0.6578 -0.0089 -0.0976
  241MPD1    H6 3719   3.023   0.893  15.079 -1.3517  3.4686  0.5690
  241MPD1    H7 3720   3.133   0.990  15.162  0.4036 -0.5922  0.4958
  242MPD1     C 3721   2.405   4.483  15.509  0.8907 -0.2642 -0.3533
  242MPD1    C1 3722   2.455   4.355  15.531  0.7283  0.3749 -0.1102
  242MPD1    C2 3723   2.565   4.305  15.473 -0.1225 -0.2743  0.2460
  242MPD1    C3 3724   2.639   4.388  15.389 -0.3557  0.0830  0.4883
  242MPD1    C4 3725   2.598   4.516  15.372 -0.4439  0.1080  0.6098
  242MPD1    C5 3726   2.486   4.563  15.433  0.2746  0.3467 -0.4679
  242MPD1     H 3727   2.596   4.203  15.487 -1.1614 -0.4455  1.2768
  242MPD1    H1 3728   2.658   4.584  15.311 -1.1720  1.3981  1.3254
  242MPD1    H2 3729   2.316   4.521  15.557  0.1261 -1.4769 -0.8074
  242MPD1    H3 3730   2.458   4.667  15.424 -0.9444 -0.0975 -1.8759
  242MPD1     N 3731   2.750   4.339  15.321  0.0954 -0.1392  0.1635
  242MPD1    H5 3732   2.795   4.393  15.248  0.0089 -1.0383 -0.5557
  242MPD1    N1 3733   2.394   4.284  15.635  0.1742 -0.2286  0.0307
  242MPD1    H6 3734   2.294   4.301  15.639  0.6991  2.9957 -1.1462
  242MPD1    H7 3735   2.415   4.186  15.614  0.2734  0.2387 -2.1090
  243MPD1     C 3736   3.382   2.793  17.482  0.3817  0.5213  0.5113
  243MPD1    C1 3737   3.326   2.664  17.488 -0.1218  0.2586 -0.2303
  243MPD1    C2 3738   3.409   2.553  17.475 -0.0664 -0.8363 -0.1608
  243MPD1    C3 3739   3.543   2.565  17.426 -0.1398 -0.0552 -0.2592
  243MPD1    C4 3740   3.582   2.699  17.412  0.3866 -0.2473  0.1574
  243MPD1    C5 3741   3.513   2.810  17.449  0.1457  0.1580 -0.4180
  243MPD1     H 3742   3.364   2.457  17.496  0.8946 -1.1195  0.5945
  243MPD1    H1 3743   3.684   2.723  17.387  0.7151 -1.5547  0.1971
  243MPD1    H2 3744   3.323   2.881  17.505  0.7221  1.0022 -0.4307
  243MPD1    H3 3745   3.560   2.907  17.440  1.7077 -0.6517 -1.0366
  243MPD1     N 3746   3.629   2.454  17.415 -0.4556 -0.1396 -0.4796
  243MPD1    H5 3747   3.597   2.364  17.447 -2.2323  0.7917  0.3611
  243MPD1    N1 3748   3.196   2.647  17.533 -0.1499 -0.2889  0.2707
  243MPD1    H6 3749   3.157   2.558  17.504  2.8311 -0.9808 -1.6021
  243MPD1    H7 3750   3.139   2.724  17.500  1.8086  0.4075 -1.5367
  244MPD1     C 3751   3.955   1.922   0.313  0.3216  0.3518  0.1690
  244MPD1    C1 3752   4.005   2.051   0.288  0.4862  0.7791  0.2475
  244MPD1    C2 3753   3.970   2.099   0.163  0.3933  0.1203 -0.4491
  244MPD1    C3 3754   3.908   2.024   0.065  0.4170 -0.0889 -0.5716
  244MPD1    C4 3755   3.874   1.897   0.091 -0.2857 -0.1859  0.0156
  244MPD1    C5 3756   3.902   1.841   0.214  0.7705  0.5858 -0.1462
  244MPD1     H 3757   3.988   2.203   0.138 -0.9949  0.6284  0.6884
  244MPD1    H1 3758   3.817   1.837   0.022  0.2537 -0.3793 -0.2566
  244MPD1    H2 3759   3.963   1.875   0.410  1.5845  1.7197  0.7261
  244MPD1    H3 3760   3.879   1.737   0.234 -1.9367  1.1410 -0.4285
  244MPD1     N 3761   3.882   2.088  17.678 -0.0450  0.2014 -0.1539
  244MPD1    H5 3762   3.909   2.186  17.673  1.7192 -0.4124 -2.7696
  244MPD1    N1 3763   4.071   2.123   0.391 -0.5762  0.3931  0.0920
  244MPD1    H6 3764   4.104   2.064   0.466 -2.6526 -1.2904 -0.3174
  244MPD1    H7 3765   4.151   2.181   0.368 -0.2856 -0.3370 -0.7381
  245MPD1     C 3766   1.133   3.136  13.032 -0.2497 -0.5093 -0.2202
  245MPD1    C1 3767   1.155   3.145  13.163  0.6498  0.3653  0.1386
  245MPD1    C2 3768   1.236   3.251  13.207 -0.2295  0.1297  0.2235
  245MPD1    C3 3769   1.279   3.350  13.121  1.0965  0.0549 -0.0828
  245MPD1    C4 3770   1.228   3.352  12.995  0.1113  0.3362 -0.4351
  245MPD1    C5 3771   1.156   3.245  12.953  0.7824  0.2924  0.0466
  245MPD1     H 3772   1.248   3.267  13.313  0.2887 -1.8233  0.4547
  245MPD1    H1 3773   1.251   3.439  12.935  2.5678  0.4726  0.6836
  245MPD1    H2 3774   1.092   3.051  12.978 -0.1596 -0.9161  0.3533
  245MPD1    H3 3775   1.122   3.238  12.851 -1.9729  2.6049  0.8207
  245MPD1     N 3776   1.360   3.450  13.175 -0.5438 -0.2730  0.0129
  245MPD1    H5 3777   1.377   3.452  13.275 -1.3968 -0.7653  0.1682
  245MPD1    N1 3778   1.125   3.032  13.241  0.5147 -0.8132  0.3458
  245MPD1    H6 3779   1.094   3.047  13.337 -1.5206  0.5417 -0.5448
  245MPD1    H7 3780   1.053   2.978  13.195  0.2628 -0.1584 -0.0193
  246MPD1     C 3781   2.431   4.684   9.543  0.1076  0.0213 -0.0663
  246MPD1    C1 3782   2.352   0.058   9.519 -0.1696 -0.0639 -0.3875
  246MPD1    C2 3783   2.235   0.040   9.450  0.0572  0.3037  0.2330
  246MPD1    C3 3784   2.185   4.650   9.424 -0.5984  0.6521  0.4239
  246MPD1    C4 3785   2.255   4.537   9.473  0.5737 -0.3642 -0.7981
  246MPD1    C5 3786   2.376   4.559   9.539  0.1476 -0.3519 -0.4233
  246MPD1     H 3787   2.180   0.129   9.426  1.1264  0.7566 -0.5704
  246MPD1    H1 3788   2.243   4.433   9.443  0.4174 -0.4656 -0.3865
  246MPD1    H2 3789   2.528   4.691   9.590  0.8076 -2.3193 -1.2007
  246MPD1    H3 3790   2.434   4.470   9.563 -1.0698 -1.1426 -0.4131
  246MPD1     N 3791   2.061   4.647   9.358 -0.2014 -0.9026  0.3307
  246MPD1    H5 3792   2.008   4.731   9.339  1.7948 -0.0767 -1.5005
  246MPD1    N1 3793   2.410   0.186   9.531  0.1230  0.4236  0.3649
  246MPD1    H6 3794   2.439   0.191   9.628  1.5461  2.4410 -0.1654
  246MPD1    H7 3795   2.346   0.264   9.513 -0.8217 -0.2368  0.8748
  247MPD1     C 3796   0.185   2.337  15.660 -0.0705 -0.4874 -0.0946
  247MPD1    C1 3797   0.095   2.410  15.733  0.6240 -0.0084 -0.6317
  247MPD1    C2 3798   0.092   2.546  15.722 -0.1553 -0.4716  0.5294
  247MPD1    C3 3799   0.192   2.613  15.652 -0.6039 -0.4180 -0.4618
  247MPD1    C4 3800   0.286   2.538  15.579  0.3956  0.1286  0.4356
  247MPD1    C5 3801   0.281   2.398  15.587 -0.4908  0.2995 -0.4346
  247MPD1     H 3802   0.017   2.605  15.773  0.0396  1.1189 -1.0289
  247MPD1    H1 3803   0.361   2.577  15.510 -1.6166  1.0976 -1.2224
  247MPD1    H2 3804   0.162   2.231  15.661  0.7163 -0.6485  0.5750
  247MPD1    H3 3805   0.344   2.337  15.524  1.9997  0.8724  1.5253
  247MPD1     N 3806   0.200   2.752  15.637 -0.0538 -0.0140  0.6199
  247MPD1    H5 3807   0.276   2.786  15.579  0.9523 -0.3012  1.7839
  247MPD1    N1 3808   4.722   2.340  15.793  0.6090 -0.1348  0.5213
  247MPD1    H6 3809   0.022   2.250  15.826 -0.1881 -0.6377 -0.0056
  247MPD1    H7 3810   4.673   2.395  15.863  3.6317  0.9818  1.7546
  248MPD1     C 3811   0.154   3.244  17.431  0.2666  0.7286  0.5976
  248MPD1    C1 3812   0.096   3.362  17.487  0.3147 -0.3175 -0.3108
  248MPD1    C2 3813   0.175   3.471  17.510  0.8736 -0.7322 -0.1188
  248MPD1    C3 3814   0.310   3.459  17.522 -0.0039 -0.3569  0.2154
  248MPD1    C4 3815   0.374   3.342  17.471 -0.3650 -1.1603  0.2185
  248MPD1    C5 3816   0.292   3.242  17.423  0.2764 -0.1854  0.5313
  248MPD1     H 3817   0.126   3.566  17.526  2.3949 -0.1306  0.9305
  248MPD1    H1 3818   0.482   3.333  17.476 -0.2504 -0.2814 -0.7494
  248MPD1    H2 3819   0.097   3.160  17.395  0.6996  0.5611  0.3068
  248MPD1    H3 3820   0.342   3.155  17.381 -0.8809 -0.3843 -0.4395
  248MPD1     N 3821   0.383   3.577  17.559  0.0249  0.3906  0.1153
  248MPD1    H5 3822   0.323   3.654  17.588  0.1575  0.3822  0.4025
  248MPD1    N1 3823   4.691   3.375  17.475 -0.1012 -0.0953 -0.0682
  248MPD1    H6 3824   4.642   3.287  17.489  0.4277 -0.1099  1.6826
  248MPD1    H7 3825   4.660   3.438  17.548  1.0609 -1.0884  1.2827
  249MPD1     C 3826   3.191   2.420   9.490  0.1440  0.1448 -0.5834
  249MPD1    C1 3827   3.264   2.401   9.604  0.1625 -0.3376 -0.2801
  249MPD1    C2 3828   3.253   2.286   9.672 -0.1923  0.0901  0.7185
  249MPD1    C3 3829   3.179   2.180   9.632  0.1847  0.1661  0.0395
  249MPD1    C4 3830   3.118   2.195   9.509  0.0538  0.1814 -0.3966
  249MPD1    C5 3831   3.119   2.314   9.440 -0.0163 -0.1822  0.0408
  249MPD1     H 3832   3.310   2.290   9.764 -0.3618 -1.9068  0.8905
  249MPD1    H1 3833   3.089   2.103   9.459  1.0082  0.3894 -1.3350
  249MPD1    H2 3834   3.194   2.510   9.430  0.1826 -0.8252 -2.0267
  249MPD1    H3 3835   3.065   2.316   9.346 -2.7302  0.3158  1.6338
  249MPD1     N 3836   3.185   2.061   9.708 -0.1265  0.2148  0.5969
  249MPD1    H5 3837   3.247   2.074   9.787 -2.0156 -1.1629  2.3075
  249MPD1    N1 3838   3.320   2.511   9.668 -0.0103  0.1780  0.1127
  249MPD1    H6 3839   3.385   2.484   9.742 -0.9249 -0.3988  0.7112
  249MPD1    H7 3840   3.350   2.580   9.600 -0.1848  1.1667  1.0312
  250MPD2     C 3841   0.028   1.481  13.068 -0.1223  0.0566  0.2715
  250MPD2    C1 3842   4.636   1.525  13.101 -0.2640  0.2195 -0.7462
  250MPD2    C2 3843   4.525   1.453  13.068 -0.4168 -0.3033 -0.0645
  250MPD2    C3 3844   4.539   1.328  13.018 -0.7617  0.1076 -0.3542
  250MPD2    C4 3845   4.663   1.289  12.973  0.5106 -0.0895  0.0515
  250MPD2    C5 3846   0.042   1.363  13.003 -0.1080  0.5943  0.4583
  250MPD2     H 3847   4.428   1.497  13.089  0.8128  2.0004  0.8432
  250MPD2    H1 3848   4.688   1.196  12.923 -0.7751 -0.8541  0.8406
  250MPD2    H2 3849   0.119   1.540  13.077  2.0092 -2.6396 -3.6059
  250MPD2    H3 3850   0.137   1.325  12.968 -0.2376 -0.9070  1.7369
  250MPD2     N 3851   4.424   1.243  12.995  0.1054  0.2608 -0.1906
  250MPD2    H5 3852   4.446   1.148  12.967  1.2318  0.7733 -1.0802
  250MPD2    N1 3853   4.629   1.646  13.163 -0.2702 -0.1596  0.0397
  250MPD2    H7 3854   4.720   1.688  13.175 -1.5258  2.7596 -0.6335
  251TMC3    C1 3855   4.556   1.849  13.255 -0.2672 -0.2202 -0.6940
  251TMC3    C2 3856   4.459   1.929  13.300  0.3372 -0.3632  0.4835
  251TMC3    C3 3857   4.487   2.061  13.311 -0.4420 -0.1100 -0.0747
  251TMC3    C4 3858   4.685   1.888  13.244 -0.0640  0.1760 -0.5097
  251TMC3    C5 3859   4.710   2.020  13.267 -0.1575  0.2234 -0.3240
  251TMC3    C6 3860   4.612   2.110  13.295 -0.7696  0.7102 -0.4756
  251TMC3     C 3861   4.521   1.712  13.215 -0.5137  0.4605 -0.6219
  251TMC3     O 3862   4.407   1.672  13.230  0.4521  0.1282 -0.0362
  251TMC3     H 3863   4.361   1.894  13.330 -0.0245  0.7195  0.5587
  251TMC3    H1 3864   0.036   1.824  13.227 -2.0813 -2.8093  0.7740
  251TMC3    H2 3865   4.630   2.216  13.280  1.6993  0.2959 -0.4587
  251TMC3    C7 3866   0.120   2.058  13.258  0.5941  0.2326  0.2317
  251TMC3    C8 3867   4.375   2.153  13.334 -0.0416 -0.5761  0.4448
  251TMC3    O1 3868   0.200   1.978  13.210 -0.3381 -0.6090  0.5934
  251TMC3    O2 3869   4.267   2.095  13.343  0.7686  0.2079  0.5527
  252TMC3    C1 3870   4.604   2.961   9.366  0.4630 -0.2134  0.3835
  252TMC3    C2 3871   4.705   2.885   9.410  0.5577 -0.1682  0.0291
  252TMC3    C3 3872   4.677   2.762   9.459  0.0943  0.6913  0.4513
  252TMC3    C4 3873   4.481   2.910   9.357 -0.6202  0.0774  0.3114
  252TMC3    C5 3874   4.457   2.779   9.394 -0.1052  0.3121  0.9584
  252TMC3    C6 3875   4.551   2.702   9.455 -0.1077 -0.0951  0.4441
  252TMC3     C 3876   4.643   3.081   9.293 -0.0165 -0.5103 -0.4227
  252TMC3     O 3877   4.553   3.129   9.225  0.4500  0.0689  0.9003
  252TMC3     H 3878   0.076   2.900   9.387  0.4129  0.6214 -0.1167
  252TMC3    H1 3879   4.405   2.965   9.303  0.8898 -0.9854 -2.9099
  252TMC3    H2 3880   4.537   2.598   9.482  0.9414 -0.5526 -0.8037
  252TMC3    C7 3881   4.316   2.738   9.388 -0.1957 -0.0087 -0.4057
  252TMC3    C8 3882   0.062   2.675   9.495 -0.9883  0.0118  0.7131
  252TMC3    O1 3883   4.239   2.823   9.344 -0.6434  0.2275  0.3322
  252TMC3    O2 3884   0.041   2.555   9.493  0.2461  0.0049 -0.4826
  253MPD2     C 3885   1.140   1.889  15.427  0.1692 -0.6562  0.2578
  253MPD2    C1 3886   1.013   1.870  15.381 -0.5143  0.2858 -0.0599
  253MPD2    C2 3887   0.922   1.813  15.468 -0.2526 -0.6185 -0.4750
  253MPD2    C3 3888   0.957   1.773  15.599  0.6821  0.7488  0.0501
  253MPD2    C4 3889   1.086   1.798  15.641 -0.3451  0.3078  0.0156
  253MPD2    C5 3890   1.175   1.858  15.555 -0.5038 -0.2345  0.5452
  253MPD2     H 3891   0.821   1.804  15.430 -0.2308 -1.0994 -0.4149
  253MPD2    H1 3892   1.123   1.770  15.738  1.1418  1.1479 -0.3024
  253MPD2    H2 3893   1.208   1.937  15.358  0.1242 -0.2176  0.5201
  253MPD2    H3 3894   1.270   1.890  15.596  0.4664 -0.6306 -1.4222
  253MPD2     N 3895   0.869   1.720  15.699 -0.4141  0.4247  0.0643
  253MPD2    H5 3896   0.912   1.699  15.789  0.8871  2.4947 -0.0810
  253MPD2    N1 3897   0.968   1.878  15.245  0.4459 -0.7741  0.1872
  253MPD2    H7 3898   0.889   1.819  15.224 -1.0667  1.6632 -0.9603
  254TMC3    C1 3899   0.669   1.663  15.802 -0.7707 -0.1930  0.7518
  254TMC3    C2 3900   0.533   1.675  15.796 -0.6309  0.4662 -0.3032
  254TMC3    C3 3901   0.449   1.595  15.869 -0.4087 -0.1220 -0.0543
  254TMC3    C4 3902   0.722   1.561  15.878 -0.4391 -0.5854 -0.0035
  254TMC3    C5 3903   0.642   1.480  15.957  0.6954 -0.2199  0.1025
  254TMC3    C6 3904   0.508   1.502  15.952  0.7261 -0.2766 -0.3704
  254TMC3     C 3905   0.738   1.695  15.678 -0.1168 -0.2643  0.5406
  254TMC3     O 3906   0.674   1.709  15.577  0.2252 -0.0909  0.3865
  254TMC3     H 3907   0.489   1.735  15.717  0.1400  1.3545 -0.0513
  254TMC3    H1 3908   0.830   1.555  15.877 -0.4159  0.1594 -1.8862
  254TMC3    H2 3909   0.446   1.425  15.997 -0.4044  0.0308 -1.3898
  254TMC3    C7 3910   0.692   1.413  16.078 -0.1888  0.4860  0.4285
  254TMC3    C8 3911   0.319   1.651  15.915  0.6956 -0.3632 -0.2602
  254TMC3    O1 3912   0.611   1.338  16.133  0.2724  0.2479  0.4200
  254TMC3    O2 3913   0.285   1.623  16.029 -0.0659  0.1362  0.1494
  255MPD2     C 3914   3.855   4.398  10.424 -0.8167  1.0882 -0.3623
  255MPD2    C1 3915   3.754   4.373  10.334 -0.1751 -0.1220 -0.3290
  255MPD2    C2 3916   3.786   4.282  10.238  0.9374  0.5234 -0.8749
  255MPD2    C3 3917   3.913   4.223  10.227 -0.7033  0.9608 -0.8114
  255MPD2    C4 3918   4.015   4.259  10.317 -0.2257  0.4209 -0.2549
  255MPD2    C5 3919   3.977   4.343  10.419  0.0531  0.2233  0.1525
  255MPD2     H 3920   3.719   4.246  10.160 -1.0109 -1.7687  1.8127
  255MPD2    H1 3921   4.118   4.225  10.314 -1.6205 -3.7941 -0.3210
  255MPD2    H2 3922   3.837   4.469  10.504 -0.0614  0.3845  0.4294
  255MPD2    H3 3923   4.052   4.363  10.495  1.1116 -1.9977 -0.2880
  255MPD2     N 3924   3.932   4.127  10.125  0.4039  0.5096 -1.0549
  255MPD2    H5 3925   3.856   4.097  10.064 -0.1360 -1.6999  0.7321
  255MPD2    N1 3926   3.639   4.454  10.334  0.4472 -0.4404 -0.3464
  255MPD2    H7 3927   3.623   4.524  10.405 -1.2210  1.1877 -2.3032
  256TMC3    C1 3928   3.418   4.532  10.273  0.5790  0.2454 -0.1345
  256TMC3    C2 3929   3.472   4.657  10.299 -0.5556 -0.1798  0.3509
  256TMC3    C3 3930   3.454   0.023  10.213  0.7791  0.0679 -0.3546
  256TMC3    C4 3931   3.327   4.518  10.177 -0.1245  0.1856  0.1982
  256TMC3    C5 3932   3.302   4.620  10.085 -0.4679 -0.8856 -0.2312
  256TMC3    C6 3933   3.379   0.004  10.093 -0.0328  0.2539  0.7517
  256TMC3     C 3934   3.522   4.428  10.263  0.5262  0.5776 -0.1596
  256TMC3     O 3935   3.491   4.329  10.192 -0.2429 -0.3301 -0.4041
  256TMC3     H 3936   3.550   4.671  10.374 -0.8463  0.6062  0.5102
  256TMC3    H1 3937   3.277   4.423  10.160  0.0372  0.3904 -1.4231
  256TMC3    H2 3938   3.352   0.091  10.034 -1.1230 -1.1740 -0.8554
  256TMC3    C7 3939   3.233   4.582   9.963 -0.5004  0.5691 -0.3654
  256TMC3    C8 3940   3.519   0.152  10.244 -1.1147  0.1289  0.3433
  256TMC3    O1 3941   3.168   4.477   9.962  0.0392  0.0554 -0.3461
  256TMC3    O2 3942   3.535   0.177  10.362 -0.2917 -0.0416 -0.0945
  257MPD2     C 3943   2.691   1.098  13.116 -0.2041 -0.2715  0.4292
  257MPD2    C1 3944   2.814   1.160  13.088  0.4825 -0.2290  0.5011
  257MPD2    C2 3945   2.925   1.107  13.155 -0.1273 -0.3287 -0.3244
  257MPD2    C3 3946   2.911   1.013  13.260  0.5079 -0.1644  0.7333
  257MPD2    C4 3947   2.786   0.958  13.278 -0.2682  0.1740  0.1460
  257MPD2    C5 3948   2.680   1.000  13.208 -0.2420 -0.2328 -0.1479
  257MPD2     H 3949   3.017   1.164  13.153  0.2631 -0.8125  3.3774
  257MPD2    H1 3950   2.775   0.866  13.336  2.6164  0.1701  0.7185
  257MPD2    H2 3951   2.596   1.117  13.068  1.8117  3.5249 -2.0435
  257MPD2    H3 3952   2.584   0.953  13.227 -0.1373 -0.0165  0.9116
  257MPD2     N 3953   3.021   0.983  13.345  0.1027 -0.4715 -0.4829
  257MPD2    H5 3954   3.108   1.020  13.310  0.6932  0.5968  2.0974
  257MPD2    N1 3955   2.818   1.257  12.977 -0.3714  0.8976 -0.0245
  257MPD2    H7 3956   2.728   1.269  12.933 -1.6439  2.7896  3.0844
  258TMC3    C1 3957   3.155   0.891  13.506 -0.1195  0.1145  0.1979
  258TMC3    C2 3958   3.229   0.837  13.407  0.4378 -1.0532 -0.4281
  258TMC3    C3 3959   3.354   0.782  13.434 -0.2261 -0.0761 -0.2888
  258TMC3    C4 3960   3.201   0.877  13.637 -0.6424  0.1894 -0.3425
  258TMC3    C5 3961   3.325   0.822  13.659  0.4856 -0.2694  0.7899
  258TMC3    C6 3962   3.403   0.771  13.560  0.5505  0.3877 -0.1714
  258TMC3     C 3963   3.017   0.924  13.473  0.7155 -0.5920  0.1618
  258TMC3     O 3964   2.921   0.903  13.550  0.0553 -0.0265  0.4712
  258TMC3     H 3965   3.188   0.818  13.309 -0.3507  1.0197 -0.4892
  258TMC3    H1 3966   3.151   0.928  13.718  2.2350  1.5365  0.6208
  258TMC3    H2 3967   3.498   0.723  13.583  0.4490  1.1782  1.9262
  258TMC3    C7 3968   3.382   0.843  13.793  0.8223 -0.2696 -0.0432
  258TMC3    C8 3969   3.399   0.680  13.340  0.6352  0.5620 -0.4827
  258TMC3    O1 3970   3.295   0.877  13.873  0.2710 -0.1056  0.2387
  258TMC3    O2 3971   3.426   0.582  13.402  0.6419  0.0714  0.0455
  259MPD2     C 3972   2.033   3.630   0.367 -0.7943  0.3530 -0.4505
  259MPD2    C1 3973   1.969   3.522   0.434  0.5597  0.2837 -0.3163
  259MPD2    C2 3974   1.954   3.401   0.364  0.3530  0.4312  0.4436
  259MPD2    C3 3975   2.032   3.383   0.248 -0.2016  0.2761 -0.5842
  259MPD2    C4 3976   2.097   3.488   0.185  0.0817 -0.7125 -0.6331
  259MPD2    C5 3977   2.088   3.619   0.242 -0.1802 -0.4967  0.6489
  259MPD2     H 3978   1.904   3.320   0.415  1.4186  0.7490  1.9613
  259MPD2    H1 3979   2.158   3.477   0.096 -0.1965  1.3249 -1.0658
  259MPD2    H2 3980   2.044   3.725   0.418 -2.3795  0.0204  0.5017
  259MPD2    H3 3981   2.132   3.704   0.191 -2.2112  0.1652  0.0032
  259MPD2     N 3982   2.037   3.242   0.213 -0.2507 -0.0000 -0.2083
  259MPD2    H5 3983   1.972   3.185   0.266 -0.0191 -1.4904 -1.5543
  259MPD2    N1 3984   1.935   3.539   0.564 -0.7633 -0.0429  0.1567
  259MPD2    H7 3985   1.965   3.625   0.607 -0.3285 -0.5513  0.8793
  260TMC3    C1 3986   2.151   3.044   0.120 -0.6686  0.5160 -0.8037
  260TMC3    C2 3987   2.278   3.016   0.109  0.5698  0.3036 -0.1729
  260TMC3    C3 3988   2.307   2.880   0.102  0.0823 -0.5032  0.0195
  260TMC3    C4 3989   2.049   2.953   0.139 -0.0572 -0.2147 -0.1788
  260TMC3    C5 3990   2.077   2.820   0.135 -0.2778 -0.2111 -0.6798
  260TMC3    C6 3991   2.209   2.779   0.113 -0.1731 -0.5597 -0.0425
  260TMC3     C 3992   2.117   3.190   0.114  0.1601  0.2780  0.2642
  260TMC3     O 3993   2.198   3.245   0.037  0.1606 -0.2139  0.6687
  260TMC3     H 3994   2.353   3.094   0.110 -0.7028  1.5174  1.7656
  260TMC3    H1 3995   1.952   2.998   0.121  0.9533  2.1190  0.2697
  260TMC3    H2 3996   2.232   2.673   0.118  1.9470 -0.1130 -0.2708
  260TMC3    C7 3997   1.966   2.727   0.136  0.6322  0.5812 -0.4872
  260TMC3    C8 3998   2.450   2.856   0.123 -0.5052  0.4079  0.8586
  260TMC3    O1 3999   2.001   2.610   0.137 -0.3708  0.3801 -0.0785
  260TMC3    O2 4000   2.531   2.947   0.099  0.1683 -0.0080  0.4630
  261MPD2     C 4001   3.737   1.560  12.781  0.5048  0.6054 -0.2824
  261MPD2    C1 4002   3.803   1.478  12.688 -0.1026  0.0791 -0.3098
  261MPD2    C2 4003   3.786   1.500  12.553 -1.0884 -0.1518 -0.1431
  261MPD2    C3 4004   3.713   1.609  12.508 -0.1862  0.7462  0.6226
  261MPD2    C4 4005   3.648   1.691  12.597 -0.6863  0.2377  0.1387
  261MPD2    C5 4006   3.658   1.668  12.729 -0.0663 -0.1465 -0.2897
  261MPD2     H 4007   3.842   1.440  12.481  0.7089 -0.1916  1.2773
  261MPD2    H1 4008   3.583   1.769  12.560 -1.8898 -0.9936 -0.3360
  261MPD2    H2 4009   3.734   1.551  12.889 -1.2686  0.3265 -0.3628
  261MPD2    H3 4010   3.605   1.738  12.792  1.1869  1.8009 -1.3967
  261MPD2     N 4011   3.709   1.631  12.365  0.1783  0.0297  0.7353
  261MPD2    H5 4012   3.763   1.569  12.306 -0.4330  0.6880 -0.5219
  261MPD2    N1 4013   3.872   1.369  12.750 -0.2241  0.0664  0.3534
  261MPD2    H7 4014   3.871   1.371  12.852  0.2937  1.6483  0.3242
  262TMC3    C1 4015   3.639   1.742  12.163 -0.1079 -0.0276 -0.2326
  262TMC3    C2 4016   3.611   1.865  12.113  0.4067  0.5131 -0.8398
  262TMC3    C3 4017   3.617   1.873  11.977 -0.5510 -0.7675 -0.3001
  262TMC3    C4 4018   3.666   1.630  12.089  0.6778 -0.2786  0.1218
  262TMC3    C5 4019   3.659   1.646  11.952 -0.0490 -0.2366 -0.6394
  262TMC3    C6 4020   3.644   1.766  11.888  0.2344 -0.3575  0.7853
  262TMC3     C 4021   3.630   1.729  12.300 -0.1504  0.1792  0.2455
  262TMC3     O 4022   3.574   1.825  12.348  0.0382 -0.4206  0.1543
  262TMC3     H 4023   3.614   1.958  12.168  1.1144 -1.0015  1.6672
  262TMC3    H1 4024   3.694   1.538  12.137 -1.8797 -1.0806  0.0766
  262TMC3    H2 4025   3.644   1.773  11.780  2.0999 -0.4815  0.7710
  262TMC3    C7 4026   3.622   1.530  11.878 -0.1827 -0.5651 -0.1473
  262TMC3    C8 4027   3.581   1.994  11.911  0.6895 -0.1963 -0.8144
  262TMC3    O1 4028   3.572   1.440  11.940 -0.4346 -0.2028 -0.0159
  262TMC3    O2 4029   3.607   2.000  11.791  0.1945 -0.7363  0.4558
  263MPD2     C 4030   4.639   0.915  11.466 -0.5700  0.2226  0.0989
  263MPD2    C1 4031   0.009   1.000  11.437 -0.1209  0.5240 -0.9323
  263MPD2    C2 4032   4.729   1.109  11.348  0.0060 -0.1213 -0.1848
  263MPD2    C3 4033   4.609   1.122  11.273  0.0421 -0.0196 -0.4320
  263MPD2    C4 4034   4.506   1.037  11.306  0.5134 -0.5459  0.0774
  263MPD2    C5 4035   4.516   0.947  11.410 -0.0694  0.6509 -0.1236
  263MPD2     H 4036   0.079   1.178  11.345  0.0989 -0.2501 -0.5579
  263MPD2    H1 4037   4.405   1.054  11.272  0.4348 -0.3067  0.4275
  263MPD2    H2 4038   4.648   0.837  11.541 -0.4169 -0.4086 -0.5865
  263MPD2    H3 4039   4.426   0.888  11.427  0.1772  0.4729  0.5377
  263MPD2     N 4040   4.595   1.227  11.180 -0.4397  0.0287 -0.1783
  263MPD2    H5 4041   4.676   1.289  11.179 -0.1969 -0.2686  0.7969
  263MPD2    N1 4042   0.133   0.970  11.495  0.5019  0.0510  0.3362
  263MPD2    H7 4043   0.148   0.901  11.567 -0.7602 -1.3545 -0.7568
  264TMC3    C1 4044   4.481   1.382  11.046  0.3231 -0.9502  0.0544
  264TMC3    C2 4045   4.540   1.489  11.110  1.1557 -0.4475 -0.0296
  264TMC3    C3 4046   4.544   1.609  11.039 -0.0214 -0.1675  0.5244
  264TMC3    C4 4047   4.415   1.395  10.922  0.0003 -0.0375  0.6116
  264TMC3    C5 4048   4.432   1.519  10.858 -0.5399 -0.1426 -0.1840
  264TMC3    C6 4049   4.498   1.627  10.914  0.0792  0.8235 -0.5288
  264TMC3     C 4050   4.488   1.247  11.100 -0.0585 -0.7833  0.0893
  264TMC3     O 4051   4.401   1.169  11.065 -0.3989 -0.7555 -0.2643
  264TMC3     H 4052   4.586   1.463  11.204 -0.1262  1.3591  1.1207
  264TMC3    H1 4053   4.357   1.315  10.878  0.5174 -0.7979  1.2973
  264TMC3    H2 4054   4.490   1.726  10.868 -1.1078  0.8797 -0.1908
  264TMC3    C7 4055   4.474   1.510  10.719 -0.3846  0.9957  0.1804
  264TMC3    C8 4056   4.644   1.704  11.078 -0.0644  0.7918 -0.7555
  264TMC3    O1 4057   4.533   1.607  10.672 -0.0558  0.4052 -0.6221
  264TMC3    O2 4058   4.685   1.764  10.982 -0.0902 -0.1169  0.1800
  265MPD2     C 4059   2.188   1.514  15.642  0.0712  0.3067 -0.7889
  265MPD2    C1 4060   2.107   1.558  15.540  0.6205  1.2497  0.6669
  265MPD2    C2 4061   2.144   1.512  15.413  0.1352  0.5093  0.0629
  265MPD2    C3 4062   2.241   1.413  15.392  0.1199 -0.1668  0.8537
  265MPD2    C4 4063   2.302   1.355  15.497 -0.4003  0.4131 -0.8079
  265MPD2    C5 4064   2.277   1.414  15.615 -0.0416  0.3863  0.4307
  265MPD2     H 4065   2.086   1.533  15.325 -0.9361  0.5231  0.7766
  265MPD2    H1 4066   2.384   1.287  15.478 -2.0891 -1.4536 -1.3302
  265MPD2    H2 4067   2.169   1.548  15.743 -2.5113  0.5816 -1.3805
  265MPD2    H3 4068   2.332   1.378  15.701 -0.6881  1.0817  1.1295
  265MPD2     N 4069   2.291   1.364  15.265 -0.2241 -0.1197  0.0289
  265MPD2    H5 4070   2.356   1.285  15.268 -2.0042 -1.6797 -2.4292
  265MPD2    N1 4071   1.994   1.640  15.554  0.7460 -0.2845 -0.4270
  265MPD2    H7 4072   1.943   1.671  15.472  0.0425 -0.6048 -0.1091
  266TMC3    C1 4073   1.803   1.722  15.669  0.1013 -0.0831  0.1461
  266TMC3    C2 4074   1.725   1.706  15.780  0.5046 -0.7978  0.0933
  266TMC3    C3 4075   1.591   1.749  15.778 -0.4436  0.2711 -0.0315
  266TMC3    C4 4076   1.762   1.784  15.555 -0.5294 -0.6599 -0.4730
  266TMC3    C5 4077   1.634   1.832  15.564 -0.0382 -0.8246 -1.2613
  266TMC3    C6 4078   1.547   1.808  15.667 -0.2031  0.0507  0.3410
  266TMC3     C 4079   1.939   1.664  15.679 -0.5669  0.2755 -0.3434
  266TMC3     O 4080   1.961   1.616  15.787 -0.8144  0.2571 -1.0630
  266TMC3     H 4081   1.756   1.643  15.863  1.3545 -0.1172  0.3024
  266TMC3    H1 4082   1.832   1.794  15.473  0.7231  0.6209  0.7619
  266TMC3    H2 4083   1.458   1.869  15.666 -2.0004 -2.5493  2.4716
  266TMC3    C7 4084   1.576   1.885  15.442 -0.5375 -0.1956 -0.8306
  266TMC3    C8 4085   1.507   1.745  15.892  0.0620  0.4152  0.4558
  266TMC3    O1 4086   1.459   1.916  15.439 -0.5265  0.1110 -0.1922
  266TMC3    O2 4087   1.391   1.781  15.870  0.0511 -0.1556  0.0309
  267MPD2     C 4088   3.415   2.798   0.298 -0.4866  0.4085  0.6915
  267MPD2    C1 4089   3.478   2.912   0.253  0.3531  0.1749  0.4301
  267MPD2    C2 4090   3.426   2.994   0.152 -0.0188  0.0057  0.3228
  267MPD2    C3 4091   3.301   2.963   0.096 -0.3389 -0.2284 -0.3863
  267MPD2    C4 4092   3.236   2.846   0.139 -0.7706 -0.2607 -0.0617
  267MPD2    C5 4093   3.293   2.774   0.238  1.4180 -0.2888 -0.3531
  267MPD2     H 4094   3.471   3.088   0.123 -0.9974  1.2694  2.8915
  267MPD2    H1 4095   3.148   2.806   0.090 -1.4179  1.6063 -0.4109
  267MPD2    H2 4096   3.462   2.731   0.368 -2.3352 -0.6835  0.8874
  267MPD2    H3 4097   3.245   2.682   0.271  0.4231 -0.3236 -1.8737
  267MPD2     N 4098   3.239   3.039  17.726 -0.3286 -0.3685  0.0394
  267MPD2    H5 4099   3.148   3.012  17.690  0.1135  0.9149 -2.0216
  267MPD2    N1 4100   3.596   2.948   0.325  0.4044  0.2835  0.0132
  267MPD2    H7 4101   3.618   2.898   0.410 -0.5325 -1.4371 -0.7439
  268TMC3    C1 4102   3.807   3.038   0.359 -0.4982 -0.9910  0.1675
  268TMC3    C2 4103   3.873   3.156   0.370  0.0294  0.6181 -0.3609
  268TMC3    C3 4104   3.967   3.170   0.470  0.4461  0.3452 -0.0359
  268TMC3    C4 4105   3.826   2.941   0.455  0.0617 -0.1783 -0.4565
  268TMC3    C5 4106   3.909   2.961   0.563  0.2314  0.5823 -0.6270
  268TMC3    C6 4107   3.980   3.081   0.571 -0.4183 -0.2024 -0.0094
  268TMC3     C 4108   3.691   3.029   0.271 -0.8092  0.2030  0.1059
  268TMC3     O 4109   3.686   3.107   0.176 -0.3002  0.3777  0.3475
  268TMC3     H 4110   3.873   3.228   0.289 -1.2220  1.4112  0.3499
  268TMC3    H1 4111   3.795   2.838   0.440  2.2909 -0.6896 -1.5805
  268TMC3    H2 4112   4.049   3.097   0.653 -1.5444  1.9632  0.5415
  268TMC3    C7 4113   3.953   2.849   0.636  0.1443  0.1067 -0.2628
  268TMC3    C8 4114   4.082   3.252   0.439 -0.1173 -0.2697 -0.3177
  268TMC3    O1 4115   4.069   2.860   0.676 -0.2391 -0.1393 -0.1852
  268TMC3    O2 4116   4.126   3.324   0.529 -0.5278  0.2418  0.3664
  269MPD2     C 4117   0.168   1.900  15.327  0.1986 -0.1111 -0.3499
  269MPD2    C1 4118   0.048   1.920  15.401  0.8517  0.1349 -0.4681
  269MPD2    C2 4119   0.005   2.050  15.406 -0.6123 -1.2406 -0.5723
  269MPD2    C3 4120   0.074   2.157  15.351 -0.5692 -0.2558  0.0941
  269MPD2    C4 4121   0.187   2.132  15.286 -0.6607 -0.3031 -0.2858
  269MPD2    C5 4122   0.237   2.006  15.276 -0.2204 -0.0920 -0.0603
  269MPD2     H 4123   4.638   2.061  15.445  0.0380  1.8961  0.2343
  269MPD2    H1 4124   0.237   2.216  15.237 -2.5963  0.8380 -0.3364
  269MPD2    H2 4125   0.215   1.803  15.320  0.2521 -0.0798 -0.4168
  269MPD2    H3 4126   0.338   1.988  15.242  0.1376 -0.1153  1.0169
  269MPD2     N 4127   0.016   2.282  15.361 -0.5398  0.7254 -0.2374
  269MPD2    H5 4128   4.664   2.290  15.415  0.5419  1.3346  1.4133
  269MPD2    N1 4129   4.733   1.812  15.470 -0.6103  0.2812  0.2813
  269MPD2    H7 4130   0.054   1.727  15.474  1.1627  1.4664  0.7012
  270TMC3    C1 4131   4.592   1.678  15.590 -0.1242  0.2573 -0.0007
  270TMC3    C2 4132   4.463   1.633  15.572 -0.7250 -0.4296 -0.1610
  270TMC3    C3 4133   4.429   1.498  15.560 -0.8077  0.4007  0.0400
  270TMC3    C4 4134   4.695   1.594  15.585 -0.5189 -0.3793  0.3214
  270TMC3    C5 4135   4.668   1.466  15.558 -0.5016 -0.1113  0.2135
  270TMC3    C6 4136   4.539   1.414  15.544  0.0203 -0.5412  0.4783
  270TMC3     C 4137   4.616   1.811  15.542  0.3667  0.1582  0.4751
  270TMC3     O 4138   4.517   1.882  15.528  0.0966  0.1347  0.6246
  270TMC3     H 4139   4.379   1.702  15.576 -0.6963 -0.2357 -3.2899
  270TMC3    H1 4140   0.061   1.629  15.608  0.5831 -2.2421 -1.7152
  270TMC3    H2 4141   4.524   1.308  15.532 -0.1882 -0.3899 -0.6233
  270TMC3    C7 4142   0.056   1.394  15.515 -0.2089 -0.2755 -0.2102
  270TMC3    C8 4143   4.308   1.470  15.479  0.0640  0.4920  0.1039
  270TMC3    O1 4144   0.158   1.452  15.543 -0.0720  0.5326 -0.6242
  270TMC3    O2 4145   4.206   1.538  15.485  0.1568  0.4559 -0.5660
  271MPD2     C 4146   3.947   1.876  14.076  0.8964 -0.5936  0.4618
  271MPD2    C1 4147   3.860   1.777  14.124 -0.5234 -0.4976 -0.9688
  271MPD2    C2 4148   3.726   1.797  14.107 -0.4422  0.7191  0.2150
  271MPD2    C3 4149   3.686   1.920  14.061  0.1235 -0.3448  0.8933
  271MPD2    C4 4150   3.771   2.016  14.011  0.1574 -0.0588 -0.3111
  271MPD2    C5 4151   3.907   1.992  14.018 -0.2972 -0.2525 -0.2698
  271MPD2     H 4152   3.650   1.726  14.138 -0.4264  1.3009  1.5961
  271MPD2    H1 4153   3.740   2.117  13.985 -0.9250 -0.4358 -0.5074
  271MPD2    H2 4154   4.055   1.864  14.083  1.1012  1.1363  0.4696
  271MPD2    H3 4155   3.984   2.062  13.987 -1.5540  0.9977 -0.5565
  271MPD2     N 4156   3.543   1.942  14.052 -0.2073 -0.2384 -0.2606
  271MPD2    H5 4157   3.518   2.024  13.997 -0.9416 -2.1729 -2.8485
  271MPD2    N1 4158   3.904   1.651  14.166 -0.3435 -0.3879  0.7875
  271MPD2    H7 4159   3.834   1.587  14.202 -1.2222 -0.3875 -0.8993
  272TMC3    C1 4160   4.034   1.479  14.226  0.1294  0.0802  0.0438
  272TMC3    C2 4161   4.127   1.379  14.191 -0.2187 -0.2566 -1.0947
  272TMC3    C3 4162   4.132   1.262  14.267  0.7414 -0.5118 -0.4582
  272TMC3    C4 4163   3.946   1.449  14.328 -0.6846  0.7018  0.4088
  272TMC3    C5 4164   3.963   1.338  14.400 -0.0088  0.2260  0.4317
  272TMC3    C6 4165   4.047   1.238  14.374  0.1020 -0.2739 -0.2086
  272TMC3     C 4166   4.029   1.598  14.152  0.9655  0.7535 -0.2459
  272TMC3     O 4167   4.124   1.633  14.083 -0.2618  0.4610 -0.2961
  272TMC3     H 4168   4.214   1.392  14.129 -0.9279 -1.0358 -2.2559
  272TMC3    H1 4169   3.879   1.519  14.377 -0.3216  3.2135 -2.7287
  272TMC3    H2 4170   4.055   1.153  14.441  0.6911  1.0135  1.3261
  272TMC3    C7 4171   3.901   1.341  14.528 -0.2172  0.5536  0.1109
  272TMC3    C8 4172   4.229   1.162  14.228 -0.3921  0.9176 -0.4984
  272TMC3    O1 4173   3.777   1.321  14.541  0.0290 -0.1989  0.0966
  272TMC3    O2 4174   4.262   1.152  14.109 -0.5125  0.1368  0.5845
  273MPD2     C 4175   0.543   4.242  11.346 -0.1531  0.3387 -0.7536
  273MPD2    C1 4176   0.629   4.349  11.382  0.0762  0.0176  1.1088
  273MPD2    C2 4177   0.648   4.453  11.297 -0.0202  0.4823 -0.5080
  273MPD2    C3 4178   0.574   4.459  11.179 -0.2779  0.0399  0.3501
  273MPD2    C4 4179   0.506   4.347  11.132  0.0014  0.0925  0.1617
  273MPD2    C5 4180   0.492   4.241  11.216  0.4740  1.1248 -1.0046
  273MPD2     H 4181   0.708   4.542  11.311  0.8562 -0.0979 -0.5659
  273MPD2    H1 4182   0.458   4.345  11.035 -1.4291 -0.6386  0.8863
  273MPD2    H2 4183   0.542   4.148  11.401 -0.3720 -0.3716 -1.9624
  273MPD2    H3 4184   0.430   4.161  11.177  1.3844  1.5427 -3.3357
  273MPD2     N 4185   0.574   4.569  11.095  0.5560 -0.9493 -0.2446
  273MPD2    H5 4186   0.542   4.542  11.002  2.0372 -1.1852 -0.6901
  273MPD2    N1 4187   0.702   4.340  11.503  0.3566 -0.5503  0.5711
  273MPD2    H7 4188   0.702   4.252  11.553  1.8004  0.2733  2.0326
  274TMC3    C1 4189   0.581   0.070  11.027  0.1250 -0.1317 -0.0748
  274TMC3    C2 4190   0.500   0.035  10.919 -0.1854 -0.5391 -0.7804
  274TMC3    C3 4191   0.496   0.125  10.812 -0.2010  0.4537  0.2148
  274TMC3    C4 4192   0.635   0.197  11.032  0.1251  0.2984  0.1721
  274TMC3    C5 4193   0.636   0.284  10.926 -0.6825  0.2855 -0.0562
  274TMC3    C6 4194   0.568   0.248  10.817  0.6820  0.1799  0.3044
  274TMC3     C 4195   0.625   4.697  11.128  0.1873  0.0262  0.1621
  274TMC3     O 4196   0.686   0.012  11.221 -0.0936  0.2425  0.0829
  274TMC3     H 4197   0.435   4.683  10.910 -1.0275 -0.0578  0.7655
  274TMC3    H1 4198   0.697   0.216  11.119 -1.0794  1.6589  0.7446
  274TMC3    H2 4199   0.564   0.320  10.736 -0.2894 -1.6300 -1.2771
  274TMC3    C7 4200   0.700   0.413  10.926  0.4939  1.0409  0.1269
  274TMC3    C8 4201   0.421   0.085  10.686 -0.0659  0.3443 -0.6041
  274TMC3    O1 4202   0.709   0.465  10.815  0.0282 -0.4654 -0.2120
  274TMC3    O2 4203   0.332   0.003  10.702  0.0000  0.1206 -0.4409
  275MPD2     C 4204   0.888   2.260  14.493 -0.2466 -0.3049  0.2348
  275MPD2    C1 4205   0.801   2.296  14.390  0.2545  0.5636  0.5436
  275MPD2    C2 4206   0.697   2.220  14.360  0.3910 -0.2845  0.3887
  275MPD2    C3 4207   0.661   2.109  14.437  0.1322  0.0206 -0.1772
  275MPD2    C4 4208   0.744   2.068  14.539 -0.2254 -0.6213  0.0115
  275MPD2    C5 4209   0.856   2.141  14.564 -0.6028  0.2627  0.2582
  275MPD2     H 4210   0.640   2.240  14.270 -0.7613  2.1292  1.6313
  275MPD2    H1 4211   0.725   1.983  14.604 -2.1427  0.4931  0.9083
  275MPD2    H2 4212   0.985   2.306  14.510  0.0965 -0.8962 -0.1309
  275MPD2    H3 4213   0.920   2.109  14.645 -1.7432  1.9017  1.8008
  275MPD2     N 4214   0.533   2.042  14.435 -0.5809 -0.0688 -0.3522
  275MPD2    H5 4215   0.513   1.971  14.504  2.2045  1.0877  1.6933
  275MPD2    N1 4216   0.813   2.418  14.320 -0.5396  0.3289 -0.2953
  275MPD2    H7 4217   0.744   2.439  14.249  0.7775 -1.4689 -2.1458
  276TMC3    C1 4218   0.850   2.638  14.302 -0.4766 -0.0993 -0.9965
  276TMC3    C2 4219   0.710   2.635  14.313  0.3445 -0.0598  0.2512
  276TMC3    C3 4220   0.641   2.734  14.379 -0.6190  0.2051 -0.0225
  276TMC3    C4 4221   0.917   2.747  14.355 -0.1201 -0.9468 -0.2406
  276TMC3    C5 4222   0.838   2.852  14.405 -0.6644 -0.0994 -0.0964
  276TMC3    C6 4223   0.709   2.842  14.431 -0.7202  0.9261 -0.4805
  276TMC3     C 4224   0.909   2.513  14.351  0.3353  0.5711 -0.2696
  276TMC3     O 4225   0.991   2.522  14.442  0.6596  0.2259  0.3544
  276TMC3     H 4226   0.643   2.571  14.257  2.3174 -1.2317 -0.7577
  276TMC3    H1 4227   1.025   2.745  14.354 -0.0749  1.4505  0.3145
  276TMC3    H2 4228   0.648   2.914  14.484  2.4570  2.6858  0.7873
  276TMC3    C7 4229   0.898   2.946  14.489  0.4825  0.2905  0.3607
  276TMC3    C8 4230   0.530   2.689  14.466  0.2195 -0.6545 -1.0311
  276TMC3    O1 4231   0.840   2.970  14.592 -0.9152  0.4043  0.0388
  276TMC3    O2 4232   0.447   2.770  14.505  0.1690  0.2364 -0.3239
  277MPD2     C 4233   2.650   1.659  13.224  0.6395  0.1607  0.3185
  277MPD2    C1 4234   2.513   1.632  13.258 -0.5066 -0.4198 -0.6708
  277MPD2    C2 4235   2.478   1.518  13.318 -0.6860  0.2183  0.2690
  277MPD2    C3 4236   2.576   1.436  13.369  0.1011 -0.0921 -0.0995
  277MPD2    C4 4237   2.708   1.450  13.332 -0.1442  0.5910  1.3315
  277MPD2    C5 4238   2.745   1.561  13.260  0.1374 -0.0640 -0.7611
  277MPD2     H 4239   2.374   1.501  13.344 -0.5751  0.6776  1.0101
  277MPD2    H1 4240   2.780   1.381  13.375  0.5719  1.4465  1.5260
  277MPD2    H2 4241   2.680   1.753  13.179  1.8292 -0.1758  0.4169
  277MPD2    H3 4242   2.851   1.578  13.245  0.3923 -0.2671  0.8039
  277MPD2     N 4243   2.556   1.349  13.472 -0.1678  0.5938  0.3401
  277MPD2    H5 4244   2.631   1.286  13.498 -0.6370 -0.6552 -1.3734
  277MPD2    N1 4245   2.421   1.731  13.210 -0.2558  0.2673 -0.3519
  277MPD2    H7 4246   2.453   1.819  13.171 -0.1660  0.0361 -0.8034
  278TMC3    C1 4247   2.466   1.280  13.675  0.4460  0.2352  0.3170
  278TMC3    C2 4248   2.447   1.149  13.648 -0.3085 -0.2646  0.2127
  278TMC3    C3 4249   2.374   1.079  13.740 -0.1896 -0.0991  0.1290
  278TMC3    C4 4250   2.415   1.348  13.778 -0.4342 -0.5611 -0.1486
  278TMC3    C5 4251   2.332   1.271  13.861  0.8248 -0.1423 -0.5745
  278TMC3    C6 4252   2.319   1.140  13.850  0.3248  0.6786  0.4051
  278TMC3     C 4253   2.447   1.354  13.553 -0.4809 -0.0480 -0.6854
  278TMC3     O 4254   2.357   1.433  13.557 -0.2170 -0.4909 -0.0195
  278TMC3     H 4255   2.468   1.100  13.554  0.9211  1.1393 -0.2356
  278TMC3    H1 4256   2.414   1.457  13.777  0.7807 -0.5522 -0.5321
  278TMC3    H2 4257   2.260   1.081  13.919  2.6028 -1.1478  0.8094
  278TMC3    C7 4258   2.211   1.337  13.894 -0.4026  0.3852 -0.2590
  278TMC3    C8 4259   2.296   0.967  13.686 -0.2528  0.5900  0.2726
  278TMC3    O1 4260   2.211   1.454  13.885  0.7570  0.2618  0.3024
  278TMC3    O2 4261   2.180   0.966  13.713 -0.2988 -0.2854  0.3311
  279MPD2     C 4262   1.304   0.870   0.441 -0.2007  0.1545  0.2685
  279MPD2    C1 4263   1.266   0.999   0.475 -1.0579  0.1546  0.0411
  279MPD2    C2 4264   1.194   1.076   0.383  0.0414 -0.1569  0.9717
  279MPD2    C3 4265   1.168   1.021   0.256  0.3362  0.4605 -0.1115
  279MPD2    C4 4266   1.205   0.890   0.229  0.7357 -0.3162  0.3815
  279MPD2    C5 4267   1.285   0.824   0.312 -0.6952 -0.7235  0.1714
  279MPD2     H 4268   1.153   1.171   0.417 -2.1257 -1.4113  1.8663
  279MPD2    H1 4269   1.179   0.835   0.139 -1.3370  1.3252 -0.0088
  279MPD2    H2 4270   1.360   0.809   0.511 -0.8742  0.0616  0.7248
  279MPD2    H3 4271   1.317   0.722   0.291 -0.2182 -0.4864 -0.2309
  279MPD2     N 4272   1.095   1.089   0.148  0.5100 -0.0862 -0.2226
  279MPD2    H5 4273   1.066   1.043   0.062 -0.7964  0.3343 -0.0068
  279MPD2    N1 4274   1.303   1.042   0.604 -0.2146  0.2180  0.2035
  279MPD2    H7 4275   1.391   0.997   0.627 -1.3799 -3.1372 -1.9702
  280TMC3    C1 4276   1.100   1.166   0.649  0.5935  0.6826  0.2408
  280TMC3    C2 4277   1.024   1.053   0.635  0.2858 -0.2412 -1.0474
  280TMC3    C3 4278   0.890   1.077   0.619  0.3645  0.5524 -0.5905
  280TMC3    C4 4279   1.054   1.292   0.675  0.4440  0.0976  0.4987
  280TMC3    C5 4280   0.922   1.312   0.669 -0.4794  0.3712 -0.8362
  280TMC3    C6 4281   0.839   1.203   0.645  0.1714  0.6176  0.0550
  280TMC3     C 4282   1.241   1.142   0.677 -1.0122  0.4874  0.1437
  280TMC3     O 4283   1.294   1.209   0.765  0.1577  0.1367  0.6022
  280TMC3     H 4284   1.068   0.955   0.625  1.1801 -0.0315  0.7291
  280TMC3    H1 4285   1.121   1.371   0.707  0.2216  0.2375  0.6146
  280TMC3    H2 4286   0.734   1.232   0.643 -0.3708 -1.3486 -0.1965
  280TMC3    C7 4287   0.871   1.436   0.714 -0.4774 -0.0164 -0.0313
  280TMC3    C8 4288   0.812   1.008   0.514 -0.5103  0.4205  0.4885
  280TMC3    O1 4289   0.943   1.508   0.778  0.3461 -0.0528  0.7357
  280TMC3    O2 4290   0.711   1.061   0.483 -0.0314 -0.2819  0.2434
  281TMC3    C1 4291   0.451   1.838  13.458  0.9724  0.3461 -0.5904
  281TMC3    C2 4292   0.504   1.958  13.409 -0.6535  0.1578  0.1941
  281TMC3    C3 4293   0.581   1.938  13.294  0.2001  0.0464 -0.3052
  281TMC3    C4 4294   0.474   1.712  13.397 -0.5836 -0.0896  0.3583
  281TMC3    C5 4295   0.536   1.706  13.277  0.1684 -0.4548  0.0811
  281TMC3    C6 4296   0.592   1.819  13.221  0.6575  0.4166  0.1197
  281TMC3     C 4297   0.323   1.840  13.524 -0.2402 -0.2254  0.5701
  281TMC3     O 4298   0.280   1.734  13.562 -0.2604  0.0032  0.2825
  281TMC3     H 4299   0.508   2.052  13.463 -0.2867 -0.5105  1.3261
  281TMC3    H1 4300   0.441   1.622  13.446 -1.9879  1.3779  2.1293
  281TMC3    H2 4301   0.658   1.810  13.136 -2.6509 -3.0158 -2.0568
  281TMC3    C7 4302   0.557   1.582  13.202 -0.6158  0.4821  0.0580
  281TMC3    C8 4303   0.654   2.050  13.228  0.4288 -0.2692 -0.8467
  281TMC3    O1 4304   0.606   1.603  13.093  0.0799  0.0883  0.2154
  281TMC3    O2 4305   0.759   2.024  13.178  0.1831  0.7275 -0.2487
  282MPD2     C 4306   1.664   3.587  14.664 -0.4589 -0.3363  0.7331
  282MPD2    C1 4307   1.648   3.491  14.761  0.1429 -0.6070  0.0218
  282MPD2    C2 4308   1.662   3.356  14.734 -1.0159 -0.2203  0.1251
  282MPD2    C3 4309   1.675   3.318  14.603  0.2358  0.0650  0.2731
  282MPD2    C4 4310   1.698   3.414  14.506  0.4836  0.0126 -0.1638
  282MPD2    C5 4311   1.694   3.545  14.535 -0.5247  0.4362  0.4402
  282MPD2     H 4312   1.657   3.275  14.805 -2.4192  0.6770  1.0542
  282MPD2    H1 4313   1.704   3.384  14.402 -0.8825 -4.0417  0.9074
  282MPD2    H2 4314   1.643   3.693  14.675  1.9643  0.0731  1.4310
  282MPD2    H3 4315   1.691   3.618  14.455 -2.9590 -0.4872 -0.2975
  282MPD2     N 4316   1.687   3.175  14.572 -0.7379 -0.1243  0.1809
  282MPD2    H5 4317   1.657   3.109  14.642  1.6557 -1.6025 -0.1737
  282MPD2    N1 4318   1.610   3.524  14.893  0.5517  0.1450 -0.3487
  282MPD2    H7 4319   1.591   3.447  14.957 -1.8628  0.2158 -0.9615
  283TMC3    C1 4320   1.516   3.659  15.066  0.1974  0.6604 -0.4487
  283TMC3    C2 4321   1.522   3.775  15.128  0.3089  0.1042 -0.1886
  283TMC3    C3 4322   1.462   3.772  15.257 -0.0957 -0.1692  0.1877
  283TMC3    C4 4323   1.453   3.546  15.107  0.8436 -0.3552 -0.1288
  283TMC3    C5 4324   1.403   3.544  15.232 -0.2824  0.3526  0.2393
  283TMC3    C6 4325   1.398   3.655  15.303 -0.4383  0.1209  0.3854
  283TMC3     C 4326   1.586   3.652  14.934  0.2410 -0.2505  0.0824
  283TMC3     O 4327   1.611   3.767  14.893  0.2634  0.0228  0.2354
  283TMC3     H 4328   1.592   3.848  15.089 -0.3848  2.1389  2.3378
  283TMC3    H1 4329   1.430   3.472  15.032  2.8308  0.6521 -1.7412
  283TMC3    H2 4330   1.356   3.655  15.403 -1.2269 -1.3899  0.0495
  283TMC3    C7 4331   1.311   3.432  15.273 -0.0659 -0.5373  0.0636
  283TMC3    C8 4332   1.500   3.866  15.363 -0.6848 -0.2489  0.3235
  283TMC3    O1 4333   1.264   3.427  15.385  0.0943  0.2221 -0.0651
  283TMC3    O2 4334   1.483   3.830  15.480 -0.5645  0.6329 -0.5819
  284MPD2     C 4335   0.110   2.736  11.973  0.6658 -0.6257 -0.3828
  284MPD2    C1 4336   0.238   2.760  12.017 -0.1934 -0.0122 -0.1615
  284MPD2    C2 4337   0.279   2.701  12.134 -0.3253  0.1391  0.0162
  284MPD2    C3 4338   0.197   2.629  12.209 -0.0487  0.0123 -0.2023
  284MPD2    C4 4339   0.069   2.613  12.171 -0.4144 -0.1847 -0.9409
  284MPD2    C5 4340   0.025   2.661  12.052  0.1674  0.1669 -0.1085
  284MPD2     H 4341   0.385   2.709  12.158 -0.3645  1.5176 -0.2250
  284MPD2    H1 4342   0.002   2.562  12.239 -1.6873  0.4796 -1.7090
  284MPD2    H2 4343   0.058   2.762  11.882 -0.6569  0.6692  0.7403
  284MPD2    H3 4344   4.655   2.647  12.026 -0.1959  3.2901 -0.4056
  284MPD2     N 4345   0.239   2.556  12.325  0.2140 -0.2031 -0.3435
  284MPD2    H5 4346   0.180   2.484  12.366  0.2987 -0.5824 -0.8839
  284MPD2    N1 4347   0.331   2.829  11.937  0.5369 -0.0830 -0.4695
  284MPD2    H7 4348   0.430   2.821  11.957  0.3868  0.9899  0.6652
  285TMC3    C1 4349   0.426   2.956  11.765 -0.3243  0.1226 -0.0263
  285TMC3    C2 4350   0.511   2.858  11.722 -0.2916 -0.9505 -0.1043
  285TMC3    C3 4351   0.604   2.893  11.630  0.3711  0.0602  0.8508
  285TMC3    C4 4352   0.422   3.083  11.712 -0.4222 -0.5422  0.7156
  285TMC3    C5 4353   0.514   3.116  11.621 -0.3592 -0.0841  0.9344
  285TMC3    C6 4354   0.609   3.021  11.583  0.3445  0.2757 -0.2368
  285TMC3     C 4355   0.307   2.906  11.831  0.0155 -0.1897 -0.1815
  285TMC3     O 4356   0.198   2.956  11.805 -0.2196 -0.3776 -0.2186
  285TMC3     H 4357   0.484   2.755  11.742  0.9481 -0.9318  1.7366
  285TMC3    H1 4358   0.334   3.142  11.735 -1.2632 -0.7076 -2.1410
  285TMC3    H2 4359   0.672   3.049  11.500  0.1595  2.7280  0.4557
  285TMC3    C7 4360   0.517   3.234  11.534 -0.0215  0.7220  0.0510
  285TMC3    C8 4361   0.643   2.793  11.529  0.2281 -0.1160 -0.0812
  285TMC3    O1 4362   0.622   3.249  11.474  0.6546  0.4041 -0.5548
  285TMC3    O2 4363   0.559   2.702  11.509 -0.7280  0.5104  0.0020
  286MPD2     C 4364   0.726   1.360   1.378 -1.0797 -0.2426  0.8577
  286MPD2    C1 4365   0.619   1.287   1.328 -0.0786 -0.1709  0.2062
  286MPD2    C2 4366   0.610   1.149   1.321  0.1807 -0.6499  0.2967
  286MPD2    C3 4367   0.723   1.080   1.364  0.0038 -0.0819 -1.0201
  286MPD2    C4 4368   0.831   1.147   1.408 -0.4542  0.6441 -1.1977
  286MPD2    C5 4369   0.830   1.283   1.418 -0.2241  0.1778 -0.0851
  286MPD2     H 4370   0.525   1.094   1.281  0.2563 -1.8384  1.7647
  286MPD2    H1 4371   0.927   1.101   1.430 -1.0283  0.6195  1.1950
  286MPD2    H2 4372   0.727   1.468   1.384 -1.0945 -0.1763 -0.2985
  286MPD2    H3 4373   0.920   1.322   1.462 -0.5120  0.7592 -0.0059
  286MPD2     N 4374   0.728   0.932   1.361  0.4843  0.5399  0.1574
  286MPD2    H5 4375   0.809   0.887   1.403  0.0011 -1.6975 -1.2839
  286MPD2    N1 4376   0.499   1.351   1.288  0.2660 -0.0231 -0.2951
  286MPD2    H7 4377   0.421   1.297   1.252  3.0740 -1.9941 -3.4537
  287TMC3    C1 4378   0.677   0.711   1.278 -0.2309  0.2189  0.5894
  287TMC3    C2 4379   0.635   0.647   1.162  0.2782 -0.3122  0.0685
  287TMC3    C3 4380   0.666   0.515   1.153  0.1617  0.1964  0.3811
  287TMC3    C4 4381   0.746   0.651   1.387  0.4325 -0.4570  0.3534
  287TMC3    C5 4382   0.769   0.519   1.369  0.0392  0.1467 -0.4247
  287TMC3    C6 4383   0.732   0.451   1.255  0.4287 -0.5212 -0.1492
  287TMC3     C 4384   0.639   0.852   1.282  0.3524  0.7295  0.4490
  287TMC3     O 4385   0.558   0.888   1.197  0.4894 -0.0532 -0.7426
  287TMC3     H 4386   0.575   0.699   1.089  0.3816 -0.6673 -0.2739
  287TMC3    H1 4387   0.749   0.696   1.486 -1.0865  1.7547 -0.6130
  287TMC3    H2 4388   0.766   0.348   1.244 -0.9495 -0.9746 -0.0855
  287TMC3    C7 4389   0.843   0.455   1.475 -0.3712  0.0146  0.0839
  287TMC3    C8 4390   0.699   0.451   1.027  0.0423  0.1335 -0.2753
  287TMC3    O1 4391   0.888   0.529   1.564 -0.2639 -0.1444 -0.1869
  287TMC3    O2 4392   0.707   0.330   1.023 -0.1922 -0.4415 -0.7462
  288TMC3    C1 4393   2.806   1.041  14.157  0.1032  0.6156 -0.0286
  288TMC3    C2 4394   2.698   1.075  14.232  0.4856  0.1788  0.0165
  288TMC3    C3 4395   2.608   1.165  14.180  0.0901 -0.7216 -0.9467
  288TMC3    C4 4396   2.821   1.093  14.034 -0.2773 -0.4689 -0.3771
  288TMC3    C5 4397   2.736   1.188  13.987  0.1827 -0.1313  1.8638
  288TMC3    C6 4398   2.634   1.229  14.064 -0.3484 -0.2499 -0.4104
  288TMC3     C 4399   2.918   0.983  14.216 -0.1005 -0.9341  0.2074
  288TMC3     O 4400   3.001   0.929  14.144  0.4370  0.3952  0.0417
  288TMC3     H 4401   2.685   1.033  14.331 -2.3437  0.3093 -0.2877
  288TMC3    H1 4402   2.915   1.062  13.989 -0.3235 -1.0206 -0.0798
  288TMC3    H2 4403   2.562   1.296  14.018 -0.7239  0.5190  1.2832
  288TMC3    C7 4404   2.781   1.249  13.862 -0.0761 -0.4856  0.8639
  288TMC3    C8 4405   2.506   1.232  14.255  0.5768  0.0025 -0.2862
  288TMC3    O1 4406   2.852   1.183  13.787 -0.5546  0.5932  0.2091
  288TMC3    O2 4407   2.463   1.337  14.215  0.3855 -0.1378  0.0363
  289MPD2     C 4408   2.588   0.336  14.373 -0.3641 -0.5983  0.5320
  289MPD2    C1 4409   2.611   0.444  14.287  0.5596 -0.0826 -0.0095
  289MPD2    C2 4410   2.521   0.478  14.185 -0.3048 -0.2254 -0.0005
  289MPD2    C3 4411   2.408   0.396  14.175 -0.1775  0.1033  0.1621
  289MPD2    C4 4412   2.394   0.283  14.262 -0.1439 -0.1867  0.4307
  289MPD2    C5 4413   2.480   0.256  14.359  0.2897 -0.3116 -0.0024
  289MPD2     H 4414   2.544   0.562  14.121 -0.1528 -0.4844 -0.2866
  289MPD2    H1 4415   2.309   0.217  14.246  1.7577 -2.9419  1.7319
  289MPD2    H2 4416   2.665   0.305  14.442 -0.5029 -0.2177  0.8549
  289MPD2    H3 4417   2.470   0.164  14.416 -1.2764  0.5030  1.0085
  289MPD2     N 4418   2.322   0.409  14.069 -0.1533 -0.1702 -0.2272
  289MPD2    H5 4419   2.247   0.342  14.056 -1.7700  1.6805 -0.3080
  289MPD2    N1 4420   2.739   0.506  14.312  0.3081 -0.1438 -0.2143
  289MPD2    H7 4421   2.802   0.464  14.380 -1.9547 -0.7372  1.5077
  290TMC3    C1 4422   2.218   0.491  13.868 -0.3117 -0.5511  0.6329
  290TMC3    C2 4423   2.173   0.606  13.816 -0.0465 -0.6632 -0.6666
  290TMC3    C3 4424   2.062   0.607  13.735 -0.4493  0.1907  0.3398
  290TMC3    C4 4425   2.190   0.366  13.821 -0.2406  0.0214 -0.9030
  290TMC3    C5 4426   2.090   0.363  13.725 -0.1804 -0.5241  0.7907
  290TMC3    C6 4427   2.020   0.483  13.692 -0.0359  0.2257  0.5561
  290TMC3     C 4428   2.315   0.516  13.975 -0.1607  0.2574 -0.9244
  290TMC3     O 4429   2.380   0.617  13.966  0.4671 -0.3341 -0.4716
  290TMC3     H 4430   2.202   0.698  13.865 -2.1106 -0.2846 -0.1778
  290TMC3    H1 4431   2.237   0.274  13.854 -1.9030  0.3437  2.3229
  290TMC3    H2 4432   1.942   0.481  13.616 -0.9560  0.1962  1.4985
  290TMC3    C7 4433   2.010   0.246  13.701  0.6108  0.1692 -0.2261
  290TMC3    C8 4434   1.949   0.688  13.787 -0.2984 -0.0918  0.4179
  290TMC3    O1 4435   1.939   0.253  13.600 -0.0780  0.0434 -0.1581
  290TMC3    O2 4436   1.837   0.655  13.753  0.1050 -0.3392 -0.5521
  291MPD2     C 4437   1.227   0.112   0.456  0.0217  0.0215  0.8025
  291MPD2    C1 4438   1.349   0.045   0.475  0.2479 -0.4234  0.3539
  291MPD2    C2 4439   1.439   0.102   0.557 -0.1961 -0.1933 -0.3057
  291MPD2    C3 4440   1.417   0.227   0.612  0.0419 -0.4103  0.1194
  291MPD2    C4 4441   1.298   0.299   0.597 -0.0511  0.0859 -0.2081
  291MPD2    C5 4442   1.205   0.229   0.521  0.5497  0.6843 -0.5019
  291MPD2     H 4443   1.527   0.040   0.570  0.4894  0.3980 -2.0607
  291MPD2    H1 4444   1.270   0.393   0.642  1.5553  0.5245 -0.1277
  291MPD2    H2 4445   1.139   0.073   0.405  1.6391 -0.4854 -1.5921
  291MPD2    H3 4446   1.108   0.275   0.508 -0.5319 -1.7141 -0.9128
  291MPD2     N 4447   1.518   0.297   0.687  0.0015 -0.5161 -0.0190
  291MPD2    H5 4448   1.492   0.383   0.734  0.8842 -0.0765 -0.3557
  291MPD2    N1 4449   1.374   4.651   0.416 -0.5089  0.6061 -0.0490
  291MPD2    H7 4450   1.468   4.614   0.425 -0.9386 -0.7744 -1.2356
  292TMC3    C1 4451   1.326   4.439   0.335 -0.2243 -0.2042 -0.2887
  292TMC3    C2 4452   1.373   4.372   0.445 -0.1003 -0.1103 -0.3981
  292TMC3    C3 4453   1.365   4.236   0.454  0.1689  1.0998  0.0032
  292TMC3    C4 4454   1.265   4.373   0.233  0.9719  0.0552 -0.1542
  292TMC3    C5 4455   1.276   4.236   0.240 -0.7671  0.8254  0.4164
  292TMC3    C6 4456   1.338   4.172   0.341 -0.3628 -0.0876  0.0605
  292TMC3     C 4457   1.277   4.574   0.361 -0.1033  0.1322  0.1833
  292TMC3     O 4458   1.161   4.595   0.330  0.1254  0.0544  0.3035
  292TMC3     H 4459   1.396   4.433   0.532 -0.4714  1.0030 -1.0857
  292TMC3    H1 4460   1.218   4.427   0.152  0.5056  0.1625  0.1862
  292TMC3    H2 4461   1.363   4.066   0.339  0.5464  0.1427 -0.6683
  292TMC3    C7 4462   1.203   4.155   0.148 -0.2967  0.0529 -0.6604
  292TMC3    C8 4463   1.461   4.169   0.541  0.1804  0.5504  0.1770
  292TMC3    O1 4464   1.243   4.042   0.127 -0.5234 -0.0330 -0.1662
  292TMC3    O2 4465   1.538   4.098   0.477 -0.1212  0.2830  0.0103
  293MPD2     C 4466   3.064   0.908  12.710  0.2380 -0.0758 -0.5977
  293MPD2    C1 4467   3.095   1.035  12.682 -1.0466 -0.3215  0.2070
  293MPD2    C2 4468   3.153   1.115  12.786 -1.3377  0.4046 -0.2842
  293MPD2    C3 4469   3.191   1.057  12.906 -0.8719  0.7986 -0.3241
  293MPD2    C4 4470   3.162   0.922  12.928  0.2374  1.0274 -0.1907
  293MPD2    C5 4471   3.100   0.857  12.832  0.5165 -0.5321 -0.0131
  293MPD2     H 4472   3.166   1.221  12.769 -0.2357  0.2118 -0.6002
  293MPD2    H1 4473   3.181   0.870  13.022 -0.2095  0.5649 -0.3596
  293MPD2    H2 4474   3.020   0.846  12.633 -2.3710 -0.2270  1.0108
  293MPD2    H3 4475   3.071   0.755  12.851  0.2705 -0.3583  0.5389
  293MPD2     N 4476   3.249   1.135  13.006  0.0847  0.0519 -0.7517
  293MPD2    H5 4477   3.255   1.235  12.990 -0.8029  0.2763  0.3652
  293MPD2    N1 4478   3.064   1.085  12.549 -0.7829  0.5862 -0.4500
  293MPD2    H7 4479   3.009   1.019  12.494 -1.0359  2.0653 -1.9656
  294TMC3    C1 4480   3.035   1.244  12.372  0.1248  0.1605 -0.6042
  294TMC3    C2 4481   3.025   1.143  12.278 -0.4691 -0.2048 -0.1603
  294TMC3    C3 4482   3.005   1.171  12.144 -0.1132  0.5022 -0.1462
  294TMC3    C4 4483   3.047   1.375  12.327  0.3594  0.6293  1.6484
  294TMC3    C5 4484   3.053   1.400  12.189  0.6103  0.4223  0.4413
  294TMC3    C6 4485   3.016   1.305  12.102  0.5878  0.2649 -0.4992
  294TMC3     C 4486   3.091   1.210  12.500  0.5088 -0.7817 -0.4700
  294TMC3     O 4487   3.145   1.303  12.559 -0.0586  0.1287  0.0444
  294TMC3     H 4488   3.037   1.041  12.310  0.3692  0.2712  1.0468
  294TMC3    H1 4489   3.075   1.452  12.398 -1.5441  0.1591  2.9325
  294TMC3    H2 4490   2.998   1.337  12.000  1.6488  0.0790 -0.7486
  294TMC3    C7 4491   3.059   1.535  12.140 -0.3716 -0.7181 -0.4552
  294TMC3    C8 4492   2.966   1.067  12.052  0.3839  0.3349 -0.0690
  294TMC3    O1 4493   2.986   1.607  12.210 -0.3353  0.4991 -0.0388
  294TMC3    O2 4494   2.967   0.954  12.101  0.1407  0.4945  0.2243
  295MPD2     C 4495   4.365   0.518   0.259 -0.2563 -0.1745 -0.0574
  295MPD2    C1 4496   4.237   0.465   0.277  0.0745  0.7105  0.1622
  295MPD2    C2 4497   4.228   0.360   0.367 -0.5255 -0.3044 -0.0654
  295MPD2    C3 4498   4.338   0.325   0.444 -0.4879  0.1548  0.8684
  295MPD2    C4 4499   4.461   0.382   0.426 -0.7906  0.0512  0.0861
  295MPD2    C5 4500   4.477   0.475   0.327 -0.1266 -0.3785  0.0999
  295MPD2     H 4501   4.135   0.306   0.381 -0.5317  0.1739  1.7278
  295MPD2    H1 4502   4.554   0.352   0.471 -0.9535 -1.2631 -0.4630
  295MPD2    H2 4503   4.380   0.603   0.194 -2.2581 -0.9572 -1.5300
  295MPD2    H3 4504   4.574   0.520   0.311 -0.5191  0.6365  0.5546
  295MPD2     N 4505   4.336   0.224   0.539  0.9278 -0.3337 -0.2567
  295MPD2    H5 4506   4.422   0.218   0.593  2.0136  1.5430 -1.7646
  295MPD2    N1 4507   4.117   0.519   0.228  0.5723  0.1203  0.0753
  295MPD2    H7 4508   4.032   0.472   0.256  0.9742  0.0409  1.1529
  296TMC3    C1 4509   4.275   0.037   0.645  0.0201 -0.3723 -0.3689
  296TMC3    C2 4510   4.326   0.081   0.762  0.2218  0.1565  0.1707
  296TMC3    C3 4511   4.342   4.719   0.859 -0.2144  0.0046  0.7222
  296TMC3    C4 4512   4.238   4.638   0.630 -0.8592  0.3602  0.9380
  296TMC3    C5 4513   4.259   4.548   0.727  0.1452 -0.2988 -0.0727
  296TMC3    C6 4514   4.308   4.589   0.848  0.3566  0.2594  0.3790
  296TMC3     C 4515   4.232   0.136   0.553  0.1494  0.5550  0.1835
  296TMC3     O 4516   4.132   0.117   0.488  0.7330 -0.2808  0.3134
  296TMC3     H 4517   4.352   0.186   0.775 -1.4906  0.8764 -2.2644
  296TMC3    H1 4518   4.212   4.608   0.529  1.2706  0.5598  0.3306
  296TMC3    H2 4519   4.319   4.515   0.927 -2.7737 -0.5384  0.0549
  296TMC3    C7 4520   4.236   4.403   0.696 -0.2301 -0.0198  1.1980
  296TMC3    C8 4521   4.344   0.047   0.992  0.0932  0.2439 -0.3071
  296TMC3    O1 4522   4.184   4.387   0.586 -0.3682 -0.0098  0.5774
  296TMC3    O2 4523   4.302   0.160   1.003 -0.2754 -0.1434 -0.0470
  297MPD2     C 4524   0.985   1.773  16.745  0.3863  0.5806 -0.3400
  297MPD2    C1 4525   0.964   1.809  16.610 -0.1864 -0.1257 -0.5687
  297MPD2    C2 4526   1.063   1.881  16.538 -0.0702 -0.3065 -0.2832
  297MPD2    C3 4527   1.176   1.917  16.606  0.4452  0.1380  0.5207
  297MPD2    C4 4528   1.201   1.875  16.739  0.1597 -0.3392  0.3918
  297MPD2    C5 4529   1.100   1.806  16.809  0.8338 -0.5715  0.0451
  297MPD2     H 4530   1.035   1.912  16.438 -3.5598 -0.4977  0.6099
  297MPD2    H1 4531   1.291   1.887  16.797  1.1499 -2.5151 -0.7054
  297MPD2    H2 4532   0.909   1.725  16.807  1.5657  0.5331  1.0753
  297MPD2    H3 4533   1.109   1.787  16.915 -0.2388  3.7777  0.9083
  297MPD2     N 4534   1.270   1.989  16.535  0.6552 -0.0291  0.2555
  297MPD2    H5 4535   1.258   1.996  16.435  1.9750 -3.3020 -0.1115
  297MPD2    N1 4536   0.840   1.793  16.536 -0.2571  0.5299 -0.5286
  297MPD2    H7 4537   0.846   1.818  16.438  0.3337 -0.4456 -0.7450
  298TMC3    C1 4538   0.617   1.779  16.495  0.3072  0.4336  0.0237
  298TMC3    C2 4539   0.644   1.767  16.361 -0.2729 -0.0071 -0.1893
  298TMC3    C3 4540   0.562   1.824  16.272 -0.0769  0.5528  0.4649
  298TMC3    C4 4541   0.502   1.837  16.539  0.4185 -0.3828 -0.6528
  298TMC3    C5 4542   0.412   1.887  16.453  0.4594 -0.0425  0.4040
  298TMC3    C6 4543   0.453   1.894  16.322 -0.8775 -0.4473  0.4044
  298TMC3     C 4544   0.722   1.750  16.587 -0.6573 -0.1130 -0.8652
  298TMC3     O 4545   0.695   1.707  16.699  0.0565 -0.2629 -0.6904
  298TMC3     H 4546   0.728   1.710  16.322 -0.1964  0.1522 -0.2575
  298TMC3    H1 4547   0.492   1.845  16.647  1.2541 -0.6509 -0.5590
  298TMC3    H2 4548   0.380   1.927  16.250  0.1727 -1.8692 -1.3087
  298TMC3    C7 4549   0.316   1.982  16.508  0.1631  0.5104 -0.0694
  298TMC3    C8 4550   0.630   1.855  16.143  0.7256 -0.2126  0.6488
  298TMC3    O1 4551   0.299   1.959  16.626  0.1560 -0.5616  0.1246
  298TMC3    O2 4552   0.745   1.816  16.127 -0.3312 -0.2072 -0.1839
  299MPD2     C 4553   1.429   2.114  10.771  0.4308  0.6096  0.4422
  299MPD2    C1 4554   1.495   2.111  10.653  0.5089  0.1812 -0.9556
  299MPD2    C2 4555   1.423   2.109  10.534  0.6494  0.3409  0.4637
  299MPD2    C3 4556   1.283   2.116  10.532 -0.3189 -0.2314  0.2166
  299MPD2    C4 4557   1.222   2.127  10.651 -0.1444 -0.1922 -0.6091
  299MPD2    C5 4558   1.291   2.121  10.765  0.7834 -0.7686  0.0186
  299MPD2     H 4559   1.468   2.080  10.440 -0.5972 -1.0367  0.2905
  299MPD2    H1 4560   1.115   2.137  10.661 -0.0428  0.4684 -0.1761
  299MPD2    H2 4561   1.482   2.107  10.865 -0.7124 -1.1272  0.9635
  299MPD2    H3 4562   1.231   2.118  10.855  0.6671  1.0619 -0.0055
  299MPD2     N 4563   1.208   2.104  10.415  0.4116  0.5130 -0.1750
  299MPD2    H5 4564   1.107   2.101  10.421  0.3572 -0.3350 -1.5266
  299MPD2    N1 4565   1.637   2.094  10.666 -0.0819 -0.6343  0.2861
  299MPD2    H7 4566   1.673   2.097  10.761  2.0446  1.0294 -0.5501
  300TMC3    C1 4567   1.151   2.128  10.188 -0.7212  0.4146  0.1248
  300TMC3    C2 4568   1.156   2.242  10.107  0.2493 -0.3620 -1.4437
  300TMC3    C3 4569   1.045   2.293  10.048  0.2292  0.3438 -0.5420
  300TMC3    C4 4570   1.034   2.060  10.201 -0.0724 -0.2779 -0.3528
  300TMC3    C5 4571   0.931   2.083  10.111 -0.6589  0.0341  0.2146
  300TMC3    C6 4572   0.933   2.208  10.044  0.3761  0.1875  0.1201
  300TMC3     C 4573   1.256   2.120  10.289  0.2417 -1.0153 -0.3890
  300TMC3     O 4574   1.375   2.141  10.259 -0.5475  0.1850  0.3250
  300TMC3     H 4575   1.244   2.305  10.105 -0.2768  0.4150  0.2061
  300TMC3    H1 4576   1.039   1.964  10.250 -2.7790 -0.9079 -1.3220
  300TMC3    H2 4577   0.845   2.237   9.989 -0.4345 -1.5248  0.5019
  300TMC3    C7 4578   0.796   2.037  10.142  0.2418  0.0636  0.0712
  300TMC3    C8 4579   1.022   2.431  10.097  0.0236 -0.2219 -0.3904
  300TMC3    O1 4580   0.719   2.018  10.053 -0.1691 -0.6321  0.5183
  300TMC3    O2 4581   1.123   2.496  10.124 -0.3746  0.0316 -0.0096
  301MPD2     C 4582   4.147   3.022   1.005 -0.2003  0.4364 -0.0430
  301MPD2    C1 4583   4.008   3.010   0.992 -0.2327 -0.3969 -0.2951
  301MPD2    C2 4584   3.945   2.902   1.053  0.5367 -0.5745 -0.2199
  301MPD2    C3 4585   4.020   2.802   1.112  0.9596  0.3812 -0.1399
  301MPD2    C4 4586   4.161   2.814   1.118  0.2381 -0.6080  0.7817
  301MPD2    C5 4587   4.224   2.926   1.065  0.2657 -0.3464  0.5996
  301MPD2     H 4588   3.836   2.902   1.051  0.5215  1.6892  1.1573
  301MPD2    H1 4589   4.218   2.738   1.170  1.0389 -0.3818  0.2330
  301MPD2    H2 4590   4.202   3.102   0.955 -0.5381 -0.9546 -2.6357
  301MPD2    H3 4591   4.332   2.924   1.058  0.2225  1.3282 -0.6241
  301MPD2     N 4592   3.958   2.688   1.165  0.2195  0.1199  0.4595
  301MPD2    H5 4593   4.014   2.604   1.164  0.9914  0.6435 -0.9737
  301MPD2    N1 4594   3.925   3.099   0.927  0.1663  0.1679 -0.3151
  301MPD2    H7 4595   3.827   3.074   0.916 -0.3629  1.4143  1.5339
  302TMC3    C1 4596   3.774   2.548   1.153 -0.6543 -0.8923 -0.2106
  302TMC3    C2 4597   3.776   2.460   1.255 -0.3425  0.0427 -0.1273
  302TMC3    C3 4598   3.677   2.365   1.269 -0.0932  0.6192 -0.1062
  302TMC3    C4 4599   3.669   2.553   1.074  0.2376 -1.3024 -0.1146
  302TMC3    C5 4600   3.568   2.460   1.085  0.2222 -0.6503 -0.2347
  302TMC3    C6 4601   3.574   2.359   1.178 -0.0905 -0.4427 -0.1623
  302TMC3     C 4602   3.822   2.678   1.177 -0.2700  0.1469  0.1432
  302TMC3     O 4603   3.742   2.767   1.202  0.2779  0.6635  0.0537
  302TMC3     H 4604   3.845   2.469   1.339 -1.0863  1.3786  0.3439
  302TMC3    H1 4605   3.678   2.628   0.996 -2.7225 -1.8091 -0.9313
  302TMC3    H2 4606   3.501   2.278   1.185  1.0887 -1.5712 -1.0365
  302TMC3    C7 4607   3.444   2.488   1.022  0.5871 -0.4817  0.1717
  302TMC3    C8 4608   3.704   2.247   1.353 -0.6200  0.0136  0.9599
  302TMC3    O1 4609   3.454   2.559   0.922 -0.5449 -0.2437  0.3761
  302TMC3    O2 4610   3.815   2.239   1.405  0.6052 -0.7957 -0.7034
  303MPD2     C 4611   3.898   1.271  10.344  0.1444  0.2355  0.3684
  303MPD2    C1 4612   3.867   1.134  10.354  0.7191 -0.2185 -0.2154
  303MPD2    C2 4613   3.822   1.073  10.237  0.0675 -0.5050  0.8222
  303MPD2    C3 4614   3.826   1.142  10.115 -0.8001 -0.4178 -0.8037
  303MPD2    C4 4615   3.874   1.274  10.107 -0.2754  0.6259 -0.7975
  303MPD2    C5 4616   3.916   1.336  10.221 -0.2909  0.0890  0.4106
  303MPD2     H 4617   3.794   0.968  10.238 -1.8917  0.0255  2.9416
  303MPD2    H1 4618   3.867   1.338  10.019  2.5123  0.9092 -0.8354
  303MPD2    H2 4619   3.928   1.323  10.434  1.7674  0.5040 -0.3228
  303MPD2    H3 4620   3.959   1.435  10.216 -0.9634  0.4558  1.8145
  303MPD2     N 4621   3.787   1.086   9.994 -0.2214 -0.3648 -0.1408
  303MPD2    H5 4622   3.802   1.140   9.909  1.0589  1.8934  1.5122
  303MPD2    N1 4623   3.868   1.073  10.477 -0.4782 -0.3779  0.1942
  303MPD2    H7 4624   3.853   1.133  10.558 -0.8146  0.6249 -0.6189
  304TMC3    C1 4625   3.871   0.906  10.639 -0.0480 -0.6352 -0.3299
  304TMC3    C2 4626   3.783   0.974  10.718 -0.3264 -0.3700  0.1304
  304TMC3    C3 4627   3.752   0.914  10.834  0.6309 -0.4539  0.3663
  304TMC3    C4 4628   3.927   0.788  10.671  0.7360  0.2250  0.7370
  304TMC3    C5 4629   3.886   0.717  10.780 -0.0884 -0.2410 -0.0381
  304TMC3    C6 4630   3.808   0.788  10.863  0.0208  0.0627 -0.3519
  304TMC3     C 4631   3.863   0.940  10.494  0.3338 -0.2808 -0.2258
  304TMC3     O 4632   3.895   0.855  10.416 -0.2867 -0.9461 -0.2355
  304TMC3     H 4633   3.716   1.042  10.665  0.4560 -0.0754 -0.4776
  304TMC3    H1 4634   3.972   0.728  10.592 -1.0938 -1.2471  0.8259
  304TMC3    H2 4635   3.763   0.731  10.944 -0.9918 -0.2451 -1.1321
  304TMC3    C7 4636   3.809   0.606  10.729 -0.2366  0.3545 -0.0612
  304TMC3    C8 4637   3.611   0.896  10.848  0.1255  0.1116  0.3566
  304TMC3    O1 4638   3.739   0.620  10.633  0.1557  0.8977 -0.3586
  304TMC3    O2 4639   3.542   0.899  10.752 -0.4013 -0.2337  0.2030
  305MPD2     C 4640   2.149   4.019  13.825  0.0075  0.9005  0.8152
  305MPD2    C1 4641   2.186   3.898  13.867 -0.2747  0.0517 -0.6930
  305MPD2    C2 4642   2.175   3.789  13.782 -0.1665 -0.0763 -0.8030
  305MPD2    C3 4643   2.131   3.803  13.647  0.5099 -0.5634 -0.3144
  305MPD2    C4 4644   2.084   3.931  13.610  0.0668 -0.0271  0.2687
  305MPD2    C5 4645   2.097   4.037  13.695  0.4002 -0.2281 -0.8855
  305MPD2     H 4646   2.217   3.693  13.811 -0.4978 -0.0345 -0.1867
  305MPD2    H1 4647   2.046   3.956  13.511  3.5032  1.3368 -0.7184
  305MPD2    H2 4648   2.172   4.111  13.877  1.6443  0.8576  0.1729
  305MPD2    H3 4649   2.060   4.130  13.655 -0.8949  0.9979  3.0999
  305MPD2     N 4650   2.129   3.695  13.552 -0.2106  0.4531  0.2831
  305MPD2    H5 4651   2.068   3.710  13.473 -0.4624 -0.0527  0.3744
  305MPD2    N1 4652   2.243   3.891  13.996 -0.3565 -0.7468 -0.4555
  305MPD2    H7 4653   2.266   3.976  14.047  0.2483 -0.9505 -0.3844
  306TMC3    C1 4654   2.345   3.792  14.195  0.4173  0.1032  0.3707
  306TMC3    C2 4655   2.320   3.704  14.291  0.0896 -0.1159 -0.5208
  306TMC3    C3 4656   2.394   3.706  14.406 -0.0980 -0.1086 -0.3613
  306TMC3    C4 4657   2.442   3.888  14.206  0.6495  0.4383 -0.0962
  306TMC3    C5 4658   2.517   3.887  14.322  0.1033  0.6946 -0.3177
  306TMC3    C6 4659   2.491   3.799  14.428 -0.1906 -0.3238  0.3880
  306TMC3     C 4660   2.285   3.773  14.057 -0.9057  0.6682 -0.8318
  306TMC3     O 4661   2.266   3.655  14.028  0.4880 -0.7852  0.9201
  306TMC3     H 4662   2.259   3.617  14.269  0.0742  0.7007 -3.5800
  306TMC3    H1 4663   2.462   3.959  14.126 -1.9421 -0.3147 -1.4061
  306TMC3    H2 4664   2.548   3.790  14.520 -0.4866 -0.2717  0.5744
  306TMC3    C7 4665   2.612   3.996  14.335 -0.0401  0.7088  0.3951
  306TMC3    C8 4666   2.378   3.591  14.499  0.3032 -0.0164 -0.2445
  306TMC3    O1 4667   2.626   4.070  14.237 -0.1751  0.0470  0.0990
  306TMC3    O2 4668   2.482   3.565  14.559  0.4412 -0.5955 -0.0001
  307MPD2     C 4669   4.464   1.295   0.425 -0.3254 -0.2175  0.0592
  307MPD2    C1 4670   4.414   1.425   0.411  0.0761  0.6198 -0.0410
  307MPD2    C2 4671   4.361   1.485   0.520  0.4644  0.4820 -0.1050
  307MPD2    C3 4672   4.365   1.423   0.639  0.2151 -0.0564  0.1533
  307MPD2    C4 4673   4.400   1.294   0.648  0.4643 -0.3306  0.0504
  307MPD2    C5 4674   4.457   1.229   0.544  0.1527 -0.3624  0.1549
  307MPD2     H 4675   4.314   1.582   0.513 -0.2440 -0.1284 -4.0064
  307MPD2    H1 4676   4.391   1.245   0.744  0.1934 -2.4009 -1.0120
  307MPD2    H2 4677   4.502   1.242   0.338  3.7688 -0.4703  1.9709
  307MPD2    H3 4678   4.495   1.129   0.559 -1.9968 -1.0779  0.7200
  307MPD2     N 4679   4.317   1.496   0.750  0.5700 -0.0977 -0.5196
  307MPD2    H5 4680   4.265   1.580   0.726 -0.6154 -1.4606 -2.7847
  307MPD2    N1 4681   4.407   1.489   0.282 -0.4913  0.0583  0.2482
  307MPD2    H7 4682   4.377   1.586   0.280  0.4569  0.4056  2.7903
  308TMC3    C1 4683   4.146   1.765   0.996  0.2693  0.1386  0.0169
  308TMC3    C2 4684   4.232   1.818   1.085  0.3170 -0.0885 -0.2461
  308TMC3    C3 4685   4.357   1.766   1.097  0.7613  0.5970 -0.2413
  308TMC3    C4 4686   4.181   1.647   0.937 -0.7468  0.3597  0.1248
  308TMC3    C5 4687   4.302   1.589   0.965  0.4992 -0.7113 -0.3072
  308TMC3    C6 4688   4.392   1.645   1.046  0.1149 -0.5683 -0.3796
  308TMC3     C 4689   4.084   1.853   0.900 -0.1381  0.0638  0.4676
  308TMC3     O 4690   4.147   1.949   0.869  0.4049  0.6069  0.2613
  308TMC3     H 4691   4.201   1.913   1.126  1.3770  1.1499 -2.2973
  308TMC3    H1 4692   4.114   1.602   0.865 -0.2972  2.5139 -1.6496
  308TMC3    H2 4693   4.495   1.613   1.063  0.2536  0.1626  0.1567
  308TMC3    C7 4694   4.341   1.464   0.887 -0.0641 -0.2836  0.3532
  308TMC3    C8 4695   4.459   1.867   1.062 -0.2013  0.0869 -0.0861
  308TMC3    O1 4696   4.430   1.394   0.933 -0.5076 -0.1715 -0.0541
  308TMC3    O2 4697   4.577   1.846   1.089  0.2855 -0.1242 -0.5504
  309MPD2     C 4698   3.490   2.108  17.472 -0.0369 -0.1791 -0.4054
  309MPD2    C1 4699   3.389   2.141  17.390 -0.2914 -0.2672  0.1547
  309MPD2    C2 4700   3.275   2.180  17.451 -0.6523  0.2722 -0.5551
  309MPD2    C3 4701   3.261   2.205  17.587  0.0849 -0.5692  0.5993
  309MPD2    C4 4702   3.367   2.166  17.670  0.3938 -0.4041 -0.1910
  309MPD2    C5 4703   3.478   2.110  17.606  0.0797  0.3017  0.4260
  309MPD2     H 4704   3.184   2.207  17.398  0.5486 -1.2316 -3.3672
  309MPD2    H1 4705   3.359   2.165   0.042 -2.0172  1.2939 -0.3626
  309MPD2    H2 4706   3.580   2.067  17.427 -1.6234 -3.7827 -0.2889
  309MPD2    H3 4707   3.557   2.081  17.674 -0.4440 -0.5391  0.6755
  309MPD2     N 4708   3.143   2.242  17.653  0.8808  0.1469  0.1686
  309MPD2    H5 4709   3.138   2.222   0.017  1.3706 -0.8114 -0.0074
  309MPD2    N1 4710   3.401   2.120  17.252 -0.1480  0.2408  0.2260
  309MPD2    H7 4711   3.318   2.137  17.196  0.5390  1.5947 -0.3871
  310TMC3    C1 4712   3.534   2.007  17.095  0.2591  0.1543  0.1084
  310TMC3    C2 4713   3.488   2.002  16.966  0.2828  0.2569 -0.6942
  310TMC3    C3 4714   3.543   1.921  16.873 -0.0714  0.0106  0.0041
  310TMC3    C4 4715   3.626   1.914  17.136 -0.7332  0.0267 -0.6866
  310TMC3    C5 4716   3.666   1.823  17.050 -0.4203 -1.0508  0.0390
  310TMC3    C6 4717   3.628   1.815  16.914  0.1514 -0.5286 -0.0003
  310TMC3     C 4718   3.521   2.122  17.189  0.5299  0.0709  0.1827
  310TMC3     O 4719   3.628   2.166  17.226  0.1121  0.0888 -0.4621
  310TMC3     H 4720   3.432   2.088  16.931 -0.1263 -0.0932 -0.8992
  310TMC3    H1 4721   3.662   1.908  17.238  2.9788  0.4638 -1.9674
  310TMC3    H2 4722   3.638   1.726  16.852  1.7840 -0.2986 -0.0711
  310TMC3    C7 4723   3.773   1.736  17.103  0.0094  0.6170 -0.1314
  310TMC3    C8 4724   3.474   1.922  16.743 -0.5318  0.0214 -0.4625
  310TMC3    O1 4725   3.822   1.766  17.211 -0.8736 -0.0179  0.0006
  310TMC3    O2 4726   3.377   1.999  16.727 -0.0080  0.5023  0.6227
  311MPD2     C 4727   1.207   3.421  12.276 -0.1826  0.3255  0.4012
  311MPD2    C1 4728   1.232   3.372  12.409  0.3561  0.4115  0.6284
  311MPD2    C2 4729   1.135   3.379  12.505  0.0746  0.3608 -0.2618
  311MPD2    C3 4730   1.007   3.422  12.468  0.7914 -0.0080 -0.0074
  311MPD2    C4 4731   0.978   3.459  12.333  0.7766 -0.6649  0.0586
  311MPD2    C5 4732   1.085   3.459  12.241 -0.2182 -0.4531 -0.3667
  311MPD2     H 4733   1.162   3.349  12.606 -2.2666 -0.7001  0.0552
  311MPD2    H1 4734   0.884   3.503  12.301  0.7469 -0.5921  0.2428
  311MPD2    H2 4735   1.280   3.426  12.196 -1.6058  0.8757 -0.8393
  311MPD2    H3 4736   1.074   3.505  12.143  0.1203  0.7063  0.1391
  311MPD2     N 4737   0.908   3.423  12.568  0.1157  1.0639 -0.2432
  311MPD2    H5 4738   0.935   3.398  12.663  0.5438  1.4582 -0.2596
  311MPD2    N1 4739   1.365   3.337  12.444  0.2426  0.4919 -0.0929
  311MPD2    H7 4740   1.389   3.332  12.542 -2.4046 -0.1704  0.5202
  312TMC3    C1 4741   0.712   3.406  12.683  0.4973 -0.6372 -0.7634
  312TMC3    C2 4742   0.602   3.331  12.678  0.1297  0.5465 -0.6390
  312TMC3    C3 4743   0.568   3.278  12.800  0.1029 -0.7633  0.3920
  312TMC3    C4 4744   0.788   3.424  12.788  0.4189  0.4170 -0.0539
  312TMC3    C5 4745   0.746   3.371  12.905  0.3465  0.1945  0.4089
  312TMC3    C6 4746   0.632   3.298  12.914 -0.1056  0.4066 -0.5811
  312TMC3     C 4747   0.772   3.420  12.557 -0.7417 -0.0090  0.7055
  312TMC3     O 4748   0.706   3.414  12.454  0.0285 -0.0113 -0.1221
  312TMC3     H 4749   0.554   3.301  12.585 -0.1752  2.1143 -0.9902
  312TMC3    H1 4750   0.878   3.485  12.792  0.9179 -0.3911  1.0114
  312TMC3    H2 4751   0.595   3.265  13.010 -3.5612  2.1601 -1.3213
  312TMC3    C7 4752   0.831   3.392  13.022 -0.1819  0.0001 -0.2825
  312TMC3    C8 4753   0.433   3.230  12.814 -0.1278  0.3436 -0.4859
  312TMC3    O1 4754   0.908   3.487  13.021 -0.0601  0.0088  0.5431
  312TMC3    O2 4755   0.417   3.150  12.908 -0.5190  0.7670 -0.1291
  313MPD2     C 4756   0.144   2.764  11.538 -0.5308 -0.7613  0.6276
  313MPD2    C1 4757   0.096   2.779  11.408 -0.5909  0.3938  0.4168
  313MPD2    C2 4758   0.015   2.685  11.352  0.8246 -0.4478 -0.7465
  313MPD2    C3 4759   4.719   2.572  11.423  1.2136 -0.3391  0.4853
  313MPD2    C4 4760   0.030   2.558  11.553  0.1764  0.3778 -0.5547
  313MPD2    C5 4761   0.109   2.655  11.607  0.5510 -0.0899 -0.3899
  313MPD2     H 4762   4.717   2.705  11.250  0.2614 -1.4599 -0.7710
  313MPD2    H1 4763   0.022   2.464  11.606  1.5476 -0.2373 -1.4388
  313MPD2    H2 4764   0.203   2.840  11.588 -1.1627 -1.0772  1.8519
  313MPD2    H3 4765   0.146   2.639  11.708 -2.1676 -1.4030  0.3993
  313MPD2     N 4766   4.664   2.468  11.349  0.1896  0.0285 -0.1118
  313MPD2    H5 4767   4.654   2.477  11.249  0.7124  1.0145 -0.0798
  313MPD2    N1 4768   0.133   2.879  11.313 -0.0610  0.3840  0.5221
  313MPD2    H7 4769   0.086   2.881  11.223 -0.2490  0.0090  0.6164
  314TMC3    C1 4770   0.248   3.064  11.230  0.5840 -0.3513 -0.0039
  314TMC3    C2 4771   0.376   3.109  11.209  1.0893 -0.5144  0.5848
  314TMC3    C3 4772   0.393   3.207  11.116  0.3274 -0.0754 -0.3146
  314TMC3    C4 4773   0.139   3.115  11.165 -0.4862  0.0532 -0.3533
  314TMC3    C5 4774   0.160   3.215  11.072  0.0699 -1.5615 -1.1061
  314TMC3    C6 4775   0.286   3.261  11.052 -0.6101  0.9729 -0.1213
  314TMC3     C 4776   0.242   2.961  11.328 -0.1229  0.5801 -0.6204
  314TMC3     O 4777   0.324   2.965  11.417  0.1579  0.3592  0.4070
  314TMC3     H 4778   0.460   3.058  11.253  2.0730  0.8914  0.3356
  314TMC3    H1 4779   0.037   3.088  11.191 -0.9393  1.0911 -1.0195
  314TMC3    H2 4780   0.300   3.348  10.990 -1.6687  1.2409  0.0073
  314TMC3    C7 4781   0.085   3.211  10.954  0.3815 -0.4283  0.3757
  314TMC3    C8 4782   0.519   3.251  11.065 -0.6651 -0.2153  0.7540
  314TMC3    O1 4783   4.698   3.212  10.968  0.3523 -0.3911  0.0050
  314TMC3    O2 4784   0.526   3.309  10.958  0.1321 -0.0142 -0.3618
  315MPD2     C 4785   0.040   1.242   0.009 -0.5049  0.3414  0.1544
  315MPD2    C1 4786   0.090   1.259   0.134  0.0082 -0.4552 -0.2645
  315MPD2    C2 4787   0.143   1.385   0.164 -0.6445  0.3635 -0.5428
  315MPD2    C3 4788   0.125   1.488   0.078 -0.1457  0.2424 -0.7584
  315MPD2    C4 4789   0.072   1.471  17.691 -0.8036 -0.6326  0.7044
  315MPD2    C5 4790   0.038   1.347  17.652  0.0542 -0.8307 -0.0611
  315MPD2     H 4791   0.175   1.411   0.264 -0.9340 -0.5588 -0.2063
  315MPD2    H1 4792   0.059   1.546  17.614  0.0361 -0.6637  0.5363
  315MPD2    H2 4793   0.012   1.143  17.710  0.3926  1.2873 -3.3563
  315MPD2    H3 4794   4.730   1.323  17.555  1.7536  0.2228 -1.0547
  315MPD2     N 4795   0.181   1.612   0.117 -0.5600  0.0596  0.1393
  315MPD2    H5 4796   0.220   1.602   0.211 -0.7058 -2.6773 -0.0951
  315MPD2    N1 4797   0.078   1.168   0.241  0.4442 -0.5249  0.8171
  315MPD2    H7 4798   0.113   1.193   0.333  2.1717  0.0207  0.0094
  316TMC3    C1 4799   0.203   1.847   0.144  0.9176 -0.2448 -0.0571
  316TMC3    C2 4800   0.263   1.834   0.271 -0.6652  0.4596 -0.3587
  316TMC3    C3 4801   0.324   1.937   0.329  0.3082  0.4071 -0.9906
  316TMC3    C4 4802   0.208   1.967   0.077 -0.1559  0.0284 -0.0334
  316TMC3    C5 4803   0.273   2.071   0.138 -0.0456 -0.6152 -0.0725
  316TMC3    C6 4804   0.324   2.064   0.267  0.6145 -0.3136  0.3639
  316TMC3     C 4805   0.163   1.731   0.062 -0.2256 -0.1297 -0.4888
  316TMC3     O 4806   0.114   1.756  17.689 -1.0423 -0.4352 -0.6295
  316TMC3     H 4807   0.237   1.749   0.332 -3.3531  0.4131 -1.5497
  316TMC3    H1 4808   0.170   1.975  17.711  2.2633 -0.5698 -0.9863
  316TMC3    H2 4809   0.354   2.148   0.328 -0.0969 -1.6513  2.5652
  316TMC3    C7 4810   0.288   2.201   0.078 -0.6747  0.3663  0.0041
  316TMC3    C8 4811   0.390   1.920   0.456 -0.3354 -0.2768  0.4227
  316TMC3    O1 4812   0.361   2.278   0.136 -0.3192 -0.2130  0.1459
  316TMC3    O2 4813   0.399   2.024   0.522  0.4538  0.5144 -0.1400
  317MPD2     C 4814   2.402   0.426  12.841  0.4907 -0.4230  0.3387
  317MPD2    C1 4815   2.446   0.301  12.820  0.1451 -0.7238 -0.6731
  317MPD2    C2 4816   2.506   0.231  12.921  0.5374 -0.3909  0.8226
  317MPD2    C3 4817   2.517   0.284  13.049 -0.1193 -0.8506 -0.4672
  317MPD2    C4 4818   2.472   0.416  13.060  0.0717  0.2439 -0.4035
  317MPD2    C5 4819   2.418   0.487  12.960 -0.0019  0.2047 -0.9158
  317MPD2     H 4820   2.534   0.127  12.908  1.7748 -0.1293  1.3347
  317MPD2    H1 4821   2.478   0.468  13.155  0.5643  0.6539 -0.6585
  317MPD2    H2 4822   2.385   0.492  12.757 -2.2182 -1.3721  0.1655
  317MPD2    H3 4823   2.384   0.588  12.977 -0.9582 -0.6080  1.9548
  317MPD2     N 4824   2.570   0.199  13.151  0.1454  0.0538 -0.2255
  317MPD2    H5 4825   2.583   0.100  13.133  0.0337 -0.4201  2.2869
  317MPD2    N1 4826   2.440   0.236  12.698 -0.1750  0.3897  0.3650
  317MPD2    H7 4827   2.469   0.139  12.708 -0.0120  0.1775 -2.1489
  318TMC3    C1 4828   2.642   0.133  13.364  0.1846  0.2238  0.6284
  318TMC3    C2 4829   2.584   0.015  13.349  0.2897 -0.5487  0.2475
  318TMC3    C3 4830   2.616   4.646  13.435 -0.2276 -0.5685  0.3243
  318TMC3    C4 4831   2.731   0.157  13.466  0.2349 -0.3453 -0.0018
  318TMC3    C5 4832   2.782   0.050  13.532  0.0739 -0.4355 -0.1797
  318TMC3    C6 4833   2.720   4.660  13.523 -0.4310  0.9111  0.1065
  318TMC3     C 4834   2.602   0.238  13.277  0.2406  0.0041 -0.2557
  318TMC3     O 4835   2.619   0.352  13.321 -1.0024  0.2950  0.2505
  318TMC3     H 4836   2.492   0.008  13.292  2.0411  0.9616 -2.7986
  318TMC3    H1 4837   2.788   0.250  13.467  0.6325 -0.6046  1.0477
  318TMC3    H2 4838   2.759   4.573  13.575 -2.3116  0.4669  0.7910
  318TMC3    C7 4839   2.916   0.053  13.588 -0.0655 -0.4004 -0.8274
  318TMC3    C8 4840   2.558   4.516  13.411  0.4712  0.3366  0.4707
  318TMC3    O1 4841   2.957   0.163  13.614 -0.0920 -0.0316  0.3531
  318TMC3    O2 4842   2.605   4.425  13.474 -0.1550 -0.0490  0.5238
  319MPD2     C 4843   3.262   1.540  16.606  0.2096 -0.2894  0.5228
  319MPD2    C1 4844   3.139   1.474  16.583  0.0656 -0.9791  0.3491
  319MPD2    C2 4845   3.120   1.378  16.482 -0.1417  0.5355 -0.8759
  319MPD2    C3 4846   3.226   1.359  16.393  0.1151  0.5251  0.3733
  319MPD2    C4 4847   3.350   1.426  16.415 -0.4565  0.4422  0.6136
  319MPD2    C5 4848   3.363   1.505  16.521  0.8568  0.1857  0.3528
  319MPD2     H 4849   3.017   1.346  16.478 -0.1272  0.3142  0.7834
  319MPD2    H1 4850   3.439   1.422  16.352 -1.1342  0.0801 -0.3156
  319MPD2    H2 4851   3.278   1.614  16.683 -1.8471  1.4058 -0.6832
  319MPD2    H3 4852   3.450   1.569  16.510  1.1472 -0.2687 -0.0043
  319MPD2     N 4853   3.200   1.287  16.278  0.1542  0.0559  0.2821
  319MPD2    H5 4854   3.258   1.306  16.197  0.1971  0.3219  0.3765
  319MPD2    N1 4855   3.031   1.491  16.677  0.2654  0.2673  0.2309
  319MPD2    H7 4856   2.949   1.435  16.655  0.8795 -0.1942 -0.9457
  320TMC3    C1 4857   3.068   1.154  16.122 -0.5084 -0.0347 -0.2285
  320TMC3    C2 4858   3.046   1.245  16.024  0.5462  0.4631  0.3192
  320TMC3    C3 4859   2.981   1.207  15.911  0.4308  0.0772 -0.4129
  320TMC3    C4 4860   3.008   1.031  16.123 -0.5265  0.4931 -0.7401
  320TMC3    C5 4861   2.936   0.995  16.013  0.3373 -0.7056 -0.1369
  320TMC3    C6 4862   2.933   1.079  15.903  0.1840  0.6420  0.4193
  320TMC3     C 4863   3.095   1.200  16.257 -0.0505 -0.1544  0.0131
  320TMC3     O 4864   3.028   1.145  16.345  0.1321 -0.1437 -0.0966
  320TMC3     H 4865   3.083   1.347  16.027  0.3616  0.4817  1.9493
  320TMC3    H1 4866   3.037   0.963  16.202  4.4623  1.2544 -1.8770
  320TMC3    H2 4867   2.865   1.050  15.823 -1.7657  0.8516  2.0260
  320TMC3    C7 4868   2.853   0.878  16.021  1.0122 -0.0001 -0.5805
  320TMC3    C8 4869   2.882   1.304  15.870  0.0998 -1.1180  0.1877
  320TMC3    O1 4870   2.835   0.805  15.923  0.4675 -0.3436  0.7745
  320TMC3    O2 4871   2.849   1.388  15.952 -0.2622 -0.1723  0.7638
  321TMC3    C1 4872   2.888   1.600  16.828 -0.0905  0.2515  0.5280
  321TMC3    C2 4873   2.824   1.494  16.889 -0.3171 -0.2172  0.5635
  321TMC3    C3 4874   2.737   1.518  16.990  0.1032  0.3012 -0.1539
  321TMC3    C4 4875   2.865   1.728  16.869  0.5722  0.1435  0.0273
  321TMC3    C5 4876   2.762   1.755  16.963 -0.6832 -0.4850  1.0682
  321TMC3    C6 4877   2.699   1.650  17.020 -0.2588  0.1529  0.0350
  321TMC3     C 4878   3.025   1.585  16.776 -0.1044  0.7997  0.0208
  321TMC3     O 4879   3.118   1.652  16.823 -0.5088 -0.2552  0.2449
  321TMC3     H 4880   2.863   1.400  16.850  1.0361 -0.6029  2.8668
  321TMC3    H1 4881   2.930   1.805  16.827  0.9076 -1.4357 -2.3728
  321TMC3    H2 4882   2.633   1.666  17.105  1.1092 -1.9394  1.4850
  321TMC3    C7 4883   2.843   1.816  17.066 -0.6792  0.4117 -0.3285
  321TMC3    C8 4884   2.760   1.434  17.104 -1.3593 -0.2575  0.1311
  321TMC3    O1 4885   2.959   1.792  17.059 -0.4410 -0.0858  0.1003
  321TMC3    O2 4886   2.741   1.489  17.209  0.2230  0.0560  0.3109
  322MPD2     C 4887   1.960   2.775  13.634 -0.0703 -0.7396  0.0860
  322MPD2    C1 4888   1.981   2.700  13.747 -0.4108  0.3318 -0.6405
  322MPD2    C2 4889   2.008   2.570  13.733 -0.0474  0.2156 -0.3749
  322MPD2    C3 4890   2.008   2.512  13.606  0.1303  0.3486  0.5533
  322MPD2    C4 4891   1.983   2.587  13.491  0.3704  0.0990 -0.1640
  322MPD2    C5 4892   1.960   2.717  13.508 -0.1097 -0.3858 -0.4118
  322MPD2     H 4893   2.029   2.513  13.823  0.1940  0.8803 -0.0138
  322MPD2    H1 4894   1.986   2.553  13.388  1.0009  2.7361 -0.9981
  322MPD2    H2 4895   1.947   2.882  13.642  0.6985 -0.6928  0.6925
  322MPD2    H3 4896   1.939   2.781  13.423  0.1214  1.9012  1.2619
  322MPD2     N 4897   2.050   2.381  13.605  0.0324 -0.5027 -0.0047
  322MPD2    H5 4898   2.069   2.346  13.698 -0.0564 -0.0029  0.1990
  322MPD2    N1 4899   1.979   2.770  13.871 -0.2563  0.4946  0.2368
  322MPD2    H7 4900   1.951   2.868  13.877 -3.4639 -0.3492 -0.9445
  323TMC3    C1 4901   2.035   2.815  14.098  0.2497  0.2835 -0.7222
  323TMC3    C2 4902   2.090   2.934  14.060 -0.3778  0.3135 -0.4507
  323TMC3    C3 4903   2.169   3.002  14.156  0.4224  0.1956  0.2491
  323TMC3    C4 4904   2.042   2.776  14.229 -0.0146 -0.3965 -0.3815
  323TMC3    C5 4905   2.081   2.863  14.328 -0.4193 -0.9860  0.0671
  323TMC3    C6 4906   2.157   2.972  14.290 -0.1209  0.3608  0.9253
  323TMC3     C 4907   2.004   2.716  13.992  0.6422  0.5566 -0.0261
  323TMC3     O 4908   2.021   2.605  14.033  0.6602 -0.0631 -0.2943
  323TMC3     H 4909   2.099   2.961  13.955  0.0961 -1.7514 -0.9435
  323TMC3    H1 4910   1.987   2.688  14.260  0.1717 -0.5602 -0.5129
  323TMC3    H2 4911   2.219   3.029  14.358  0.6632  1.4060 -0.6672
  323TMC3    C7 4912   2.087   2.802  14.460 -0.0946  0.2488 -0.1956
  323TMC3    C8 4913   2.295   3.051  14.123 -0.3664  0.6655 -0.1797
  323TMC3    O1 4914   2.074   2.679  14.459 -0.1844 -0.4718 -0.5120
  323TMC3    O2 4915   2.370   3.083  14.215 -0.5741 -0.2305  0.0374
  324MPD2     C 4916   3.885   3.583  14.231 -0.7866  0.0114 -0.2412
  324MPD2    C1 4917   3.828   3.687  14.314 -0.3264  0.4410  0.4725
  324MPD2    C2 4918   3.696   3.727  14.290 -0.1006 -0.5653 -0.1809
  324MPD2    C3 4919   3.618   3.671  14.188 -0.3938  0.0555  0.0693
  324MPD2    C4 4920   3.666   3.562  14.120 -0.1357  0.0529 -0.0718
  324MPD2    C5 4921   3.795   3.524  14.139  0.1788 -0.2446 -0.3210
  324MPD2     H 4922   3.654   3.805  14.353 -0.6082 -1.0507  0.0791
  324MPD2    H1 4923   3.609   3.529  14.034 -2.4601 -0.2669  1.5828
  324MPD2    H2 4924   3.985   3.542  14.228 -1.5770 -2.0371  1.2925
  324MPD2    H3 4925   3.830   3.440  14.080 -1.6298 -2.6421  2.0035
  324MPD2     N 4926   3.486   3.714  14.155 -0.1082  0.1701  0.4651
  324MPD2    H5 4927   3.439   3.657  14.085  2.0233 -1.1519  0.1098
  324MPD2    N1 4928   3.904   3.745  14.411  0.8994  0.3839 -0.1078
  324MPD2    H7 4929   3.854   3.821  14.455  2.3559  0.0824  2.0706
  325TMC3    C1 4930   3.293   3.845  14.143  0.8845 -0.4468 -0.1352
  325TMC3    C2 4931   3.231   3.733  14.085 -0.2505  1.0324  0.3024
  325TMC3    C3 4932   3.119   3.756  14.013  0.2496 -0.3789 -0.0955
  325TMC3    C4 4933   3.252   3.973  14.118  0.0809  0.3412 -0.3660
  325TMC3    C5 4934   3.142   3.990  14.041  0.4838  0.0713 -0.4747
  325TMC3    C6 4935   3.071   3.881  13.991 -0.4024 -0.2592 -0.1065
  325TMC3     C 4936   3.419   3.827  14.206 -0.5671 -0.2887 -0.3581
  325TMC3     O 4937   3.466   3.916  14.275 -0.2851 -0.1589 -0.7871
  325TMC3     H 4938   3.266   3.633  14.108 -0.4523  0.6297 -1.1615
  325TMC3    H1 4939   3.323   4.048  14.150  0.1530 -0.3512  1.1172
  325TMC3    H2 4940   2.986   3.904  13.928 -0.1558 -0.4135 -0.4964
  325TMC3    C7 4941   3.121   4.125  13.991  0.3507  0.3945 -0.0471
  325TMC3    C8 4942   3.047   3.646  13.947 -0.7615  0.2732  0.2210
  325TMC3    O1 4943   3.047   4.136  13.893  0.0587  0.3286 -0.2484
  325TMC3    O2 4944   3.113   3.552  13.910 -0.0174 -0.8493 -0.1562
  326MPD2     C 4945   4.721   0.083  10.847 -0.0420  0.9867  0.1243
  326MPD2    C1 4946   4.705   0.159  10.730 -0.5465 -0.6368 -0.3810
  326MPD2    C2 4947   0.052   0.266  10.712 -0.5466  0.5389  0.1115
  326MPD2    C3 4948   0.147   0.304  10.810  0.6907  0.1620  0.4356
  326MPD2    C4 4949   0.149   0.240  10.932 -0.1584 -0.5061  0.3640
  326MPD2    C5 4950   0.069   0.132  10.950  0.2800 -0.1794 -0.1941
  326MPD2     H 4951   0.047   0.315  10.616 -0.5464 -0.3486 -0.3395
  326MPD2    H1 4952   0.219   0.275  11.007 -0.2841  0.2516  0.1315
  326MPD2    H2 4953   4.665   4.727  10.867 -0.6197  1.0678 -1.1470
  326MPD2    H3 4954   0.058   0.079  11.044 -1.6359  3.2973  1.5185
  326MPD2     N 4955   0.242   0.410  10.791  0.2374  0.0281 -0.6854
  326MPD2    H5 4956   0.290   0.429  10.878 -0.6052  0.9241 -0.4194
  326MPD2    N1 4957   4.621   0.107  10.622  0.0245  0.1069  0.0928
  326MPD2    H7 4958   4.609   0.167  10.541 -0.2557 -0.9527 -0.6622
  327TMC3    C1 4959   4.505   4.709  10.479  0.3004 -0.8773 -0.5668
  327TMC3    C2 4960   4.408   0.059  10.439 -0.0103  0.1280 -0.5155
  327TMC3    C3 4961   4.395   0.090  10.307 -0.0937 -0.3868  0.4547
  327TMC3    C4 4962   4.596   4.649  10.395  0.8685 -0.5896  0.2246
  327TMC3    C5 4963   4.592   4.696  10.263 -0.4524 -0.0997 -0.4420
  327TMC3    C6 4964   4.482   0.039  10.221  0.0191 -0.0036  0.2845
  327TMC3     C 4965   4.555   4.726  10.612 -0.1418  0.3160 -0.2662
  327TMC3     O 4966   4.554   4.624  10.680  0.3259 -0.4841 -0.2788
  327TMC3     H 4967   4.352   0.101  10.522 -1.8935 -0.3925 -1.5243
  327TMC3    H1 4968   4.678   4.592  10.437  0.5512  0.0734  1.7346
  327TMC3    H2 4969   4.474   0.065  10.116 -1.8911 -1.9485 -0.0333
  327TMC3    C7 4970   4.716   0.024  10.217  0.0620 -0.5805  0.0678
  327TMC3    C8 4971   4.294   0.187  10.272  0.4365  0.5390 -0.5228
  327TMC3    O1 4972   4.714   0.093  10.116 -0.1913  0.0088  0.4201
  327TMC3    O2 4973   4.318   0.254  10.175 -0.3444 -0.0529 -0.3318
  328MPD2     C 4974   2.482   0.124  17.152  1.2510 -0.4340 -0.0678
  328MPD2    C1 4975   2.357   0.065  17.181  0.6210 -0.4315 -0.2601
  328MPD2    C2 4976   2.274   0.048  17.079  0.0520  0.4832  0.5191
  328MPD2    C3 4977   2.308   0.091  16.950 -0.2806  0.4260 -0.3753
  328MPD2    C4 4978   2.423   0.156  16.930 -0.0786  0.2282 -0.1131
  328MPD2    C5 4979   2.511   0.177  17.029  0.3640 -0.2162  0.3332
  328MPD2     H 4980   2.181   4.729  17.094 -0.5107  1.2122 -0.3636
  328MPD2    H1 4981   2.441   0.189  16.828 -0.4716 -0.5210 -0.4304
  328MPD2    H2 4982   2.546   0.137  17.238 -0.1006 -1.2316  1.0508
  328MPD2    H3 4983   2.598   0.234  16.997  0.9062 -0.8438  0.6826
  328MPD2     N 4984   2.224   0.079  16.840 -0.1918 -0.3743 -0.7731
  328MPD2    H5 4985   2.238   0.141  16.761  0.4601 -0.0633 -0.4196
  328MPD2    N1 4986   2.331   0.043  17.314 -0.4583 -0.1745  0.6016
  328MPD2    H7 4987   2.410   0.040  17.378  0.2239  1.5263 -0.1775
  329TMC3    C1 4988   2.216   4.727  17.509  0.1081  0.2109  0.9078
  329TMC3    C2 4989   2.296   0.080  17.576 -0.0110 -0.0650  0.3550
  329TMC3    C3 4990   2.291   0.080  17.716 -0.2751 -0.0312 -0.7005
  329TMC3    C4 4991   2.130   4.644  17.576  0.2866 -0.2568 -0.1654
  329TMC3    C5 4992   2.129   4.638  17.714  0.0202  0.2057 -0.2349
  329TMC3    C6 4993   2.216   4.716   0.050 -0.9362  0.5289  0.6689
  329TMC3     C 4994   2.208   0.006  17.364  0.5305 -0.0921 -0.0654
  329TMC3     O 4995   2.104   4.721  17.306  0.3148 -0.1977  0.0042
  329TMC3     H 4996   2.353   0.158  17.526 -1.1003  0.9044  0.6137
  329TMC3    H1 4997   2.058   4.583  17.522 -0.7229 -0.5728  1.5387
  329TMC3    H2 4998   2.202   4.720   0.157  0.4439 -0.3489  0.8788
  329TMC3    C7 4999   2.018   4.572   0.043 -0.2888  0.2214 -0.1024
  329TMC3    C8 5000   2.350   0.180   0.063  0.1310  0.0993  0.3140
  329TMC3    O1 5001   1.987   4.618   0.154 -0.3194 -0.1561 -0.1046
  329TMC3    O2 5002   2.445   0.247   0.028  0.7343  0.0602  0.0294
  330TMC3    C1 5003   0.489   4.362   9.432 -0.3303  0.9133 -0.3275
  330TMC3    C2 5004   0.410   4.299   9.343 -0.5279 -0.0399  0.2008
  330TMC3    C3 5005   0.415   4.165   9.341  0.1776 -0.1118  0.4267
  330TMC3    C4 5006   0.567   4.301   9.519  0.6782  0.1589 -0.7517
  330TMC3    C5 5007   0.556   4.164   9.520 -0.3161 -0.3677 -0.2510
  330TMC3    C6 5008   0.490   4.092   9.429  0.1953 -0.0189 -0.0485
  330TMC3     C 5009   0.482   4.506   9.452  0.4235  0.1999  0.4045
  330TMC3     O 5010   0.548   4.548   9.546 -0.0634 -0.3425 -0.3782
  330TMC3     H 5011   0.335   4.354   9.286 -0.2080 -0.9126 -1.0612
  330TMC3    H1 5012   0.628   4.355   9.590 -1.1871  1.6525 -0.2749
  330TMC3    H2 5013   0.508   3.986   9.417 -1.0973  0.0093 -2.3096
  330TMC3    C7 5014   0.621   4.096   9.627  0.8112  0.2429  0.7383
  330TMC3    C8 5015   0.333   4.094   9.241 -0.4648 -0.1206 -0.2305
  330TMC3    O1 5016   0.721   4.150   9.675 -0.3825  0.6453 -0.2255
  330TMC3    O2 5017   0.313   4.164   9.141 -0.4754 -0.2274 -0.1791
  331MPD2     C 5018   3.513   3.360  13.011  0.0227  0.4355 -0.6443
  331MPD2    C1 5019   3.570   3.311  12.902 -0.1340  0.1255  0.0417
  331MPD2    C2 5020   3.544   3.183  12.855  0.4255  0.7223  0.6254
  331MPD2    C3 5021   3.471   3.100  12.926 -0.4300  0.2513  0.7326
  331MPD2    C4 5022   3.435   3.141  13.050  0.5693  0.5688  0.0502
  331MPD2    C5 5023   3.462   3.266  13.096 -0.0836  0.0470 -0.4295
  331MPD2     H 5024   3.579   3.150  12.758  0.1225  0.1358  0.7134
  331MPD2    H1 5025   3.381   3.076  13.119 -0.3570  2.5909  1.2102
  331MPD2    H2 5026   3.512   3.466  13.036  2.5951  0.5546 -1.0282
  331MPD2    H3 5027   3.423   3.300  13.191  0.6407  0.9215 -0.4449
  331MPD2     N 5028   3.439   2.975  12.863  0.0706 -1.0467 -0.2125
  331MPD2    H5 5029   3.453   2.973  12.763 -0.4663  1.7856 -0.3387
  331MPD2    N1 5030   3.650   3.405  12.829  0.6440 -0.0474 -0.1853
  331MPD2    H7 5031   3.635   3.504  12.848 -1.1352 -0.8238  2.4218
  332TMC3    C1 5032   3.412   2.742  12.854 -0.2951 -0.0152 -0.1319
  332TMC3    C2 5033   3.344   2.745  12.745 -0.0287  0.1806  0.2336
  332TMC3    C3 5034   3.351   2.637  12.660 -0.5534 -0.8048 -0.1702
  332TMC3    C4 5035   3.511   2.649  12.881 -0.2554  0.1249  0.1745
  332TMC3    C5 5036   3.529   2.550  12.788 -0.8451 -0.0888 -0.4635
  332TMC3    C6 5037   3.447   2.540  12.680 -0.5608 -0.5807 -0.1872
  332TMC3     C 5038   3.421   2.858  12.936 -0.7311 -0.2359  0.2700
  332TMC3     O 5039   3.440   2.839  13.053  0.0137 -0.3621  0.0831
  332TMC3     H 5040   3.300   2.839  12.715 -0.2255 -0.0148 -0.0976
  332TMC3    H1 5041   3.571   2.650  12.971  0.6492 -0.9840 -0.4080
  332TMC3    H2 5042   3.468   2.472  12.598 -0.4824 -2.6960  1.5883
  332TMC3    C7 5043   3.644   2.458  12.798 -0.4192  0.3461  0.1944
  332TMC3    C8 5044   3.329   2.676  12.520 -0.2670  0.5624  0.4831
  332TMC3    O1 5045   3.636   2.351  12.738  0.2921 -0.2562 -0.3100
  332TMC3    O2 5046   3.431   2.709  12.459  0.4743 -0.0882 -0.2522
  333MPD2     C 5047   3.336   3.193  10.827 -0.0311  0.1965 -0.0414
  333MPD2    C1 5048   3.406   3.081  10.788 -0.9870  0.1168  0.5404
  333MPD2    C2 5049   3.420   2.972  10.876  0.0519  0.7422  0.3352
  333MPD2    C3 5050   3.346   2.959  10.993 -0.4131 -0.0592 -0.4954
  333MPD2    C4 5051   3.264   3.067  11.028 -0.5014  0.0888 -0.2056
  333MPD2    C5 5052   3.260   3.177  10.944 -0.4831 -0.3842 -1.2929
  333MPD2     H 5053   3.483   2.889  10.845  0.7504  1.8107 -1.1030
  333MPD2    H1 5054   3.203   3.065  11.118 -0.2392  0.7527 -0.0110
  333MPD2    H2 5055   3.323   3.285  10.771  1.0942  0.5469  0.2717
  333MPD2    H3 5056   3.200   3.259  10.981 -0.0710 -0.6455 -0.0424
  333MPD2     N 5057   3.356   2.835  11.061 -0.1733  0.4187  0.1525
  333MPD2    H5 5058   3.398   2.760  11.007  0.6908  0.6739  0.4832
  333MPD2    N1 5059   3.444   3.092  10.653  0.2865 -0.9342 -0.1174
  333MPD2    H7 5060   3.413   3.177  10.608  3.0894 -0.0301 -0.3487
  334TMC3    C1 5061   3.568   3.041  10.457 -0.2781  0.1753 -0.1154
  334TMC3    C2 5062   3.676   2.976  10.402  0.4425 -0.2356 -0.2739
  334TMC3    C3 5063   3.754   3.047  10.312  0.0882 -0.0408 -0.1758
  334TMC3    C4 5064   3.535   3.168  10.414  0.6344  0.1647  0.0202
  334TMC3    C5 5065   3.609   3.232  10.318 -1.0135 -0.3853  1.0428
  334TMC3    C6 5066   3.719   3.166  10.266  0.2561 -0.1346  0.7103
  334TMC3     C 5067   3.531   3.003  10.594  0.0518 -0.5055  0.0121
  334TMC3     O 5068   3.596   2.911  10.640  0.0876  0.5638  0.3769
  334TMC3     H 5069   3.716   2.882  10.437  1.4078 -0.9521 -3.3541
  334TMC3    H1 5070   3.452   3.222  10.457 -1.9643 -3.2129 -0.7456
  334TMC3    H2 5071   3.780   3.220  10.194 -0.5730 -0.2953 -0.1148
  334TMC3    C7 5072   3.605   3.373  10.286 -0.2389  0.2534 -0.0200
  334TMC3    C8 5073   3.867   2.975  10.263 -0.1195  1.2501 -0.6613
  334TMC3    O1 5074   3.708   3.436  10.297  0.1200  0.0690 -0.0756
  334TMC3    O2 5075   3.858   2.850  10.268  0.2601 -0.3417  0.2426
  335TMC3    C1 5076   3.176   0.184  17.034  0.0194 -0.3183 -0.4272
  335TMC3    C2 5077   3.125   0.088  16.946 -0.1238 -0.6777  0.3869
  335TMC3    C3 5078   3.214   0.036  16.855  0.6745  0.1077 -0.8222
  335TMC3    C4 5079   3.309   0.212  17.048  0.0340  0.0906 -0.3102
  335TMC3    C5 5080   3.394   0.165  16.952  0.5207  0.1487 -0.4578
  335TMC3    C6 5081   3.346   0.083  16.851  0.2737  0.3094  0.5184
  335TMC3     C 5082   3.094   0.219  17.145  0.2912  0.7052  0.7273
  335TMC3     O 5083   3.152   0.220  17.253 -0.3438 -0.2734 -0.0839
  335TMC3     H 5084   3.020   0.061  16.948 -0.1975 -0.4817 -0.8914
  335TMC3    H1 5085   3.345   0.281  17.123 -0.5149 -0.7516  0.7351
  335TMC3    H2 5086   3.419   0.033  16.788  0.8407 -0.4548  1.7705
  335TMC3    C7 5087   3.536   0.168  16.983 -0.1856  0.3413  0.1738
  335TMC3    C8 5088   3.168   4.683  16.754 -0.4707 -0.3314 -0.1902
  335TMC3    O1 5089   3.608   0.142  16.888 -1.1859 -0.8471 -0.6572
  335TMC3    O2 5090   3.207   4.688  16.637 -0.3033  0.3650 -0.4644
  336MPD2     C 5091   1.895   2.247  16.399 -0.1859  0.0093 -0.4334
  336MPD2    C1 5092   2.004   2.276  16.312 -0.0743 -0.1676 -0.0015
  336MPD2    C2 5093   2.126   2.223  16.348 -0.2549  0.3250 -1.5086
  336MPD2    C3 5094   2.132   2.154  16.468  0.2582  0.0275 -0.6776
  336MPD2    C4 5095   2.024   2.143  16.553 -0.2895 -0.2348  0.0558
  336MPD2    C5 5096   1.902   2.176  16.516 -0.4428  1.0172 -0.1136
  336MPD2     H 5097   2.212   2.221  16.282  0.9047 -1.0164  0.0464
  336MPD2    H1 5098   2.037   2.102  16.652 -0.1397  3.4305  1.5579
  336MPD2    H2 5099   1.793   2.275  16.374 -0.4330 -1.3640 -0.9622
  336MPD2    H3 5100   1.822   2.172  16.590 -1.4851  0.6390 -1.2712
  336MPD2     N 5101   2.246   2.099  16.520 -0.2005 -0.7785  0.6244
  336MPD2    H5 5102   2.232   2.037  16.599  0.0614  1.1813  2.1924
  336MPD2    N1 5103   1.992   2.353  16.196 -0.0654 -0.1332  0.0981
  336MPD2    H7 5104   2.076   2.382  16.146  0.2520 -1.0521  0.0935
  337TMC3    C1 5105   1.894   2.500  16.045 -0.0487 -0.3887 -0.3229
  337TMC3    C2 5106   1.972   2.455  15.944  0.9032  0.0383  0.4323
  337TMC3    C3 5107   1.990   2.535  15.832 -0.2389  0.2875 -0.8011
  337TMC3    C4 5108   1.815   2.606  16.031  0.4973 -0.2347 -0.7042
  337TMC3    C5 5109   1.827   2.679  15.918 -0.6427  0.4609 -0.6776
  337TMC3    C6 5110   1.922   2.650  15.820 -0.0143  0.2611 -0.4419
  337TMC3     C 5111   1.878   2.417  16.159  0.5712  0.3638 -0.2671
  337TMC3     O 5112   1.776   2.429  16.219  0.0344  0.2217  0.6227
  337TMC3     H 5113   2.037   2.370  15.952 -0.4299 -0.9478  0.7361
  337TMC3    H1 5114   1.748   2.624  16.114  2.1397 -1.4011  0.8655
  337TMC3    H2 5115   1.952   2.717  15.740  1.2389 -0.4101 -0.5280
  337TMC3    C7 5116   1.750   2.798  15.894  0.6806  0.3526 -1.1424
  337TMC3    C8 5117   2.009   2.461  15.705  0.8342 -1.1449  0.6061
  337TMC3    O1 5118   1.797   2.869  15.808  0.0940 -0.2274 -0.0858
  337TMC3    O2 5119   2.083   2.364  15.691 -0.1884 -0.7430 -0.1640
  338MPD2     C 5120   2.948   1.223   1.015  0.0231 -0.4505 -0.2595
  338MPD2    C1 5121   2.886   1.332   0.957 -0.4507 -0.7706 -0.5095
  338MPD2    C2 5122   2.750   1.323   0.944 -0.6992 -0.3393 -0.4688
  338MPD2    C3 5123   2.672   1.210   0.970  0.6701 -0.0850  0.9596
  338MPD2    C4 5124   2.738   1.104   1.036 -0.5584  0.5396  0.4334
  338MPD2    C5 5125   2.874   1.109   1.054 -0.8201  0.4246 -0.8251
  338MPD2     H 5126   2.699   1.408   0.900  0.1579  0.9004  0.9312
  338MPD2    H1 5127   2.682   1.014   1.061  1.2127 -0.8960 -0.7883
  338MPD2    H2 5128   3.053   1.215   1.042 -0.8038 -0.2642  2.9637
  338MPD2    H3 5129   2.928   1.030   1.105  0.1502  1.2105 -0.6239
  338MPD2     N 5130   2.536   1.219   0.938 -0.1132 -0.0573  0.0682
  338MPD2    H5 5131   2.503   1.306   0.896  0.6856  0.3343  0.2418
  338MPD2    N1 5132   2.944   1.446   0.905 -0.3883  0.2264 -0.3061
  338MPD2    H7 5133   2.887   1.515   0.858 -1.9780 -0.8399  0.0631
  339TMC3    C1 5134   2.314   1.170   0.928  0.1012 -0.1714  0.3714
  339TMC3    C2 5135   2.223   1.152   1.031 -0.3040  0.1233  0.0205
  339TMC3    C3 5136   2.129   1.251   1.061  0.3008  0.0823  0.3066
  339TMC3    C4 5137   2.298   1.283   0.851  0.6396  0.9923  0.2816
  339TMC3    C5 5138   2.202   1.377   0.882  0.1732 -0.9460 -0.5250
  339TMC3    C6 5139   2.116   1.365   0.993  0.0915  0.9289  0.2179
  339TMC3     C 5140   2.445   1.124   0.964 -0.7665  0.0669 -0.1211
  339TMC3     O 5141   2.453   1.017   1.026  0.2760 -0.5142 -0.5837
  339TMC3     H 5142   2.236   1.063   1.092  1.0554  1.6018  1.8854
  339TMC3    H1 5143   2.364   1.315   0.771 -0.5004 -0.4966 -1.2672
  339TMC3    H2 5144   2.058   1.447   1.034 -1.2453  0.0223  0.1518
  339TMC3    C7 5145   2.220   1.507   0.819 -0.0149  0.5722 -0.2555
  339TMC3    C8 5146   2.044   1.234   1.175  0.0483  0.3495 -0.5687
  339TMC3    O1 5147   2.294   1.515   0.722  0.1837 -0.2063 -0.3754
  339TMC3    O2 5148   1.944   1.308   1.182  0.2562  0.2043  0.1713
  340MPD2     C 5149   3.143   4.593   9.463 -0.0120 -0.1337  0.2594
  340MPD2    C1 5150   3.104   4.502   9.556  0.0766 -0.3317 -0.1187
  340MPD2    C2 5151   3.133   4.524   9.685  0.5833 -0.2887 -0.1155
  340MPD2    C3 5152   3.209   4.638   9.728 -0.2600  0.0354  0.6533
  340MPD2    C4 5153   3.241   0.001   9.629  0.3933  0.0886  0.4138
  340MPD2    C5 5154   3.216   4.703   9.498 -0.1938  0.5065  0.0229
  340MPD2     H 5155   3.102   4.453   9.761  0.7968  1.1125  1.2899
  340MPD2    H1 5156   3.295   0.089   9.660 -0.9563  0.9149  0.4339
  340MPD2    H2 5157   3.111   4.585   9.360  0.2671 -2.2016  0.3444
  340MPD2    H3 5158   3.256   0.043   9.430 -2.9061  1.5332 -0.4525
  340MPD2     N 5159   3.253   4.668   9.857  1.1095 -0.0411  0.9720
  340MPD2    H5 5160   3.303   0.021   9.874  0.7129  0.2952  0.4185
  340MPD2    N1 5161   3.026   4.388   9.513  0.1405 -0.2529  0.4148
  340MPD2    H7 5162   2.986   4.395   9.421 -0.6151 -4.3706  0.4476
  341TMC3    C1 5163   2.924   4.176   9.502 -1.1443  0.8251  0.9146
  341TMC3    C2 5164   2.872   4.068   9.573 -0.2148  0.1581 -0.1345
  341TMC3    C3 5165   2.821   3.968   9.495 -0.0245  0.0368  0.5487
  341TMC3    C4 5166   2.926   4.186   9.368  0.3401 -0.9096 -0.3772
  341TMC3    C5 5167   2.894   4.073   9.302 -0.0476 -0.8303  0.8572
  341TMC3    C6 5168   2.831   3.961   9.356  0.2436  0.0799  0.9330
  341TMC3     C 5169   2.995   4.272   9.584  0.0072  0.5521 -0.7305
  341TMC3     O 5170   3.012   4.241   9.700  0.2939 -0.5519  0.7404
  341TMC3     H 5171   2.871   4.052   9.680  0.0523 -2.2704 -0.4963
  341TMC3    H1 5172   2.994   4.257   9.324  0.3043 -1.8969 -1.9932
  341TMC3    H2 5173   2.826   3.864   9.308 -1.1004 -0.1325  1.5009
  341TMC3    C7 5174   2.964   4.044   9.177  0.5424  0.2221  0.3416
  341TMC3    C8 5175   2.759   3.848   9.557 -1.4694  0.3032  0.3923
  341TMC3    O1 5176   3.054   4.124   9.148 -0.0958  0.7991  0.4509
  341TMC3    O2 5177   2.696   3.782   9.474  0.2364  0.1991  0.8431
  342MPD2     C 5178   0.549   2.975  17.218  0.5809 -0.9583  0.5290
  342MPD2    C1 5179   0.675   2.962  17.284 -0.4478  0.3057  0.2546
  342MPD2    C2 5180   0.748   3.079  17.301  0.1774  0.1420  0.3910
  342MPD2    C3 5181   0.695   3.200  17.255 -0.6542  0.0632  0.4265
  342MPD2    C4 5182   0.572   3.211  17.193 -0.1388 -0.1478 -0.3746
  342MPD2    C5 5183   0.501   3.098  17.175  0.7454 -0.7129 -0.1684
  342MPD2     H 5184   0.848   3.068  17.339 -0.0228 -1.1483  0.5226
  342MPD2    H1 5185   0.535   3.306  17.155 -0.1690 -0.3460 -0.8399
  342MPD2    H2 5186   0.492   2.884  17.205  2.0286 -1.9148  0.7519
  342MPD2    H3 5187   0.409   3.098  17.117  1.3642 -0.8269 -1.1462
  342MPD2     N 5188   0.769   3.319  17.275  0.0584 -0.4144  0.1944
  342MPD2    H5 5189   0.721   3.407  17.264  1.3465  0.3540  0.7795
  342MPD2    N1 5190   0.724   2.840  17.325  0.4387  0.1312  0.3391
  342MPD2    H7 5191   0.824   2.839  17.343  0.0791 -2.2206  2.1918
  343TMC3    C1 5192   0.726   2.632  17.446 -0.1776  0.0926 -0.6172
  343TMC3    C2 5193   0.863   2.647  17.455  0.5710  0.2530 -0.0187
  343TMC3    C3 5194   0.925   2.561  17.538 -0.0225 -0.5433 -0.6570
  343TMC3    C4 5195   0.649   2.541  17.517 -0.2199  0.5857 -0.6020
  343TMC3    C5 5196   0.723   2.457  17.596  0.5152 -1.0620 -0.3871
  343TMC3    C6 5197   0.856   2.462  17.606  0.0559  0.0317 -0.5576
  343TMC3     C 5198   0.648   2.738  17.375 -0.0278  0.6063 -0.0631
  343TMC3     O 5199   0.529   2.745  17.388  0.2307  0.3522 -0.5154
  343TMC3     H 5200   0.924   2.708  17.389  0.4763  0.1068 -0.2435
  343TMC3    H1 5201   0.542   2.530  17.504 -0.2549 -0.1585  0.2793
  343TMC3    H2 5202   0.917   2.395  17.666 -0.1077 -0.7930 -1.3119
  343TMC3    C7 5203   0.663   2.325  17.623 -0.7350  0.1883  0.4547
  343TMC3    C8 5204   1.065   2.529  17.517 -0.3585 -0.5430  0.0497
  343TMC3    O1 5205   0.602   2.275  17.530  1.0900  0.0800  0.4652
  343TMC3    O2 5206   1.088   2.410  17.549  0.0874  0.1691  0.3535
  344MPD2     C 5207   2.390   2.294  10.659 -0.0326 -0.2339  0.1202
  344MPD2    C1 5208   2.315   2.267  10.546 -1.0444  0.9468  0.7395
  344MPD2    C2 5209   2.345   2.349  10.432  0.6831  0.8178 -0.0447
  344MPD2    C3 5210   2.417   2.464  10.447 -0.5656 -0.2445  0.0515
  344MPD2    C4 5211   2.472   2.493  10.566 -0.0171 -0.2387  0.0142
  344MPD2    C5 5212   2.452   2.415  10.670  0.0508  0.2233 -0.7382
  344MPD2     H 5213   2.309   2.342  10.330  0.1549  1.2314  0.1130
  344MPD2    H1 5214   2.525   2.586  10.583  0.9026 -0.9527  1.0204
  344MPD2    H2 5215   2.372   2.243  10.753 -0.8108 -0.8140 -0.3406
  344MPD2    H3 5216   2.489   2.463  10.760 -0.1458  0.9646 -1.0516
  344MPD2     N 5217   2.442   2.558  10.350 -1.0954  0.9743 -0.1108
  344MPD2    H5 5218   2.497   2.638  10.379 -1.4075  0.7753  1.0309
  344MPD2    N1 5219   2.223   2.164  10.534  0.7666 -0.2142 -0.1875
  344MPD2    H7 5220   2.183   2.157  10.441  1.0591 -0.6768 -0.2780
  345TMC3    C1 5221   2.459   2.678  10.160 -0.1195  0.1577 -0.4762
  345TMC3    C2 5222   2.554   2.757  10.218  0.1595  0.1982 -0.2744
  345TMC3    C3 5223   2.581   2.877  10.162 -0.3448  0.0647  0.8117
  345TMC3    C4 5224   2.387   2.720  10.055  0.5046 -0.3117  0.7572
  345TMC3    C5 5225   2.427   2.834   9.992  0.8612  1.0172 -0.0907
  345TMC3    C6 5226   2.512   2.923  10.052 -0.2642 -0.3672 -0.4675
  345TMC3     C 5227   2.425   2.549  10.217 -0.3628 -0.0051 -0.3910
  345TMC3     O 5228   2.346   2.480  10.159  0.5657  0.1185  0.3222
  345TMC3     H 5229   2.602   2.744  10.315  0.1941  1.2340 -0.1505
  345TMC3    H1 5230   2.323   2.642  10.014 -1.3038  0.3773  2.2822
  345TMC3    H2 5231   2.536   3.017  10.005 -0.4572  0.5351  1.2518
  345TMC3    C7 5232   2.320   2.897   9.917 -0.3938  0.3420 -0.3925
  345TMC3    C8 5233   2.607   2.982  10.261  0.3611  0.1971  0.2985
  345TMC3    O1 5234   2.319   3.019   9.913  0.2165  0.0580 -0.1255
  345TMC3    O2 5235   2.618   2.954  10.379  0.8024  0.2767  0.3247
  346MPD2     C 5236   2.257   4.595  14.333  0.0377 -0.2703  0.7230
  346MPD2    C1 5237   2.365   4.547  14.264 -0.1432  0.5032  0.0571
  346MPD2    C2 5238   2.494   4.557  14.311  0.2319  0.9641  0.4464
  346MPD2    C3 5239   2.522   4.588  14.440 -0.3115 -0.0841 -0.0648
  346MPD2    C4 5240   2.413   4.622  14.515 -0.2300 -0.3833 -0.0492
  346MPD2    C5 5241   2.286   4.635  14.459  0.5096  0.2096  0.1522
  346MPD2     H 5242   2.564   4.516  14.240 -0.4631  1.6280 -0.6152
  346MPD2    H1 5243   2.429   4.664  14.614  0.4343  0.5061 -0.5250
  346MPD2    H2 5244   2.155   4.586  14.298 -0.6115  2.7879  1.8301
  346MPD2    H3 5245   2.203   4.661  14.524  0.9151  1.5819  0.1057
  346MPD2     N 5246   2.661   4.606  14.477  0.5836  0.5255 -0.1394
  346MPD2    H5 5247   2.739   4.605  14.412  0.9220  3.0032  0.2332
  346MPD2    N1 5248   2.350   4.489  14.134  0.7910  0.1409  0.1599
  346MPD2    H7 5249   2.435   4.464  14.085 -0.9081 -1.1005 -2.1255
  347TMC3    C1 5250   2.852   4.624  14.614 -0.2166  0.3559 -0.2712
  347TMC3    C2 5251   2.929   4.665  14.511 -0.8914 -0.1552  0.5682
  347TMC3    C3 5252   3.067   4.680  14.526 -0.5645  0.1454 -0.2509
  347TMC3    C4 5253   2.908   4.592  14.738  0.1197  0.1169 -0.9272
  347TMC3    C5 5254   3.046   4.601  14.748 -0.2022 -0.3627 -0.2951
  347TMC3    C6 5255   3.124   4.652  14.648  0.0672  0.7219  0.2947
  347TMC3     C 5256   2.706   4.616  14.607 -0.3478  0.1402  0.0402
  347TMC3     O 5257   2.638   4.605  14.708 -0.8117  0.1466 -0.2970
  347TMC3     H 5258   2.888   4.707  14.420 -3.5584 -1.1899  1.2804
  347TMC3    H1 5259   2.849   4.567  14.825 -1.0463 -1.5877 -2.1884
  347TMC3    H2 5260   3.232   4.654  14.652  0.0779  1.4088 -0.3973
  347TMC3    C7 5261   3.095   4.510  14.851  0.2342  1.1375  0.5765
  347TMC3    C8 5262   3.147   4.627  14.419 -0.6519 -0.3634 -0.0435
  347TMC3    O1 5263   3.017   4.464  14.932 -0.3035 -0.4726 -0.0569
  347TMC3    O2 5264   3.230   4.547  14.450  0.0016 -0.1656 -0.1176
  348MPD2     C 5265   1.113   3.863  11.820  0.0295  0.1745  0.3071
  348MPD2    C1 5266   1.137   3.786  11.708 -0.0088  0.0084 -0.0396
  348MPD2    C2 5267   1.118   3.849  11.582 -0.3513 -0.2198  0.6164
  348MPD2    C3 5268   1.083   3.983  11.570 -0.2773 -0.3007 -0.0149
  348MPD2    C4 5269   1.069   4.054  11.686  0.4122  0.0929  0.7572
  348MPD2    C5 5270   1.099   4.007  11.809  0.6196  0.4278  0.2776
  348MPD2     H 5271   1.111   3.778  11.500 -0.1822 -0.8339  1.1336
  348MPD2    H1 5272   1.030   4.155  11.684  1.5052  0.5157  0.6566
  348MPD2    H2 5273   1.111   3.826  11.922 -0.4052  0.4986  0.4178
  348MPD2    H3 5274   1.072   4.070  11.892 -0.5992  0.2216  0.0383
  348MPD2     N 5275   1.061   4.042  11.443 -0.6490 -0.0097 -0.5129
  348MPD2    H5 5276   1.054   3.981  11.362 -1.8363  0.0621 -0.4733
  348MPD2    N1 5277   1.160   3.648  11.717 -0.6577 -0.2570 -0.9989
  348MPD2    H7 5278   1.161   3.595  11.630 -0.1064 -1.6252 -0.1604
  349TMC3    C1 5279   1.231   3.434  11.811  0.0201  0.4686  0.0400
  349TMC3    C2 5280   1.198   3.336  11.900  0.1741  0.7378 -0.0152
  349TMC3    C3 5281   1.217   3.205  11.862 -0.2583 -0.0752  0.1948
  349TMC3    C4 5282   1.285   3.405  11.689  0.5891 -0.2635  0.4010
  349TMC3    C5 5283   1.302   3.273  11.653  0.2256 -0.0723  0.4223
  349TMC3    C6 5284   1.268   3.169  11.737  0.2254  0.4359  0.3899
  349TMC3     C 5285   1.187   3.570  11.833 -0.8932  0.3303  0.0075
  349TMC3     O 5286   1.175   3.607  11.952  0.0485  0.3625  0.2172
  349TMC3     H 5287   1.147   3.370  11.989 -4.5494  0.8269 -2.7610
  349TMC3    H1 5288   1.324   3.486  11.629 -0.8873 -0.1366 -0.3966
  349TMC3    H2 5289   1.271   3.066  11.704  3.2841  1.1436 -1.5309
  349TMC3    C7 5290   1.284   3.253  11.509  0.2120  0.6016 -0.0755
  349TMC3    C8 5291   1.226   3.120  11.977 -0.2663  0.2580  0.1930
  349TMC3    O1 5292   1.187   3.193  11.457 -0.4691  0.2323 -0.6212
  349TMC3    O2 5293   1.171   3.166  12.073 -0.2049  0.2181  1.0566
  350MPD2     C 5294   0.100   2.000  10.484 -0.4854 -0.2326 -0.9258
  350MPD2    C1 5295   0.052   1.897  10.562  0.4567 -0.6628 -0.6138
  350MPD2    C2 5296   0.029   1.917  10.696 -0.4918  0.3522  0.1387
  350MPD2    C3 5297   0.063   2.032  10.757 -0.8848 -0.1819 -0.4948
  350MPD2    C4 5298   0.102   2.136  10.672 -0.1942  0.0747 -0.0667
  350MPD2    C5 5299   0.131   2.116  10.542  0.3356  0.4199 -0.0385
  350MPD2     H 5300   0.003   1.834  10.761 -1.0562  1.4005  1.2348
  350MPD2    H1 5301   0.123   2.236  10.708 -1.6768  0.6226 -0.7131
  350MPD2    H2 5302   0.118   1.992  10.378  1.3634 -1.7880 -0.4936
  350MPD2    H3 5303   0.170   2.201  10.487 -0.8695  0.8158 -0.2719
  350MPD2     N 5304   0.023   2.053  10.890 -0.2583 -0.3107  0.5837
  350MPD2    H5 5305   4.722   1.977  10.948  0.1577 -0.5191  0.5665
  350MPD2    N1 5306   0.023   1.771  10.498 -0.0008  0.2437 -0.1684
  350MPD2    H7 5307   4.704   1.705  10.554 -0.6909  3.1024  2.5230
  351TMC3    C1 5308   4.693   1.622  10.326  0.2021  0.0178  0.6833
  351TMC3    C2 5309   4.733   1.527  10.239 -0.9582  0.2904  0.5302
  351TMC3    C3 5310   4.640   1.450  10.175 -0.9362 -0.6624 -0.0297
  351TMC3    C4 5311   4.557   1.655  10.339  0.1033 -0.6116  0.0618
  351TMC3    C5 5312   4.465   1.585  10.264  0.2667  0.8824  0.6271
  351TMC3    C6 5313   4.510   1.488  10.182 -0.3627 -0.2473  0.1965
  351TMC3     C 5314   0.048   1.727  10.370 -0.4330  0.9580 -0.0531
  351TMC3     O 5315   0.119   1.766  10.280  0.0219  0.1533  0.1692
  351TMC3     H 5316   0.103   1.496  10.250 -1.1326 -0.5366 -0.2223
  351TMC3    H1 5317   4.527   1.738  10.402  0.3938  1.1279 -2.0820
  351TMC3    H2 5318   4.443   1.449  10.107  1.5694 -1.4959 -0.8821
  351TMC3    C7 5319   4.333   1.645  10.245  0.6018  0.5223 -0.1100
  351TMC3    C8 5320   4.680   1.328  10.105  0.1762 -0.0711  0.1654
  351TMC3    O1 5321   4.309   1.748  10.309  0.0865  0.3853  0.4715
  351TMC3    O2 5322   0.056   1.326  10.056  0.1196 -0.0758 -0.0486
  352MPD2     C 5323   3.702   4.100   0.982 -0.3127 -0.1912  0.4120
  352MPD2    C1 5324   3.604   4.041   0.907 -0.5131  0.2691 -0.7115
  352MPD2    C2 5325   3.630   3.908   0.866  0.0576  0.2922 -0.1544
  352MPD2    C3 5326   3.746   3.845   0.897 -0.3530 -0.1818 -0.1904
  352MPD2    C4 5327   3.849   3.914   0.963  0.5562 -0.3967 -0.4656
  352MPD2    C5 5328   3.823   4.039   1.002 -0.3002 -0.5438  0.3008
  352MPD2     H 5329   3.549   3.856   0.817  1.0211 -0.3276 -1.1022
  352MPD2    H1 5330   3.939   3.857   0.981 -0.1756 -1.2002  0.6742
  352MPD2    H2 5331   3.697   4.202   1.019 -2.6537 -0.6315  1.2932
  352MPD2    H3 5332   3.893   4.087   1.070  0.4146 -0.3556 -0.5576
  352MPD2     N 5333   3.774   3.710   0.859 -0.3570  0.4805 -0.6013
  352MPD2    H5 5334   3.869   3.676   0.855 -1.8701 -3.7734 -0.6109
  352MPD2    N1 5335   3.491   4.115   0.869 -1.2338  0.6073  0.4547
  352MPD2    H7 5336   3.488   4.210   0.905 -1.6462  1.3797 -1.6674
  353TMC3    C1 5337   3.724   3.485   0.788  0.4253  0.1632  0.4097
  353TMC3    C2 5338   3.832   3.418   0.848 -0.3057 -0.9056 -0.0188
  353TMC3    C3 5339   3.833   3.284   0.839  0.5012 -0.4091 -0.2761
  353TMC3    C4 5340   3.622   3.414   0.723 -0.0408 -0.0973  0.5486
  353TMC3    C5 5341   3.645   3.275   0.710 -0.2345 -0.5632 -0.6064
  353TMC3    C6 5342   3.745   3.207   0.771  0.0673 -0.2691 -0.5512
  353TMC3     C 5343   3.676   3.617   0.830 -0.0668  0.6906  0.8668
  353TMC3     O 5344   3.551   3.621   0.845 -0.4834  0.4671  0.1905
  353TMC3     H 5345   3.905   3.464   0.913 -2.4315  0.1767  1.5928
  353TMC3    H1 5346   3.539   3.468   0.680  1.4808  1.1064 -0.9088
  353TMC3    H2 5347   3.747   3.099   0.765  1.1684 -0.3353  0.8999
  353TMC3    C7 5348   3.542   3.190   0.658  0.3004 -0.2413 -0.0275
  353TMC3    C8 5349   3.950   3.229   0.900  0.1586  0.2159 -0.3648
  353TMC3    O1 5350   3.515   3.074   0.691 -0.2891  0.0072  0.3862
  353TMC3    O2 5351   4.050   3.298   0.929 -0.7586  0.5066 -0.1120
  354TMC3    C1 5352   0.220   4.550  13.220 -0.5218 -0.3403 -0.2057
  354TMC3    C2 5353   0.176   4.684  13.211  1.0644 -0.3654  0.6231
  354TMC3    C3 5354   0.132   4.716  13.087  0.9332  0.4047  0.0380
  354TMC3    C4 5355   0.195   4.460  13.119  0.2112 -0.2767  0.0201
  354TMC3    C5 5356   0.147   4.499  12.996  0.0785  0.3931 -0.1217
  354TMC3    C6 5357   0.122   4.630  12.987 -0.3394  0.2072 -0.6377
  354TMC3     C 5358   0.279   4.498  13.340  0.7444  0.5135  0.3825
  354TMC3     O 5359   0.282   4.381  13.357 -0.2098  0.3098 -0.1846
  354TMC3     H 5360   0.202   0.023  13.285 -0.2855  0.1272  0.6160
  354TMC3    H1 5361   0.229   4.357  13.124  2.1970  0.3459 -0.8010
  354TMC3    H2 5362   0.085   4.668  12.892 -2.3125 -0.2427 -0.0510
  354TMC3    C7 5363   0.226   4.450  12.889 -0.7457 -0.2342  0.3822
  354TMC3    C8 5364   0.133   0.128  13.047 -0.1548  0.9689  0.2797
  354TMC3    O1 5365   0.233   4.329  12.867  0.2703 -0.2808  0.3876
  354TMC3    O2 5366   0.184   0.158  12.940 -0.0047 -0.4140  0.2342
  355MPD2     C 5367   4.623   1.495  11.681  0.2143 -0.1064 -0.6443
  355MPD2    C1 5368   4.727   1.442  11.605 -0.2512 -0.1295  0.2325
  355MPD2    C2 5369   0.094   1.373  11.664 -0.2608  0.3548  0.5195
  355MPD2    C3 5370   0.096   1.367  11.804  0.2522 -0.5919 -0.0576
  355MPD2    C4 5371   4.730   1.414  11.880  0.6135  0.4928 -0.1482
  355MPD2    C5 5372   4.626   1.483  11.818 -0.2318  0.2798  0.4845
  355MPD2     H 5373   0.175   1.340  11.600  0.6097 -0.3150  1.9860
  355MPD2    H1 5374   4.720   1.400  11.987  1.5250  2.2949  0.1687
  355MPD2    H2 5375   4.533   1.544  11.648  1.0863  2.6795  1.0634
  355MPD2    H3 5376   4.545   1.528  11.874 -1.1527  2.7405 -2.8394
  355MPD2     N 5377   0.213   1.315  11.873  0.6465 -0.1482  0.1495
  355MPD2    H5 5378   0.212   1.328  11.974  1.3761  1.5383 -0.0614
  355MPD2    N1 5379   4.726   1.478  11.465  0.3584  0.2153 -0.9706
  355MPD2    H7 5380   4.640   1.518  11.429 -1.0362 -1.5138  0.4763
  356TMC3    C1 5381   0.438   1.238  11.893 -0.0665 -0.4842  1.1643
  356TMC3    C2 5382   0.549   1.194  11.820  1.0541 -0.3443 -0.3408
  356TMC3    C3 5383   0.674   1.220  11.875  0.5335 -0.7234 -0.1079
  356TMC3    C4 5384   0.450   1.300  12.018  0.6139  0.3257  0.7553
  356TMC3    C5 5385   0.575   1.325  12.063 -0.3600  0.2025  0.1256
  356TMC3    C6 5386   0.691   1.300  11.990  0.0702 -0.7601 -0.2855
  356TMC3     C 5387   0.319   1.251  11.814  0.5963  0.5262 -0.2796
  356TMC3     O 5388   0.332   1.218  11.695  0.0277 -0.2478  0.3303
  356TMC3     H 5389   0.548   1.148  11.722  1.7558  0.3250 -0.6523
  356TMC3    H1 5390   0.360   1.329  12.071  0.0151  0.7638 -0.4956
  356TMC3    H2 5391   0.787   1.327  12.031 -1.4515  1.1742  2.0551
  356TMC3    C7 5392   0.568   1.385  12.192 -0.0015 -0.6648 -0.1198
  356TMC3    C8 5393   0.789   1.205  11.785  0.5758  0.5826 -0.4041
  356TMC3    O1 5394   0.472   1.365  12.259  0.0691 -0.6551 -0.4387
  356TMC3    O2 5395   0.790   1.120  11.703  0.3772 -0.3175  0.8533
  357MPD2     C 5396   0.078   0.980   0.891  0.2438  0.7748  0.5646
  357MPD2    C1 5397   0.047   0.865   0.961  0.3497  0.8061 -0.6834
  357MPD2    C2 5398   4.693   0.880   1.072  0.3756 -0.4114 -0.2827
  357MPD2    C3 5399   4.635   1.007   1.109  0.2838 -0.3390 -0.0790
  357MPD2    C4 5400   4.657   1.110   1.031  0.5144  0.1563 -0.0293
  357MPD2    C5 5401   0.015   1.099   0.922  1.1120 -0.0351 -0.6119
  357MPD2     H 5402   4.678   0.793   1.134  1.8208  0.6428  1.5499
  357MPD2    H1 5403   4.607   1.202   1.059  1.3188  0.6988 -0.3497
  357MPD2    H2 5404   0.155   0.980   0.815 -0.1974  1.9544  0.1094
  357MPD2    H3 5405   0.025   1.189   0.863 -0.2740  0.2408 -0.4214
  357MPD2     N 5406   4.543   1.017   1.223  0.1563  0.1307 -0.3586
  357MPD2    H5 5407   4.499   1.107   1.236 -1.5646 -0.7581 -0.0446
  357MPD2    N1 5408   0.121   0.746   0.942 -0.3726  0.5846  0.0063
  357MPD2    H7 5409   0.173   0.747   0.855  0.1186  0.8126  0.3014
  358TMC3    C1 5410   0.189   0.530   0.968  0.1917 -0.6858  0.2263
  358TMC3    C2 5411   0.143   0.486   0.854  0.5372 -0.3145 -0.1446
  358TMC3    C3 5412   0.193   0.367   0.804  0.0844 -0.1960 -0.0899
  358TMC3    C4 5413   0.264   0.451   1.050  0.5970  0.1326 -0.0952
  358TMC3    C5 5414   0.294   0.318   1.011 -0.2235 -0.4239  0.0631
  358TMC3    C6 5415   0.265   0.282   0.883  0.0201 -0.2057 -0.1350
  358TMC3     C 5416   0.127   0.644   1.028  0.3030  0.2734  0.3542
  358TMC3     O 5417   0.112   0.647   1.149 -0.5734  0.1575 -0.2206
  358TMC3     H 5418   0.092   0.550   0.782 -0.1791 -2.1854 -1.3012
  358TMC3    H1 5419   0.290   0.509   1.138  0.7193  0.4291 -0.3254
  358TMC3    H2 5420   0.313   0.193   0.845 -1.1923  0.3959 -2.9997
  358TMC3    C7 5421   0.356   0.228   1.104  0.0632 -0.0217  0.6506
  358TMC3    C8 5422   0.143   0.320   0.671 -0.0502  0.3408 -0.3795
  358TMC3    O1 5423   0.393   0.121   1.053 -0.4118  0.0822 -0.2684
  358TMC3    O2 5424   0.124   0.398   0.581 -0.5043 -0.3594 -0.1322
  359MPD2     C 5425   0.650   4.070  12.219  0.2975  0.6058  0.2076
  359MPD2    C1 5426   0.608   4.079  12.089 -0.1463 -0.1077  0.8473
  359MPD2    C2 5427   0.500   4.005  12.041  0.2403  0.4490  0.1401
  359MPD2    C3 5428   0.425   3.932  12.138  0.7926  0.3281 -1.0427
  359MPD2    C4 5429   0.462   3.928  12.270  0.1385  0.2417 -0.2127
  359MPD2    C5 5430   0.568   4.003  12.313 -0.3922 -0.8196  0.0448
  359MPD2     H 5431   0.479   4.012  11.935  0.4926 -1.6831 -0.0479
  359MPD2    H1 5432   0.407   3.871  12.344  1.0434  0.5082  0.6757
  359MPD2    H2 5433   0.733   4.126  12.258  0.9938 -0.8162  0.7581
  359MPD2    H3 5434   0.601   3.998  12.416 -2.6424  2.1169  0.8936
  359MPD2     N 5435   0.307   3.860  12.089 -0.2577  0.1587  0.1308
  359MPD2    H5 5436   0.254   3.808  12.159  0.2410  0.8326  1.0104
  359MPD2    N1 5437   0.675   4.154  11.994  0.2551  0.3148 -0.0471
  359MPD2    H7 5438   0.652   4.139  11.897  1.2262 -1.3914 -0.0162
  360TMC3    C1 5439   0.854   4.283  11.892  0.0113  0.0713 -0.2080
  360TMC3    C2 5440   0.970   4.350  11.919  0.1552  0.2068 -0.5395
  360TMC3    C3 5441   1.028   4.428  11.824 -0.5521 -0.5675 -0.0828
  360TMC3    C4 5442   0.778   4.312  11.782 -0.7608  0.0416 -0.5367
  360TMC3    C5 5443   0.829   4.412  11.702 -0.2176  0.1286  0.4322
  360TMC3    C6 5444   0.953   4.465  11.716 -0.2662 -0.2717 -0.0767
  360TMC3     C 5445   0.790   4.233  12.014  0.1816 -0.2620 -0.3048
  360TMC3     O 5446   0.856   4.252  12.115  0.0159  0.0267  0.0924
  360TMC3     H 5447   1.037   4.311  11.996 -1.0932 -2.5232 -0.8502
  360TMC3    H1 5448   0.675   4.278  11.770 -0.0720 -2.7392  1.4876
  360TMC3    H2 5449   0.996   4.539  11.649 -0.4819 -0.0359  0.0443
  360TMC3    C7 5450   0.763   4.441  11.578  0.5912 -0.1377  0.0588
  360TMC3    C8 5451   1.178   4.405  11.818 -0.1800 -0.1709  0.0620
  360TMC3    O1 5452   0.785   4.552  11.537 -0.1039  0.2895  0.5494
  360TMC3    O2 5453   1.241   4.432  11.917 -0.7280 -0.2296 -0.0874
  361MPD2     C 5454   1.667   2.897  16.715 -0.3341  0.4281 -0.0718
  361MPD2    C1 5455   1.717   3.024  16.728  0.4040 -0.4221  0.0057
  361MPD2    C2 5456   1.857   3.041  16.738 -0.3437  0.6497  0.6896
  361MPD2    C3 5457   1.933   2.928  16.742  0.4636 -0.0168 -0.3808
  361MPD2    C4 5458   1.883   2.804  16.719  0.0833  0.0003  0.3871
  361MPD2    C5 5459   1.745   2.783  16.708 -0.2316  0.1772 -0.5943
  361MPD2     H 5460   1.882   3.147  16.743  2.6134 -0.1687  3.2292
  361MPD2    H1 5461   1.945   2.715  16.719  0.4770  0.2734  1.6548
  361MPD2    H2 5462   1.561   2.874  16.709 -0.3172  0.1157  0.8821
  361MPD2    H3 5463   1.700   2.685  16.704  1.6990 -0.7915  1.4640
  361MPD2     N 5464   2.075   2.940  16.755 -0.3100 -0.9082  0.3019
  361MPD2    H5 5465   2.124   2.851  16.747 -0.3271 -0.8999  0.1114
  361MPD2    N1 5466   1.637   3.143  16.736 -0.0328 -0.2410 -0.3215
  361MPD2    H7 5467   1.691   3.229  16.737  1.8653 -1.4288 -0.8048
  362TMC3    C1 5468   1.451   3.283  16.763 -0.0241  0.6778 -0.1119
  362TMC3    C2 5469   1.351   3.298  16.854  0.2637 -0.4303 -0.4665
  362TMC3    C3 5470   1.295   3.425  16.854  0.3054 -0.0012  0.0140
  362TMC3    C4 5471   1.487   3.371  16.670  0.0703 -0.1050 -0.1714
  362TMC3    C5 5472   1.414   3.487  16.661  0.4521  0.8727  0.8119
  362TMC3    C6 5473   1.328   3.523  16.763  0.1307 -0.0929 -1.1575
  362TMC3     C 5474   1.500   3.149  16.741 -0.4167 -0.6965 -0.0520
  362TMC3     O 5475   1.423   3.050  16.754 -0.4681 -0.2488  0.2393
  362TMC3     H 5476   1.331   3.229  16.935 -0.4165 -0.6582 -0.8281
  362TMC3    H1 5477   1.570   3.346  16.604 -0.5266  1.5498 -1.5496
  362TMC3    H2 5478   1.262   3.610  16.761 -1.5411 -1.3476 -0.5857
  362TMC3    C7 5479   1.440   3.578  16.554 -0.0666 -0.6208 -0.5401
  362TMC3    C8 5480   1.169   3.432  16.916  0.1667 -0.7767 -0.4584
  362TMC3    O1 5481   1.385   3.687  16.568 -0.0890 -0.1089 -0.2189
  362TMC3    O2 5482   1.120   3.333  16.966 -0.1316 -0.2900  0.1941
  363TMC3    C1 5483   0.508   1.137   9.126 -0.0330 -0.2549  0.3300
  363TMC3    C2 5484   0.540   1.039   9.216  0.0781  0.2690  0.4688
  363TMC3    C3 5485   0.480   1.053   9.338  0.5078 -0.6407 -0.6150
  363TMC3    C4 5486   0.420   1.239   9.151 -0.5176  0.3233 -0.1112
  363TMC3    C5 5487   0.362   1.247   9.272  0.0605 -0.0980  0.8542
  363TMC3    C6 5488   0.398   1.161   9.371 -0.0438  0.3761  0.2210
  363TMC3     C 5489   0.535   1.106   8.982 -0.6149 -0.2384  0.0936
  363TMC3     O 5490   0.581   0.995   8.953  0.3867  0.5485 -0.1638
  363TMC3     H 5491   0.621   0.972   9.190 -1.0388 -1.1718  0.6834
  363TMC3    H1 5492   0.395   1.318   9.081  0.0260 -0.5343 -1.2601
  363TMC3    H2 5493   0.372   1.188   9.473  0.5439 -1.9045  0.9645
  363TMC3    C7 5494   0.255   1.343   9.309 -0.0407  0.7142  0.5633
  363TMC3    C8 5495   0.566   1.024   9.451 -0.4096 -1.0100  0.2781
  363TMC3    O1 5496   0.274   1.454   9.255  0.4036 -0.3761  0.1751
  363TMC3    O2 5497   0.577   1.103   9.543 -0.3002 -0.0337  0.5760
  364MPD2     C 5498   3.946   0.537  10.394 -0.4083  0.4852 -0.0737
  364MPD2    C1 5499   4.057   0.549  10.312  0.7333  0.1425  0.1801
  364MPD2    C2 5500   4.136   0.435  10.294  0.1123 -0.2598  0.0645
  364MPD2    C3 5501   4.109   0.313  10.359  0.3151  0.0373 -0.0952
  364MPD2    C4 5502   4.001   0.309  10.436  0.7340  0.5427  0.2724
  364MPD2    C5 5503   3.920   0.418  10.455 -0.0620  0.7299 -0.5053
  364MPD2     H 5504   4.210   0.438  10.215  0.3682  0.1274  0.3232
  364MPD2    H1 5505   3.964   0.219  10.486  0.1266  0.8046  0.2922
  364MPD2    H2 5506   3.870   0.613  10.401  0.2842  1.1033  0.7495
  364MPD2    H3 5507   3.830   0.406  10.514  1.0224 -0.7672  0.8143
  364MPD2     N 5508   4.192   0.205  10.358 -0.2722  0.0541 -0.3462
  364MPD2    H5 5509   4.169   0.131  10.424 -1.2826 -0.5457 -1.3903
  364MPD2    N1 5510   4.060   0.670  10.238 -0.2503 -0.3713  0.7071
  364MPD2    H7 5511   3.992   0.741  10.261 -0.6544 -1.1728  2.0120
  365TMC3    C1 5512   4.153   0.829  10.088 -0.4525  0.2397  0.3048
  365TMC3    C2 5513   4.199   0.844   9.962  0.6858 -0.0961  0.2655
  365TMC3    C3 5514   4.259   0.964   9.930 -0.0684 -0.1806 -0.2889
  365TMC3    C4 5515   4.155   0.928  10.183  0.5758  0.4092 -0.1066
  365TMC3    C5 5516   4.219   1.047  10.141  0.2019 -0.0494  0.4294
  365TMC3    C6 5517   4.273   1.067  10.019 -0.0889 -0.0895 -0.8877
  365TMC3     C 5518   4.160   0.697  10.144 -0.1056  0.3001  0.0677
  365TMC3     O 5519   4.239   0.617  10.093 -0.0443  0.6137 -0.6301
  365TMC3     H 5520   4.181   0.768   9.887 -1.1901  0.1158  0.5008
  365TMC3    H1 5521   4.117   0.914  10.284  1.1686 -1.0931 -0.0853
  365TMC3    H2 5522   4.340   1.148   9.992  1.3706 -0.2915  2.1008
  365TMC3    C7 5523   4.253   1.149  10.234  0.6199 -0.0145 -0.2715
  365TMC3    C8 5524   4.343   0.958   9.818  0.2155  0.3432 -0.0615
  365TMC3    O1 5525   4.312   1.253  10.195  0.5105  0.1909 -0.4292
  365TMC3    O2 5526   4.349   1.050   9.737  0.0196  0.6454  0.4933
  366MPD2     C 5527   2.515   1.906  15.157  0.2790  0.0045  0.3224
  366MPD2    C1 5528   2.549   1.978  15.270  0.3668  0.9223  0.1078
  366MPD2    C2 5529   2.645   1.919  15.355 -0.6991  0.2013  0.1670
  366MPD2    C3 5530   2.697   1.795  15.331 -0.3689  0.1459 -0.1112
  366MPD2    C4 5531   2.663   1.727  15.214 -0.7279 -0.0329 -0.5031
  366MPD2    C5 5532   2.564   1.781  15.137  0.0536 -0.1178  0.1405
  366MPD2     H 5533   2.679   1.974  15.442 -0.7975 -0.4665  0.6233
  366MPD2    H1 5534   2.715   1.641  15.174  1.0956  0.3194  1.1028
  366MPD2    H2 5535   2.447   1.956  15.089 -1.3896 -2.9960 -0.2040
  366MPD2    H3 5536   2.534   1.729  15.047  0.8183  2.5582 -1.6721
  366MPD2     N 5537   2.808   1.762  15.410  0.5681  0.2118  0.0944
  366MPD2    H5 5538   2.827   1.824  15.488 -0.2619  0.4526  0.1077
  366MPD2    N1 5539   2.505   2.109  15.302  0.4964  0.1441 -0.1029
  366MPD2    H7 5540   2.540   2.148  15.388  0.1492 -0.7580  0.4396
  367TMC3    C1 5541   2.355   2.294  15.318  1.0178  0.3299 -0.0468
  367TMC3    C2 5542   2.438   2.364  15.406 -0.0993 -0.1976 -0.2045
  367TMC3    C3 5543   2.383   2.458  15.487 -0.2918 -0.4137 -0.1478
  367TMC3    C4 5544   2.226   2.336  15.293  0.4681  0.0494 -1.2558
  367TMC3    C5 5545   2.183   2.444  15.363  0.1255  0.0615 -0.3261
  367TMC3    C6 5546   2.257   2.506  15.463  1.0457  0.1254  0.0234
  367TMC3     C 5547   2.397   2.176  15.243 -0.0061 -1.0930  0.7751
  367TMC3     O 5548   2.318   2.147  15.154  0.1022  0.1529 -0.0080
  367TMC3     H 5549   2.534   2.320  15.431 -0.5523 -0.7956  0.4717
  367TMC3    H1 5550   2.161   2.287  15.222  0.1645  1.6959 -2.1006
  367TMC3    H2 5551   2.206   2.577  15.527  0.9084 -0.3517  0.4456
  367TMC3    C7 5552   2.088   2.527  15.297 -0.5170  0.2056 -0.1831
  367TMC3    C8 5553   2.450   2.447  15.616 -0.1307  0.2000  0.3777
  367TMC3    O1 5554   2.016   2.483  15.209 -0.2930  0.0431 -0.0024
  367TMC3    O2 5555   2.569   2.487  15.622  0.2497 -0.6578 -1.1178
  368MPD2     C 5556   3.638   3.648  13.176 -0.2839 -0.0579 -0.4122
  368MPD2    C1 5557   3.650   3.731  13.064 -0.0818  0.0167 -0.0212
  368MPD2    C2 5558   3.753   3.716  12.978 -0.2722 -0.0004 -0.8629
  368MPD2    C3 5559   3.855   3.632  13.008  0.2850 -0.4540 -0.2704
  368MPD2    C4 5560   3.846   3.548  13.117  0.9150  0.0558 -0.3580
  368MPD2    C5 5561   3.733   3.549  13.191  0.4571  0.3091 -0.2153
  368MPD2     H 5562   3.751   3.772  12.886 -0.7777  0.4396 -0.5849
  368MPD2    H1 5563   3.912   3.463  13.132  0.2834 -0.5406 -0.9476
  368MPD2    H2 5564   3.546   3.628  13.229  1.3201  0.0633  2.4064
  368MPD2    H3 5565   3.706   3.472  13.264  2.4203 -1.1047 -0.9805
  368MPD2     N 5566   3.970   3.627  12.926  0.4054  0.1872 -0.3542
  368MPD2    H5 5567   4.031   3.546  12.932 -1.1542 -0.9292  0.6220
  368MPD2    N1 5568   3.546   3.814  13.026  0.5990 -0.5070 -0.0382
  368MPD2    H7 5569   3.549   3.853  12.933 -1.4206  0.9243  0.5019
  369TMC3    C1 5570   3.347   3.937  13.039  0.5799  0.2272  0.2228
  369TMC3    C2 5571   3.388   4.038  12.959 -0.2340  0.2826  1.3511
  369TMC3    C3 5572   3.300   4.096  12.871  0.5899 -0.3780  0.1445
  369TMC3    C4 5573   3.214   3.911  13.061 -0.0085  0.7430 -0.3393
  369TMC3    C5 5574   3.127   3.961  12.968 -0.3358 -0.9400 -0.0358
  369TMC3    C6 5575   3.168   4.048  12.866  0.7582  0.3435  0.2289
  369TMC3     C 5576   3.445   3.854  13.105 -0.3093  0.9912  0.4044
  369TMC3     O 5577   3.412   3.830  13.219  0.3644 -0.2791 -0.2847
  369TMC3     H 5578   3.496   4.044  12.951 -0.4491  1.2232 -0.7343
  369TMC3    H1 5579   3.170   3.839  13.128  2.0815 -1.3846 -1.2513
  369TMC3    H2 5580   3.099   4.089  12.793 -1.4679 -0.7271  1.7573
  369TMC3    C7 5581   3.007   3.876  12.957  1.2675  0.8271  0.0275
  369TMC3    C8 5582   3.348   4.194  12.760 -0.3378 -0.1810  0.5901
  369TMC3    O1 5583   2.933   3.871  13.057 -0.3447 -0.2720  0.8033
  369TMC3    O2 5584   3.265   4.233  12.679  0.5346 -0.6739 -0.2694
  370TMC3    C1 5585   3.335   4.120  16.160  0.1393  0.1520  0.3457
  370TMC3    C2 5586   3.248   4.054  16.239  0.4836  0.0421 -0.6219
  370TMC3    C3 5587   3.193   3.929  16.197  0.6578 -0.4075  0.1233
  370TMC3    C4 5588   3.378   4.059  16.046 -0.1983  0.0763  0.5779
  370TMC3    C5 5589   3.326   3.938  16.002 -0.9105  0.8633  0.2554
  370TMC3    C6 5590   3.229   3.867  16.077 -0.0274 -0.3302 -0.2357
  370TMC3     C 5591   3.427   4.217  16.217 -0.1464 -0.2757 -0.4021
  370TMC3     O 5592   3.473   4.185  16.327 -0.0459  0.2206  0.2183
  370TMC3     H 5593   3.248   4.084  16.343  1.4107  3.1804 -1.5315
  370TMC3    H1 5594   3.452   4.109  15.984  0.3596 -0.3264  0.9213
  370TMC3    H2 5595   3.175   3.787  16.028 -1.2441  0.1088  0.3753
  370TMC3    C7 5596   3.370   3.884  15.887  0.2200 -0.2160  0.4563
  370TMC3    C8 5597   3.139   3.842  16.298  1.1225  0.3739 -0.3015
  370TMC3    O1 5598   3.399   3.963  15.799  0.7285 -0.0074  0.8431
  370TMC3    O2 5599   3.134   3.724  16.271 -0.1964  0.1614  0.0363
  371TMC3    C1 5600   4.705   2.507  15.333  0.1555 -0.2720  0.0711
  371TMC3    C2 5601   4.577   2.478  15.374  1.1017  0.0250 -0.7692
  371TMC3    C3 5602   4.510   2.577  15.433 -0.2353 -0.3696  0.2815
  371TMC3    C4 5603   0.022   2.629  15.340 -0.6011  0.6025 -0.0071
  371TMC3    C5 5604   4.691   2.725  15.402 -0.2620  0.3657 -0.0586
  371TMC3    C6 5605   4.565   2.698  15.454 -0.4098  0.3198  0.2406
  371TMC3     C 5606   0.058   2.395  15.299  0.2499 -0.5040 -0.3256
  371TMC3     O 5607   0.153   2.425  15.231  0.0312 -0.1870 -0.6829
  371TMC3     H 5608   4.536   2.380  15.356  1.8415 -1.0459  3.4146
  371TMC3    H1 5609   0.122   2.649  15.304  0.3074 -0.3493  1.9460
  371TMC3    H2 5610   4.502   2.776  15.495 -2.2208  0.8967 -3.7244
  371TMC3    C7 5611   4.721   2.864  15.379  0.6743  0.1051  0.3229
  371TMC3    C8 5612   4.370   2.539  15.461 -0.1021  0.1383  0.1395
  371TMC3    O1 5613   4.703   2.944  15.472  0.0671 -0.7684  0.3105
  371TMC3    O2 5614   4.325   2.457  15.383  0.0788 -0.1211  0.2995
  372MPD2     C 5615   4.435   3.746  12.999 -0.7973  0.4231  0.7744
  372MPD2    C1 5616   4.495   3.636  13.054 -0.2942  0.3191  0.2816
  372MPD2    C2 5617   4.420   3.556  13.144 -0.1562 -0.7501 -0.3222
  372MPD2    C3 5618   4.308   3.599  13.204  0.4515 -0.4411 -0.0156
  372MPD2    C4 5619   4.252   3.715  13.159 -0.2782 -0.2005  0.2964
  372MPD2    C5 5620   4.309   3.781  13.050 -0.0838  0.2645  0.5853
  372MPD2     H 5621   4.466   3.462  13.169  0.5454 -0.5380 -0.8118
  372MPD2    H1 5622   4.159   3.753  13.200 -0.0832  0.5204  0.0691
  372MPD2    H2 5623   4.477   3.812  12.923 -2.8710  1.7119  0.7423
  372MPD2    H3 5624   4.258   3.866  13.006 -0.9743 -1.9489 -2.7274
  372MPD2     N 5625   4.244   3.512  13.296 -0.1728 -0.1816 -0.0222
  372MPD2    H5 5626   4.280   3.417  13.304  1.3199  0.4926  1.2807
  372MPD2    N1 5627   4.624   3.587  13.027 -0.6128 -0.2893  0.5029
  372MPD2    H7 5628   4.657   3.510  13.084  1.0432 -1.1473 -1.6540
  373TMC3    C1 5629   4.087   3.426  13.448  0.1143  0.5827 -0.0206
  373TMC3    C2 5630   4.002   3.448  13.553  0.0275 -0.7924  0.2980
  373TMC3    C3 5631   3.943   3.336  13.611  0.2644 -0.1300 -0.0773
  373TMC3    C4 5632   4.110   3.295  13.403  0.1295  0.4631 -0.1099
  373TMC3    C5 5633   4.055   3.189  13.468 -0.6938  0.0837 -0.2056
  373TMC3    C6 5634   3.977   3.207  13.580  0.1197 -0.9874  0.0123
  373TMC3     C 5635   4.129   3.536  13.368 -0.6455  0.8710 -0.2337
  373TMC3     O 5636   4.078   3.646  13.391  0.6007  0.2544 -0.4623
  373TMC3     H 5637   3.973   3.550  13.579  2.2107 -0.0253 -0.2763
  373TMC3    H1 5638   4.185   3.276  13.327  1.1625  1.2693  0.7197
  373TMC3    H2 5639   3.931   3.126  13.636 -0.7840 -0.3279  0.2282
  373TMC3    C7 5640   4.138   3.064  13.465 -0.3809 -0.4863  0.5265
  373TMC3    C8 5641   3.855   3.356  13.723 -0.6774 -0.4700 -0.2225
  373TMC3    O1 5642   4.259   3.076  13.446 -0.2550  0.3313 -0.8537
  373TMC3    O2 5643   3.752   3.290  13.720  0.0289 -0.0531 -0.1143
  374TMC3    C1 5644   4.425   3.851   9.429 -0.4021  0.7419  1.0638
  374TMC3    C2 5645   4.505   3.951   9.458 -0.4587  0.8794  0.1315
  374TMC3    C3 5646   4.542   4.031   9.351  0.0413 -0.4673  0.1499
  374TMC3    C4 5647   4.381   3.820   9.305  0.2067  0.3470 -0.0934
  374TMC3    C5 5648   4.414   3.912   9.199  0.4923  0.1677  0.1535
  374TMC3    C6 5649   4.487   4.024   9.225 -0.3541 -0.5995 -0.1389
  374TMC3     C 5650   4.366   3.769   9.538 -0.3230  0.0809  0.0908
  374TMC3     O 5651   4.287   3.680   9.508  0.3552 -0.4020  0.1085
  374TMC3     H 5652   4.527   3.977   9.562  0.9853  0.3127 -0.0282
  374TMC3    H1 5653   4.310   3.739   9.294  0.5658  0.1325 -0.8346
  374TMC3    H2 5654   4.526   4.082   9.142  0.4584 -2.5814 -1.1218
  374TMC3    C7 5655   4.387   3.881   9.060  0.1149 -0.3182 -0.6564
  374TMC3    C8 5656   4.655   4.121   9.368 -0.4073  0.3120 -0.3608
  374TMC3    O1 5657   4.421   3.964   8.978 -0.2559 -0.6382  0.0631
  374TMC3    O2 5658   4.699   4.179   9.271 -0.3402  0.4503 -0.6032
  375MPD2     C 5659   0.132   4.537  17.220  0.0654 -0.0999 -0.8378
  375MPD2    C1 5660   0.075   4.502  17.098  0.3929 -0.4397  0.1023
  375MPD2    C2 5661   0.141   4.434  17.004 -0.6510 -0.0252 -0.7271
  375MPD2    C3 5662   0.267   4.385  17.028 -0.3152  0.4509 -1.1258
  375MPD2    C4 5663   0.336   4.421  17.141 -0.9556  0.2950  0.0095
  375MPD2    C5 5664   0.267   4.505  17.232  0.7087  0.1483 -0.2277
  375MPD2     H 5665   0.093   4.418  16.908  0.1367 -0.8358 -0.9841
  375MPD2    H1 5666   0.429   4.378  17.176  0.8949  3.2206 -1.3125
  375MPD2    H2 5667   0.086   4.602  17.293  1.8708 -0.2817  0.4679
  375MPD2    H3 5668   0.311   4.530  17.328  2.1164 -1.8332 -0.3552
  375MPD2     N 5669   0.343   4.312  16.929  0.0332 -0.4301 -0.0274
  375MPD2    H5 5670   0.442   4.295  16.946 -0.5390 -3.1845  0.4073
  375MPD2    N1 5671   4.681   4.547  17.063  0.2980 -0.1542 -0.2130
  375MPD2    H7 5672   4.635   4.538  16.973  0.4370  0.8976 -0.3917
  376TMC3    C1 5673   0.400   4.214  16.721  0.4568 -1.2810 -0.4721
  376TMC3    C2 5674   0.527   4.260  16.720 -0.1171 -0.1773  0.4719
  376TMC3    C3 5675   0.610   4.222  16.616 -0.1217 -1.0269 -0.2088
  376TMC3    C4 5676   0.357   4.130  16.624  0.3581 -0.2243  0.2569
  376TMC3    C5 5677   0.429   4.099  16.518  0.7140  0.1837  0.0142
  376TMC3    C6 5678   0.560   4.135  16.519 -0.3660  0.0582 -0.3014
  376TMC3     C 5679   0.298   4.269  16.807 -0.0685  0.5819  0.1140
  376TMC3     O 5680   0.184   4.241  16.778  0.0753 -0.0463 -0.4364
  376TMC3     H 5681   0.560   4.324  16.800  2.4047 -2.7920  1.5096
  376TMC3    H1 5682   0.255   4.092  16.626  0.4591 -0.6168 -1.8410
  376TMC3    H2 5683   0.625   4.095  16.442  0.8951  0.3339  0.6124
  376TMC3    C7 5684   0.367   4.152  16.400 -0.2318  0.3477  0.2997
  376TMC3    C8 5685   0.738   4.294  16.589 -0.1763 -0.2106  0.3909
  376TMC3    O1 5686   0.289   4.245  16.425  0.0802  0.2790  0.4569
  376TMC3    O2 5687   0.779   4.283  16.471 -0.7350  0.4165  0.7700
  377MPD2     C 5688   2.801   4.115  12.018  0.3776 -0.0925 -0.2381
  377MPD2    C1 5689   2.894   4.083  12.110 -0.3936 -0.1223 -0.0499
  377MPD2    C2 5690   2.850   4.060  12.239  0.4513  0.1201 -0.0469
  377MPD2    C3 5691   2.720   4.096  12.277  0.2447  0.1968  0.4898
  377MPD2    C4 5692   2.627   4.135  12.179  0.4923  0.0467  0.2261
  377MPD2    C5 5693   2.669   4.146  12.050 -0.1967 -0.3013 -0.2819
  377MPD2     H 5694   2.919   4.051  12.321 -0.1291 -1.3176  0.2742
  377MPD2    H1 5695   2.526   4.165  12.204  0.5465  0.9208 -0.6022
  377MPD2    H2 5696   2.825   4.128  11.913  1.3511  1.8013  0.2355
  377MPD2    H3 5697   2.611   4.198  11.975 -0.9021  2.3545  2.0920
  377MPD2     N 5698   2.678   4.092  12.410  0.2171 -0.2212  0.1777
  377MPD2    H5 5699   2.584   4.126  12.422  0.0416  0.0292 -1.9179
  377MPD2    N1 5700   3.031   4.069  12.071  0.8491 -0.5539 -0.1725
  377MPD2    H7 5701   3.045   4.089  11.972 -3.2281  1.2071 -0.4062
  378TMC3    C1 5702   3.357   3.955  11.859 -0.7181  0.0664 -0.2260
  378TMC3    C2 5703   3.246   3.979  11.932  0.4625  0.1219  0.0230
  378TMC3    C3 5704   3.256   3.983  12.069  0.1237 -0.0199  0.4120
  378TMC3    C4 5705   3.480   3.932  11.918  0.4836  0.6603 -0.3893
  378TMC3    C5 5706   3.492   3.946  12.055 -1.0966 -1.3588  0.8038
  378TMC3    C6 5707   3.380   3.973  12.135  0.1191 -0.1898 -0.4588
  378TMC3     C 5708   3.340   3.963  11.715  0.2387  0.2004  0.5165
  378TMC3     O 5709   3.230   3.939  11.670  0.1940 -0.4651 -0.1349
  378TMC3     H 5710   3.151   3.963  11.881  0.6260 -0.4582 -0.0981
  378TMC3    H1 5711   3.570   3.923  11.858  0.4409 -0.8075 -0.2231
  378TMC3    H2 5712   3.383   3.975  12.243  0.3602  0.9747 -0.4921
  378TMC3    C7 5713   3.617   3.944  12.117 -0.6189 -0.6069  0.3800
  378TMC3    C8 5714   3.138   4.019  12.143 -0.5860  0.2240 -0.1560
  378TMC3    O1 5715   3.614   3.970  12.238  0.3096  0.6814 -0.0420
  378TMC3    O2 5716   3.134   4.001  12.264  0.2054  0.4435 -0.3925
  379MPD2     C 5717   3.536   1.873  16.237 -0.3881  0.2354 -0.0877
  379MPD2    C1 5718   3.422   1.898  16.308 -0.2346  0.3506  0.0332
  379MPD2    C2 5719   3.429   1.902  16.448  0.0431  0.7414 -0.2150
  379MPD2    C3 5720   3.550   1.864  16.510  0.5357 -0.0980  0.2589
  379MPD2    C4 5721   3.649   1.808  16.434  0.8052 -0.2320  0.3333
  379MPD2    C5 5722   3.641   1.816  16.303  0.3184  0.4565  0.4890
  379MPD2     H 5723   3.338   1.921  16.502 -0.1813  0.4003 -0.4750
  379MPD2    H1 5724   3.748   1.783  16.473  1.0563  2.0996  1.2113
  379MPD2    H2 5725   3.545   1.865  16.129 -1.6592 -1.3182 -0.0784
  379MPD2    H3 5726   3.729   1.781  16.249 -0.7858 -1.7609  0.1209
  379MPD2     N 5727   3.564   1.863  16.653 -0.1269  0.3371  0.0420
  379MPD2    H5 5728   3.654   1.834  16.690  0.6410  1.1188 -1.2070
  379MPD2    N1 5729   3.309   1.937  16.227  0.0924 -0.3247  0.3168
  379MPD2    H7 5730   3.316   1.914  16.129  1.6546  0.0113  0.3559
  380TMC3    C1 5731   3.120   2.051  16.155 -0.5350  0.5917 -0.1902
  380TMC3    C2 5732   3.175   2.072  16.034  0.8928 -0.2433 -0.2971
  380TMC3    C3 5733   3.104   2.127  15.934  0.1693 -0.8240 -0.1106
  380TMC3    C4 5734   2.988   2.079  16.184  0.0309 -0.9312 -0.3936
  380TMC3    C5 5735   2.913   2.127  16.076  0.7272 -0.4014  0.2754
  380TMC3    C6 5736   2.970   2.153  15.953 -1.1676 -0.7429  0.5596
  380TMC3     C 5737   3.195   2.002  16.266  0.0488 -0.3254  0.8483
  380TMC3     O 5738   3.163   2.012  16.386 -0.1924 -0.1316  0.0566
  380TMC3     H 5739   3.282   2.057  16.025  0.8110  0.3870 -2.3330
  380TMC3    H1 5740   2.944   2.085  16.282  2.3620 -1.4555  0.6945
  380TMC3    H2 5741   2.910   2.193  15.872  0.3954 -1.4321 -0.9338
  380TMC3    C7 5742   2.773   2.149  16.093  0.3365 -0.8873 -0.7442
  380TMC3    C8 5743   3.166   2.148  15.802 -0.1997  0.1311  0.4964
  380TMC3    O1 5744   2.719   2.076  16.173  0.0088 -0.3545  0.3388
  380TMC3    O2 5745   3.260   2.078  15.776 -0.3672  0.5703  0.1937
  381TMC3    C1 5746   3.180   3.074  16.125 -0.2009  0.3838  0.0603
  381TMC3    C2 5747   3.282   3.163  16.115 -0.2135  1.0176  0.4340
  381TMC3    C3 5748   3.273   3.276  16.198 -0.5688 -0.0324  0.0094
  381TMC3    C4 5749   3.077   3.090  16.217 -0.0352 -0.0162  0.5336
  381TMC3    C5 5750   3.069   3.202  16.295 -0.7467 -0.7593 -0.1223
  381TMC3    C6 5751   3.172   3.298  16.287  0.1032 -1.0882 -0.5370
  381TMC3     C 5752   3.194   2.945  16.057  0.2559 -0.3718 -0.4675
  381TMC3     O 5753   3.143   2.856  16.127  0.2079  0.1593 -0.2129
  381TMC3     H 5754   3.371   3.144  16.057 -1.2907  0.0367 -0.8722
  381TMC3    H1 5755   3.009   3.007  16.231 -1.0481  0.8624  0.8165
  381TMC3    H2 5756   3.163   3.391  16.342  0.3083 -0.7473 -1.0799
  381TMC3    C7 5757   3.007   3.180  16.426 -0.0849  0.1688 -0.1960
  381TMC3    C8 5758   3.393   3.357  16.200 -1.2449  0.7552 -0.3991
  381TMC3    O1 5759   2.974   3.065  16.449  0.3832 -0.4592  0.2197
  381TMC3    O2 5760   3.488   3.310  16.136 -0.0306  0.1404 -0.3829
  382MPD2     C 5761   2.399   0.962  16.887  0.4570  0.1259  0.3386
  382MPD2    C1 5762   2.430   0.947  17.023  0.4814  0.3032 -0.4517
  382MPD2    C2 5763   2.436   0.816  17.064  0.0931  0.1299  0.7889
  382MPD2    C3 5764   2.384   0.709  16.992  0.0483 -0.0790 -0.6672
  382MPD2    C4 5765   2.358   0.723  16.862  0.8912  0.2101  0.8296
  382MPD2    C5 5766   2.361   0.852  16.813 -0.0918  0.0014  0.0848
  382MPD2     H 5767   2.474   0.801  17.165 -2.8958 -0.6970  1.7738
  382MPD2    H1 5768   2.315   0.646  16.798 -2.2100  1.8207  0.9977
  382MPD2    H2 5769   2.386   1.059  16.840  2.0298 -0.6592 -1.7415
  382MPD2    H3 5770   2.332   0.868  16.710  1.0747  1.6494  0.0113
  382MPD2     N 5771   2.346   0.580  17.054  0.5527 -0.0707 -0.7598
  382MPD2    H5 5772   2.325   0.499  16.997  2.0757  0.7896 -2.5484
  382MPD2    N1 5773   2.467   1.059  17.100  0.1001  0.1150 -0.2882
  382MPD2    H7 5774   2.513   1.032  17.187 -1.1680  0.1902  0.4027
  383TMC3    C1 5775   2.278   0.436  17.228  0.1794  0.6466  0.0981
  383TMC3    C2 5776   2.195   0.375  17.143  0.1698 -0.3693 -0.4091
  383TMC3    C3 5777   2.088   0.303  17.189 -0.0521 -0.1939 -0.7564
  383TMC3    C4 5778   2.260   0.436  17.363 -0.5153 -0.3433 -0.3921
  383TMC3    C5 5779   2.150   0.367  17.419  0.3423 -0.0882 -0.0014
  383TMC3    C6 5780   2.059   0.302  17.324 -0.3813 -0.2730  0.3052
  383TMC3     C 5781   2.346   0.558  17.189  0.2093  0.2216 -0.1756
  383TMC3     O 5782   2.372   0.636  17.280 -0.3967  0.3540  0.7386
  383TMC3     H 5783   2.216   0.380  17.036  1.1387 -1.7495 -0.2949
  383TMC3    H1 5784   2.330   0.485  17.430 -2.1532 -1.5950  2.2585
  383TMC3    H2 5785   1.970   0.251  17.359 -0.0344 -0.2955  1.1525
  383TMC3    C7 5786   2.086   0.391  17.548  0.0729 -1.2563 -0.2023
  383TMC3    C8 5787   1.980   0.267  17.096 -0.6379  0.4107  0.1753
  383TMC3    O1 5788   1.978   0.342  17.566 -0.3933 -0.3639  0.2838
  383TMC3    O2 5789   1.972   0.318  16.985  0.1978 -0.1223  0.2415
  384MPD2     C 5790   3.829   2.187  12.031 -0.9013 -0.0069  0.6593
  384MPD2    C1 5791   3.868   2.112  12.138 -0.2241  0.1418 -0.2190
  384MPD2    C2 5792   3.948   2.001  12.114 -0.0687  0.8183 -0.2307
  384MPD2    C3 5793   3.994   1.974  11.987  0.3015  0.0044  0.4570
  384MPD2    C4 5794   3.958   2.057  11.882 -0.4416  0.1470  0.0182
  384MPD2    C5 5795   3.876   2.161  11.906  0.3273  0.0460 -0.1228
  384MPD2     H 5796   3.976   1.941  12.200  0.4873  2.8097  0.9834
  384MPD2    H1 5797   3.993   2.033  11.782 -3.4572 -0.8497 -0.8015
  384MPD2    H2 5798   3.769   2.275  12.052 -0.7804  0.7280 -2.0929
  384MPD2    H3 5799   3.837   2.222  11.826 -1.8151  1.7064  2.2106
  384MPD2     N 5800   4.078   1.860  11.967 -0.6720 -0.3101  0.5022
  384MPD2    H5 5801   4.112   1.811  12.049  0.0205 -0.3539  0.1858
  384MPD2    N1 5802   3.818   2.124  12.264  0.3645  0.8109  0.3430
  384MPD2    H7 5803   3.866   2.066  12.332  1.3880  1.6838  0.3768
  385TMC3    C1 5804   4.160   1.666  11.879 -0.5869  0.1891 -0.2235
  385TMC3    C2 5805   4.088   1.564  11.835 -0.3159 -0.0163 -0.6909
  385TMC3    C3 5806   4.038   1.475  11.926  0.3407  0.0543  0.2368
  385TMC3    C4 5807   4.217   1.657  12.006 -0.1407  0.1062  0.7358
  385TMC3    C5 5808   4.177   1.562  12.100  0.4938  0.5707 -0.6948
  385TMC3    C6 5809   4.078   1.477  12.056  0.3816 -0.2690  0.2959
  385TMC3     C 5810   4.112   1.795  11.850  0.0373 -0.8306 -1.0097
  385TMC3     O 5811   4.092   1.823  11.732  0.0074 -0.1189 -0.2789
  385TMC3     H 5812   4.047   1.579  11.735 -0.5438 -3.7222 -1.1332
  385TMC3    H1 5813   4.291   1.732  12.030  1.1432 -1.0169  0.3375
  385TMC3    H2 5814   4.021   1.418  12.128  0.2860  0.1204  0.5418
  385TMC3    C7 5815   4.149   1.635  12.219 -0.2663  0.4456  0.2740
  385TMC3    C8 5816   3.942   1.372  11.893 -0.1515 -0.1694 -0.4018
  385TMC3    O1 5817   4.164   1.756  12.207  0.1177  0.5210  0.0771
  385TMC3    O2 5818   3.876   1.319  11.985 -0.1131 -0.3559  0.1226
  386TMC3    C1 5819   4.599   3.936  11.353 -0.4941  0.3455  0.2359
  386TMC3    C2 5820   4.530   3.972  11.244 -0.2222 -0.0537 -0.1845
  386TMC3    C3 5821   4.409   4.028  11.268  0.0089  1.0459 -0.4953
  386TMC3    C4 5822   4.550   3.947  11.480  0.2245  0.2774  0.6952
  386TMC3    C5 5823   4.429   4.003  11.503 -0.2990 -0.0330  0.5326
  386TMC3    C6 5824   4.362   4.052  11.396 -0.3113  0.1552  1.0113
  386TMC3     C 5825   0.003   3.903  11.322  0.6841 -0.5759  0.3519
  386TMC3     O 5826   0.044   3.947  11.212  0.1268 -0.5656  0.6898
  386TMC3     H 5827   4.564   3.959  11.142  2.2215 -4.2234  1.1417
  386TMC3    H1 5828   4.606   3.916  11.567 -1.2244 -1.0902  1.1381
  386TMC3    H2 5829   4.271   4.109  11.408  0.3013  0.9181  1.9532
  386TMC3    C7 5830   4.404   4.052  11.648 -0.0407 -0.3231  0.2262
  386TMC3    C8 5831   4.312   4.037  11.156  0.0506 -0.4120  0.1584
  386TMC3    O1 5832   4.505   4.081  11.713 -0.0506  0.4087 -0.5374
  386TMC3    O2 5833   4.197   4.013  11.185  0.2959  0.6555 -0.1883
  387MPD2     C 5834   1.631   4.161   9.522  0.0553  0.0257  0.1102
  387MPD2    C1 5835   1.715   4.128   9.629  0.3987 -0.2531 -1.1211
  387MPD2    C2 5836   1.761   3.995   9.644  0.0083  0.4876  0.4176
  387MPD2    C3 5837   1.719   3.903   9.554  0.6749  0.8263 -0.7023
  387MPD2    C4 5838   1.618   3.931   9.463  0.3699 -0.1794 -0.3413
  387MPD2    C5 5839   1.575   4.061   9.448 -0.5002  0.5826  0.4470
  387MPD2     H 5840   1.826   3.970   9.727 -1.4710 -2.4642  0.6601
  387MPD2    H1 5841   1.584   3.865   9.384  2.2455 -2.4878  0.7915
  387MPD2    H2 5842   1.590   4.260   9.506  1.7057  0.6772 -0.0415
  387MPD2    H3 5843   1.501   4.084   9.373 -1.8385 -1.4539  1.1532
  387MPD2     N 5844   1.771   3.775   9.561  0.4019  0.0949 -0.6547
  387MPD2    H5 5845   1.835   3.754   9.637 -0.5588 -0.9918 -0.1616
  387MPD2    N1 5846   1.782   4.218   9.716  0.0322  0.6804 -0.4225
  387MPD2    H7 5847   1.842   4.178   9.788 -0.9573 -1.2334 -0.6704
  388TMC3    C1 5848   1.895   4.397   9.798  0.2021 -0.0022  0.1044
  388TMC3    C2 5849   1.921   4.532   9.776 -0.3493  0.2241 -0.6994
  388TMC3    C3 5850   2.049   4.580   9.785  0.9877  0.3868 -0.0589
  388TMC3    C4 5851   1.998   4.315   9.827 -0.5162 -0.4097  0.1661
  388TMC3    C5 5852   2.123   4.368   9.844 -0.0227  0.5870 -0.2363
  388TMC3    C6 5853   2.149   4.498   9.831 -0.0793 -0.0015 -0.5650
  388TMC3     C 5854   1.779   4.354   9.723  0.2340 -1.4014 -0.2089
  388TMC3     O 5855   1.730   4.435   9.643  0.6182 -0.5042  0.4134
  388TMC3     H 5856   1.849   4.601   9.733  0.2512  1.4331  0.2656
  388TMC3    H1 5857   1.985   4.212   9.859  0.1062 -0.1474  1.2985
  388TMC3    H2 5858   2.254   4.518   9.809  0.2945 -2.3806 -0.9319
  388TMC3    C7 5859   2.237   4.272   9.855  0.5272 -0.4644  1.1681
  388TMC3    C8 5860   2.074   4.724   9.788 -0.2592 -0.7534 -0.3727
  388TMC3    O1 5861   2.325   4.292   9.935  0.8944 -0.1576  0.3653
  388TMC3    O2 5862   1.998   0.075   9.749 -0.2373  0.0489 -0.7154
  389MPD2     C 5863   1.666   2.431  11.331  0.9252  0.3288 -0.1360
  389MPD2    C1 5864   1.537   2.397  11.301  0.9365 -0.3354  0.7891
  389MPD2    C2 5865   1.452   2.335  11.387  0.1061  0.0437  0.1954
  389MPD2    C3 5866   1.503   2.297  11.508  0.1299 -0.2142  0.3609
  389MPD2    C4 5867   1.627   2.340  11.552 -0.4624  0.2849 -0.4608
  389MPD2    C5 5868   1.700   2.414  11.466  0.0396 -0.0724 -0.1001
  389MPD2     H 5869   1.350   2.303  11.369  0.9219 -2.4924  0.0918
  389MPD2    H1 5870   1.656   2.307  11.651  2.6619 -0.2995 -1.5621
  389MPD2    H2 5871   1.730   2.475  11.255  3.0481  2.0490  2.6158
  389MPD2    H3 5872   1.799   2.450  11.493 -0.4651  1.9570 -0.9419
  389MPD2     N 5873   1.428   2.227  11.607 -0.0269  0.9483 -0.6265
  389MPD2    H5 5874   1.476   2.212  11.695 -1.0696  0.4461 -0.1518
  389MPD2    N1 5875   1.508   2.423  11.164  0.9150  0.3885 -0.4869
  389MPD2    H7 5876   1.585   2.459  11.108  0.3809 -0.7642 -1.9370
  390TMC3    C1 5877   1.260   2.110  11.710 -0.6463  0.9667 -0.0413
  390TMC3    C2 5878   1.169   2.007  11.708 -0.4183 -0.1462  0.2443
  390TMC3    C3 5879   1.079   1.994  11.809 -0.6965 -0.6423 -0.1263
  390TMC3    C4 5880   1.266   2.196  11.821 -0.3501  0.0339 -0.4246
  390TMC3    C5 5881   1.155   2.194  11.908 -0.6449 -0.4211  0.3093
  390TMC3    C6 5882   1.069   2.090  11.907  0.0644  0.3487  0.5337
  390TMC3     C 5883   1.313   2.160  11.587 -0.5617  0.7176 -0.0861
  390TMC3     O 5884   1.249   2.130  11.486 -0.3365 -0.0322  0.1601
  390TMC3     H 5885   1.171   1.934  11.628 -0.7559 -0.4684  0.5339
  390TMC3    H1 5886   1.338   2.276  11.831  0.6977 -1.1494  1.4676
  390TMC3    H2 5887   0.979   2.105  11.966 -0.7872  0.6129 -0.8473
  390TMC3    C7 5888   1.163   2.285  12.017  0.0114 -0.1499  0.0179
  390TMC3    C8 5889   0.960   1.915  11.781 -0.6189 -0.0495 -0.4522
  390TMC3    O1 5890   1.224   2.393  12.005 -0.2790  0.2049  0.0615
  390TMC3    O2 5891   0.942   1.861  11.672  0.1670  0.4255  0.8850
  391MPD2     C 5892   0.527   3.932  10.865  0.2903 -0.7139  0.2876
  391MPD2    C1 5893   0.622   4.023  10.818 -0.1376 -0.5092 -0.5230
  391MPD2    C2 5894   0.627   4.052  10.681 -0.1005  0.7839  0.1738
  391MPD2    C3 5895   0.531   4.003  10.590 -0.1627 -0.0492 -0.6027
  391MPD2    C4 5896   0.439   3.913  10.641  0.0040  0.4810 -0.0954
  391MPD2    C5 5897   0.437   3.878  10.777  0.1235 -0.5924  0.3398
  391MPD2     H 5898   0.699   4.123  10.643  0.7302  0.5158  1.2587
  391MPD2    H1 5899   0.365   3.859  10.582  1.1222 -0.5183 -0.5776
  391MPD2    H2 5900   0.528   3.882  10.961 -1.6572 -0.0536  0.6520
  391MPD2    H3 5901   0.367   3.802  10.809 -0.0224  0.1478  1.7508
  391MPD2     N 5902   0.535   4.050  10.458  0.2338  0.0958 -0.8323
  391MPD2    H5 5903   0.610   4.116  10.439  0.7941 -0.2318  0.2333
  391MPD2    N1 5904   0.719   4.078  10.897 -0.1552  0.1913 -0.4789
  391MPD2    H7 5905   0.775   4.150  10.851 -0.8195  0.2797 -1.1424
  392TMC3    C1 5906   0.496   4.069  10.229  0.0191  0.3686 -0.5497
  392TMC3    C2 5907   0.403   4.086  10.128 -0.7580  0.8119 -0.3022
  392TMC3    C3 5908   0.437   4.129  10.003 -0.0184  0.1516 -0.4020
  392TMC3    C4 5909   0.623   4.097  10.208  0.0979 -0.1342 -0.2682
  392TMC3    C5 5910   0.648   4.158  10.086 -0.7718  0.0514 -0.1247
  392TMC3    C6 5911   0.565   4.177   9.979 -0.0862  0.2819 -0.0392
  392TMC3     C 5912   0.450   4.017  10.360 -0.0205  0.9240 -0.2733
  392TMC3     O 5913   0.337   3.969  10.363  0.1149  0.3560  0.2244
  392TMC3     H 5914   0.301   4.050  10.141 -1.0483  2.4590  2.1010
  392TMC3    H1 5915   0.702   4.077  10.280  0.6826 -2.4720 -1.5915
  392TMC3    H2 5916   0.591   4.225   9.885  3.0985  1.6339  1.5557
  392TMC3    C7 5917   0.772   4.238  10.095  0.0683  0.2780 -0.1895
  392TMC3    C8 5918   0.329   4.134   9.905 -0.6518  0.1293 -0.2698
  392TMC3    O1 5919   0.826   4.258  10.208 -0.5432 -0.0033  0.0854
  392TMC3    O2 5920   0.243   4.047   9.909 -0.8404  0.0184  0.8108
  393TMC3    C1 5921   3.883   1.924  10.408 -0.1898  0.4034 -0.2506
  393TMC3    C2 5922   3.814   1.848  10.314  0.5591  0.0821 -0.4588
  393TMC3    C3 5923   3.800   1.713  10.348  0.2354  0.1121  0.1788
  393TMC3    C4 5924   3.950   1.873  10.517  0.0025  0.4047 -0.2342
  393TMC3    C5 5925   3.939   1.733  10.538 -0.1753  0.2707 -0.8414
  393TMC3    C6 5926   3.867   1.657  10.450 -0.5781 -0.5303  0.1635
  393TMC3     C 5927   3.899   2.062  10.369 -0.1963 -0.3108  0.4554
  393TMC3     O 5928   3.925   2.087  10.253  0.6144  0.0040  0.0380
  393TMC3     H 5929   3.754   1.902  10.241  0.5344 -1.2922 -1.4590
  393TMC3    H1 5930   4.014   1.934  10.579 -1.5345  0.6367  1.0959
  393TMC3    H2 5931   3.863   1.549  10.457 -1.4897 -0.4485  0.8945
  393TMC3    C7 5932   3.983   1.681  10.665  0.5428 -0.0562 -0.4128
  393TMC3    C8 5933   3.706   1.624  10.275 -0.2547  0.2537  0.1430
  393TMC3    O1 5934   3.964   1.562  10.678  0.0964  0.3513 -0.1562
  393TMC3    O2 5935   3.657   1.526  10.330  0.5839 -0.3460 -0.5173
  394TMC3    C1 5936   1.377   2.466  10.964  0.5790 -0.1296  0.1911
  394TMC3    C2 5937   1.254   2.503  10.912 -0.4231  0.8831 -0.6476
  394TMC3    C3 5938   1.240   2.500  10.778  0.2022  0.2394  0.1377
  394TMC3    C4 5939   1.486   2.433  10.883  0.7112  0.5871  0.1989
  394TMC3    C5 5940   1.470   2.438  10.750 -0.6786 -0.0201  0.2081
  394TMC3    C6 5941   1.347   2.472  10.693  0.8027  0.1552 -0.6495
  394TMC3     C 5942   1.379   2.423  11.105 -0.1716 -0.1058  0.1469
  394TMC3     O 5943   1.267   2.400  11.152  0.1533 -0.1359  0.1114
  394TMC3     H 5944   1.174   2.526  10.981  0.9239  1.1431  0.8111
  394TMC3    H1 5945   1.573   2.389  10.932 -0.4095 -0.3802  1.3168
  394TMC3    H2 5946   1.327   2.471  10.586 -0.6302  2.2715 -0.4063
  394TMC3    C7 5947   1.576   2.433  10.651 -0.0690  0.1329  0.2232
  394TMC3    C8 5948   1.109   2.505  10.725 -0.1210 -0.1314  0.7692
  394TMC3    O1 5949   1.552   2.463  10.535  0.0397 -0.6842 -0.1169
  394TMC3    O2 5950   1.031   2.469  10.812 -0.3089  0.2601  0.1830
  395TMC3    C1 5951   1.083   0.006  15.020  0.8276 -0.1397 -0.5125
  395TMC3    C2 5952   0.985   4.700  14.934  0.4499  0.1705 -0.8230
  395TMC3    C3 5953   0.982   4.733  14.799 -0.4950 -0.2570  0.2922
  395TMC3    C4 5954   1.182   0.092  14.977 -1.3043  1.0257 -0.5928
  395TMC3    C5 5955   1.176   0.120  14.844  0.7723 -0.3132  0.1361
  395TMC3    C6 5956   1.091   0.061  14.757 -0.0580  0.1092  0.0836
  395TMC3     C 5957   1.072   4.717  15.160  0.0906 -0.0291 -0.5911
  395TMC3     O 5958   1.112   0.066  15.239 -0.2812 -0.4426  0.0289
  395TMC3     H 5959   0.895   4.661  14.980  0.7491  0.4190 -0.0399
  395TMC3    H1 5960   1.270   0.105  15.038 -1.1513 -0.4562 -0.4968
  395TMC3    H2 5961   1.084   0.085  14.651  5.1016  0.6017 -0.1678
  395TMC3    C7 5962   1.295   0.155  14.764 -0.3404  1.0219  0.0052
  395TMC3    C8 5963   0.853   0.018  14.727 -1.0719 -0.6795  0.0579
  395TMC3    O1 5964   1.319   0.087  14.666  0.0549  0.2865 -0.3048
  395TMC3    O2 5965   0.835   0.128  14.673  0.0437  0.9783  0.0316
  396MPD2     C 5966   0.066   0.452  16.735  0.2517 -0.1056 -0.5819
  396MPD2    C1 5967   0.198   0.445  16.786 -0.1482  0.3714 -0.1089
  396MPD2    C2 5968   0.288   0.550  16.776  0.4994  0.0218 -0.0531
  396MPD2    C3 5969   0.236   0.674  16.738 -1.2342  0.2482  0.6609
  396MPD2    C4 5970   0.110   0.684  16.674  1.4918  0.1004 -0.7600
  396MPD2    C5 5971   0.030   0.573  16.679  1.2029  0.0235 -0.2249
  396MPD2     H 5972   0.383   0.542  16.828  0.0535 -1.8969  0.4480
  396MPD2    H1 5973   0.070   0.778  16.640  0.3123 -0.7913 -1.8437
  396MPD2    H2 5974   0.009   0.360  16.723 -1.6029  1.0160 -0.4387
  396MPD2    H3 5975   4.662   0.588  16.644  0.8384  0.2762  0.9488
  396MPD2     N 5976   0.325   0.782  16.752 -0.1433 -0.4773  0.3542
  396MPD2    H5 5977   0.424   0.764  16.770  0.0529 -0.0827 -0.3494
  396MPD2    N1 5978   0.233   0.317  16.840  0.1302 -0.4130 -0.1654
  396MPD2    H7 5979   0.164   0.244  16.832 -0.9072  0.8702 -2.7574
  397TMC3    C1 5980   0.363   0.152  16.968 -0.2401  0.4689  0.8419
  397TMC3    C2 5981   0.500   0.136  16.989  0.1406 -0.9296  0.5516
  397TMC3    C3 5982   0.544   0.154  17.120 -0.2238 -0.6577 -0.8905
  397TMC3    C4 5983   0.275   0.157  17.074 -0.3347 -0.3721  0.1804
  397TMC3    C5 5984   0.322   0.168  17.200 -0.4680 -0.4058 -0.0206
  397TMC3    C6 5985   0.457   0.175  17.227  0.0939 -0.0894 -0.0184
  397TMC3     C 5986   0.359   0.276  16.889  0.2939 -0.1381  0.0599
  397TMC3     O 5987   0.464   0.330  16.863 -0.9148  0.3774  0.5130
  397TMC3     H 5988   0.562   0.131  16.901  2.2878  0.6712  1.9770
  397TMC3    H1 5989   0.167   0.165  17.067 -0.3461 -0.9613 -0.4124
  397TMC3    H2 5990   0.489   0.195  17.328 -3.1239 -1.0751  1.2151
  397TMC3    C7 5991   0.225   0.144  17.303 -0.2270  0.9791 -0.5079
  397TMC3    C8 5992   0.665   0.229  17.132  0.4742  0.0550 -0.1092
  397TMC3    O1 5993   0.114   0.176  17.274  0.4695 -0.3194 -0.3777
  397TMC3    O2 5994   0.710   0.244  17.247  0.5465  0.0417 -0.1363
  398MPD2     C 5995   3.510   2.281   0.334 -0.7817 -0.0086  0.1046
  398MPD2    C1 5996   3.609   2.184   0.346  0.4321  0.4781  0.4760
  398MPD2    C2 5997   3.734   2.222   0.391 -0.7314 -0.1354  0.4676
  398MPD2    C3 5998   3.768   2.360   0.397  0.5750 -0.1263  1.0239
  398MPD2    C4 5999   3.670   2.455   0.374 -0.0232  0.0312  0.0978
  398MPD2    C5 6000   3.543   2.418   0.347 -0.1949  0.7382  0.0080
  398MPD2     H 6001   3.809   2.145   0.406 -2.9867 -2.3328  0.6191
  398MPD2    H1 6002   3.680   2.563   0.381 -0.3351  0.1376 -1.2226
  398MPD2    H2 6003   3.409   2.256   0.304 -1.0130 -1.8931  2.4921
  398MPD2    H3 6004   3.474   2.501   0.339 -1.1365  0.0167  0.5998
  398MPD2     N 6005   3.905   2.404   0.418 -0.3147 -0.5675 -0.3949
  398MPD2    H5 6006   3.971   2.327   0.418 -0.8022 -0.9824 -0.4695
  398MPD2    N1 6007   3.592   2.043   0.337 -0.2262 -0.4226 -0.1381
  398MPD2    H7 6008   3.671   1.982   0.352  1.3836  1.8990  0.7447
  399TMC3    C1 6009   3.476   1.840   0.335 -0.0198 -0.4543  0.0546
  399TMC3    C2 6010   3.578   1.788   0.404 -0.3842  0.3884 -0.1301
  399TMC3    C3 6011   3.576   1.656   0.438  0.5124 -0.3986 -0.1353
  399TMC3    C4 6012   3.369   1.764   0.292  0.1748  0.7601 -0.2275
  399TMC3    C5 6013   3.367   1.635   0.341  0.1316  0.4790  0.2379
  399TMC3    C6 6014   3.464   1.575   0.410 -0.1291 -1.2325 -0.0885
  399TMC3     C 6015   3.471   1.985   0.308  0.6707 -0.0412 -0.1394
  399TMC3     O 6016   3.361   2.025   0.273 -0.3860 -0.3995 -0.2841
  399TMC3     H 6017   3.664   1.841   0.443 -0.4372 -0.4651  1.1595
  399TMC3    H1 6018   3.297   1.808   0.223  0.9279  2.5382  0.1235
  399TMC3    H2 6019   3.459   1.468   0.423  2.5826 -1.3939 -0.4464
  399TMC3    C7 6020   3.256   1.557   0.277  0.7681 -0.3086  0.6168
  399TMC3    C8 6021   3.696   1.605   0.506 -0.0082  0.2689  0.2587
  399TMC3    O1 6022   3.273   1.437   0.270 -0.0041  0.3284 -0.1510
  399TMC3    O2 6023   3.793   1.678   0.508  0.3984  0.1981  0.5146
  400TMC3    C1 6024   1.991   0.080  16.762 -0.1220  0.6497  0.8708
  400TMC3    C2 6025   1.883   0.007  16.716  0.1111  0.1097  0.3453
  400TMC3    C3 6026   1.793   0.072  16.627  0.9745 -0.0200  0.4459
  400TMC3    C4 6027   1.995   0.212  16.731 -0.0809 -0.0033  0.0121
  400TMC3    C5 6028   1.894   0.271  16.657 -0.6018 -0.5325  0.4373
  400TMC3    C6 6029   1.804   0.202  16.593  0.7187  0.8199 -0.2479
  400TMC3     C 6030   2.098   0.022  16.849 -0.2367 -0.5934  0.7461
  400TMC3     O 6031   2.062   4.660  16.916 -0.6001 -0.5688  0.3979
  400TMC3     H 6032   1.874   4.641  16.759  1.5346 -0.4841 -0.7725
  400TMC3    H1 6033   2.074   0.274  16.771 -1.2656  0.4384  1.6543
  400TMC3    H2 6034   1.724   0.254  16.542  1.5226  3.8110  1.5781
  400TMC3    C7 6035   1.892   0.413  16.644  0.1771 -0.0524 -0.4035
  400TMC3    C8 6036   1.686   4.734  16.558  0.8772  0.3478  0.2173
  400TMC3    O1 6037   1.832   0.459  16.551  0.0141 -0.1977 -0.4144
  400TMC3    O2 6038   1.650   0.031  16.443  0.2416  0.3852  0.4269
  401MPD2     C 6039   1.481   3.957   1.472 -0.4544 -0.4123 -0.2807
  401MPD2    C1 6040   1.507   4.031   1.361  0.9924  0.5448 -0.0371
  401MPD2    C2 6041   1.492   3.969   1.236 -0.2562 -1.2161 -0.5849
  401MPD2    C3 6042   1.427   3.848   1.229  0.7392 -0.0200 -0.3689
  401MPD2    C4 6043   1.392   3.776   1.344  0.1908  0.4620  0.6116
  401MPD2    C5 6044   1.434   3.826   1.469  0.3206 -0.3489 -0.0431
  401MPD2     H 6045   1.514   4.030   1.149  0.9017  2.3643  2.1819
  401MPD2    H1 6046   1.342   3.680   1.353 -2.9713  1.8436 -2.0563
  401MPD2    H2 6047   1.481   4.013   1.565 -0.2575 -0.7185 -0.0984
  401MPD2    H3 6048   1.406   3.786   1.566 -1.8268  0.0503 -0.4949
  401MPD2     N 6049   1.391   3.807   1.100  0.3925  0.2778 -0.7786
  401MPD2    H5 6050   1.412   3.870   1.023  0.9941  1.5568  0.4374
  401MPD2    N1 6051   1.540   4.168   1.369 -0.3016 -0.1220 -0.0082
  401MPD2    H7 6052   1.575   4.204   1.280 -1.5025 -0.0915 -0.4603
  402TMC3    C1 6053   1.285   3.675   0.935 -0.4576  0.0878  0.0546
  402TMC3    C2 6054   1.281   3.547   0.875  0.2596 -0.1432 -0.3591
  402TMC3    C3 6055   1.238   3.536   0.748 -0.3553 -0.2860 -0.4066
  402TMC3    C4 6056   1.246   3.784   0.863  0.0385  0.1652  0.7550
  402TMC3    C5 6057   1.197   3.767   0.737  0.3394  0.5134 -0.0029
  402TMC3    C6 6058   1.194   3.645   0.671 -0.0089 -1.0588  0.3463
  402TMC3     C 6059   1.321   3.684   1.075  0.3836  0.3430  0.0694
  402TMC3     O 6060   1.323   3.580   1.141  0.0152 -0.2082  0.7776
  402TMC3     H 6061   1.325   3.464   0.928 -0.7205 -0.2291  0.3252
  402TMC3    H1 6062   1.246   3.881   0.912  1.8175  1.7876 -2.4640
  402TMC3    H2 6063   1.134   3.630   0.582  0.5622  0.1501 -0.2368
  402TMC3    C7 6064   1.162   3.889   0.663 -0.0658 -0.5972 -0.3129
  402TMC3    C8 6065   1.232   3.402   0.689 -0.0474 -0.0304 -0.1153
  402TMC3    O1 6066   1.202   3.988   0.725  0.3544  0.5032  0.0698
  402TMC3    O2 6067   1.214   3.313   0.769 -0.5158 -0.2281  0.0279
  403MPD2     C 6068   3.137   1.750  13.113  0.1209 -0.1689  0.5994
  403MPD2    C1 6069   3.193   1.679  13.215 -0.9888 -0.2140  0.3737
  403MPD2    C2 6070   3.276   1.754  13.299  0.5769 -0.4662  0.0526
  403MPD2    C3 6071   3.302   1.884  13.282  0.8831 -0.0172  0.7656
  403MPD2    C4 6072   3.240   1.961  13.186 -0.4003  0.3719 -0.2304
  403MPD2    C5 6073   3.159   1.888  13.102  0.0716  0.0737  0.6704
  403MPD2     H 6074   3.325   1.707  13.384  0.5791 -1.2247 -0.3648
  403MPD2    H1 6075   3.246   2.068  13.174  0.4163  0.4425  0.8162
  403MPD2    H2 6076   3.073   1.699  13.042 -1.0983  1.0663  0.8060
  403MPD2    H3 6077   3.113   1.939  13.018  1.4714  2.6349  1.4363
  403MPD2     N 6078   3.388   1.937  13.378 -0.0369 -0.3179 -0.3510
  403MPD2    H5 6079   3.423   1.880  13.455 -0.5525 -1.4852 -0.9877
  403MPD2    N1 6080   3.180   1.538  13.226 -0.1272  0.2325 -0.7914
  403MPD2    H7 6081   3.149   1.479  13.150 -0.0209  0.6763 -1.1773
  404TMC3    C1 6082   3.209   1.340  13.340  0.3025  0.7787 -0.3675
  404TMC3    C2 6083   3.262   1.292  13.450 -0.2586 -0.4764 -0.2402
  404TMC3    C3 6084   3.364   1.196  13.447 -0.2312 -0.3816 -0.6230
  404TMC3    C4 6085   3.242   1.290  13.214 -0.3265 -0.2758 -0.2379
  404TMC3    C5 6086   3.339   1.190  13.202  0.0386  0.1959 -0.2325
  404TMC3    C6 6087   3.402   1.143  13.323 -0.1391  0.0182 -0.2037
  404TMC3     C 6088   3.184   1.482  13.354  0.4825  0.0540 -0.5845
  404TMC3     O 6089   3.176   1.531  13.466  0.1535 -0.0124 -0.0270
  404TMC3     H 6090   3.253   1.342  13.545 -0.5277 -0.4118 -0.2993
  404TMC3    H1 6091   3.184   1.331  13.133  0.0117 -1.4474 -1.0732
  404TMC3    H2 6092   3.479   1.067  13.317  0.8126  1.0173 -0.4702
  404TMC3    C7 6093   3.301   1.083  13.115 -0.1389 -1.3039 -0.5075
  404TMC3    C8 6094   3.467   1.214  13.547  0.2867  0.0093 -0.2173
  404TMC3    O1 6095   3.306   0.972  13.170  0.1284 -0.5272 -0.1122
  404TMC3    O2 6096   3.573   1.186  13.501 -0.1070  0.6433  0.3407
  405MPD2     C 6097   3.853   2.289  14.275  0.3410 -0.2528  0.0390
  405MPD2    C1 6098   3.816   2.180  14.351  1.2104  0.0037  0.1613
  405MPD2    C2 6099   3.680   2.151  14.354 -0.4887 -0.8310  0.9285
  405MPD2    C3 6100   3.586   2.218  14.281  0.8103 -0.1298 -0.5452
  405MPD2    C4 6101   3.632   2.320  14.197  0.3409  0.6229 -0.8367
  405MPD2    C5 6102   3.763   2.348  14.198  0.1419  0.4685  0.0328
  405MPD2     H 6103   3.633   2.073  14.413 -0.5351 -1.8217 -0.4379
  405MPD2    H1 6104   3.563   2.371  14.130 -0.8689 -1.7771 -1.4293
  405MPD2    H2 6105   3.956   2.322  14.277 -0.2208  1.4643  0.5499
  405MPD2    H3 6106   3.793   2.426  14.129 -0.0158  1.1316  0.7137
  405MPD2     N 6107   3.453   2.191  14.307 -0.0913 -0.1734  0.3573
  405MPD2    H5 6108   3.425   2.142  14.391 -1.5959 -0.4842 -0.3364
  405MPD2    N1 6109   3.916   2.116  14.430  0.1640 -0.4198 -0.2036
  405MPD2    H7 6110   4.007   2.160  14.426  0.1834 -0.4756 -0.3523
  406TMC3    C1 6111   3.124   2.417  14.427 -0.7265  0.0273 -0.2231
  406TMC3    C2 6112   3.125   2.354  14.549 -0.4114 -0.7253  0.4396
  406TMC3    C3 6113   3.177   2.224  14.549  0.0629 -0.2329 -0.7272
  406TMC3    C4 6114   3.161   2.357  14.318 -0.9237  0.3942  0.2811
  406TMC3    C5 6115   3.226   2.236  14.322  0.2167 -0.1154  0.7149
  406TMC3    C6 6116   3.232   2.171  14.441 -0.6041 -0.4408  0.3908
  406TMC3     C 6117   3.059   2.544  14.408  0.4020  0.0072  0.1538
  406TMC3     O 6118   3.066   2.598  14.296  0.3416  0.7595 -0.1171
  406TMC3     H 6119   3.094   2.402  14.641  0.6586 -2.5352  1.7538
  406TMC3    H1 6120   3.136   2.398  14.220  1.0297  0.0747 -0.3445
  406TMC3    H2 6121   3.278   2.072  14.441  1.8996  0.7326 -0.1805
  406TMC3    C7 6122   3.346   2.238  14.240 -0.8513  0.2830 -0.0808
  406TMC3    C8 6123   3.223   2.185  14.678 -0.3415 -0.2016  0.0893
  406TMC3    O1 6124   3.333   2.303  14.135 -0.2084  0.0349 -0.0665
  406TMC3    O2 6125   3.163   2.221  14.782 -0.3940  0.1780 -0.5082
  407MPD2     C 6126   1.304   3.484   9.678  0.5314 -1.0788 -0.9277
  407MPD2    C1 6127   1.360   3.579   9.597 -0.2112 -0.8423 -0.0640
  407MPD2    C2 6128   1.406   3.700   9.655 -0.3813  0.4175  0.2286
  407MPD2    C3 6129   1.372   3.729   9.787 -0.8172 -0.4193 -0.3500
  407MPD2    C4 6130   1.334   3.625   9.866  0.1982 -0.5690 -0.9745
  407MPD2    C5 6131   1.302   3.508   9.810  0.0732  0.5046  0.0592
  407MPD2     H 6132   1.460   3.774   9.596  1.1198  0.5767  1.7853
  407MPD2    H1 6133   1.335   3.635   9.974 -1.4773  1.9675 -1.2003
  407MPD2    H2 6134   1.260   3.395   9.634  0.4471 -1.0416 -0.9182
  407MPD2    H3 6135   1.270   3.432   9.880 -0.1506  1.4398  0.9589
  407MPD2     N 6136   1.403   3.857   9.842 -0.6049 -0.0289  0.0854
  407MPD2    H5 6137   1.439   3.929   9.780 -2.3648  1.3725  0.7149
  407MPD2    N1 6138   1.382   3.558   9.461  0.3358 -0.1507  0.4604
  407MPD2    H7 6139   1.435   3.634   9.420  1.7717 -0.6164  1.4776
  408TMC3    C1 6140   1.448   3.464   9.253  0.4084 -0.1992 -0.0683
  408TMC3    C2 6141   1.554   3.389   9.218 -0.3428 -0.4324 -0.1647
  408TMC3    C3 6142   1.637   3.431   9.116  0.0271  0.0453 -0.5970
  408TMC3    C4 6143   1.418   3.585   9.192  0.4297  0.2442  0.2680
  408TMC3    C5 6144   1.504   3.625   9.091  0.0889 -0.0211  0.3869
  408TMC3    C6 6145   1.606   3.548   9.047  0.3618  0.2233 -0.5540
  408TMC3     C 6146   1.393   3.439   9.387  0.4104  0.1967 -0.8569
  408TMC3     O 6147   1.381   3.324   9.420 -0.9840 -0.3137  0.1343
  408TMC3     H 6148   1.577   3.292   9.261 -0.6742 -1.2352 -1.7915
  408TMC3    H1 6149   1.335   3.647   9.222  1.1940  0.3204  2.1708
  408TMC3    H2 6150   1.663   3.590   8.965  2.5781 -0.2945  0.7332
  408TMC3    C7 6151   1.518   3.768   9.067 -0.0457  0.1700  0.4642
  408TMC3    C8 6152   1.782   3.399   9.132 -0.5238  0.3373 -0.3711
  408TMC3    O1 6153   1.628   3.819   9.049 -0.0031  0.1734 -0.2747
  408TMC3    O2 6154   1.814   3.282   9.148  0.5035 -0.7128 -0.0282
  409MPD2     C 6155   0.625   4.565  16.869  0.6797 -0.4429 -0.7319
  409MPD2    C1 6156   0.735   4.566  16.956  0.5285 -0.0469  0.1098
  409MPD2    C2 6157   0.834   4.653  16.933  0.1089 -0.2755  0.1396
  409MPD2    C3 6158   0.828   0.004  16.827  0.1511 -0.4641 -0.4952
  409MPD2    C4 6159   0.725   0.001  16.738  0.4424 -0.1102 -0.5307
  409MPD2    C5 6160   0.624   4.641  16.764 -0.6956 -0.2985  0.0267
  409MPD2     H 6161   0.905   4.660  17.015 -0.2272 -2.4659  0.6111
  409MPD2    H1 6162   0.722   0.060  16.648 -0.7008  0.4798 -0.0994
  409MPD2    H2 6163   0.532   4.510  16.881 -0.0705  1.1940  1.0393
  409MPD2    H3 6164   0.533   4.646  16.705 -3.0735  1.2634  3.8421
  409MPD2     N 6165   0.932   0.100  16.796 -0.8912  0.0972 -0.7353
  409MPD2    H5 6166   0.930   0.147  16.705  0.0245  1.8464  0.1408
  409MPD2    N1 6167   0.745   4.484  17.072  0.4571 -0.3156  0.1370
  409MPD2    H7 6168   0.815   4.515  17.137  1.3629 -4.1281  0.9999
  410TMC3    C1 6169   1.134   0.233  16.846  0.3226  0.2446 -0.1065
  410TMC3    C2 6170   1.264   0.213  16.883  0.3670 -0.3024  0.0214
  410TMC3    C3 6171   1.365   0.287  16.820  0.5561  0.2805 -0.1907
  410TMC3    C4 6172   1.101   0.328  16.748  0.8407 -0.3197 -0.2164
  410TMC3    C5 6173   1.208   0.394  16.687 -1.0612 -0.5360  0.1243
  410TMC3    C6 6174   1.338   0.374  16.720  0.3479 -0.2752 -0.2454
  410TMC3     C 6175   1.032   0.138  16.892  0.1495  0.2297  0.2403
  410TMC3     O 6176   1.059   0.081  17.000 -0.1782 -0.0445  0.4524
  410TMC3     H 6177   1.281   0.149  16.969 -1.1378 -0.3671  0.2830
  410TMC3    H1 6178   0.996   0.338  16.727  0.9500  0.5726 -0.3099
  410TMC3    H2 6179   1.422   0.415  16.664  1.4731  0.5851  2.0824
  410TMC3    C7 6180   1.169   0.504  16.591  0.1231 -0.1500  0.5661
  410TMC3    C8 6181   1.502   0.253  16.846  0.6559 -0.7911  0.0758
  410TMC3    O1 6182   1.057   0.519  16.558  0.2496  0.2001  0.2026
  410TMC3    O2 6183   1.589   0.337  16.837  0.0172  0.4091 -0.2204
  411MPD2     C 6184   1.789   1.163  14.590 -0.3954  0.0013  0.3276
  411MPD2    C1 6185   1.659   1.122  14.592  0.1868 -0.6540  0.2077
  411MPD2    C2 6186   1.638   0.985  14.552  0.1165  0.7063 -0.0751
  411MPD2    C3 6187   1.740   0.895  14.514 -0.0769  0.0301  0.2556
  411MPD2    C4 6188   1.872   0.945  14.512 -0.0228  0.0689 -0.5010
  411MPD2    C5 6189   1.883   1.081  14.536  0.4698  0.1971  0.1644
  411MPD2     H 6190   1.537   0.949  14.562  0.3566  0.0423 -0.0670
  411MPD2    H1 6191   1.960   0.896  14.472  0.0776  2.5209 -3.3127
  411MPD2    H2 6192   1.822   1.265  14.605  0.6395 -0.6845  2.8496
  411MPD2    H3 6193   1.983   1.125  14.536  0.4415  0.2611 -1.6160
  411MPD2     N 6194   1.712   0.764  14.468  0.3424 -0.0439 -0.1974
  411MPD2    H5 6195   1.796   0.710  14.452 -0.2763 -1.3387  0.9447
  411MPD2    N1 6196   1.557   1.212  14.640 -0.2381 -0.0175  0.3482
  411MPD2    H7 6197   1.589   1.307  14.656 -0.0317 -0.2706  1.4268
  412TMC3    C1 6198   1.582   0.564  14.422  0.0605  0.3625  0.1958
  412TMC3    C2 6199   1.467   0.488  14.448  0.0168 -0.2914 -0.9230
  412TMC3    C3 6200   1.471   0.364  14.400  0.2394 -0.0355 -0.8534
  412TMC3    C4 6201   1.692   0.513  14.358 -0.2069  0.3794  0.8638
  412TMC3    C5 6202   1.683   0.386  14.309  0.6658 -0.3753  0.3261
  412TMC3    C6 6203   1.575   0.309  14.332  0.0261  0.2636 -0.3059
  412TMC3     C 6204   1.587   0.703  14.474 -0.3034  0.3582  0.3596
  412TMC3     O 6205   1.480   0.739  14.517 -0.4298 -0.6378 -0.0455
  412TMC3     H 6206   1.376   0.537  14.479  0.4575 -0.6336  0.9111
  412TMC3    H1 6207   1.779   0.568  14.325 -0.0324  0.7399  1.9432
  412TMC3    H2 6208   1.574   0.204  14.301 -0.3457 -0.0766  0.8754
  412TMC3    C7 6209   1.712   0.390  14.167 -0.5296  0.4463 -0.6720
  412TMC3    C8 6210   1.347   0.318  14.340 -0.6609 -0.2804  0.4675
  412TMC3    O1 6211   1.811   0.455  14.132  0.2418 -0.0001 -0.4623
  412TMC3    O2 6212   1.364   0.260  14.234  0.2313 -0.0059 -0.2225
  413MPD2     C 6213   3.456   3.806  15.305  0.6166  0.2980 -0.0377
  413MPD2    C1 6214   3.352   3.770  15.217 -0.1132 -0.4344  0.5321
  413MPD2    C2 6215   3.381   3.663  15.135  0.6727 -0.0555 -0.5252
  413MPD2    C3 6216   3.491   3.585  15.148  0.3287  0.5032  0.2761
  413MPD2    C4 6217   3.601   3.640  15.221 -0.0041  0.3085 -0.4750
  413MPD2    C5 6218   3.583   3.755  15.300  0.1249  0.0521 -0.3009
  413MPD2     H 6219   3.307   3.615  15.072  0.4915  2.6354 -2.3854
  413MPD2    H1 6220   3.699   3.595  15.219 -0.2517 -0.1741 -1.9346
  413MPD2    H2 6221   3.433   3.894  15.364 -1.4040 -0.0755 -0.2716
  413MPD2    H3 6222   3.660   3.790  15.368 -0.3716 -0.2172  0.4044
  413MPD2     N 6223   3.500   3.470  15.070  0.0354 -0.0090  0.2487
  413MPD2    H5 6224   3.414   3.436  15.027 -1.0137  0.6793  1.8073
  413MPD2    N1 6225   3.233   3.842  15.192  0.4493  0.6655  0.2833
  413MPD2    H7 6226   3.174   3.810  15.116  0.4139  1.6498 -0.0996
  414TMC3    C1 6227   3.593   3.270  14.996 -0.1749  0.3872 -0.3415
  414TMC3    C2 6228   3.639   3.155  15.046  0.0587 -0.3650  0.0608
  414TMC3    C3 6229   3.614   3.038  14.981 -0.5497 -0.2057 -0.3856
  414TMC3    C4 6230   3.525   3.274  14.883 -0.5029 -0.8795  0.5483
  414TMC3    C5 6231   3.496   3.156  14.819 -0.0110  0.3848  0.3841
  414TMC3    C6 6232   3.540   3.031  14.868 -0.3751  0.5098  0.1018
  414TMC3     C 6233   3.611   3.388  15.073  0.1290  0.0636  0.0714
  414TMC3     O 6234   3.704   3.389  15.153  0.2999 -0.0609  0.2347
  414TMC3     H 6235   3.686   3.157  15.144  3.0945  0.8928 -1.4179
  414TMC3    H1 6236   3.496   3.370  14.841 -0.1114 -0.5966  0.9272
  414TMC3    H2 6237   3.517   2.936  14.821 -0.0727  1.7032 -2.4654
  414TMC3    C7 6238   3.425   3.166  14.691  0.1302 -0.6771  0.6983
  414TMC3    C8 6239   3.690   2.925  15.024  0.6710  0.3420 -0.4665
  414TMC3    O1 6240   3.342   3.256  14.698  0.7838  0.1203 -0.0972
  414TMC3    O2 6241   3.658   2.821  14.969  0.1397 -0.9065  0.0569
  415TMC3    C1 6242   3.676   0.927   9.839  0.4576 -0.1714  0.2548
  415TMC3    C2 6243   3.652   1.029   9.741 -0.3749 -1.1227  0.3231
  415TMC3    C3 6244   3.575   0.989   9.635  0.0330 -0.2277  0.0619
  415TMC3    C4 6245   3.620   0.803   9.829  0.2621  0.3269 -1.1192
  415TMC3    C5 6246   3.540   0.779   9.730 -0.4948  0.3369  0.7350
  415TMC3    C6 6247   3.515   0.869   9.628 -0.8042  0.3266  0.6941
  415TMC3     C 6248   3.721   0.966   9.976 -0.0961 -0.7248  0.0368
  415TMC3     O 6249   3.670   0.896  10.063  0.2266  0.0875 -0.4182
  415TMC3     H 6250   3.672   1.135   9.753  0.1440 -0.8896 -2.6009
  415TMC3    H1 6251   3.658   0.729   9.898  1.0900  0.2777 -1.6258
  415TMC3    H2 6252   3.436   0.850   9.557 -0.0830 -2.2868  0.5847
  415TMC3    C7 6253   3.466   0.658   9.731  0.1142 -0.1605 -0.0009
  415TMC3    C8 6254   3.544   1.086   9.528 -0.4482  0.0175 -0.4519
  415TMC3    O1 6255   3.425   0.619   9.624 -0.1785 -0.0673 -0.1291
  415TMC3    O2 6256   3.434   1.075   9.476  0.5321 -0.1291  0.2397
  416MPD2     C 6257   0.838   0.849  11.146 -0.4438 -0.0224 -0.4376
  416MPD2    C1 6258   0.762   0.774  11.233 -0.2027  0.5675  0.0526
  416MPD2    C2 6259   0.740   0.640  11.206 -0.0765  0.4838  0.5189
  416MPD2    C3 6260   0.773   0.583  11.083 -1.4384  0.4647  0.6380
  416MPD2    C4 6261   0.844   0.662  10.999 -0.1382 -0.3295 -0.4721
  416MPD2    C5 6262   0.866   0.794  11.025  0.5778 -0.5772  0.3251
  416MPD2     H 6263   0.678   0.576  11.267  1.6075  1.2635  3.0562
  416MPD2    H1 6264   0.863   0.632  10.896 -0.8204 -0.7876 -0.4638
  416MPD2    H2 6265   0.859   0.951  11.177 -2.5196  0.2471  0.0424
  416MPD2    H3 6266   0.918   0.853  10.950  0.7981 -1.8362 -0.5242
  416MPD2     N 6267   0.714   0.458  11.052  0.7177 -0.0700 -0.0386
  416MPD2    H5 6268   0.681   0.398  11.127 -1.8752  1.5042  0.1067
  416MPD2    N1 6269   0.704   0.836  11.349  1.4824 -0.4020  0.0678
  416MPD2    H7 6270   0.694   0.937  11.341  1.6329 -0.4326 -0.4615
  417TMC3    C1 6271   0.567   0.875  11.542  0.2234  0.3778 -0.6348
  417TMC3    C2 6272   0.549   0.837  11.672 -0.3800 -0.2137  0.3268
  417TMC3    C3 6273   0.434   0.874  11.739 -0.9486 -0.1206  0.6444
  417TMC3    C4 6274   0.482   0.952  11.474 -0.3097  0.4426  0.0403
  417TMC3    C5 6275   0.367   0.988  11.542 -0.2760  0.2340 -0.2849
  417TMC3    C6 6276   0.336   0.944  11.667 -0.1875 -0.5173  0.4035
  417TMC3     C 6277   0.645   0.781  11.462  0.4552  0.1510  0.3656
  417TMC3     O 6278   0.649   0.667  11.506  0.2798 -0.6760 -0.1979
  417TMC3     H 6279   0.619   0.769  11.720 -1.0903 -0.6334  0.7654
  417TMC3    H1 6280   0.480   0.968  11.367 -2.6494  1.6384  0.2631
  417TMC3    H2 6281   0.244   0.971  11.717 -0.5140 -1.6414  0.3954
  417TMC3    C7 6282   0.255   1.026  11.461 -0.2268 -0.4299  0.2604
  417TMC3    C8 6283   0.415   0.825  11.882  0.3139 -0.7028  0.8096
  417TMC3    O1 6284   0.288   1.096  11.363  0.5588  0.0848 -0.2743
  417TMC3    O2 6285   0.328   0.887  11.946 -0.6852 -0.1736 -0.0318
  418TMC3    C1 6286   4.305   2.516   0.330 -1.1442 -0.0450 -0.2519
  418TMC3    C2 6287   4.174   2.563   0.321 -0.0380  0.0881 -0.2283
  418TMC3    C3 6288   4.091   2.528   0.422 -0.1782 -0.0359  0.5175
  418TMC3    C4 6289   4.352   2.447   0.438  0.5908 -0.4327  0.0381
  418TMC3    C5 6290   4.263   2.434   0.546 -0.4932  0.0695  0.8426
  418TMC3    C6 6291   4.128   2.464   0.535  0.3986 -0.5348  0.5921
  418TMC3     C 6292   4.367   2.481   0.196  0.1975 -0.4350 -0.2482
  418TMC3     O 6293   4.374   2.577   0.116 -0.6942 -0.1322  0.3910
  418TMC3     H 6294   4.133   2.628   0.244  1.8880  0.6950 -0.7501
  418TMC3    H1 6295   4.457   2.419   0.436  1.3337  2.4587 -2.7961
  418TMC3    H2 6296   4.063   2.438   0.618  0.9124 -1.2830  0.7707
  418TMC3    C7 6297   4.301   2.332   0.633 -0.8247 -0.1891  0.2077
  418TMC3    C8 6298   3.949   2.532   0.397 -0.0594  0.0263  0.5547
  418TMC3    O1 6299   4.213   2.258   0.667  0.5535  0.4158  0.3488
  418TMC3    O2 6300   3.893   2.637   0.367  0.2519 -0.7518 -0.2520
  419MPD2     C 6301   2.791   0.110  12.265 -0.1502 -0.1086 -0.0672
  419MPD2    C1 6302   2.712   0.219  12.221 -0.2239  0.7448 -0.0270
  419MPD2    C2 6303   2.667   0.309  12.311  0.2199 -0.2629  0.1398
  419MPD2    C3 6304   2.714   0.311  12.440  0.1539 -0.2159  0.6252
  419MPD2    C4 6305   2.779   0.197  12.486  0.3959 -0.0041  0.7553
  419MPD2    C5 6306   2.817   0.101  12.391 -0.3483  0.3773  1.0845
  419MPD2     H 6307   2.609   0.394  12.277 -1.9339 -2.4356 -1.5987
  419MPD2    H1 6308   2.815   0.192  12.588  1.9073 -0.5151  0.1892
  419MPD2    H2 6309   2.841   0.034  12.206 -0.8243  0.6540 -1.6079
  419MPD2    H3 6310   2.880   0.018  12.421 -0.7371 -0.7363 -1.1445
  419MPD2     N 6311   2.708   0.417  12.528 -0.2679  0.4949  0.1327
  419MPD2    H5 6312   2.730   0.387  12.622 -1.9669 -1.3678 -0.0854
  419MPD2    N1 6313   2.694   0.240  12.082  0.6315 -0.3268 -0.1861
  419MPD2    H7 6314   2.627   0.309  12.051  0.2268 -0.7464 -0.2403
  420TMC3    C1 6315   2.678   0.634  12.592  0.2417 -0.2691 -0.5371
  420TMC3    C2 6316   2.671   0.760  12.548  0.3308  0.4659  0.2578
  420TMC3    C3 6317   2.662   0.857  12.641  0.1093 -0.2127 -0.0305
  420TMC3    C4 6318   2.665   0.600  12.723 -0.8575  0.6586  0.3474
  420TMC3    C5 6319   2.637   0.703  12.810 -0.2973  0.4740  0.3035
  420TMC3    C6 6320   2.633   0.834  12.771  0.2007  0.1454 -0.2895
  420TMC3     C 6321   2.674   0.540  12.489  0.4382  0.4020 -0.0782
  420TMC3     O 6322   2.640   0.581  12.380  0.8322  0.0759 -0.5257
  420TMC3     H 6323   2.696   0.778  12.444 -0.9556 -0.5680 -0.2202
  420TMC3    H1 6324   2.669   0.496  12.753  0.3441  0.4071 -0.6776
  420TMC3    H2 6325   2.630   0.911  12.847  0.5749  0.2058 -0.3375
  420TMC3    C7 6326   2.687   0.682  12.942 -0.5260  0.6503  0.9357
  420TMC3    C8 6327   2.697   0.995  12.597  0.3593 -0.1477  0.1346
  420TMC3    O1 6328   2.619   0.731  13.038  0.1229 -0.1019  0.1320
  420TMC3    O2 6329   2.781   1.001  12.508 -0.2280  0.1363 -0.0398
  421TMC3    C1 6330   3.552   2.082  13.464  0.8196 -0.5806  0.4533
  421TMC3    C2 6331   3.575   2.204  13.528 -0.3269  0.0036 -0.1134
  421TMC3    C3 6332   3.694   2.207  13.602  0.4411  0.3208 -0.9157
  421TMC3    C4 6333   3.643   1.977  13.481 -0.4265  0.7903 -0.5823
  421TMC3    C5 6334   3.755   1.990  13.563 -0.8604  0.1588 -0.4316
  421TMC3    C6 6335   3.787   2.111  13.619  0.7695  0.0285 -0.6413
  421TMC3     C 6336   3.436   2.068  13.385  0.0005  0.6890  0.1569
  421TMC3     O 6337   3.390   2.164  13.323  0.0926 -1.0961  0.6610
  421TMC3     H 6338   3.503   2.284  13.515 -2.2905 -1.6187  0.7078
  421TMC3    H1 6339   3.622   1.884  13.430 -1.1518  1.6219 -1.7731
  421TMC3    H2 6340   3.879   2.129  13.673  0.5541 -0.3931 -0.1310
  421TMC3    C7 6341   3.812   1.868  13.626 -0.6674  0.0222  0.0741
  421TMC3    C8 6342   3.722   2.324  13.690 -0.4907 -0.7641 -0.6860
  421TMC3    O1 6343   3.896   1.895  13.706 -0.0926 -0.1690 -0.3390
  421TMC3    O2 6344   3.840   2.347  13.704  0.3093 -0.0239  0.1813
  422TMC3    C1 6345   1.827   3.277  12.423 -0.1580  0.6086  0.2051
  422TMC3    C2 6346   1.844   3.392  12.497  0.0451  0.0820  0.3215
  422TMC3    C3 6347   1.741   3.465  12.536 -0.3353 -0.0026  0.4840
  422TMC3    C4 6348   1.700   3.237  12.388 -0.5046 -0.4946  0.3088
  422TMC3    C5 6349   1.593   3.311  12.435 -0.0348  0.2172  0.5797
  422TMC3    C6 6350   1.614   3.429  12.510  0.7702 -0.6702  0.3605
  422TMC3     C 6351   1.916   3.289  12.312  1.4791  0.7156  0.6563
  422TMC3     O 6352   1.967   3.398  12.301  0.1224  0.1471 -0.7929
  422TMC3     H 6353   1.944   3.422  12.525  0.1558 -0.5936  0.6573
  422TMC3    H1 6354   1.688   3.154  12.320 -2.9788  1.0627 -1.1350
  422TMC3    H2 6355   1.533   3.489  12.550  2.6516  1.6097  0.7299
  422TMC3    C7 6356   1.472   3.305  12.358 -0.5152  0.1323 -0.3317
  422TMC3    C8 6357   1.749   3.609  12.534  0.0750 -0.0612 -0.1060
  422TMC3    O1 6358   1.476   3.279  12.238  0.8690  0.1558 -0.2645
  422TMC3    O2 6359   1.673   3.675  12.605  0.1898  0.0024 -0.0974
  423MPD2     C 6360   2.772   3.899   0.502  0.0604  0.1477  0.1334
  423MPD2    C1 6361   2.874   3.970   0.440 -0.0551  0.0618  0.3515
  423MPD2    C2 6362   2.900   3.963   0.309  0.6255 -0.4709  0.0930
  423MPD2    C3 6363   2.820   3.874   0.237 -0.8632 -0.0392  0.1495
  423MPD2    C4 6364   2.725   3.791   0.297 -0.1370  0.3783 -0.2500
  423MPD2    C5 6365   2.694   3.813   0.432 -0.4549  0.3075  0.3190
  423MPD2     H 6366   2.975   4.025   0.262 -0.1734  0.5474  0.1499
  423MPD2    H1 6367   2.657   3.728   0.240 -1.5135  0.1647  1.6350
  423MPD2    H2 6368   2.753   3.901   0.609  0.4828 -0.2117  0.2134
  423MPD2    H3 6369   2.623   3.752   0.488 -1.2363  3.6828  3.0566
  423MPD2     N 6370   2.844   3.853   0.095 -0.7883 -0.2425 -0.0531
  423MPD2    H5 6371   2.776   3.798   0.044 -2.3881  1.1999  0.5056
  423MPD2    N1 6372   2.962   4.044   0.518 -0.5739  0.6059 -0.5067
  423MPD2    H7 6373   3.043   4.078   0.468  0.9761 -3.0088 -0.4550
  424TMC3    C1 6374   3.057   4.161   0.702  0.1973  0.4965 -0.3525
  424TMC3    C2 6375   3.181   4.106   0.688  0.4755 -0.3457  0.2201
  424TMC3    C3 6376   3.286   4.162   0.760  1.5008 -0.3095  0.7081
  424TMC3    C4 6377   3.032   4.267   0.781 -0.0631 -0.5787  0.2254
  424TMC3    C5 6378   3.139   4.326   0.843  0.4464 -0.5004  0.3747
  424TMC3    C6 6379   3.263   4.270   0.831  0.1843 -0.8404  0.0124
  424TMC3     C 6380   2.943   4.093   0.644 -0.2892 -0.0477 -0.0721
  424TMC3     O 6381   2.837   4.105   0.709  0.1062  0.8607 -0.0744
  424TMC3     H 6382   3.203   4.022   0.623 -0.6856 -0.1753 -0.3922
  424TMC3    H1 6383   2.935   4.313   0.769  0.3237  0.0535 -0.5151
  424TMC3    H2 6384   3.345   4.325   0.875  1.4532 -1.0207 -2.1108
  424TMC3    C7 6385   3.141   4.465   0.883  0.1111 -0.6017  0.3426
  424TMC3    C8 6386   3.402   4.079   0.768 -0.0558 -0.6312 -0.7666
  424TMC3    O1 6387   3.248   4.508   0.917 -0.7689  0.3838 -0.5862
  424TMC3    O2 6388   3.411   3.984   0.692  0.2342  0.4899 -0.6198
  425MPD2     C 6389   1.715   3.427  17.027  0.1351  0.1242  0.2776
  425MPD2    C1 6390   1.651   3.314  17.078  0.2153 -0.4823  0.5877
  425MPD2    C2 6391   1.517   3.326  17.127  0.2173 -0.4157  0.7932
  425MPD2    C3 6392   1.465   3.457  17.143 -0.1407 -0.1835 -0.2470
  425MPD2    C4 6393   1.534   3.562  17.086 -0.4858 -0.3132  0.1324
  425MPD2    C5 6394   1.657   3.553  17.034  0.6285 -0.1103  0.3533
  425MPD2     H 6395   1.473   3.240  17.175  0.5812 -0.1008  1.6885
  425MPD2    H1 6396   1.501   3.665  17.080  1.6862  0.3330 -0.5052
  425MPD2    H2 6397   1.812   3.427  16.980 -0.1240 -0.4658 -0.2636
  425MPD2    H3 6398   1.707   3.643  17.000 -0.3085  0.0053 -0.7250
  425MPD2     N 6399   1.347   3.473  17.213  0.6362  0.9356  0.1164
  425MPD2    H5 6400   1.303   3.395  17.260 -0.6118  1.5289 -0.0556
  425MPD2    N1 6401   1.724   3.191  17.072  0.2730 -0.5763  0.2897
  425MPD2    H7 6402   1.825   3.204  17.076  0.1390  0.8342 -0.7270
  426TMC3    C1 6403   1.781   2.962  17.087 -0.2117  0.0634 -0.4589
  426TMC3    C2 6404   1.738   2.837  17.061  0.5643 -0.3303 -0.0631
  426TMC3    C3 6405   1.827   2.734  17.099 -0.0076 -0.2108 -0.0667
  426TMC3    C4 6406   1.894   2.991  17.154 -0.2916  0.5550 -0.0764
  426TMC3    C5 6407   1.978   2.891  17.196  0.2634 -0.0976 -0.6697
  426TMC3    C6 6408   1.953   2.763  17.151 -0.3299  0.2484 -1.1237
  426TMC3     C 6409   1.677   3.064  17.085  0.2797 -0.0285  0.6929
  426TMC3     O 6410   1.563   3.023  17.094  0.0114  0.0838  0.1677
  426TMC3     H 6411   1.655   2.812  16.996  1.7935 -1.0021 -1.3870
  426TMC3    H1 6412   1.915   3.095  17.174  0.0648  0.8285 -1.8124
  426TMC3    H2 6413   2.013   2.683  17.193 -1.7717  0.3208  1.0874
  426TMC3    C7 6414   1.978   2.887  17.337 -0.0942 -0.3158 -1.0019
  426TMC3    C8 6415   1.789   2.595  17.060  0.2510  0.4431 -0.4774
  426TMC3    O1 6416   1.946   2.782  17.391 -0.1228 -0.4997 -0.3346
  426TMC3    O2 6417   1.874   2.505  17.057 -0.0459  0.4230 -0.0981
  427MPD2     C 6418   0.714   0.931  14.848  0.0345  0.0192 -0.4899
  427MPD2    C1 6419   0.674   0.846  14.950 -0.0474  0.1331 -0.4706
  427MPD2    C2 6420   0.542   0.829  14.972 -0.3535 -1.1592 -0.2661
  427MPD2    C3 6421   0.451   0.878  14.874  0.5766 -0.0472 -0.3954
  427MPD2    C4 6422   0.498   0.951  14.766  0.0153 -0.0815 -0.1994
  427MPD2    C5 6423   0.628   0.995  14.760  0.6312 -0.2943 -1.0666
  427MPD2     H 6424   0.515   0.765  15.055 -1.7626  0.7177  0.7412
  427MPD2    H1 6425   0.421   0.979  14.695  1.1537  2.3955 -0.4752
  427MPD2    H2 6426   0.813   0.973  14.843 -0.6133  1.2344 -3.2237
  427MPD2    H3 6427   0.666   1.068  14.691  1.9778 -0.7447 -0.8071
  427MPD2     N 6428   0.313   0.848  14.872 -0.4266  1.1758 -0.5899
  427MPD2    H5 6429   0.259   0.881  14.793 -0.2948 -0.2570 -1.2737
  427MPD2    N1 6430   0.766   0.793  15.038  0.0758 -0.2634 -0.0672
  427MPD2    H7 6431   0.727   0.738  15.114 -2.0996 -0.7317 -1.5061
  428TMC3    C1 6432   0.960   0.771  15.163  0.9618 -0.1100 -0.1477
  428TMC3    C2 6433   0.886   0.724  15.273 -0.6261  0.5182 -0.2849
  428TMC3    C3 6434   0.945   0.713  15.394  0.1739 -0.1972 -0.0100
  428TMC3    C4 6435   1.087   0.817  15.186 -0.6705 -0.6844 -0.3423
  428TMC3    C5 6436   1.144   0.805  15.307 -0.0858  0.0101 -0.1808
  428TMC3    C6 6437   1.070   0.763  15.416 -0.5757  0.2674  0.1654
  428TMC3     C 6438   0.897   0.808  15.033  0.5353  0.6648  0.9113
  428TMC3     O 6439   0.960   0.874  14.953  0.1513 -0.6950 -0.0487
  428TMC3     H 6440   0.785   0.685  15.266  0.2591 -1.8815  0.2984
  428TMC3    H1 6441   1.137   0.873  15.107 -1.1008 -1.9554 -1.5024
  428TMC3    H2 6442   1.115   0.754  15.514 -2.2274 -2.4614  0.6916
  428TMC3    C7 6443   1.289   0.829  15.327  0.6028  0.2066  0.7954
  428TMC3    C8 6444   0.851   0.678  15.502 -0.3719  0.3194  0.0929
  428TMC3    O1 6445   1.325   0.810  15.445  0.0480  0.6790 -0.4431
  428TMC3    O2 6446   0.769   0.589  15.485  0.6201 -0.2265  0.4407
  429MPD2     C 6447   1.553   0.652   0.066 -0.2673 -0.2310 -0.0146
  429MPD2    C1 6448   1.607   0.576  17.701  0.7303 -0.0653  0.4576
  429MPD2    C2 6449   1.687   0.640  17.608 -0.1835  0.1290  0.1244
  429MPD2    C3 6450   1.714   0.774  17.616  0.2208 -0.1960  0.5194
  429MPD2    C4 6451   1.648   0.844  17.716  0.0655 -0.0253  0.7693
  429MPD2    C5 6452   1.566   0.790   0.070 -0.1143  0.2448 -0.1496
  429MPD2     H 6453   1.743   0.588  17.533 -2.0233  0.9777 -1.8412
  429MPD2    H1 6454   1.661   0.952  17.712  0.2081 -0.0490  0.5783
  429MPD2    H2 6455   1.509   0.604   0.152 -1.2800  0.3557 -0.1974
  429MPD2    H3 6456   1.521   0.852   0.147  2.1665 -0.2033  1.5344
  429MPD2     N 6457   1.801   0.833  17.522 -0.4458 -0.2001  0.2110
  429MPD2    H5 6458   1.837   0.775  17.447 -0.4067 -1.0529  0.9040
  429MPD2    N1 6459   1.604   0.430  17.686  0.6179 -0.1795  0.6999
  429MPD2    H7 6460   1.656   0.394  17.606 -0.1677 -0.9653  0.5381
  430TMC3    C1 6461   1.941   0.967  17.407  0.1315  0.0510  0.3601
  430TMC3    C2 6462   1.951   1.094  17.356 -0.6213  0.2203 -0.1388
  430TMC3    C3 6463   2.044   1.122  17.255  0.9716 -0.5142 -0.1265
  430TMC3    C4 6464   2.007   0.863  17.352  0.7875  0.4497 -0.1908
  430TMC3    C5 6465   2.096   0.888  17.256  0.3592 -0.2055 -0.5076
  430TMC3    C6 6466   2.123   1.018  17.208  0.2627 -0.2082 -0.3417
  430TMC3     C 6467   1.850   0.958  17.514  0.2685 -0.1830  0.0260
  430TMC3     O 6468   1.785   1.057  17.548 -0.4567  0.0762 -0.1656
  430TMC3     H 6469   1.889   1.174  17.396  0.7585  0.4194  1.6072
  430TMC3    H1 6470   2.021   0.762  17.387  1.5167  0.5079 -0.3195
  430TMC3    H2 6471   2.198   1.042  17.133  1.0522 -0.0323  0.5010
  430TMC3    C7 6472   2.074   0.798  17.145 -0.6051  0.0259 -0.3314
  430TMC3    C8 6473   1.990   1.202  17.145 -0.0346 -0.2272  0.0924
  430TMC3    O1 6474   2.034   0.684  17.170  0.3118 -0.2799 -0.8317
  430TMC3    O2 6475   2.025   1.174  17.031  0.4049 -0.0966 -0.0497
  431MPD2     C 6476   2.885   1.109  11.688 -0.2017 -0.1168 -0.3296
  431MPD2    C1 6477   2.902   1.037  11.807 -0.1157 -0.0451 -0.0541
  431MPD2    C2 6478   2.883   0.903  11.815  0.8969  0.1362 -0.0072
  431MPD2    C3 6479   2.857   0.827  11.697 -0.5130  0.8045  0.0138
  431MPD2    C4 6480   2.850   0.895  11.572 -0.0335 -0.1427 -0.7811
  431MPD2    C5 6481   2.860   1.032  11.573  0.1401  0.0243  0.3701
  431MPD2     H 6482   2.886   0.853  11.911  1.4680 -0.0845 -0.1397
  431MPD2    H1 6483   2.847   0.845  11.476 -1.4164 -1.5409 -0.0272
  431MPD2    H2 6484   2.893   1.217  11.680  0.0666 -0.1537 -0.5806
  431MPD2    H3 6485   2.857   1.084  11.478 -4.1625 -0.5813  0.1716
  431MPD2     N 6486   2.853   0.683  11.694 -0.4018  0.3341 -0.4090
  431MPD2    H5 6487   2.841   0.643  11.601 -0.1913 -1.2098  0.2382
  431MPD2    N1 6488   2.936   1.111  11.919 -0.5440 -0.3746  0.1194
  431MPD2    H7 6489   2.944   1.211  11.905  0.5834 -0.5826 -0.7881
  432TMC3    C1 6490   2.840   0.465  11.770  0.3162  0.7334 -0.5253
  432TMC3    C2 6491   2.893   0.410  11.660 -0.1934  0.1701  0.7711
  432TMC3    C3 6492   2.875   0.277  11.645  0.3691 -0.5851 -0.6144
  432TMC3    C4 6493   2.782   0.389  11.875  0.1109  0.0703 -0.3167
  432TMC3    C5 6494   2.776   0.253  11.858 -0.9976 -0.2213  0.0434
  432TMC3    C6 6495   2.828   0.199  11.743 -0.5362  0.5416  0.4566
  432TMC3     C 6496   2.848   0.603  11.803 -0.6099 -0.6349  0.1701
  432TMC3     O 6497   2.845   0.636  11.922 -0.4777  0.3813 -0.0381
  432TMC3     H 6498   2.968   0.467  11.606 -0.0943  2.2272  3.0739
  432TMC3    H1 6499   2.742   0.433  11.965 -1.0923  0.3270 -0.9646
  432TMC3    H2 6500   2.825   0.095  11.712 -0.1519  0.5933  0.2466
  432TMC3    C7 6501   2.764   0.172  11.981  0.5880  0.6749  0.1640
  432TMC3    C8 6502   2.960   0.203  11.551  0.9692  0.4809  0.6716
  432TMC3    O1 6503   2.844   0.087  11.981  0.1287 -0.0675  0.2413
  432TMC3    O2 6504   2.907   0.121  11.476  0.3493 -0.2170 -0.3986
  433MPD2     C 6505   1.329   3.797  10.373 -0.0754  0.1875 -0.1878
  433MPD2    C1 6506   1.459   3.794  10.414  0.8719 -0.1749 -0.1321
  433MPD2    C2 6507   1.490   3.824  10.542 -0.0190 -0.1003 -0.8195
  433MPD2    C3 6508   1.393   3.867  10.633 -0.0570 -0.2727  0.7128
  433MPD2    C4 6509   1.264   3.882  10.591  0.4492 -0.2336 -0.3011
  433MPD2    C5 6510   1.232   3.835  10.467  0.2277 -0.1246 -0.1448
  433MPD2     H 6511   1.590   3.817  10.583 -0.7015 -0.1939  0.8282
  433MPD2    H1 6512   1.184   3.920  10.654  0.8612 -0.4751  0.3594
  433MPD2    H2 6513   1.304   3.785  10.268 -0.1826 -0.8983 -0.0300
  433MPD2    H3 6514   1.131   3.856  10.434 -0.7126  0.6061  3.1401
  433MPD2     N 6515   1.445   3.905  10.757  0.8447 -0.5014 -0.6068
  433MPD2    H5 6516   1.541   3.885  10.783  0.8156  0.5197  0.2688
  433MPD2    N1 6517   1.553   3.759  10.317  0.1328 -0.0801  0.0530
  433MPD2    H7 6518   1.512   3.744  10.226  3.0735  0.3566 -1.3508
  434TMC3    C1 6519   1.758   3.650  10.251 -0.5479  0.1842 -0.7001
  434TMC3    C2 6520   1.889   3.610  10.286 -0.7774 -0.2406  0.5803
  434TMC3    C3 6521   1.924   3.484  10.241  0.5739  0.6921 -0.2781
  434TMC3    C4 6522   1.676   3.578  10.165  0.1975  0.3206  0.0525
  434TMC3    C5 6523   1.710   3.448  10.145  0.1204  0.1600  0.0504
  434TMC3    C6 6524   1.833   3.399  10.192 -0.5969 -0.7449  0.2371
  434TMC3     C 6525   1.690   3.740  10.346 -0.3665 -0.5603  0.0684
  434TMC3     O 6526   1.748   3.768  10.448 -0.0162 -0.0411 -0.1731
  434TMC3     H 6527   1.949   3.676  10.347  0.1054  0.4384 -1.0284
  434TMC3    H1 6528   1.571   3.601  10.148 -0.6526 -0.7971  3.7810
  434TMC3    H2 6529   1.850   3.294  10.172  1.8740 -0.5253  1.2862
  434TMC3    C7 6530   1.595   3.356  10.126 -0.4627 -0.3578  0.4822
  434TMC3    C8 6531   2.052   3.436  10.283 -0.3371  0.1086  0.0746
  434TMC3    O1 6532   1.480   3.403  10.115 -0.1417  0.7556 -0.4436
  434TMC3    O2 6533   2.115   3.516  10.353  0.3315 -0.4067  0.1496
  435MPD2     C 6534   3.644   4.150  15.381 -0.1930  0.6398  0.4893
  435MPD2    C1 6535   3.574   4.105  15.497  0.1552  0.1018  1.0586
  435MPD2    C2 6536   3.640   4.017  15.573 -0.3546 -0.2467  0.8305
  435MPD2    C3 6537   3.763   3.961  15.535  0.6493  0.1729 -0.8964
  435MPD2    C4 6538   3.825   4.009  15.422 -0.0522 -0.3897 -0.2156
  435MPD2    C5 6539   3.766   4.097  15.346 -0.5388 -0.2451 -0.0607
  435MPD2     H 6540   3.588   3.967  15.654 -1.1106 -1.2850 -0.2865
  435MPD2    H1 6541   3.922   3.974  15.389  0.5672 -0.6306  1.8744
  435MPD2    H2 6542   3.593   4.220  15.316 -3.5183 -2.8630 -0.7190
  435MPD2    H3 6543   3.825   4.125  15.259 -1.0617 -1.4894 -0.8170
  435MPD2     N 6544   3.811   3.848  15.608 -0.4762 -0.0650  1.0043
  435MPD2    H5 6545   3.760   3.820  15.691 -0.7026  0.7584  1.1440
  435MPD2    N1 6546   3.451   4.152  15.542 -0.2377 -0.9287  0.1817
  435MPD2    H7 6547   3.412   4.098  15.619 -2.3775  0.2901 -0.0373
  436TMC3    C1 6548   3.151   4.350  15.751  0.3496 -0.6907  0.3348
  436TMC3    C2 6549   3.236   4.268  15.687  1.0211  0.0530 -0.4650
  436TMC3    C3 6550   3.249   4.269  15.550  0.1012  0.0639 -0.3970
  436TMC3    C4 6551   3.073   4.439  15.686 -0.5331  0.5381  0.5581
  436TMC3    C5 6552   3.083   4.440  15.546 -0.8030  0.2912  0.6985
  436TMC3    C6 6553   3.167   4.356  15.479  0.3885  0.6348 -0.7192
  436TMC3     C 6554   3.195   4.385  15.885  0.0205  0.4007  0.5277
  436TMC3     O 6555   3.309   4.342  15.909 -0.4513  0.6329 -0.3009
  436TMC3     H 6556   3.311   4.213  15.744 -0.9088  0.5875  2.5851
  436TMC3    H1 6557   3.030   4.525  15.736  0.5756  2.7677 -2.2943
  436TMC3    H2 6558   3.194   4.379  15.377 -2.8456  1.6728 -1.3673
  436TMC3    C7 6559   3.026   4.552  15.470  0.2762 -0.6347  0.1467
  436TMC3    C8 6560   3.384   4.260  15.493 -0.0309  0.3848 -0.3771
  436TMC3    O1 6561   3.074   4.573  15.360 -0.4473 -0.1498 -0.3089
  436TMC3    O2 6562   3.409   4.328  15.393 -0.5016 -0.9541  0.0477
  437TMC3    C1 6563   1.810   1.600  13.136  0.5777  0.0513  0.2153
  437TMC3    C2 6564   1.680   1.630  13.144  0.0391  0.5480 -0.2271
  437TMC3    C3 6565   1.637   1.737  13.072 -0.6793 -0.1405 -0.1670
  437TMC3    C4 6566   1.896   1.663  13.055 -0.7109 -0.8128  0.0472
  437TMC3    C5 6567   1.849   1.765  12.984  0.0976 -0.2001  0.8879
  437TMC3    C6 6568   1.721   1.806  12.990  0.0144  0.0373 -0.4700
  437TMC3     C 6569   1.849   1.497  13.232 -0.3342 -0.1782 -0.1852
  437TMC3     O 6570   1.765   1.459  13.307  0.6452  0.2522  0.1459
  437TMC3     H 6571   1.613   1.582  13.215  0.4232  0.6409  0.2002
  437TMC3    H1 6572   1.999   1.638  13.074 -0.6164  1.1514  2.1715
  437TMC3    H2 6573   1.680   1.887  12.930  0.3101 -0.6560 -1.6054
  437TMC3    C7 6574   1.945   1.857  12.927  0.1346 -0.2620 -0.2793
  437TMC3    C8 6575   1.496   1.766  13.077 -0.3191 -0.4186  0.7988
  437TMC3    O1 6576   1.916   1.976  12.924  0.2009  0.6317  0.6506
  437TMC3    O2 6577   1.427   1.666  13.092 -0.6199 -0.2582 -0.4690
  438MPD2     C 6578   4.239   2.288  16.688 -0.0209  0.5455  0.8018
  438MPD2    C1 6579   4.338   2.220  16.756  0.0876  0.0971 -0.5942
  438MPD2    C2 6580   4.340   2.227  16.895  0.3726  0.0996  0.1161
  438MPD2    C3 6581   4.256   2.307  16.970  0.3469  0.4184  0.0387
  438MPD2    C4 6582   4.178   2.388  16.894  0.2004 -0.1394 -0.5870
  438MPD2    C5 6583   4.156   2.365  16.764 -0.0011 -0.3022  1.2916
  438MPD2     H 6584   4.419   2.173  16.947 -1.1445  0.0606  2.4009
  438MPD2    H1 6585   4.107   2.455  16.942 -0.9643  0.6363 -3.3987
  438MPD2    H2 6586   4.233   2.285  16.580 -1.1608 -0.1364  0.8818
  438MPD2    H3 6587   4.063   2.399  16.718  0.4923  1.8113  1.8508
  438MPD2     N 6588   4.255   2.329  17.114  0.0530 -0.3034 -1.3128
  438MPD2    H5 6589   4.190   2.401  17.144 -0.2731 -0.2613 -2.1124
  438MPD2    N1 6590   4.438   2.139  16.694 -0.2609  0.0060 -0.1491
  438MPD2    H7 6591   4.510   2.092  16.749  0.1816 -1.2013 -1.7462
  439TMC3    C1 6592   4.550   1.998  16.533 -0.9055 -0.2988  0.2974
  439TMC3    C2 6593   4.577   1.981  16.401 -0.7469 -0.0821 -0.5307
  439TMC3    C3 6594   4.677   1.886  16.375  0.4990  0.3032 -0.2607
  439TMC3    C4 6595   4.586   1.908  16.631 -0.5650  0.3671 -0.2136
  439TMC3    C5 6596   4.680   1.813  16.600 -0.3624  0.1566  0.3641
  439TMC3    C6 6597   4.730   1.801  16.470  0.0892 -0.1080 -0.0929
  439TMC3     C 6598   4.445   2.100  16.562  0.9028  0.0928 -0.7984
  439TMC3     O 6599   4.379   2.143  16.468  0.3794 -0.2024 -0.0906
  439TMC3     H 6600   4.553   2.057  16.329 -1.6641 -0.3073 -0.4639
  439TMC3    H1 6601   4.572   1.925  16.737  3.0721 -0.9791  0.4625
  439TMC3    H2 6602   0.061   1.718  16.444  0.7614 -0.2470  2.0336
  439TMC3    C7 6603   0.023   1.755  16.711  0.1570 -0.2725 -0.5464
  439TMC3    C8 6604   0.024   1.896  16.258  0.1814  0.0363 -0.2793
  439TMC3    O1 6605   4.715   1.755  16.823  0.0562  0.5225 -0.1387
  439TMC3    O2 6606   0.134   1.841  16.272 -0.1063  0.3347 -0.3709
  440MPD2     C 6607   3.410   2.580  14.569  0.3068 -0.0380 -0.1705
  440MPD2    C1 6608   3.390   2.621  14.703  0.0698  0.0001 -0.3881
  440MPD2    C2 6609   3.441   2.545  14.804  0.5024  1.3153 -0.1248
  440MPD2    C3 6610   3.514   2.430  14.777  0.2950 -0.0633 -0.4826
  440MPD2    C4 6611   3.536   2.402  14.643 -0.0690  0.2063 -0.7969
  440MPD2    C5 6612   3.481   2.471  14.542  1.0260 -0.9375 -0.0236
  440MPD2     H 6613   3.417   2.578  14.904  1.5863  1.1689  0.1770
  440MPD2    H1 6614   3.593   2.318  14.606 -0.2671 -0.7791  1.1258
  440MPD2    H2 6615   3.364   2.635  14.487 -0.8439  1.5658  1.5679
  440MPD2    H3 6616   3.500   2.449  14.438  1.0493 -1.0901  0.0136
  440MPD2     N 6617   3.586   2.347  14.868 -0.6121 -0.2355  0.3409
  440MPD2    H5 6618   3.654   2.282  14.830  0.5819  1.0991  0.2419
  440MPD2    N1 6619   3.305   2.728  14.732  0.1149  0.6118 -0.2857
  440MPD2    H7 6620   3.266   2.723  14.826 -0.2064  0.5757 -0.4211
  441TMC3    C1 6621   3.621   2.244  15.079  0.3023 -0.3371 -0.0167
  441TMC3    C2 6622   3.753   2.264  15.076  0.5408 -0.7446 -0.3726
  441TMC3    C3 6623   3.825   2.246  15.190  0.2098  0.7863  0.0797
  441TMC3    C4 6624   3.557   2.197  15.189  0.0256 -0.0253  0.9059
  441TMC3    C5 6625   3.633   2.186  15.303  0.5610 -0.6903 -0.7316
  441TMC3    C6 6626   3.766   2.200  15.303 -0.6934  0.9151 -0.1339
  441TMC3     C 6627   3.547   2.337  14.998 -0.2193  0.5369  0.6897
  441TMC3     O 6628   3.460   2.397  15.055 -0.3312 -0.0452  0.3153
  441TMC3     H 6629   3.794   2.316  14.991 -0.7516  1.8459  0.5924
  441TMC3    H1 6630   3.450   2.178  15.191  0.6701 -3.7622 -1.6347
  441TMC3    H2 6631   3.827   2.196  15.393  1.8739 -1.9526 -1.9893
  441TMC3    C7 6632   3.559   2.225  15.418 -0.0058 -0.0543 -0.2851
  441TMC3    C8 6633   3.917   2.351  15.215 -0.2877 -0.5489 -0.4793
  441TMC3    O1 6634   3.599   2.202  15.532 -0.0586  0.7055 -0.4658
  441TMC3    O2 6635   4.024   2.327  15.265  0.1507 -0.4419 -0.5873
  442MPD2     C 6636   1.673   2.967  16.374 -0.0919 -0.2147  0.1731
  442MPD2    C1 6637   1.545   2.921  16.404 -0.1948 -0.1039 -0.0157
  442MPD2    C2 6638   1.525   2.787  16.405  0.0087  0.2962 -0.4138
  442MPD2    C3 6639   1.625   2.696  16.392 -0.0872  0.0343 -0.2851
  442MPD2    C4 6640   1.746   2.741  16.362 -0.3692  0.1996  0.4496
  442MPD2    C5 6641   1.771   2.878  16.357 -0.0634  0.1128  0.1939
  442MPD2     H 6642   1.425   2.747  16.408 -0.7682  2.3978  1.3755
  442MPD2    H1 6643   1.828   2.669  16.361 -1.1041 -0.6296 -0.8076
  442MPD2    H2 6644   1.698   3.072  16.358  2.1975 -0.6462  1.0028
  442MPD2    H3 6645   1.869   2.918  16.333 -1.2447  2.5317 -0.6858
  442MPD2     N 6646   1.609   2.557  16.393  0.1709  0.0837 -0.0328
  442MPD2    H5 6647   1.668   2.505  16.330 -0.3899 -0.9550  0.2938
  442MPD2    N1 6648   1.439   3.011  16.411  0.0266 -0.0530  0.9652
  442MPD2    H7 6649   1.347   2.972  16.430 -0.5391  0.0140 -1.7099
  443TMC3    C1 6650   1.316   3.214  16.408  0.4224  0.3663 -0.0057
  443TMC3    C2 6651   1.283   3.307  16.313  0.1713 -0.4837  0.2687
  443TMC3    C3 6652   1.183   3.399  16.334  0.1271 -0.1257  0.0855
  443TMC3    C4 6653   1.246   3.200  16.514  0.6953  0.1008 -0.2626
  443TMC3    C5 6654   1.150   3.291  16.536 -0.3840  0.3781 -0.4822
  443TMC3    C6 6655   1.120   3.401  16.453 -0.3737 -0.4966 -0.2622
  443TMC3     C 6656   1.445   3.150  16.390 -0.3652 -0.6977 -0.5620
  443TMC3     O 6657   1.535   3.224  16.343  0.1561 -0.2912 -0.0280
  443TMC3     H 6658   1.345   3.296  16.225  1.4454 -1.1773  1.2532
  443TMC3    H1 6659   1.266   3.114  16.577 -0.3962 -0.0057 -0.0448
  443TMC3    H2 6660   1.032   3.460  16.474 -0.4914 -1.6542  2.4688
  443TMC3    C7 6661   1.051   3.270  16.639 -0.3551  0.5881  0.2985
  443TMC3    C8 6662   1.101   3.418  16.215  0.0318  0.1695  0.0400
  443TMC3    O1 6663   0.985   3.370  16.672 -0.1828  0.0134  0.3685
  443TMC3    O2 6664   1.105   3.333  16.126 -0.0393 -0.0815  0.5747
  444MPD2     C 6665   1.378   2.725  17.519 -0.2801 -0.1791  0.1708
  444MPD2    C1 6666   1.289   2.621  17.481  0.2315 -0.1521 -0.0907
  444MPD2    C2 6667   1.347   2.500  17.443  0.2815 -0.3506  0.5926
  444MPD2    C3 6668   1.490   2.490  17.434  0.0425  0.1743  0.2875
  444MPD2    C4 6669   1.567   2.599  17.474 -0.2435 -0.2664  0.0961
  444MPD2    C5 6670   1.516   2.715  17.513  0.2014  0.3912  0.2915
  444MPD2     H 6671   1.279   2.424  17.405  1.7552  0.3097 -3.3272
  444MPD2    H1 6672   1.675   2.589  17.474 -0.0575  1.8326  1.1054
  444MPD2    H2 6673   1.349   2.819  17.563 -0.3603 -0.2872  0.3475
  444MPD2    H3 6674   1.581   2.783  17.566  0.6531  1.6131 -1.8307
  444MPD2     N 6675   1.542   2.366  17.386  0.1732 -0.3239  0.2177
  444MPD2    H5 6676   1.469   2.305  17.349 -1.0716  0.6251  1.1087
  444MPD2    N1 6677   1.148   2.640  17.506 -0.5730  0.1729 -1.3789
  444MPD2    H7 6678   1.122   2.736  17.526 -1.3253 -0.5287  1.0759
  445TMC3    C1 6679   1.692   2.189  17.304  0.2048 -0.4856  0.1860
  445TMC3    C2 6680   1.581   2.101  17.284 -0.1011  0.3367  0.4959
  445TMC3    C3 6681   1.605   1.974  17.235  0.2944 -0.1121  0.2413
  445TMC3    C4 6682   1.825   2.148  17.288  0.4507  0.4384  0.1345
  445TMC3    C5 6683   1.840   2.016  17.235  0.1126  0.1025 -0.5496
  445TMC3    C6 6684   1.732   1.930  17.204 -0.2300 -0.0078 -0.2056
  445TMC3     C 6685   1.675   2.329  17.349  0.4670 -0.5260 -0.7811
  445TMC3     O 6686   1.779   2.388  17.373 -0.1644 -0.4242 -0.7835
  445TMC3     H 6687   1.481   2.141  17.296  0.4188  1.3421  1.4580
  445TMC3    H1 6688   1.909   2.216  17.293 -0.6911  1.8538  0.1946
  445TMC3    H2 6689   1.743   1.835  17.153 -0.3284  0.5905 -1.3457
  445TMC3    C7 6690   1.972   1.967  17.184  0.4665  0.0209 -0.8082
  445TMC3    C8 6691   1.502   1.904  17.159  0.1342  0.1339 -0.6155
  445TMC3    O1 6692   2.048   2.053  17.148 -0.3900 -0.1049 -0.0328
  445TMC3    O2 6693   1.530   1.864  17.044  0.8894  0.1038  0.3748
  446MPD2     C 6694   1.613   3.142  10.478  0.2030  0.3516 -0.1182
  446MPD2    C1 6695   1.542   3.259  10.501  0.3797  0.0153 -1.1554
  446MPD2    C2 6696   1.614   3.378  10.526 -0.3765  1.1137  0.8992
  446MPD2    C3 6697   1.754   3.382  10.533 -0.2082  0.1857  0.0113
  446MPD2    C4 6698   1.818   3.263  10.511 -0.5685  0.5625  0.6382
  446MPD2    C5 6699   1.751   3.149  10.488 -0.6509  0.2943 -0.0216
  446MPD2     H 6700   1.566   3.473  10.545  1.3465  2.1440  0.0595
  446MPD2    H1 6701   1.924   3.247  10.517 -1.0484 -2.3366  1.2910
  446MPD2    H2 6702   1.571   3.048  10.442 -0.5205  0.1614  1.2375
  446MPD2    H3 6703   1.810   3.059  10.475  0.7878  1.5950 -2.3721
  446MPD2     N 6704   1.819   3.500  10.570 -0.2349  0.0132 -0.5055
  446MPD2    H5 6705   1.769   3.588  10.558  0.5580  0.2445 -2.2506
  446MPD2    N1 6706   1.401   3.275  10.496 -1.1283  0.1738 -0.0116
  446MPD2    H7 6707   1.363   3.368  10.513 -0.0009  0.3105  1.7317
  447TMC3    C1 6708   1.989   3.644  10.661 -0.1456 -0.0883 -0.9161
  447TMC3    C2 6709   1.911   3.741  10.716 -0.5144  0.2135  0.3681
  447TMC3    C3 6710   1.967   3.835  10.803  1.0608 -0.4845  0.3650
  447TMC3    C4 6711   2.120   3.650  10.691  0.4333  0.3495  0.0080
  447TMC3    C5 6712   2.172   3.750  10.765  0.1474 -0.7111  0.4276
  447TMC3    C6 6713   2.098   3.831  10.841 -0.1905 -0.8353 -0.1242
  447TMC3     C 6714   1.942   3.509  10.632  0.3842  0.2907 -0.2986
  447TMC3     O 6715   2.013   3.418  10.668 -0.2276  0.2399  0.1190
  447TMC3     H 6716   1.803   3.731  10.713 -0.4121 -0.9872  0.7410
  447TMC3    H1 6717   2.184   3.569  10.659 -0.4205  0.3570 -1.7526
  447TMC3    H2 6718   2.136   3.911  10.903 -0.8195  0.2916 -1.1841
  447TMC3    C7 6719   2.321   3.737  10.787  0.1839  0.5962  0.4172
  447TMC3    C8 6720   1.892   3.952  10.823  0.2194 -0.4057 -0.7464
  447TMC3    O1 6721   2.385   3.675  10.705 -0.4061 -0.1339  0.2070
  447TMC3    O2 6722   1.894   4.017  10.926  0.3384 -0.3260  0.1815
  448TMC3    C1 6723   4.423   3.577  17.226  0.0456 -0.7242  0.4360
  448TMC3    C2 6724   4.385   3.454  17.168 -0.7058  0.0027  0.2140
  448TMC3    C3 6725   4.354   3.349  17.253 -0.0134  0.2049 -0.5608
  448TMC3    C4 6726   4.432   3.588  17.365  0.0946  0.2101  0.1391
  448TMC3    C5 6727   4.399   3.485  17.441  0.0742  0.3215  0.3535
  448TMC3    C6 6728   4.359   3.360  17.393  0.4208  0.2733 -0.5187
  448TMC3     C 6729   4.479   3.682  17.141 -0.4842  0.6387  0.0945
  448TMC3     O 6730   4.481   3.657  17.023 -0.5153  0.6575  0.0644
  448TMC3     H 6731   4.372   3.442  17.061 -3.3450 -0.3168  0.5512
  448TMC3    H1 6732   4.480   3.670  17.417  3.5519 -1.1154 -0.9517
  448TMC3    H2 6733   4.343   3.279  17.463 -0.1483  2.1312  1.5024
  448TMC3    C7 6734   4.422   3.500  17.581 -0.4494  0.4068  0.2494
  448TMC3    C8 6735   4.361   3.216  17.202 -0.9701 -0.2008 -0.2795
  448TMC3    O1 6736   4.518   3.565  17.622  0.1780  0.0684 -0.0333
  448TMC3    O2 6737   4.380   3.133  17.291  0.3073 -0.7312 -0.2206
  449MPD2     C 6738   0.939   1.446  13.413 -1.0369 -0.0532 -0.4246
  449MPD2    C1 6739   0.901   1.562  13.473  0.4222 -0.2436 -0.4205
  449MPD2    C2 6740   0.797   1.563  13.572 -0.3532  0.2473  0.2140
  449MPD2    C3 6741   0.739   1.440  13.601  0.0702 -0.0713 -0.0026
  449MPD2    C4 6742   0.778   1.326  13.537 -0.3863  0.2334  0.9472
  449MPD2    C5 6743   0.873   1.329  13.435 -0.0212 -0.8953 -0.1969
  449MPD2     H 6744   0.768   1.657  13.616  1.0928 -0.6399  3.0653
  449MPD2    H1 6745   0.728   1.231  13.553 -1.3419  0.0736 -2.9606
  449MPD2    H2 6746   1.012   1.446  13.333 -0.7077  1.8334 -0.1205
  449MPD2    H3 6747   0.898   1.234  13.390 -1.0420 -2.0131  1.5911
  449MPD2     N 6748   0.625   1.442  13.685  0.8779  0.2389  0.0855
  449MPD2    H5 6749   0.611   1.536  13.720  2.2717 -0.1154  1.6185
  449MPD2    N1 6750   0.962   1.687  13.449  0.1239 -1.0191 -0.2090
  449MPD2    H7 6751   0.903   1.763  13.481 -2.6444 -2.8074 -1.1158
  450TMC3    C1 6752   1.092   1.863  13.398  0.2720  0.6112  0.4733
  450TMC3    C2 6753   1.207   1.917  13.451  0.5341  0.2181  0.3514
  450TMC3    C3 6754   1.189   2.026  13.530  0.2025 -0.3660  0.1449
  450TMC3    C4 6755   0.970   1.928  13.409 -0.0442 -0.7408  0.5938
  450TMC3    C5 6756   0.957   2.026  13.504  0.8733 -0.3382 -0.1070
  450TMC3    C6 6757   1.061   2.075  13.569 -0.7730  0.0012  0.3329
  450TMC3     C 6758   1.081   1.718  13.388 -0.4237  0.2049  0.0559
  450TMC3     O 6759   1.171   1.646  13.345 -0.0412  0.1764 -0.5770
  450TMC3     H 6760   1.298   1.875  13.409 -1.3273 -0.6920 -2.7596
  450TMC3    H1 6761   0.897   1.907  13.332 -0.0145  0.2077  0.3036
  450TMC3    H2 6762   1.053   2.157  13.640 -2.7716  0.8247 -0.8307
  450TMC3    C7 6763   0.840   1.994  13.575  0.5770 -0.5940 -0.7290
  450TMC3    C8 6764   1.291   2.130  13.540  0.4220 -0.2459  0.0472
  450TMC3    O1 6765   0.795   1.880  13.558 -0.0681  0.0180  0.2562
  450TMC3    O2 6766   1.270   2.229  13.609  0.4752  0.3214 -0.1176
  451MPD2     C 6767   2.755   0.840   0.787  0.6720 -0.4897  1.4352
  451MPD2    C1 6768   2.712   0.716   0.834  0.1504  0.4171 -0.1619
  451MPD2    C2 6769   2.792   0.603   0.822 -0.2077 -0.0512  0.5266
  451MPD2    C3 6770   2.924   0.622   0.769 -0.1318 -0.1792  0.4036
  451MPD2    C4 6771   2.964   0.749   0.729  0.9032  0.3047  0.1316
  451MPD2    C5 6772   2.883   0.855   0.739  0.7336 -0.2332  0.2665
  451MPD2     H 6773   2.762   0.503   0.852 -1.3758 -0.3535 -1.5913
  451MPD2    H1 6774   3.059   0.765   0.679  1.3384 -0.7052  0.6166
  451MPD2    H2 6775   2.686   0.923   0.798 -0.0340 -1.0671  1.3789
  451MPD2    H3 6776   2.897   0.949   0.686  1.4780 -0.8980 -0.7201
  451MPD2     N 6777   3.021   0.523   0.756 -0.1485  0.2756  0.2910
  451MPD2    H5 6778   3.105   0.545   0.703 -0.1234 -0.7112 -0.0635
  451MPD2    N1 6779   2.580   0.704   0.883  0.3209 -0.3308  0.3097
  451MPD2    H7 6780   2.519   0.785   0.888  2.7550  1.5265 -0.1940
  452TMC3    C1 6781   3.100   0.304   0.747 -0.3251 -0.8845 -0.3267
  452TMC3    C2 6782   3.023   0.193   0.743 -0.3699 -0.0638  0.3862
  452TMC3    C3 6783   2.984   0.149   0.619 -0.3629  0.1234  0.2629
  452TMC3    C4 6784   3.161   0.356   0.637 -0.0408  0.3054 -0.6192
  452TMC3    C5 6785   3.139   0.292   0.515  0.3747 -0.0349  0.6414
  452TMC3    C6 6786   3.044   0.192   0.509 -0.0424  0.0891  0.1869
  452TMC3     C 6787   3.023   0.404   0.822  1.0743 -0.1825  0.7564
  452TMC3     O 6788   2.946   0.364   0.909 -0.2003  0.0156 -0.0730
  452TMC3     H 6789   2.981   0.153   0.834  0.4669  0.4254  0.9798
  452TMC3    H1 6790   3.220   0.446   0.654 -2.2785  1.5723  0.4339
  452TMC3    H2 6791   3.014   0.158   0.410  0.0849  2.1413 -0.5625
  452TMC3    C7 6792   3.127   0.387   0.405 -0.2630 -0.3444  0.8089
  452TMC3    C8 6793   2.853   0.092   0.613 -0.3398  0.3796  0.1407
  452TMC3    O1 6794   3.027   0.393   0.337 -0.1604 -0.2378  0.1015
  452TMC3    O2 6795   2.835   0.028   0.509  0.1408 -0.4343  0.4466
  453TMC3    C1 6796   3.844   2.753  11.659 -0.9052  0.2077 -0.1428
  453TMC3    C2 6797   3.748   2.656  11.677  0.1987 -0.0524  0.4832
  453TMC3    C3 6798   3.622   2.668  11.614 -0.1352  0.3210  0.2612
  453TMC3    C4 6799   3.817   2.865  11.586  0.3999  0.4271 -0.1391
  453TMC3    C5 6800   3.691   2.885  11.532  0.2171  0.5508 -0.1725
  453TMC3    C6 6801   3.593   2.787  11.549  0.2012  0.7613  0.8350
  453TMC3     C 6802   3.968   2.757  11.739 -0.6424  0.0591 -0.4279
  453TMC3     O 6803   4.048   2.846  11.707 -0.1013 -0.1234  0.0509
  453TMC3     H 6804   3.768   2.568  11.737 -2.5327 -0.3899  0.8924
  453TMC3    H1 6805   3.890   2.941  11.561  0.3357  0.5008 -0.1034
  453TMC3    H2 6806   3.491   2.795  11.513  0.5438 -0.1354 -0.3276
  453TMC3    C7 6807   3.653   3.020  11.482 -0.1269  0.6413  0.2459
  453TMC3    C8 6808   3.504   2.606  11.682  0.0628  0.2573 -0.0081
  453TMC3    O1 6809   3.741   3.104  11.468  0.1690  0.0790  0.3525
  453TMC3    O2 6810   3.409   2.680  11.700  0.6522 -1.0007 -0.4029
  454MPD2     C 6811   2.371   1.539  16.368  0.4926  0.5894  0.7938
  454MPD2    C1 6812   2.325   1.667  16.372  0.0866  0.9158 -0.2391
  454MPD2    C2 6813   2.228   1.703  16.461  0.2997 -0.5791  0.3282
  454MPD2    C3 6814   2.176   1.608  16.551 -0.1669 -0.6128 -0.2075
  454MPD2    C4 6815   2.210   1.474  16.535  0.5565  0.0156 -0.2293
  454MPD2    C5 6816   2.303   1.445  16.442 -0.9635  0.2593 -0.2264
  454MPD2     H 6817   2.194   1.806  16.472  0.1237 -0.5824 -0.1862
  454MPD2    H1 6818   2.170   1.397  16.601 -0.0622  0.9574  0.4939
  454MPD2    H2 6819   2.456   1.521  16.302 -2.5628 -0.0131 -2.9416
  454MPD2    H3 6820   2.334   1.341  16.433 -1.0519  0.2940 -0.9437
  454MPD2     N 6821   2.062   1.648  16.632 -0.0997 -0.0659  0.5577
  454MPD2    H5 6822   2.008   1.570  16.669 -0.0095 -0.9478 -1.1689
  454MPD2    N1 6823   2.376   1.772  16.283  0.1775  0.4540  0.1470
  454MPD2    H7 6824   2.346   1.864  16.312 -1.3899  0.6605 -2.1053
  455TMC3    C1 6825   1.904   1.788  16.724  0.5118 -0.0481 -0.2820
  455TMC3    C2 6826   1.882   1.913  16.779 -0.5042  0.1259  0.4405
  455TMC3    C3 6827   1.758   1.950  16.818 -0.1449  0.3242  0.3305
  455TMC3    C4 6828   1.798   1.706  16.698 -0.3501 -0.6014 -0.8882
  455TMC3    C5 6829   1.673   1.747  16.721 -0.0535 -0.8553 -0.0674
  455TMC3    C6 6830   1.652   1.873  16.774  0.7494 -0.5937 -0.8007
  455TMC3     C 6831   2.030   1.773  16.659 -0.1044  0.5626 -0.0207
  455TMC3     O 6832   2.100   1.873  16.665 -0.0695  0.4195  0.2886
  455TMC3     H 6833   1.965   1.976  16.808  0.0776 -0.0303 -0.8669
  455TMC3    H1 6834   1.808   1.619  16.633 -0.1113 -1.2261 -0.0073
  455TMC3    H2 6835   1.549   1.905  16.781  0.0347 -2.2737 -3.6920
  455TMC3    C7 6836   1.570   1.710  16.621  0.1923 -0.2042 -0.2464
  455TMC3    C8 6837   1.739   2.084  16.863 -0.4484  0.2292 -0.0741
  455TMC3    O1 6838   1.453   1.709  16.660  0.2168  0.4061  0.0428
  455TMC3    O2 6839   1.834   2.159  16.862 -0.1630 -0.1351 -0.5332
  456MPD2     C 6840   0.132   2.242  16.339 -0.2122  0.2504 -0.0372
  456MPD2    C1 6841   0.186   2.180  16.445  0.5521 -0.6339  0.2316
  456MPD2    C2 6842   0.146   2.214  16.568  0.6410 -0.2838  0.1445
  456MPD2    C3 6843   0.051   2.317  16.584  0.5394 -0.2559  0.1922
  456MPD2    C4 6844   0.001   2.384  16.480  0.1688  0.5936  0.7202
  456MPD2    C5 6845   0.040   2.344  16.358  0.2123 -0.1316  0.2544
  456MPD2     H 6846   0.177   2.157  16.655  1.0846 -1.8527 -1.0588
  456MPD2    H1 6847   4.664   2.466  16.489  0.1972  0.6810  0.1005
  456MPD2    H2 6848   0.146   2.200  16.240 -0.2067  1.7813 -0.6818
  456MPD2    H3 6849   0.001   2.395  16.270 -1.5019  2.4096  2.4958
  456MPD2     N 6850   0.007   2.343  16.715  0.5775  0.4318 -0.8443
  456MPD2    H5 6851   0.029   2.275  16.787  1.5651  0.3771 -1.1949
  456MPD2    N1 6852   0.265   2.071  16.415  0.7780 -0.2999  0.7604
  456MPD2    H7 6853   0.292   2.068  16.317  2.3230 -0.7445  1.2071
  457TMC3    C1 6854   4.627   2.452  16.890  0.3435  0.4587  0.7519
  457TMC3    C2 6855   4.526   2.528  16.921 -0.2061 -0.0216 -0.0068
  457TMC3    C3 6856   4.510   2.565  17.052 -1.1447 -0.5153 -0.0387
  457TMC3    C4 6857   4.704   2.389  16.984 -0.2648  0.3952  0.6838
  457TMC3    C5 6858   4.680   2.420  17.115  0.5159 -0.3619  0.2034
  457TMC3    C6 6859   4.588   2.512  17.150 -0.3392  0.0459 -0.4060
  457TMC3     C 6860   4.660   2.441  16.750  0.4083 -0.2342  0.0374
  457TMC3     O 6861   4.632   2.542  16.685  0.2915 -0.5055 -0.2339
  457TMC3     H 6862   4.470   2.594  16.855  0.4545 -0.7717 -1.3116
  457TMC3    H1 6863   0.057   2.327  16.968 -1.2336 -0.6125 -0.6905
  457TMC3    H2 6864   4.580   2.551  17.251  2.7821 -1.4359  0.4060
  457TMC3    C7 6865   0.038   2.376  17.220  0.5649 -0.4255 -0.1002
  457TMC3    C8 6866   4.465   2.700  17.079  0.9279  0.5977 -0.3325
  457TMC3    O1 6867   0.084   2.265  17.212  0.3711  0.7054  0.3369
  457TMC3    O2 6868   4.533   2.772  17.153 -0.1357  0.1346  0.4945
  458MPD2     C 6869   2.383   1.930  12.672  0.0565  0.2462  0.3310
  458MPD2    C1 6870   2.392   1.812  12.743  0.5605 -0.3141  0.9859
  458MPD2    C2 6871   2.278   1.769  12.809  1.3766 -0.2427  0.6417
  458MPD2    C3 6872   2.159   1.842  12.816 -0.6275  0.4494 -0.2352
  458MPD2    C4 6873   2.152   1.960  12.744  0.0582  0.3288 -0.4755
  458MPD2    C5 6874   2.267   2.003  12.684  1.2241  0.1675  0.7792
  458MPD2     H 6875   2.276   1.675  12.864  0.4718 -1.9171 -2.2440
  458MPD2    H1 6876   2.059   2.016  12.738 -0.0774  0.5629  3.4481
  458MPD2    H2 6877   2.472   1.973  12.628 -1.2470  2.8888  0.3272
  458MPD2    H3 6878   2.266   2.103  12.644  1.3214  0.2697  1.0353
  458MPD2     N 6879   2.060   1.791  12.896 -0.0847  0.0140 -0.1576
  458MPD2    H5 6880   2.060   1.690  12.906  1.3627  0.2505  2.4088
  458MPD2    N1 6881   2.519   1.745  12.756 -0.1447 -0.2812  0.0247
  458MPD2    H7 6882   2.599   1.788  12.709 -0.3547 -0.3371 -0.3799
  459TMC3    C1 6883   2.693   1.620  12.854 -0.2912  0.5502  0.2635
  459TMC3    C2 6884   2.786   1.717  12.835  0.6600  0.2757  0.1549
  459TMC3    C3 6885   2.917   1.681  12.822  0.6970  0.1518  0.1295
  459TMC3    C4 6886   2.727   1.491  12.882  0.4386  0.1501 -0.2290
  459TMC3    C5 6887   2.860   1.464  12.869 -0.2604  0.2947 -0.8181
  459TMC3    C6 6888   2.961   1.555  12.847 -0.2304 -0.1489 -0.5356
  459TMC3     C 6889   2.546   1.640  12.833 -0.1030 -0.5083  0.7007
  459TMC3     O 6890   2.468   1.569  12.896  0.1828  0.1673 -0.6093
  459TMC3     H 6891   2.749   1.817  12.814  0.7383 -0.2125 -2.3004
  459TMC3    H1 6892   2.650   1.417  12.903  1.2530 -1.3753 -2.6444
  459TMC3    H2 6893   3.065   1.531  12.828 -0.1818 -0.5114  0.1478
  459TMC3    C7 6894   2.911   1.351  12.949 -0.3808  0.3897  0.7548
  459TMC3    C8 6895   3.007   1.783  12.786 -0.5348  0.0086  0.1940
  459TMC3    O1 6896   3.020   1.363  13.001  0.1529  0.4194 -0.3631
  459TMC3    O2 6897   3.126   1.748  12.789 -0.0757 -0.3482 -0.8217
  460MPD2     C 6898   1.668   4.162  10.779 -0.3303 -0.0409  0.1039
  460MPD2    C1 6899   1.728   4.079  10.686 -0.2899  0.0312 -0.8792
  460MPD2    C2 6900   1.685   4.084  10.552  0.5770  0.6274 -0.2736
  460MPD2    C3 6901   1.586   4.169  10.518  0.1542 -0.2953 -0.2096
  460MPD2    C4 6902   1.529   4.251  10.608 -0.4345 -0.0368  0.1230
  460MPD2    C5 6903   1.567   4.248  10.739  0.5836 -0.0862 -0.4071
  460MPD2     H 6904   1.732   4.015  10.483  1.4517 -1.4563  2.4454
  460MPD2    H1 6905   1.446   4.313  10.578  1.1960  1.4104 -1.4035
  460MPD2    H2 6906   1.693   4.147  10.883  0.4631 -2.3573 -0.4291
  460MPD2    H3 6907   1.513   4.303  10.814  0.0950  0.7431 -1.3797
  460MPD2     N 6908   1.536   4.155  10.384 -0.5897  0.0306 -0.1212
  460MPD2    H5 6909   1.577   4.081  10.329  1.1329 -0.7370  2.2111
  460MPD2    N1 6910   1.823   3.979  10.710  0.8871 -0.5093 -0.0178
  460MPD2    H7 6911   1.845   3.927  10.625 -1.4973 -0.4847 -0.6543
  461TMC3    C1 6912   1.434   4.189  10.178 -0.5962  0.1098  0.1976
  461TMC3    C2 6913   1.462   4.056  10.145 -0.1448  0.2136 -0.3484
  461TMC3    C3 6914   1.448   4.026  10.011  0.3374 -0.1150 -0.2149
  461TMC3    C4 6915   1.401   4.277  10.079  0.2411  0.0324  0.2059
  461TMC3    C5 6916   1.399   4.246   9.947  0.0082 -0.0926 -0.1601
  461TMC3    C6 6917   1.424   4.115   9.909  0.1576  0.6195  0.6802
  461TMC3     C 6918   1.462   4.246  10.311  0.0281 -0.0413  0.0632
  461TMC3     O 6919   1.405   4.346  10.348  0.3877 -0.4406 -0.1072
  461TMC3     H 6920   1.493   3.978  10.213 -1.1939 -1.8345 -2.2076
  461TMC3    H1 6921   1.375   4.376  10.115 -0.9253 -0.4127  0.6036
  461TMC3    H2 6922   1.413   4.084   9.806  0.6799 -0.3667  0.9277
  461TMC3    C7 6923   1.413   4.356   9.854  0.0446  0.6490  0.1755
  461TMC3    C8 6924   1.428   3.881   9.978 -0.2056 -0.5284 -0.2395
  461TMC3    O1 6925   1.366   4.354   9.739  0.3359 -0.3396  0.2341
  461TMC3    O2 6926   1.456   3.798  10.067  0.3259 -1.0633  0.2742
  462TMC3    C1 6927   1.826   0.461   0.935 -0.3565 -0.3667 -0.1397
  462TMC3    C2 6928   1.945   0.482   0.872  0.3034 -0.2403  0.1376
  462TMC3    C3 6929   1.959   0.440   0.742 -0.3869  0.2757  0.3472
  462TMC3    C4 6930   1.726   0.393   0.876  0.1969  0.4812 -0.2767
  462TMC3    C5 6931   1.737   0.359   0.741  0.3474 -0.8011 -0.3240
  462TMC3    C6 6932   1.858   0.373   0.683 -0.9743  0.7966 -0.0253
  462TMC3     C 6933   1.798   0.534   1.053  0.6225  1.1422  0.7402
  462TMC3     O 6934   1.884   0.565   1.131  0.3938  0.1861 -0.2991
  462TMC3     H 6935   2.024   0.541   0.919  0.7336 -0.8730  0.2151
  462TMC3    H1 6936   1.627   0.386   0.921  0.9779  0.1142  1.3794
  462TMC3    H2 6937   1.861   0.356   0.576  0.8247 -2.3933  0.5367
  462TMC3    C7 6938   1.650   0.255   0.686  0.3713 -0.2410 -0.1693
  462TMC3    C8 6939   2.085   0.468   0.673 -0.4158 -0.2371  0.0476
  462TMC3    O1 6940   1.703   0.174   0.612  0.9796  0.1336  0.1533
  462TMC3    O2 6941   2.162   0.543   0.733 -0.1791  0.9613 -0.1814
  463MPD2     C 6942   3.623   3.147   1.161  0.1132 -0.3663  0.9947
  463MPD2    C1 6943   3.601   3.281   1.130 -0.1183 -0.3958 -0.5987
  463MPD2    C2 6944   3.700   3.375   1.174 -0.3748  0.0589  0.4380
  463MPD2    C3 6945   3.816   3.342   1.241  0.2198  0.7919  0.5013
  463MPD2    C4 6946   3.828   3.209   1.278 -0.2827  0.5341 -0.5249
  463MPD2    C5 6947   3.733   3.113   1.230 -0.0475 -0.3321  0.4702
  463MPD2     H 6948   3.669   3.478   1.164 -0.4741 -0.5143 -4.9579
  463MPD2    H1 6949   3.910   3.175   1.339 -1.6554  1.4654  1.8356
  463MPD2    H2 6950   3.544   3.078   1.133 -2.3693  3.0364 -0.4819
  463MPD2    H3 6951   3.744   3.011   1.264 -0.7628 -0.7432 -0.5165
  463MPD2     N 6952   3.919   3.437   1.272  0.4336  0.0654  0.3695
  463MPD2    H5 6953   3.993   3.405   1.333  0.7779 -1.3093 -0.7755
  463MPD2    N1 6954   3.480   3.332   1.069 -0.1716 -0.3959 -0.0909
  463MPD2    H7 6955   3.475   3.433   1.066 -0.8988 -0.4457 -0.4912
  464TMC3    C1 6956   3.279   3.322   0.942  0.2815  0.4691  0.0296
  464TMC3    C2 6957   3.264   3.457   0.954  0.2795  0.2774 -0.3443
  464TMC3    C3 6958   3.142   3.513   0.933 -1.0519 -0.3027 -0.1059
  464TMC3    C4 6959   3.175   3.237   0.907  0.4501  0.2583 -0.1231
  464TMC3    C5 6960   3.054   3.292   0.893  0.3276 -0.7151 -0.2477
  464TMC3    C6 6961   3.037   3.429   0.904 -0.3632  0.9836  0.1533
  464TMC3     C 6962   3.398   3.258   0.990  0.6818  0.0902 -0.0944
  464TMC3     O 6963   3.418   3.143   0.961 -0.5499  1.2372 -0.7365
  464TMC3     H 6964   3.346   3.519   0.987 -0.1240  0.4710  0.3001
  464TMC3    H1 6965   3.195   3.130   0.903  0.2372  0.2819 -2.1073
  464TMC3    H2 6966   2.935   3.460   0.883  0.2857  3.4895  0.6899
  464TMC3    C7 6967   2.943   3.194   0.868 -0.1356 -1.0240  0.5217
  464TMC3    C8 6968   3.104   3.651   0.956 -0.0145  0.1017  0.9956
  464TMC3    O1 6969   2.977   3.096   0.806  0.1624  0.2054  0.2020
  464TMC3    O2 6970   2.985   3.667   0.957 -0.0873 -0.3465  0.1835
  465MPD2     C 6971   3.990   2.067  16.803  0.4655  0.4384 -0.5935
  465MPD2    C1 6972   3.885   2.124  16.868 -0.5463 -0.4260 -0.6268
  465MPD2    C2 6973   3.781   2.172  16.789 -0.0931  0.2074 -0.1816
  465MPD2    C3 6974   3.768   2.133  16.661  0.1335 -0.0457  0.6035
  465MPD2    C4 6975   3.865   2.046  16.598 -0.3143  0.0731 -0.2561
  465MPD2    C5 6976   3.981   2.028  16.667  0.0771 -0.3210 -0.6501
  465MPD2     H 6977   3.702   2.230  16.834  0.2574  1.2438 -0.9005
  465MPD2    H1 6978   3.860   2.005  16.498 -1.3957 -1.0765  0.2643
  465MPD2    H2 6979   4.087   2.048  16.848  0.4136 -2.9140 -1.8994
  465MPD2    H3 6980   4.052   1.970  16.608  2.3620  1.6516  0.1203
  465MPD2     N 6981   3.666   2.185  16.582  0.5822  0.0498  0.0400
  465MPD2    H5 6982   3.585   2.224  16.630  0.6396  0.7396 -0.4198
  465MPD2    N1 6983   3.874   2.156  17.000 -0.1123  0.7414 -0.0731
  465MPD2    H7 6984   3.806   2.220  17.038 -0.4979 -1.1183  2.4522
  466TMC3    C1 6985   3.327   2.319  16.418  0.1659 -0.3421  0.9268
  466TMC3    C2 6986   3.343   2.417  16.323  0.6485 -0.0720  0.0615
  466TMC3    C3 6987   3.463   2.426  16.259 -0.4308  0.3379 -0.1670
  466TMC3    C4 6988   3.425   2.236  16.449  0.2435 -0.5456  0.0305
  466TMC3    C5 6989   3.545   2.253  16.385  0.3181  0.3166 -0.2160
  466TMC3    C6 6990   3.564   2.334  16.276  0.3487 -0.6031  0.8561
  466TMC3     C 6991   3.207   2.297  16.490 -0.2645  0.1913  0.2279
  466TMC3     O 6992   3.219   2.231  16.592 -0.2558 -0.1632  0.2353
  466TMC3     H 6993   3.274   2.500  16.306 -1.8985 -1.8093  1.8782
  466TMC3    H1 6994   3.414   2.164  16.530  0.9689  0.0514  0.6493
  466TMC3    H2 6995   3.662   2.339  16.231 -0.1469 -0.6035 -0.2493
  466TMC3    C7 6996   3.666   2.200  16.445  0.5100 -0.3755 -0.2332
  466TMC3    C8 6997   3.500   2.565  16.222  0.3954  0.1161  0.3154
  466TMC3    O1 6998   3.755   2.176  16.363 -0.0867  0.0618 -0.4921
  466TMC3    O2 6999   3.596   2.575  16.144  0.0916  0.1265 -0.0063
  467TMC3    C1 7000   0.621   0.684  13.642 -0.0401  0.0853  0.4570
  467TMC3    C2 7001   0.609   0.800  13.563 -0.3696 -0.4330  0.4706
  467TMC3    C3 7002   0.484   0.848  13.533 -0.8000 -0.2439  0.4566
  467TMC3    C4 7003   0.503   0.625  13.691  0.0475 -0.0530 -0.1161
  467TMC3    C5 7004   0.379   0.678  13.664 -0.8405 -0.1261 -0.3756
  467TMC3    C6 7005   0.364   0.799  13.594 -0.4238 -0.4185  0.6837
  467TMC3     C 7006   0.749   0.644  13.681  0.5784  0.0199 -0.3117
  467TMC3     O 7007   0.830   0.683  13.593 -0.3922  0.2040  0.2455
  467TMC3     H 7008   0.700   0.849  13.531 -0.5109 -2.6481 -3.2975
  467TMC3    H1 7009   0.498   0.527  13.738  1.0291  1.6627  3.5710
  467TMC3    H2 7010   0.267   0.836  13.561 -0.0186  0.3058  0.2968
  467TMC3    C7 7011   0.267   0.588  13.658 -0.1393 -0.0994  0.3360
  467TMC3    C8 7012   0.469   0.976  13.455  0.5442  0.3087 -0.3917
  467TMC3    O1 7013   0.296   0.469  13.653 -0.5944 -0.7482  0.5436
  467TMC3    O2 7014   0.371   1.046  13.471  0.1084 -0.0743  0.2271
  468MPD2     C 7015   3.323   3.798  10.298  0.7854  0.6567  0.4216
  468MPD2    C1 7016   3.455   3.787  10.335  0.2121 -0.2566 -0.2533
  468MPD2    C2 7017   3.507   3.659  10.337  0.8232  0.8723 -0.2114
  468MPD2    C3 7018   3.432   3.547  10.298 -0.3217  0.0143  0.0966
  468MPD2    C4 7019   3.303   3.572  10.260  0.4684 -0.0433  0.4948
  468MPD2    C5 7020   3.248   3.694  10.255 -0.2400 -0.0915 -0.4085
  468MPD2     H 7021   3.606   3.644  10.380  0.6790 -0.9959 -0.5431
  468MPD2    H1 7022   3.232   3.494  10.236 -1.6391  2.4961 -1.4395
  468MPD2    H2 7023   3.283   3.898  10.283 -0.2389  0.1841 -0.0504
  468MPD2    H3 7024   3.145   3.712  10.226  0.1969  0.7427 -1.4485
  468MPD2     N 7025   3.474   3.413  10.297 -0.2247 -0.3517  0.1361
  468MPD2    H5 7026   3.408   3.337  10.287 -1.0537  0.4655 -0.4792
  468MPD2    N1 7027   3.539   3.892  10.385  0.5974  0.1543  0.4362
  468MPD2    H7 7028   3.635   3.870  10.409  0.0602 -1.3949  1.0958
  469TMC3    C1 7029   3.591   4.101  10.500 -0.1477  0.4492 -0.0592
  469TMC3    C2 7030   3.716   4.055  10.506  0.5416 -0.4380 -0.3971
  469TMC3    C3 7031   3.785   4.098  10.619  0.8144 -0.0841 -0.8294
  469TMC3    C4 7032   3.532   4.179  10.593 -0.4320  0.0118  0.5752
  469TMC3    C5 7033   3.604   4.209  10.702 -0.4237  0.5230  0.1250
  469TMC3    C6 7034   3.733   4.173  10.718 -0.3262 -0.6861 -0.8482
  469TMC3     C 7035   3.495   4.016  10.429  0.2928  0.7872 -0.9138
  469TMC3     O 7036   3.382   4.067  10.410  0.0146 -0.0685 -0.3408
  469TMC3     H 7037   3.763   4.008  10.421  0.9939  0.1558 -0.4775
  469TMC3    H1 7038   3.441   4.232  10.569  0.2286  0.5223 -0.8414
  469TMC3    H2 7039   3.810   4.220  10.778 -1.2753  0.5705 -0.6369
  469TMC3    C7 7040   3.550   4.321  10.784 -0.5929  0.5984  0.2453
  469TMC3    C8 7041   3.918   4.034  10.627  0.1254 -0.5393  0.3646
  469TMC3    O1 7042   3.475   4.402  10.728 -0.2554  0.2134 -0.4665
  469TMC3    O2 7043   3.954   3.974  10.530  0.0786 -0.2325  0.3134
  470TMC3    C1 7044   0.994   4.731   0.651 -0.2823 -0.0778 -0.0980
  470TMC3    C2 7045   1.011   0.113   0.725  0.2373 -0.0006 -0.1438
  470TMC3    C3 7046   1.120   0.097   0.815 -0.5362 -0.4552 -0.3425
  470TMC3    C4 7047   1.069   4.618   0.659 -0.9852 -0.6721  0.2217
  470TMC3    C5 7048   1.158   4.610   0.760 -0.9064  0.0509  0.2502
  470TMC3    C6 7049   1.182   4.712   0.845  1.1256 -0.3794  1.1581
  470TMC3     C 7050   0.899   0.008   0.535 -0.5346  0.0910  0.5318
  470TMC3     O 7051   0.895   0.116   0.477 -0.6223 -0.0330 -0.3719
  470TMC3     H 7052   0.965   0.210   0.711 -0.0078  0.1034  1.3804
  470TMC3    H1 7053   1.040   4.524   0.613 -1.6313 -0.5324  0.3392
  470TMC3    H2 7054   1.270   4.709   0.908  1.8999  0.9538  0.1524
  470TMC3    C7 7055   1.179   4.475   0.807  0.0915 -0.2521  0.0746
  470TMC3    C8 7056   1.156   0.216   0.896 -0.0629  0.1499 -0.5381
  470TMC3    O1 7057   1.230   4.393   0.729  0.1569  0.1958 -0.0882
  470TMC3    O2 7058   1.264   0.207   0.954 -0.0575  0.2861  0.2567
  471MPD2     C 7059   1.627   1.463  16.915  0.4473 -0.1907  0.1523
  471MPD2    C1 7060   1.704   1.360  16.864 -0.5544  0.3156  0.0284
  471MPD2    C2 7061   1.799   1.301  16.945  0.2586 -0.3461 -0.5713
  471MPD2    C3 7062   1.803   1.335  17.083  0.3274  0.1554 -0.6277
  471MPD2    C4 7063   1.716   1.435  17.132 -0.3874  0.4555  0.7330
  471MPD2    C5 7064   1.633   1.497  17.046  0.2177  0.2890  0.1183
  471MPD2     H 7065   1.861   1.228  16.896  3.2384 -0.4350  3.3107
  471MPD2    H1 7066   1.728   1.446  17.239 -2.4075  1.5968  0.8511
  471MPD2    H2 7067   1.548   1.515  16.862  0.0582 -1.3539 -0.4152
  471MPD2    H3 7068   1.565   1.572  17.085  1.4294  1.2161  0.4388
  471MPD2     N 7069   1.888   1.277  17.181 -0.6110  0.4535  0.0501
  471MPD2    H5 7070   1.869   1.310  17.275 -0.9279  0.6666 -0.0875
  471MPD2    N1 7071   1.688   1.318  16.726 -0.7174  0.2422  0.2939
  471MPD2    H7 7072   1.759   1.258  16.685  0.7675  1.3122  1.2651
  472TMC3    C1 7073   1.620   1.279  16.508  0.3871 -0.6064 -0.0429
  472TMC3    C2 7074   1.567   1.334  16.394  1.0004 -0.6154  0.6010
  472TMC3    C3 7075   1.588   1.267  16.276 -1.1014 -0.4790  0.4162
  472TMC3    C4 7076   1.675   1.159  16.506 -0.0432  0.6762  0.1498
  472TMC3    C5 7077   1.683   1.087  16.392 -0.2020  0.3861 -0.6229
  472TMC3    C6 7078   1.655   1.146  16.269 -0.9041 -0.5451  0.0917
  472TMC3     C 7079   1.591   1.351  16.639  0.4751  0.7584  0.0765
  472TMC3     O 7080   1.489   1.408  16.663  0.4447  0.3197 -0.1711
  472TMC3     H 7081   1.514   1.429  16.385 -0.6990 -1.5887  0.3735
  472TMC3    H1 7082   1.698   1.105  16.597 -0.7328 -1.4147 -0.9100
  472TMC3    H2 7083   1.660   1.090  16.177 -1.2939 -1.7706  0.8150
  472TMC3    C7 7084   1.620   0.956  16.421  0.3089 -0.2912  0.5895
  472TMC3    C8 7085   1.487   1.269  16.170 -0.2135  0.0034 -0.0350
  472TMC3    O1 7086   1.642   0.901  16.525 -0.0802 -0.5036 -0.5811
  472TMC3    O2 7087   1.522   1.267  16.053 -0.3448  0.3164  0.5369
  473MPD2     C 7088   1.849   3.539  13.757 -0.0924 -0.5489  0.4741
  473MPD2    C1 7089   1.803   3.667  13.721  0.2605  0.1424 -0.1916
  473MPD2    C2 7090   1.794   3.771  13.812  0.7057  0.0970  0.1982
  473MPD2    C3 7091   1.843   3.750  13.938 -0.0389 -0.0175 -0.0059
  473MPD2    C4 7092   1.897   3.627  13.969 -0.5436 -0.3915  0.2265
  473MPD2    C5 7093   1.897   3.522  13.882 -0.4738 -0.4848 -0.2943
  473MPD2     H 7094   1.737   3.858  13.784  0.1320 -0.4843 -0.4237
  473MPD2    H1 7095   1.937   3.606  14.068 -0.0191 -1.9307 -0.3073
  473MPD2    H2 7096   1.871   3.461  13.685 -0.4860  2.2208 -2.6345
  473MPD2    H3 7097   1.963   3.443  13.915 -1.7138 -2.2543 -2.1042
  473MPD2     N 7098   1.854   3.854  14.031 -0.0360  0.1405  0.3659
  473MPD2    H5 7099   1.897   3.848  14.123 -0.6666  0.5744  0.6845
  473MPD2    N1 7100   1.744   3.691  13.595 -0.1686  0.1492  0.1683
  473MPD2    H7 7101   1.729   3.789  13.573 -0.2495  0.3022  0.9119
  474TMC3    C1 7102   1.836   4.068  14.110 -0.0101  0.0837 -0.6251
  474TMC3    C2 7103   1.756   4.182  14.116 -0.5772 -0.3035 -0.4586
  474TMC3    C3 7104   1.810   4.298  14.161  0.3110  0.1298 -0.0317
  474TMC3    C4 7105   1.972   4.083  14.131 -0.8131 -0.2559 -0.0515
  474TMC3    C5 7106   2.023   4.202  14.172 -0.1850  0.2535  0.1459
  474TMC3    C6 7107   1.946   4.311  14.187  0.3416 -0.1649 -0.9607
  474TMC3     C 7108   1.787   3.975  14.014 -0.0140  0.2284  1.1379
  474TMC3     O 7109   1.685   4.000  13.948  0.7156 -0.4095  0.4592
  474TMC3     H 7110   1.650   4.165  14.100 -0.6982  0.1239 -0.1000
  474TMC3    H1 7111   2.043   4.002  14.121  0.3476  0.7976 -0.3928
  474TMC3    H2 7112   1.981   4.391  14.252 -2.4812  0.4466 -0.1652
  474TMC3    C7 7113   2.155   4.202  14.227 -0.2937 -0.3065  0.8107
  474TMC3    C8 7114   1.745   4.408  14.090  0.0631 -0.5541 -0.1776
  474TMC3    O1 7115   2.238   4.129  14.170 -0.0887 -0.3463 -0.1069
  474TMC3    O2 7116   1.627   4.395  14.061  0.2531  0.1477 -0.3695
  475MPD2     C 7117   4.210   1.700  11.137 -0.0716 -0.2547 -0.3612
  475MPD2    C1 7118   4.254   1.811  11.058 -0.0761  0.2956 -0.4610
  475MPD2    C2 7119   4.209   1.819  10.929  0.3918  0.4223  0.4409
  475MPD2    C3 7120   4.113   1.734  10.877 -1.0071  0.6097  0.3079
  475MPD2    C4 7121   4.073   1.628  10.948 -0.3003  0.7740  0.9330
  475MPD2    C5 7122   4.123   1.616  11.078 -0.4570 -0.0486  0.3162
  475MPD2     H 7123   4.242   1.890  10.854  1.2136  0.0988  0.4962
  475MPD2    H1 7124   4.008   1.550  10.910  0.8607 -0.3153  1.1793
  475MPD2    H2 7125   4.247   1.689  11.238  0.3518 -0.6658 -0.5604
  475MPD2    H3 7126   4.083   1.531  11.132 -1.4703  0.0408 -0.3003
  475MPD2     N 7127   4.063   1.764  10.746 -0.0184  0.6157  0.3764
  475MPD2    H5 7128   4.107   1.847  10.707  2.8358 -0.7839  0.5824
  475MPD2    N1 7129   4.345   1.909  11.094 -0.2302 -0.2292 -0.3857
  475MPD2    H7 7130   4.365   1.981  11.026 -0.4050 -0.3030 -0.5148
  476TMC3    C1 7131   4.507   2.051  11.193 -0.5136 -0.1041  0.1984
  476TMC3    C2 7132   4.585   2.057  11.082  0.0675 -0.1456 -0.2273
  476TMC3    C3 7133   4.675   2.159  11.080 -0.1827 -0.3157 -0.0910
  476TMC3    C4 7134   4.530   2.135  11.305  0.1244 -0.2083 -1.0234
  476TMC3    C5 7135   4.611   2.244  11.291 -0.3109  0.0089 -0.6232
  476TMC3    C6 7136   4.689   2.253  11.178  0.0623  0.0376  0.5891
  476TMC3     C 7137   4.408   1.936  11.211 -0.1572  0.4065  0.0790
  476TMC3     O 7138   4.371   1.896  11.322  0.3324 -0.8350  0.4807
  476TMC3     H 7139   4.561   2.004  10.991  1.4124 -0.1640 -0.5765
  476TMC3    H1 7140   4.474   2.125  11.397 -0.3407  1.3247 -1.1430
  476TMC3    H2 7141   0.031   2.330  11.176  0.7596 -0.6604 -0.2939
  476TMC3    C7 7142   4.622   2.346  11.398 -0.3954 -0.2050 -0.0471
  476TMC3    C8 7143   0.032   2.168  10.964  0.5307 -0.4151 -0.1911
  476TMC3    O1 7144   4.592   2.315  11.514 -0.0804 -0.4716  0.5317
  476TMC3    O2 7145   0.097   2.274  10.942 -0.0750  0.3889 -0.1237
  477MPD2     C 7146   2.709   3.453  11.476 -0.0197  0.2643 -0.2552
  477MPD2    C1 7147   2.642   3.342  11.424  0.0131 -0.1023 -0.3614
  477MPD2    C2 7148   2.616   3.235  11.512 -0.4137 -0.0870  0.9763
  477MPD2    C3 7149   2.651   3.243  11.647 -0.4347  0.0337  1.2729
  477MPD2    C4 7150   2.709   3.354  11.697 -0.0508  0.0828  0.3724
  477MPD2    C5 7151   2.735   3.458  11.610 -0.0508  0.3067 -0.0983
  477MPD2     H 7152   2.559   3.151  11.475 -0.8200  0.1580  1.0486
  477MPD2    H1 7153   2.736   3.360  11.802 -1.7566  0.3934  0.7950
  477MPD2    H2 7154   2.727   3.542  11.417  1.2158 -0.7351 -1.3687
  477MPD2    H3 7155   2.786   3.549  11.639  0.4197 -0.2058  0.6910
  477MPD2     N 7156   2.612   3.137  11.733 -0.4419  0.1599  0.0481
  477MPD2    H5 7157   2.577   3.056  11.682  0.8310 -0.0405 -0.4983
  477MPD2    N1 7158   2.610   3.353  11.291 -0.3540  0.6632  0.2923
  477MPD2    H7 7159   2.609   3.446  11.251  2.0631  0.2888 -0.6803
  478TMC3    C1 7160   2.507   3.329  11.081 -0.3295  0.4879 -0.0505
  478TMC3    C2 7161   2.420   3.436  11.097 -0.1459 -0.0315 -0.1035
  478TMC3    C3 7162   2.317   3.447  11.008  0.2079  0.4586 -0.2030
  478TMC3    C4 7163   2.494   3.239  10.974  0.1826  0.3829  0.3034
  478TMC3    C5 7164   2.393   3.265  10.886  0.0636 -0.2554  0.0959
  478TMC3    C6 7165   2.301   3.367  10.902  0.6193 -0.3322 -0.2091
  478TMC3     C 7166   2.549   3.269  11.209  0.3323 -0.2658 -0.3259
  478TMC3     O 7167   2.543   3.149  11.225 -0.2520  0.4476  0.3831
  478TMC3     H 7168   2.441   3.496  11.185 -1.2428  1.9391 -1.1835
  478TMC3    H1 7169   2.558   3.154  10.958  1.1358  1.5301 -1.9510
  478TMC3    H2 7170   2.207   3.375  10.849  0.4039 -1.0831  0.0589
  478TMC3    C7 7171   2.390   3.190  10.755  0.0406  0.0721 -0.0418
  478TMC3    C8 7172   2.190   3.503  11.055 -0.1134 -0.2918 -0.3384
  478TMC3    O1 7173   2.479   3.107  10.745 -0.1992 -1.2820  0.0362
  478TMC3    O2 7174   2.095   3.509  10.976  0.0413  0.2763 -0.0612
  479MPD2     C 7175   1.493   1.023  15.095 -0.1102 -0.5987 -0.5908
  479MPD2    C1 7176   1.455   0.975  15.215  0.0959  0.5844  0.8481
  479MPD2    C2 7177   1.508   1.040  15.326 -0.0803 -0.0001 -0.1286
  479MPD2    C3 7178   1.567   1.164  15.317 -0.2424 -0.8332 -0.0554
  479MPD2    C4 7179   1.594   1.218  15.192 -0.2645 -0.1896  0.3872
  479MPD2    C5 7180   1.558   1.149  15.080 -0.2265  0.1297  0.6112
  479MPD2     H 7181   1.501   0.995  15.425  0.7469 -0.9942 -0.5228
  479MPD2    H1 7182   1.627   1.319  15.171 -1.1909 -0.7156 -3.6378
  479MPD2    H2 7183   1.464   0.966  15.007 -0.0458 -1.4157 -0.0770
  479MPD2    H3 7184   1.582   1.195  14.985  0.4844 -0.1671  0.6465
  479MPD2     N 7185   1.609   1.243  15.426 -0.1675  0.4800 -0.2555
  479MPD2    H5 7186   1.681   1.307  15.393 -0.3996  0.2133 -1.2824
  479MPD2    N1 7187   1.357   0.871  15.213  0.1129 -0.6039  0.6211
  479MPD2    H7 7188   1.316   0.838  15.126 -0.3224  2.5443 -0.3535
  480TMC3    C1 7189   1.425   0.975  15.776  0.0822  0.0224 -0.1549
  480TMC3    C2 7190   1.298   0.994  15.745  0.1867  0.0188 -0.1573
  480TMC3    C3 7191   1.280   1.082  15.641 -0.7456  0.4594 -0.0018
  480TMC3    C4 7192   1.532   1.037  15.717  0.1131 -0.2399  0.0507
  480TMC3    C5 7193   1.496   1.132  15.620 -0.6076 -0.3370  0.7452
  480TMC3    C6 7194   1.372   1.155  15.577  0.2770 -0.0358 -0.5748
  480TMC3     C 7195   1.442   0.863  15.875  0.2510 -0.8630 -0.0100
  480TMC3     O 7196   1.348   0.783  15.884  0.3909 -0.3569  0.1906
  480TMC3     H 7197   1.221   0.922  15.774  0.0634  0.5416  0.8180
  480TMC3    H1 7198   1.634   1.022  15.750  1.4401  0.7829 -3.5830
  480TMC3    H2 7199   1.366   1.243  15.514 -0.8488  2.5181  3.0435
  480TMC3    C7 7200   1.605   1.220  15.567 -0.5751 -0.2685 -0.0778
  480TMC3    C8 7201   1.153   1.067  15.563  0.0659 -0.4412 -0.7742
  480TMC3    O1 7202   1.691   1.259  15.642  0.6797 -0.2204  0.5512
  480TMC3    O2 7203   1.064   1.000  15.615  0.1960  0.3038 -0.5475
  481MPD2     C 7204   3.226   0.227  14.004  0.3181 -0.1154  0.3879
  481MPD2    C1 7205   3.110   0.275  14.047  0.3509  0.6140 -0.0815
  481MPD2    C2 7206   3.074   0.272  14.185 -0.4238  0.2194 -0.0307
  481MPD2    C3 7207   3.174   0.256  14.282  0.0978 -0.2950 -0.5041
  481MPD2    C4 7208   3.298   0.218  14.237 -0.6330 -0.3484  0.0090
  481MPD2    C5 7209   3.325   0.203  14.098 -0.2662 -1.1769  0.0649
  481MPD2     H 7210   2.974   0.303  14.210 -0.6260 -0.4118 -0.0506
  481MPD2    H1 7211   3.374   0.184  14.307 -1.2000  0.2079  0.9038
  481MPD2    H2 7212   3.244   0.205  13.899  1.5630  2.5791  0.0337
  481MPD2    H3 7213   3.422   0.169  14.064  0.2048  0.5637 -0.3301
  481MPD2     N 7214   3.159   0.269  14.420  0.6731 -0.7156  0.6939
  481MPD2    H5 7215   3.238   0.234  14.473  2.3327 -0.8247 -1.8404
  481MPD2    N1 7216   3.019   0.317  13.953  0.5160  0.0921  0.0449
  481MPD2    H7 7217   3.064   0.334  13.863  1.2594 -1.6503  0.0963
  482TMC3    C1 7218   2.821   0.412  13.848  1.0520 -0.0714 -0.8661
  482TMC3    C2 7219   2.683   0.426  13.841  0.3916  0.4388  0.8341
  482TMC3    C3 7220   2.617   0.452  13.731 -0.1893  0.5496  0.6006
  482TMC3    C4 7221   2.899   0.440  13.747  0.0232  0.7023 -0.3729
  482TMC3    C5 7222   2.831   0.490  13.638 -0.4953 -0.0144  0.3126
  482TMC3    C6 7223   2.688   0.493  13.626 -0.7748 -0.0890  0.3918
  482TMC3     C 7224   2.881   0.343  13.965  0.5717 -0.3812 -0.4785
  482TMC3     O 7225   2.805   0.298  14.041 -0.3215 -0.3219  0.2572
  482TMC3     H 7226   2.633   0.401  13.934 -1.7920 -0.7095 -0.6605
  482TMC3    H1 7227   3.008   0.440  13.747  0.0291 -1.7007  0.8898
  482TMC3    H2 7228   2.644   0.518  13.530 -0.8939  0.7566  0.6630
  482TMC3    C7 7229   2.920   0.539  13.534  0.3012 -0.2555  0.3695
  482TMC3    C8 7230   2.514   0.352  13.710  0.3852 -0.4973 -0.1734
  482TMC3    O1 7231   3.040   0.553  13.562  0.4644 -0.6625  0.4941
  482TMC3    O2 7232   2.489   0.275  13.802 -0.0670  0.3102 -0.1696
  483TMC3    C1 7233   1.625   4.368   1.442 -0.5667 -0.5828 -0.0339
  483TMC3    C2 7234   1.562   4.418   1.334 -0.3624 -0.5304  0.0073
  483TMC3    C3 7235   1.637   4.487   1.247 -0.1193  0.0827  0.3076
  483TMC3    C4 7236   1.753   4.398   1.473 -0.2794  0.2279 -0.2852
  483TMC3    C5 7237   1.828   4.478   1.382 -0.1413 -0.2242 -0.6150
  483TMC3    C6 7238   1.768   4.521   1.266 -0.0744 -0.2848  0.5792
  483TMC3     C 7239   1.590   4.231   1.478  0.1124  0.5374 -0.0637
  483TMC3     O 7240   1.632   4.190   1.587  0.3622  0.2485 -0.4366
  483TMC3     H 7241   1.461   4.394   1.302 -0.7394  2.3740 -0.9489
  483TMC3    H1 7242   1.812   4.339   1.542  0.5905  2.2622  0.6950
  483TMC3    H2 7243   1.816   4.591   1.198 -1.8649 -0.6123 -1.0182
  483TMC3    C7 7244   1.971   4.450   1.355 -0.0354  0.0917  0.1891
  483TMC3    C8 7245   1.602   4.462   1.118  0.7499  0.6534 -0.1917
  483TMC3    O1 7246   2.011   4.456   1.242 -0.1356  0.0154  0.2010
  483TMC3    O2 7247   1.491   4.502   1.082  0.0882  0.6224  0.1430
  484MPD2     C 7248   2.954   2.116  12.638  0.2610 -0.0981  0.3337
  484MPD2    C1 7249   3.023   2.004  12.673 -0.0799  0.0506  0.2577
  484MPD2    C2 7250   3.160   2.014  12.674  0.0022 -0.6420  0.2721
  484MPD2    C3 7251   3.230   2.133  12.646 -0.0482 -0.6060 -0.8548
  484MPD2    C4 7252   3.154   2.247  12.636 -0.2399 -0.5053 -0.6928
  484MPD2    C5 7253   3.015   2.240  12.619 -0.1392  0.3197  0.5022
  484MPD2     H 7254   3.221   1.931  12.708  0.9970 -0.7572 -1.7792
  484MPD2    H1 7255   3.202   2.345  12.639  0.4571 -0.8235 -1.6004
  484MPD2    H2 7256   2.846   2.118  12.626  0.2149 -1.5401  0.4849
  484MPD2    H3 7257   2.952   2.327  12.606  1.2696  1.0592 -1.2873
  484MPD2     N 7258   3.373   2.149  12.640  0.6108  0.1418  0.4455
  484MPD2    H5 7259   3.410   2.235  12.602  1.3577 -0.4467 -0.1637
  484MPD2    N1 7260   2.949   1.893  12.723 -0.5570  0.0570  1.0101
  484MPD2    H7 7261   2.851   1.885  12.697 -0.0089  1.1090 -1.3720
  485TMC3    C1 7262   3.595   2.080  12.593  0.0610 -0.4220 -0.3760
  485TMC3    C2 7263   3.716   2.037  12.656 -0.1720 -0.4388 -0.1544
  485TMC3    C3 7264   3.833   2.084  12.605  0.4377  0.5947  0.0905
  485TMC3    C4 7265   3.602   2.170  12.488  0.3354  0.1919  0.2539
  485TMC3    C5 7266   3.720   2.215  12.446 -0.8011 -0.0698 -0.6969
  485TMC3    C6 7267   3.833   2.173  12.503 -0.0707  0.1877  0.0161
  485TMC3     C 7268   3.470   2.052  12.663 -0.0881  0.5057  0.3614
  485TMC3     O 7269   3.455   1.947  12.732  0.1017  0.4677 -0.1614
  485TMC3     H 7270   3.710   1.963  12.735  0.9167  0.9055  1.1722
  485TMC3    H1 7271   3.510   2.194  12.435  0.9204 -0.1798 -0.9190
  485TMC3    H2 7272   3.926   2.215  12.467 -0.7859 -0.4706 -2.6046
  485TMC3    C7 7273   3.733   2.223  12.306 -0.5508 -0.6471  0.8279
  485TMC3    C8 7274   3.923   1.978  12.565  0.4223 -0.1378 -0.1927
  485TMC3    O1 7275   3.645   2.283  12.246  0.1503  0.5006  0.5506
  485TMC3    O2 7276   3.970   1.990  12.452  0.0527 -0.2780  0.5660
  486MPD2     C 7277   0.588   0.759  12.307 -0.2937  0.1769  0.4393
  486MPD2    C1 7278   0.552   0.782  12.443  0.3824 -0.3331 -0.4435
  486MPD2    C2 7279   0.494   0.901  12.481  0.1769 -0.7202 -0.3073
  486MPD2    C3 7280   0.487   1.008  12.392  0.0012 -0.7999 -0.1160
  486MPD2    C4 7281   0.552   0.993  12.267  0.8596 -0.7939  0.3144
  486MPD2    C5 7282   0.602   0.873  12.225 -0.1813  0.0112 -0.1044
  486MPD2     H 7283   0.469   0.914  12.586 -0.7277 -1.7634 -0.3815
  486MPD2    H1 7284   0.547   1.071  12.192  2.9434 -1.3256 -0.3630
  486MPD2    H2 7285   0.630   0.670  12.261  0.2285 -0.7781  2.7522
  486MPD2    H3 7286   0.642   0.867  12.124  0.5105 -2.2949  0.3088
  486MPD2     N 7287   0.425   1.127  12.427 -0.0776  0.1807  0.3092
  486MPD2    H5 7288   0.405   1.184  12.345 -2.0129  0.3826  0.9112
  486MPD2    N1 7289   0.582   0.676  12.535 -0.6848 -0.0958  0.0863
  486MPD2    H7 7290   0.611   0.588  12.495 -0.2256  0.8662 -1.7260
  487TMC3    C1 7291   0.585   0.546  12.724 -0.5240  0.1446  0.1627
  487TMC3    C2 7292   0.598   0.440  12.631  0.2117  0.2356  0.3556
  487TMC3    C3 7293   0.648   0.321  12.663  0.3521 -0.4580  0.4674
  487TMC3    C4 7294   0.643   0.527  12.846  0.3890  0.0026 -0.6537
  487TMC3    C5 7295   0.704   0.407  12.869  0.2127  0.1834 -0.1178
  487TMC3    C6 7296   0.709   0.300  12.779 -0.4242 -0.2744  0.2922
  487TMC3     C 7297   0.556   0.674  12.667 -0.0241 -0.4895 -0.6179
  487TMC3     O 7298   0.511   0.758  12.744  0.2441  0.0130 -0.4203
  487TMC3     H 7299   0.567   0.442  12.527  1.1849  0.4613  0.0667
  487TMC3    H1 7300   0.637   0.597  12.928 -0.9288 -0.2588 -0.5319
  487TMC3    H2 7301   0.727   0.205  12.828  0.2259  0.3156  1.2025
  487TMC3    C7 7302   0.716   0.366  13.007  0.3565  0.2391 -0.3592
  487TMC3    C8 7303   0.569   0.203  12.624 -0.3379 -0.3122 -0.0477
  487TMC3    O1 7304   0.806   0.292  13.035 -0.2956  0.1137 -0.5466
  487TMC3    O2 7305   0.456   0.226  12.588  0.1170  0.8163 -0.3505
  488MPD2     C 7306   0.552   2.560  15.782  0.6865  0.0164 -0.0295
  488MPD2    C1 7307   0.588   2.666  15.865  0.5067  0.0834 -0.2087
  488MPD2    C2 7308   0.579   2.646  16.003 -0.4268 -0.4247 -0.0470
  488MPD2    C3 7309   0.544   2.524  16.061 -0.0941  0.1300 -0.0517
  488MPD2    C4 7310   0.509   2.420  15.976 -0.2429  0.1811  0.4253
  488MPD2    C5 7311   0.509   2.445  15.834  0.5298 -0.0105 -0.2255
  488MPD2     H 7312   0.612   2.735  16.056  0.3178 -0.2343 -0.8247
  488MPD2    H1 7313   0.488   2.320  16.010  0.7621 -0.0581  0.3251
  488MPD2    H2 7314   0.557   2.557  15.674  0.9740  1.5142 -0.0542
  488MPD2    H3 7315   0.479   2.371  15.761  2.0780  0.3913 -1.2656
  488MPD2     N 7316   0.549   2.506  16.201  0.1202  0.0279 -0.1556
  488MPD2    H5 7317   0.563   2.590  16.255 -1.7619  1.7776 -2.4177
  488MPD2    N1 7318   0.644   2.790  15.820  0.1055 -0.1595 -0.6875
  488MPD2    H7 7319   0.683   2.848  15.894 -1.5315  0.8844 -0.6258
  489TMC3    C1 7320   0.538   2.444  16.426  0.9647  0.1360 -0.3113
  489TMC3    C2 7321   0.601   2.560  16.451  0.4914 -0.6977  0.0029
  489TMC3    C3 7322   0.613   2.603  16.581  0.2035  0.2668  0.6410
  489TMC3    C4 7323   0.473   2.374  16.524 -0.5279  0.5302 -0.6892
  489TMC3    C5 7324   0.471   2.436  16.649 -0.0346  0.3775  0.4128
  489TMC3    C6 7325   0.544   2.544  16.681  0.0135  0.0799  0.1500
  489TMC3     C 7326   0.536   2.397  16.284  0.0077  0.1690 -0.5928
  489TMC3     O 7327   0.493   2.284  16.258 -0.7671  0.5043 -0.5816
  489TMC3     H 7328   0.660   2.623  16.386 -0.9362  0.5484 -0.1029
  489TMC3    H1 7329   0.434   2.273  16.512  0.4065 -0.2139  2.4038
  489TMC3    H2 7330   0.563   2.574  16.783 -0.0612 -2.0595  0.7910
  489TMC3    C7 7331   0.435   2.370  16.770 -0.7414  0.4422  0.5192
  489TMC3    C8 7332   0.702   2.721  16.607 -0.2512  0.1755  0.0665
  489TMC3    O1 7333   0.412   2.444  16.871  0.3847  0.0685  0.3531
  489TMC3    O2 7334   0.778   2.745  16.514  0.1043 -0.4144 -0.2559
  490MPD2     C 7335   0.911   1.872  17.639 -0.4947 -0.4968  0.3402
  490MPD2    C1 7336   1.000   1.775  17.683  0.2353  0.3043  0.5447
  490MPD2    C2 7337   1.123   1.815  17.730  0.3708  0.4841  0.1765
  490MPD2    C3 7338   1.158   1.952   0.010  0.5042  0.5718 -1.1675
  490MPD2    C4 7339   1.067   2.048  17.716 -0.2828  0.3490  0.8381
  490MPD2    C5 7340   0.948   2.007  17.667 -0.3117 -0.1349 -0.1115
  490MPD2     H 7341   1.203   1.743   0.010 -0.7053 -0.0118  3.5529
  490MPD2    H1 7342   1.082   2.155  17.724 -0.1853  0.3554  0.5742
  490MPD2    H2 7343   0.812   1.854  17.598  0.3710  0.4790 -2.1443
  490MPD2    H3 7344   0.876   2.077  17.628 -0.8106 -1.7752 -2.0930
  490MPD2     N 7345   1.294   1.994   0.038 -0.6457 -0.2077 -0.8257
  490MPD2    H5 7346   1.313   2.094   0.043  2.5860 -0.7726 -1.7601
  490MPD2    N1 7347   0.969   1.637  17.691 -0.6738 -0.0360  0.2144
  490MPD2    H7 7348   1.050   1.582  17.719 -1.9582 -1.2478  1.5182
  491TMC3    C1 7349   0.844   1.433  17.706 -0.1524  0.0105 -0.0454
  491TMC3    C2 7350   0.948   1.394   0.049  0.2125  0.0017  0.6371
  491TMC3    C3 7351   0.968   1.258   0.041 -0.3065 -0.2037 -0.0611
  491TMC3    C4 7352   0.772   1.348  17.620 -0.2718  0.1059  0.0190
  491TMC3    C5 7353   0.798   1.218  17.618 -0.2754 -0.0189 -0.0223
  491TMC3    C6 7354   0.904   1.167  17.691 -0.7728 -0.0917  0.0935
  491TMC3     C 7355   0.842   1.581  17.685 -0.0866  0.0787  0.1131
  491TMC3     O 7356   0.744   1.627  17.626  0.6588 -0.0224  0.4755
  491TMC3     H 7357   0.986   1.457   0.128  0.1048 -0.6759  1.2340
  491TMC3    H1 7358   0.687   1.379  17.560  1.4632  0.7974 -2.1137
  491TMC3    H2 7359   0.935   1.063  17.686 -1.3440 -0.1601 -1.9995
  491TMC3    C7 7360   0.778   1.161  17.494 -0.3621  0.2841 -0.1087
  491TMC3    C8 7361   1.063   1.222   0.150 -0.1533  0.0050  0.1780
  491TMC3    O1 7362   0.759   1.223  17.389  0.3744 -0.9190  0.0838
  491TMC3    O2 7363   1.112   1.311   0.215  0.6850 -0.5527  0.3900
  492MPD2     C 7364   2.224   1.971  11.147 -0.5835 -0.6786  0.0242
  492MPD2    C1 7365   2.112   1.905  11.119  0.0983  0.1743 -0.1442
  492MPD2    C2 7366   2.050   1.830  11.222  0.2804 -0.1674 -0.2855
  492MPD2    C3 7367   2.090   1.838  11.350 -0.2465 -0.2076  0.7213
  492MPD2    C4 7368   2.199   1.912  11.378  0.7896 -0.1657  0.2221
  492MPD2    C5 7369   2.269   1.982  11.279 -0.1567  0.7821  0.4086
  492MPD2     H 7370   1.959   1.775  11.201 -1.0634  1.8814  0.1786
  492MPD2    H1 7371   2.246   1.900  11.474  1.2482  1.4224  0.2083
  492MPD2    H2 7372   2.275   2.018  11.064  0.6549 -0.7730  0.7197
  492MPD2    H3 7373   2.367   2.023  11.302 -0.4366  1.8517 -0.3112
  492MPD2     N 7374   2.033   1.767  11.457  0.3055 -0.4558  0.2794
  492MPD2    H5 7375   2.062   1.784  11.553 -0.8468  2.2622  0.1151
  492MPD2    N1 7376   2.064   1.903  10.989 -0.9227  0.1934 -0.2083
  492MPD2    H7 7377   2.124   1.956  10.926  0.3208 -0.3804  0.4868
  493TMC3    C1 7378   1.947   1.893  10.792 -0.3613 -0.2207 -0.2255
  493TMC3    C2 7379   2.068   1.910  10.727 -0.7316 -0.0609 -0.7538
  493TMC3    C3 7380   2.082   1.996  10.618  0.1367  0.7064  0.1029
  493TMC3    C4 7381   1.832   1.942  10.734  0.1319 -0.3593  0.1033
  493TMC3    C5 7382   1.850   2.020  10.619  0.1284  0.4344 -0.0476
  493TMC3    C6 7383   1.971   2.049  10.561 -0.3120  0.2264 -0.0864
  493TMC3     C 7384   1.942   1.871  10.939 -0.2473 -0.3026 -0.1642
  493TMC3     O 7385   1.837   1.839  10.991 -0.4098  0.3201 -0.2422
  493TMC3     H 7386   2.156   1.859  10.765 -0.5353  1.8795  1.3957
  493TMC3    H1 7387   1.734   1.915  10.773  1.0293 -2.5391  0.8515
  493TMC3    H2 7388   1.968   2.103  10.467 -0.2520  1.1039  0.4135
  493TMC3    C7 7389   1.727   2.069  10.571  0.5069  0.1579  0.2019
  493TMC3    C8 7390   2.193   2.080  10.642 -0.2561 -0.1488 -0.5744
  493TMC3    O1 7391   1.727   2.116  10.458  0.2724 -0.0391 -0.0194
  493TMC3    O2 7392   2.243   2.072  10.757  0.3042  0.0097  0.7795
  494TMC3    C1 7393   2.329   3.797   0.378  0.3740 -0.1433  1.0141
  494TMC3    C2 7394   2.366   3.668   0.398 -0.3320 -0.2346 -0.0035
  494TMC3    C3 7395   2.413   3.598   0.295  0.0227 -0.1744  0.7157
  494TMC3    C4 7396   2.367   3.852   0.257  0.6532  0.3695  0.6785
  494TMC3    C5 7397   2.426   3.779   0.159 -0.0463 -0.2932  0.3926
  494TMC3    C6 7398   2.443   3.650   0.178  0.4067 -0.4764 -0.2208
  494TMC3     C 7399   2.335   3.872   0.495  0.0499 -0.3791 -0.1444
  494TMC3     O 7400   2.397   3.826   0.587 -0.4181 -0.3523 -0.4257
  494TMC3     H 7401   2.347   3.625   0.496 -1.9592  1.1454  0.3006
  494TMC3    H1 7402   2.351   3.958   0.241  1.1952  0.1449 -1.3959
  494TMC3    H2 7403   2.481   3.581   0.104  0.9987  0.1822 -0.5245
  494TMC3    C7 7404   2.484   3.834   0.041 -0.5369 -0.0422 -0.5394
  494TMC3    C8 7405   2.412   3.454   0.310  0.8740 -0.1570 -0.1686
  494TMC3    O1 7406   2.506   3.761  17.681  0.4504  0.4349 -0.4315
  494TMC3    O2 7407   2.483   3.396   0.229  0.8138  0.5331 -0.5194
  495TMC3    C1 7408   1.340   1.302  14.652  1.0488 -0.0838 -0.6478
  495TMC3    C2 7409   1.237   1.328  14.565 -0.0396  0.0083  0.6214
  495TMC3    C3 7410   1.112   1.343  14.612 -0.1327 -0.2032  0.1947
  495TMC3    C4 7411   1.325   1.307  14.787 -0.3548 -0.2002  0.3524
  495TMC3    C5 7412   1.203   1.339  14.836 -0.7935  0.2579  0.5227
  495TMC3    C6 7413   1.098   1.354  14.751  0.5515  0.6390 -0.2801
  495TMC3     C 7414   1.435   1.206  14.593  0.2462  0.0736  0.1105
  495TMC3     O 7415   1.392   1.132  14.508 -0.7568 -0.0025 -0.1935
  495TMC3     H 7416   1.253   1.305  14.460 -3.7632  2.1903 -0.4206
  495TMC3    H1 7417   1.406   1.273  14.851 -0.1144 -0.6229 -0.1778
  495TMC3    H2 7418   0.998   1.368  14.789  0.0940 -0.3832 -1.1410
  495TMC3    C7 7419   1.175   1.308  14.976 -0.2348  0.1946 -0.0081
  495TMC3    C8 7420   1.031   1.240  14.552 -0.6624 -0.2088 -0.4958
  495TMC3    O1 7421   1.249   1.350  15.061 -0.1509 -0.0276 -0.1781
  495TMC3    O2 7422   1.001   1.158  14.639 -0.3436  0.1870  0.0181
  496MPD2     C 7423   3.289   0.470  14.980 -0.0218  0.4862  0.0537
  496MPD2    C1 7424   3.352   0.406  15.088  0.1655 -0.0123  0.6124
  496MPD2    C2 7425   3.270   0.376  15.192 -0.4598 -0.0502  0.1549
  496MPD2    C3 7426   3.132   0.409  15.188  0.1846  0.4952  0.3002
  496MPD2    C4 7427   3.079   0.477  15.088 -0.8222 -0.2500 -1.4750
  496MPD2    C5 7428   3.157   0.510  14.977 -0.0316  0.4713 -0.3037
  496MPD2     H 7429   3.315   0.324  15.277 -0.4718 -0.0932  0.1352
  496MPD2    H1 7430   2.974   0.505  15.091 -0.8329 -0.4224  0.0450
  496MPD2    H2 7431   3.350   0.499  14.896  1.4036  0.3438  1.0394
  496MPD2    H3 7432   3.122   0.560  14.888 -1.2733  2.8733  1.5361
  496MPD2     N 7433   3.056   0.400  15.307 -0.5191 -0.1861  0.4784
  496MPD2    H5 7434   2.973   0.458  15.301 -1.3284 -1.3258  0.5342
  496MPD2    N1 7435   3.487   0.359  15.090  0.3017 -0.1591  0.1961
  496MPD2    H7 7436   3.511   0.287  15.158  1.0093 -1.4453 -1.4067
  497TMC3    C1 7437   2.984   0.369  15.526  0.3364 -0.1332 -0.8351
  497TMC3    C2 7438   2.864   0.417  15.486  0.4308 -0.0456 -0.4069
  497TMC3    C3 7439   2.777   0.451  15.584  0.2492 -0.1105  0.9856
  497TMC3    C4 7440   3.022   0.372  15.657  0.0797  0.9749 -0.1824
  497TMC3    C5 7441   2.928   0.409  15.748  0.3184 -0.4682  0.3310
  497TMC3    C6 7442   2.800   0.441  15.717  0.2144  0.1924  0.2416
  497TMC3     C 7443   3.092   0.346  15.430 -0.7941 -0.0530 -0.5060
  497TMC3     O 7444   3.194   0.288  15.470 -0.4964  0.8481 -0.4266
  497TMC3     H 7445   2.827   0.424  15.384 -1.0549  0.2153  0.1459
  497TMC3    H1 7446   3.123   0.345  15.685  0.2480  0.7577 -0.9927
  497TMC3    H2 7447   2.731   0.478  15.792 -0.9859  0.9193 -1.2055
  497TMC3    C7 7448   2.969   0.448  15.882 -0.0468  0.0433  0.2866
  497TMC3    C8 7449   2.686   0.556  15.559  0.5110 -0.8734  0.6891
  497TMC3    O1 7450   2.888   0.437  15.973  0.1673 -0.2650  0.0855
  497TMC3    O2 7451   2.740   0.664  15.552 -0.0805  0.2302  0.7063
  498MPD2     C 7452   3.572   1.590   9.471 -0.1984  0.4287 -0.3051
  498MPD2    C1 7453   3.703   1.537   9.466 -0.3123  0.2881  0.0676
  498MPD2    C2 7454   3.718   1.404   9.481  0.3814 -0.6533  0.2920
  498MPD2    C3 7455   3.607   1.323   9.500  0.4712 -0.7113 -0.5055
  498MPD2    C4 7456   3.481   1.372   9.483  0.1070  0.2857  0.0956
  498MPD2    C5 7457   3.464   1.507   9.466  0.1933  0.1219 -0.1225
  498MPD2     H 7458   3.820   1.366   9.482  0.8363  0.6035  2.0856
  498MPD2    H1 7459   3.396   1.308   9.506  2.5925 -2.9279  0.4518
  498MPD2    H2 7460   3.549   1.696   9.474  1.8957  0.8749  0.3443
  498MPD2    H3 7461   3.363   1.548   9.463 -0.0934 -0.5624  0.1482
  498MPD2     N 7462   3.639   1.186   9.526 -0.2261 -0.2735  0.0597
  498MPD2    H5 7463   3.732   1.155   9.550 -0.0331  0.7741  0.7112
  498MPD2    N1 7464   3.822   1.611   9.474  0.2437 -0.4579  0.5287
  498MPD2    H7 7465   3.909   1.562   9.495 -1.3550 -1.5814  4.4093
  499TMC3    C1 7466   3.961   1.806   9.491 -0.2229 -0.1096 -0.8882
  499TMC3    C2 7467   4.056   1.726   9.561  0.0832  0.2557 -0.3750
  499TMC3    C3 7468   4.160   1.785   9.620  0.3095  0.3976  0.4392
  499TMC3    C4 7469   3.978   1.945   9.481 -0.3834 -0.5954  0.4249
  499TMC3    C5 7470   4.086   1.998   9.550 -1.1472  0.1236  0.1951
  499TMC3    C6 7471   4.169   1.921   9.620 -0.7866  0.5603 -0.5100
  499TMC3     C 7472   3.827   1.753   9.468 -0.6095 -0.5048 -0.2693
  499TMC3     O 7473   3.725   1.826   9.474  0.3648 -0.3563 -0.3071
  499TMC3     H 7474   4.048   1.618   9.569  0.5959  0.2163 -0.3880
  499TMC3    H1 7475   3.906   2.008   9.429 -0.6543 -1.7088 -0.5496
  499TMC3    H2 7476   4.247   1.973   9.674  0.2471 -2.2035  0.6113
  499TMC3    C7 7477   4.113   2.140   9.548  0.2128 -0.1818 -0.5125
  499TMC3    C8 7478   4.261   1.709   9.687 -0.0311  0.2462  0.0436
  499TMC3    O1 7479   4.221   2.171   9.595  0.2114 -0.0591  0.4799
  499TMC3    O2 7480   4.267   1.590   9.660 -0.5290 -0.2605  0.5450
  500MPD2     C 7481   1.049   2.873  10.809  0.5877 -0.3210  0.8406
  500MPD2    C1 7482   1.095   2.881  10.676  0.1845 -0.1320 -0.7341
  500MPD2    C2 7483   0.995   2.902  10.580 -0.4942  0.1979 -0.1783
  500MPD2    C3 7484   0.859   2.897  10.616 -0.2367  0.0885  0.6816
  500MPD2    C4 7485   0.830   2.903  10.749  0.5322  0.6987 -0.0705
  500MPD2    C5 7486   0.922   2.888  10.848  0.0841  0.5128  0.2698
  500MPD2     H 7487   1.030   2.892  10.477 -2.2079 -0.6239 -0.6807
  500MPD2    H1 7488   0.729   2.918  10.784  0.0068  1.9438 -2.1222
  500MPD2    H2 7489   1.124   2.853  10.885 -0.2580 -2.5716  1.0880
  500MPD2    H3 7490   0.903   2.883  10.954  0.2059  0.2435  0.2794
  500MPD2     N 7491   0.752   2.888  10.524 -0.0343  0.0970 -0.3062
  500MPD2    H5 7492   0.655   2.885  10.552  0.3027  0.0181  0.8359
  500MPD2    N1 7493   1.234   2.870  10.634 -0.0673  0.7354 -0.0532
  500MPD2    H7 7494   1.245   2.867  10.533  0.1924  0.8405 -0.0259
  501TMC3    C1 7495   1.467   2.828  10.657 -0.1236  0.5974 -0.5081
  501TMC3    C2 7496   1.488   2.787  10.528 -0.5321 -0.0779 -0.2263
  501TMC3    C3 7497   1.612   2.746  10.481  0.1084  0.4052  0.8973
  501TMC3    C4 7498   1.575   2.841  10.734 -0.7715 -0.2463 -0.3889
  501TMC3    C5 7499   1.696   2.807  10.687  0.0621 -0.0898  0.0916
  501TMC3    C6 7500   1.713   2.746  10.565 -0.5309  0.2712  0.1623
  501TMC3     C 7501   1.341   2.863  10.720  0.1454 -0.1337 -0.3468
  501TMC3     O 7502   1.340   2.870  10.842 -0.0773 -0.3149 -0.0595
  501TMC3     H 7503   1.396   2.788  10.470  0.2348 -0.5411 -1.4668
  501TMC3    H1 7504   1.567   2.880  10.834 -1.8835 -0.4756 -0.3929
  501TMC3    H2 7505   1.813   2.714  10.538 -1.5331 -2.2721 -0.5408
  501TMC3    C7 7506   1.806   2.797  10.784  0.7945  0.1821  0.5553
  501TMC3    C8 7507   1.648   2.784  10.350  0.9491 -0.4450  0.1493
  501TMC3    O1 7508   1.778   2.771  10.900 -0.4549  1.0098 -0.3960
  501TMC3    O2 7509   1.762   2.828  10.338  0.2421 -0.0449 -0.0765
  502TMC3    C1 7510   0.931   1.962  15.033  0.0720  0.6260 -0.5428
  502TMC3    C2 7511   0.883   2.082  14.988 -0.3487  0.5174 -0.3727
  502TMC3    C3 7512   0.752   2.083  14.941 -0.0827 -0.4527  1.4756
  502TMC3    C4 7513   0.852   1.853  15.032 -0.4932  0.4679  0.2241
  502TMC3    C5 7514   0.730   1.850  14.980  0.3247 -0.6836  0.2064
  502TMC3    C6 7515   0.676   1.966  14.924  0.1189 -0.8089 -0.2051
  502TMC3     C 7516   1.021   1.961  15.149  0.2049 -0.8999 -0.1722
  502TMC3     O 7517   1.112   2.043  15.145  0.0241 -0.2492 -0.0189
  502TMC3     H 7518   0.948   2.169  14.985  0.6394 -0.2188 -0.5298
  502TMC3    H1 7519   0.886   1.756  15.068  0.3736  0.4406 -0.6546
  502TMC3    H2 7520   0.585   1.955  14.866  1.0326  0.2799 -1.8584
  502TMC3    C7 7521   0.656   1.729  14.996 -0.2255  0.8929  0.6882
  502TMC3    C8 7522   0.705   2.197  14.867 -0.3333 -0.2685 -1.5909
  502TMC3    O1 7523   0.717   1.624  14.989  0.2956  0.4989 -0.3228
  502TMC3    O2 7524   0.772   2.296  14.863  0.6487 -0.2647 -0.6060
  503MPD2     C 7525   2.238   2.495  17.193 -0.1875 -0.4826 -0.1221
  503MPD2    C1 7526   2.360   2.563  17.197  0.0610 -0.9139 -0.3012
  503MPD2    C2 7527   2.445   2.542  17.302  0.3974 -0.2343 -1.0466
  503MPD2    C3 7528   2.422   2.450  17.401  0.3315  0.0432  0.2594
  503MPD2    C4 7529   2.305   2.374  17.396  0.5639  0.4002  0.3452
  503MPD2    C5 7530   2.214   2.403  17.293 -0.0320  0.2937  0.6518
  503MPD2     H 7531   2.534   2.603  17.307 -0.4582  0.9121  0.2102
  503MPD2    H1 7532   2.286   2.297  17.469  0.1110 -2.4373 -2.7751
  503MPD2    H2 7533   2.152   2.515  17.131  1.7962  0.6687 -2.5126
  503MPD2    H3 7534   2.124   2.343  17.304 -1.6757  1.8553 -4.7121
  503MPD2     N 7535   2.509   2.415  17.508 -0.2206  0.3681  0.0628
  503MPD2    H5 7536   2.474   2.357  17.583  1.3794  0.4794  0.8992
  503MPD2    N1 7537   2.404   2.651  17.102 -0.5522 -0.2670  0.2212
  503MPD2    H7 7538   2.488   2.705  17.122  0.1860 -2.1319  2.0989
  504TMC3    C1 7539   2.706   2.423  17.639  0.3579  0.1046 -0.9985
  504TMC3    C2 7540   2.651   2.330  17.722  0.0235  0.0569  0.4953
  504TMC3    C3 7541   2.738   2.253   0.061  0.1991 -0.8591  0.4784
  504TMC3    C4 7542   2.840   2.437  17.617  0.2302 -0.0171  0.0013
  504TMC3    C5 7543   2.922   2.351  17.679 -1.0058 -0.2089  0.6658
  504TMC3    C6 7544   2.868   2.254   0.023 -0.0975  0.9416  0.6984
  504TMC3     C 7545   2.635   2.464  17.520 -0.1180  0.0988  0.2570
  504TMC3     O 7546   2.694   2.526  17.431  0.0119  0.1830  0.2072
  504TMC3     H 7547   2.544   2.320  17.735 -0.0805  1.4462  0.7007
  504TMC3    H1 7548   2.885   2.517  17.558 -0.1738  0.2316  0.0293
  504TMC3    H2 7549   2.925   2.162   0.022 -0.3676  0.7718  1.2167
  504TMC3    C7 7550   3.039   2.321  17.596  0.9477  0.7193  0.9813
  504TMC3    C8 7551   2.678   2.129   0.115 -0.4991  0.5237  0.0828
  504TMC3    O1 7552   3.032   2.368  17.485 -0.6276  0.8233  0.0603
  504TMC3    O2 7553   2.558   2.118   0.099 -0.5444  0.7047  0.3102
  505MPD2     C 7554   3.264   0.576  11.067  0.4902  0.2142 -0.1445
  505MPD2    C1 7555   3.279   0.618  10.941  0.0329 -0.7283 -0.6665
  505MPD2    C2 7556   3.383   0.705  10.907  0.1353 -0.7246  0.1180
  505MPD2    C3 7557   3.458   0.772  11.002  0.3311 -0.4898 -0.0718
  505MPD2    C4 7558   3.416   0.750  11.132 -0.0633 -0.1366  0.2281
  505MPD2    C5 7559   3.326   0.648  11.159 -0.5584  0.0393  0.4902
  505MPD2     H 7560   3.414   0.711  10.803  0.8056  0.7214  0.3973
  505MPD2    H1 7561   3.453   0.810  11.214  2.6750 -0.4056 -0.8192
  505MPD2    H2 7562   3.198   0.496  11.099  1.3056 -0.9663 -1.4448
  505MPD2    H3 7563   3.303   0.620  11.261 -0.8268 -1.0861  0.1148
  505MPD2     N 7564   3.567   0.858  10.976  0.2022 -0.8345  0.6299
  505MPD2    H5 7565   3.632   0.883  11.050 -1.1610 -1.5853  2.1017
  505MPD2    N1 7566   3.233   0.530  10.845  0.3535 -0.0604 -0.2646
  505MPD2    H7 7567   3.182   0.450  10.882  0.4654  0.4973  1.0880
  506TMC3    C1 7568   3.210   0.418  10.640 -0.3928  0.1081 -0.0518
  506TMC3    C2 7569   3.183   0.422  10.509 -0.4311  0.4749  0.2824
  506TMC3    C3 7570   3.194   0.302  10.443  0.1918 -0.2542 -0.5535
  506TMC3    C4 7571   3.243   0.299  10.701  0.6053 -0.2336 -0.2806
  506TMC3    C5 7572   3.252   0.185  10.628 -0.6808  0.0715  0.7253
  506TMC3    C6 7573   3.222   0.184  10.500 -0.2214 -0.4324  0.2632
  506TMC3     C 7574   3.254   0.535  10.709  0.1533  1.1961 -0.0406
  506TMC3     O 7575   3.299   0.618  10.629  0.3801 -0.2033 -0.4468
  506TMC3     H 7576   3.168   0.507  10.444  1.9026 -1.6695 -3.0582
  506TMC3    H1 7577   3.262   0.297  10.808  0.3518 -1.1081 -0.2488
  506TMC3    H2 7578   3.258   0.107  10.433 -1.4213  1.0004 -2.0528
  506TMC3    C7 7579   3.380   0.118  10.652  0.8897  0.8633  0.0347
  506TMC3    C8 7580   3.182   0.288  10.295  0.3455 -0.1031 -0.1163
  506TMC3    O1 7581   3.372   0.013  10.713  0.0652 -0.1442 -0.2329
  506TMC3    O2 7582   3.136   0.185  10.249  0.0912 -0.5057 -0.4946
  507TMC3    C1 7583   4.105   2.090  14.805 -0.1060 -0.3284  0.5588
  507TMC3    C2 7584   4.053   1.999  14.889 -0.0401  0.8417  0.3710
  507TMC3    C3 7585   3.974   1.900  14.846 -0.5566  0.0084 -0.1212
  507TMC3    C4 7586   4.065   2.090  14.671  0.0242  0.4909 -0.1671
  507TMC3    C5 7587   3.999   1.980  14.622  0.4006  0.1188 -0.0010
  507TMC3    C6 7588   3.954   1.885  14.710  0.1198  1.4218 -0.3804
  507TMC3     C 7589   4.155   2.216  14.863  0.1272  0.0768  0.2644
  507TMC3     O 7590   4.142   2.223  14.987  0.4374  0.2151 -0.3338
  507TMC3     H 7591   4.087   1.993  14.992  0.7321  0.0839  0.0812
  507TMC3    H1 7592   4.075   2.181  14.613 -0.8455  2.0634  2.1689
  507TMC3    H2 7593   3.909   1.794  14.673 -0.6132  1.3031  0.8054
  507TMC3    C7 7594   3.898   2.005  14.516  0.3171  1.0932 -0.7330
  507TMC3    C8 7595   3.846   1.893  14.916 -0.4226 -0.1072 -0.1709
  507TMC3    O1 7596   3.789   1.959  14.544 -0.0236  0.8820 -0.4444
  507TMC3    O2 7597   3.841   1.908  15.037 -0.5770 -0.4188 -0.6859
  508MPD2     C 7598   0.432   4.092  16.040 -0.7124 -0.2151 -0.0124
  508MPD2    C1 7599   0.391   4.163  16.152 -0.3919  0.8556  0.5405
  508MPD2    C2 7600   0.334   4.291  16.135  0.2106  0.6798 -0.8299
  508MPD2    C3 7601   0.315   4.345  16.005  0.0809 -0.5795  0.3112
  508MPD2    C4 7602   0.358   4.268  15.895 -0.7189  0.1477  0.3445
  508MPD2    C5 7603   0.411   4.144  15.918  0.4414 -0.1749 -0.7048
  508MPD2     H 7604   0.308   4.346  16.224  1.6925  0.3665 -0.2065
  508MPD2    H1 7605   0.359   4.309  15.795 -0.8567  0.4270  0.4585
  508MPD2    H2 7606   0.475   3.993  16.050  0.6110  0.5665  1.8882
  508MPD2    H3 7607   0.439   4.083  15.833 -1.2638  0.3014 -1.6034
  508MPD2     N 7608   0.250   4.471  15.986  0.9513 -0.2073 -0.1023
  508MPD2    H5 7609   0.232   4.522  16.072  0.8094  0.7898 -0.7204
  508MPD2    N1 7610   0.408   4.106  16.281  0.1860 -0.4737  0.8370
  508MPD2    H7 7611   0.462   4.020  16.286  0.0628 -0.7898 -2.8412
  509TMC3    C1 7612   0.137   0.122  15.738 -0.1690 -0.0991  0.3857
  509TMC3    C2 7613   0.227   0.203  15.808 -0.2709 -0.3615  0.6882
  509TMC3    C3 7614   0.295   0.147  15.915  0.1610 -0.0255 -0.0876
  509TMC3    C4 7615   0.122   4.731  15.775  0.5077  0.0393 -0.3351
  509TMC3    C5 7616   0.189   4.674  15.875 -0.2473 -0.3389 -0.2930
  509TMC3    C6 7617   0.280   0.016  15.956  0.1988  0.0970 -0.6594
  509TMC3     C 7618   0.013   0.183  15.704  0.4044 -0.7300  0.9519
  509TMC3     O 7619   4.656   0.187  15.783  0.3194 -0.4432  0.1144
  509TMC3     H 7620   0.215   0.308  15.784 -2.2074 -0.8522 -0.5112
  509TMC3    H1 7621   0.049   4.670  15.724  1.5654 -1.5751  0.0994
  509TMC3    H2 7622   0.334   4.700  16.035  0.2071  0.4042 -0.4714
  509TMC3    C7 7623   0.206   4.529  15.869 -0.2605  0.0799 -0.1070
  509TMC3    C8 7624   0.396   0.218  15.989  0.5071  0.1937 -0.7085
  509TMC3    O1 7625   0.193   4.484  15.758  0.1651  0.5596 -0.0628
  509TMC3    O2 7626   0.466   0.153  16.068 -0.3491  0.1329 -0.1772
  510MPD2     C 7627   2.594   1.634  14.520 -0.0265 -0.1289 -1.2940
  510MPD2    C1 7628   2.651   1.558  14.621  0.4191  0.5594  0.0141
  510MPD2    C2 7629   2.786   1.542  14.613 -0.1363  0.1916  0.4388
  510MPD2    C3 7630   2.870   1.605  14.523 -0.0545  0.2405 -0.7694
  510MPD2    C4 7631   2.812   1.695  14.429  0.3725  0.3211 -0.1459
  510MPD2    C5 7632   2.675   1.704  14.435  0.7767 -0.3636  0.2837
  510MPD2     H 7633   2.836   1.469  14.675  0.7493  0.9420  0.6059
  510MPD2    H1 7634   2.862   1.736  14.343 -1.5952 -1.2602 -2.0425
  510MPD2    H2 7635   2.490   1.665  14.520  0.1870  0.5758 -0.4395
  510MPD2    H3 7636   2.636   1.770  14.358  2.2038 -1.0003 -0.9912
  510MPD2     N 7637   3.006   1.564  14.518  0.3949  0.4631 -0.2045
  510MPD2    H5 7638   3.028   1.491  14.585  0.3544  0.5539 -0.0936
  510MPD2    N1 7639   2.567   1.494  14.720  0.0891  0.6901 -0.0206
  510MPD2    H7 7640   2.473   1.529  14.738  0.1848  1.9877 -2.1618
  511TMC3    C1 7641   2.511   1.340  14.889  0.4773  0.5417  0.4148
  511TMC3    C2 7642   2.421   1.420  14.960 -0.4582 -0.7247  0.1359
  511TMC3    C3 7643   2.328   1.353  15.037  0.1110  0.4403  0.4108
  511TMC3    C4 7644   2.519   1.206  14.915 -0.0564  0.3644 -0.9209
  511TMC3    C5 7645   2.433   1.145  15.004  0.3599  0.2698  0.7913
  511TMC3    C6 7646   2.331   1.218  15.063  0.0831 -0.1319 -1.3117
  511TMC3     C 7647   2.607   1.384  14.792 -0.1296  0.6166  0.3817
  511TMC3     O 7648   2.691   1.308  14.749  0.5911  0.1742  0.0609
  511TMC3     H 7649   2.415   1.528  14.947 -1.8182 -1.0385 -1.8699
  511TMC3    H1 7650   2.597   1.143  14.874 -0.8060 -1.9389  1.2045
  511TMC3    H2 7651   2.244   1.185  15.117 -0.2504  0.0763 -1.7204
  511TMC3    C7 7652   2.425   1.003  14.980  0.7080  0.0390 -0.1290
  511TMC3    C8 7653   2.272   1.430  15.146 -0.0868 -0.4962 -0.0672
  511TMC3    O1 7654   2.481   0.954  14.883  0.0126  0.6506 -0.0841
  511TMC3    O2 7655   2.246   1.548  15.129  0.3475  0.6206 -0.0933
  512TMC3    C1 7656   1.702   0.800  13.086  0.4033 -0.6029  0.1601
  512TMC3    C2 7657   1.816   0.775  13.155 -0.2785  0.1631 -0.2256
  512TMC3    C3 7658   1.855   0.644  13.160 -0.6796 -0.3571 -0.4862
  512TMC3    C4 7659   1.625   0.706  13.020 -0.0548  0.8457  0.2212
  512TMC3    C5 7660   1.662   0.576  13.048 -0.1707 -0.0311  0.0204
  512TMC3    C6 7661   1.778   0.543  13.111 -0.3433  0.0889  0.4155
  512TMC3     C 7662   1.666   0.937  13.083 -0.5426 -0.0777  0.2788
  512TMC3     O 7663   1.709   1.011  13.170  0.0794 -0.4842 -0.3809
  512TMC3     H 7664   1.880   0.856  13.185  1.5902 -2.3790  2.6278
  512TMC3    H1 7665   1.528   0.731  12.979 -1.1285  2.0575  3.5072
  512TMC3    H2 7666   1.811   0.442  13.130  0.7083  0.6700  1.7437
  512TMC3    C7 7667   1.580   0.477  12.995  0.3320  0.6210  0.5750
  512TMC3    C8 7668   1.978   0.607  13.220 -0.3950 -0.6165 -0.1379
  512TMC3    O1 7669   1.462   0.503  12.985 -0.9331 -0.0106 -0.0389
  512TMC3    O2 7670   2.038   0.512  13.175  0.2719 -0.1035  0.3836
  513MPD2     C 7671   3.792   0.407  13.277  1.4238  0.1404  0.7065
  513MPD2    C1 7672   3.869   0.496  13.200 -0.1166  0.5723  0.5872
  513MPD2    C2 7673   3.889   0.626  13.251 -0.3992  0.3331  0.8490
  513MPD2    C3 7674   3.836   0.661  13.372 -0.1899  0.1039 -0.4767
  513MPD2    C4 7675   3.786   0.560  13.455  0.0482  0.5992  0.1790
  513MPD2    C5 7676   3.760   0.437  13.408 -0.1498 -0.3208  0.0954
  513MPD2     H 7677   3.949   0.701  13.201  1.3803  0.1206  2.6711
  513MPD2    H1 7678   3.753   0.576  13.557 -0.1714  1.3138 -0.0030
  513MPD2    H2 7679   3.793   0.302  13.249 -0.6053  0.2209  0.3636
  513MPD2    H3 7680   3.711   0.364  13.472  1.6131 -2.4185 -0.9530
  513MPD2     N 7681   3.863   0.790  13.409 -0.5347 -0.8392 -0.2535
  513MPD2    H5 7682   3.922   0.847  13.349  0.3640 -1.1063  0.3649
  513MPD2    N1 7683   3.915   0.456  13.073  0.3198  0.6798  0.0543
  513MPD2    H7 7684   3.890   0.360  13.048  0.5075 -0.2893  3.6191
  514TMC3    C1 7685   3.985   0.482  12.849  0.1396 -0.4179 -0.1421
  514TMC3    C2 7686   3.906   0.378  12.825 -0.2764  0.5995 -0.0984
  514TMC3    C3 7687   3.825   0.387  12.713 -0.1991 -0.5484 -0.1008
  514TMC3    C4 7688   3.999   0.589  12.763  0.3346  0.4025 -0.2708
  514TMC3    C5 7689   3.908   0.601  12.663  0.8547 -0.7178 -0.5685
  514TMC3    C6 7690   3.825   0.496  12.642 -0.2418  0.5558  0.1884
  514TMC3     C 7691   3.965   0.542  12.979  0.0286 -0.2673 -0.5169
  514TMC3     O 7692   3.993   0.659  12.985  0.0918 -0.2972 -0.0518
  514TMC3     H 7693   3.886   0.284  12.875 -0.4939  0.2575 -0.8271
  514TMC3    H1 7694   4.079   0.661  12.773 -2.2332  3.2215  0.0257
  514TMC3    H2 7695   3.750   0.507  12.564 -1.3350 -0.6016  1.0927
  514TMC3    C7 7696   3.847   0.729  12.650 -0.7071 -0.5987 -0.3739
  514TMC3    C8 7697   3.771   0.268  12.651  0.9518 -0.0052  0.7424
  514TMC3    O1 7698   3.759   0.745  12.565  0.0042  0.0246  0.3523
  514TMC3    O2 7699   3.730   0.182  12.726 -0.7616 -0.2335  0.6110
  515MPD2     C 7700   1.312   2.641  14.255 -0.2927  0.4574  0.2591
  515MPD2    C1 7701   1.319   2.523  14.325 -0.0005  0.1018  0.9379
  515MPD2    C2 7702   1.329   2.534  14.463 -0.3561  0.0414 -0.2130
  515MPD2    C3 7703   1.318   2.659  14.531  0.9042  0.7010 -0.3043
  515MPD2    C4 7704   1.306   2.768  14.455 -0.1217 -0.2324 -0.2780
  515MPD2    C5 7705   1.303   2.762  14.321 -0.8518  0.4348  0.4289
  515MPD2     H 7706   1.352   2.446  14.521  1.5515  1.0200  0.5227
  515MPD2    H1 7707   1.289   2.863  14.503 -1.4580 -1.4207  1.5771
  515MPD2    H2 7708   1.312   2.641  14.146 -2.4574 -2.8299  0.2838
  515MPD2    H3 7709   1.293   2.853  14.263 -0.8608 -0.5801 -1.1669
  515MPD2     N 7710   1.329   2.679  14.673 -1.3404 -0.3393 -0.7270
  515MPD2    H5 7711   1.311   2.772  14.709 -0.6645 -0.2899 -0.5109
  515MPD2    N1 7712   1.317   2.397  14.261  0.1731  0.2434 -0.1234
  515MPD2    H7 7713   1.343   2.317  14.318 -2.0643 -1.5601 -1.6667
  516TMC3    C1 7714   1.238   2.228  14.107 -0.2142 -0.1665  0.4423
  516TMC3    C2 7715   1.163   2.197  14.002 -0.3595  0.6855  0.1454
  516TMC3    C3 7716   1.073   2.096  14.017  0.2031  0.4101  0.5619
  516TMC3    C4 7717   1.240   2.150  14.219 -0.5162 -0.3663 -0.3445
  516TMC3    C5 7718   1.158   2.039  14.228 -1.8037  0.3100  0.1354
  516TMC3    C6 7719   1.078   2.008  14.124 -0.0830  0.4914  0.0309
  516TMC3     C 7720   1.262   2.372  14.132  0.3545  0.0951 -0.6873
  516TMC3     O 7721   1.211   2.445  14.054  0.3260 -0.2233 -0.4824
  516TMC3     H 7722   1.166   2.255  13.910  0.6071 -1.4269 -1.1491
  516TMC3    H1 7723   1.296   2.180  14.308  0.9345  0.2046 -1.4455
  516TMC3    H2 7724   1.006   1.928  14.138  1.1164 -0.5988 -0.0290
  516TMC3    C7 7725   1.155   1.963  14.356  0.6233 -0.7750  0.3298
  516TMC3    C8 7726   0.930   2.141  14.007 -0.5668 -0.0143 -0.3278
  516TMC3    O1 7727   1.246   1.995  14.438 -0.1958 -0.2738  0.0548
  516TMC3    O2 7728   0.839   2.066  14.043 -0.1780 -0.0648 -0.2781
  517MPD2     C 7729   0.812   4.054  17.574 -0.6456  0.7727 -0.7783
  517MPD2    C1 7730   0.934   3.994  17.590 -0.7930  0.2486 -0.6615
  517MPD2    C2 7731   1.030   4.052  17.672 -0.0845 -0.0775 -0.6714
  517MPD2    C3 7732   1.002   4.167   0.015  0.2733 -1.3057  1.0009
  517MPD2    C4 7733   0.874   4.223  17.730 -0.2487 -0.1944 -0.2191
  517MPD2    C5 7734   0.783   4.167  17.646 -0.5128  0.5685  0.5307
  517MPD2     H 7735   1.128   4.005  17.671 -1.4760 -3.0833  0.6531
  517MPD2    H1 7736   0.835   4.307   0.052 -2.1595 -0.4669 -1.1217
  517MPD2    H2 7737   0.737   4.013  17.508 -0.4748  1.0415 -1.1427
  517MPD2    H3 7738   0.679   4.196  17.647 -1.5426 -3.1380  1.5289
  517MPD2     N 7739   1.089   4.219   0.107 -0.4706 -0.1569  0.6988
  517MPD2    H5 7740   1.065   4.300   0.164  0.2282  0.8134 -0.3921
  517MPD2    N1 7741   0.965   3.877  17.521 -0.4516  0.0062  0.0769
  517MPD2    H7 7742   1.059   3.840  17.529 -0.1228  0.8473  0.0661
  518TMC3    C1 7743   0.968   3.672  17.418 -0.4395  0.2558 -0.0816
  518TMC3    C2 7744   0.894   3.562  17.372 -0.4231 -0.0512 -0.1742
  518TMC3    C3 7745   0.953   3.456  17.310 -0.0320 -0.3156 -1.0023
  518TMC3    C4 7746   1.100   3.678  17.392 -0.2211 -0.1321 -0.0210
  518TMC3    C5 7747   1.160   3.574  17.317 -0.2004 -0.4605  0.2393
  518TMC3    C6 7748   1.090   3.454  17.287  0.2267 -0.6364 -0.3794
  518TMC3     C 7749   0.886   3.794  17.448  0.5790 -0.8531  0.8746
  518TMC3     O 7750   0.766   3.804  17.423 -0.0240 -0.1763 -0.0361
  518TMC3     H 7751   0.791   3.570  17.403 -0.3769  1.7022 -0.4529
  518TMC3    H1 7752   1.156   3.770  17.399  0.6649 -0.7173  0.6345
  518TMC3    H2 7753   1.131   3.373  17.228 -1.5671 -0.1265 -2.3064
  518TMC3    C7 7754   1.288   3.593  17.249  0.7711 -1.0851 -0.0338
  518TMC3    C8 7755   0.906   3.325  17.317 -0.6798 -0.4367  0.2555
  518TMC3    O1 7756   1.334   3.704  17.240 -0.4916 -0.2908 -0.0605
  518TMC3    O2 7757   0.990   3.241  17.335  0.2099 -0.2729 -0.0469
  519MPD2     C 7758   2.816   2.176  14.602  0.0653  0.4274  0.4331
  519MPD2    C1 7759   2.813   2.220  14.478 -0.1255 -0.1891  0.4314
  519MPD2    C2 7760   2.868   2.134  14.377 -0.2997 -0.4246  0.2688
  519MPD2    C3 7761   2.931   2.020  14.407 -0.7635 -0.3404 -0.3460
  519MPD2    C4 7762   2.937   1.977  14.533  0.8141 -0.0383 -0.4486
  519MPD2    C5 7763   2.878   2.057  14.627  0.6506 -0.0119  0.0776
  519MPD2     H 7764   2.881   2.185  14.282  1.2322 -1.8069 -0.2835
  519MPD2    H1 7765   2.975   1.881  14.567 -1.1527 -0.9516 -0.8913
  519MPD2    H2 7766   2.775   2.234  14.683 -1.3178  0.9282 -0.6238
  519MPD2    H3 7767   2.882   2.028  14.731 -1.6501 -0.6624 -0.0131
  519MPD2     N 7768   2.992   1.942  14.308  0.9544  0.3066  0.1493
  519MPD2    H5 7769   3.056   1.870  14.340 -0.5469 -0.7998  0.6407
  519MPD2    N1 7770   2.750   2.349  14.455  0.3727 -0.1489  0.2798
  519MPD2    H7 7771   2.699   2.388  14.534  3.4746  2.3303  1.1065
  520TMC3    C1 7772   3.082   1.873  14.100 -0.0071  0.1811 -0.1047
  520TMC3    C2 7773   3.064   1.878  13.964 -0.0405 -0.2967 -0.4240
  520TMC3    C3 7774   3.174   1.910  13.881 -0.1476  0.1888 -0.3687
  520TMC3    C4 7775   3.208   1.884  14.151  0.0314  0.0690  0.2760
  520TMC3    C5 7776   3.312   1.904  14.063  0.2341  1.0021 -0.2348
  520TMC3    C6 7777   3.297   1.920  13.928 -1.0006 -0.7159 -0.3320
  520TMC3     C 7778   2.978   1.949  14.170 -0.1931  0.0506 -0.0236
  520TMC3     O 7779   2.909   2.020  14.096 -0.0232 -0.0479 -0.4889
  520TMC3     H 7780   2.963   1.862  13.930  0.0729  0.2152 -1.0067
  520TMC3    H1 7781   3.229   1.868  14.256  1.5911 -0.4439 -0.1121
  520TMC3    H2 7782   3.383   1.924  13.862 -0.0618  0.6752  0.9458
  520TMC3    C7 7783   3.440   1.865  14.105 -0.1816 -0.2348  0.5183
  520TMC3    C8 7784   3.159   1.966  13.748  0.4895  1.0331  0.0891
  520TMC3    O1 7785   3.444   1.814  14.218 -0.1096 -0.5083  0.1290
  520TMC3    O2 7786   3.250   1.978  13.667  0.1410 -0.1854  0.1827
  521MPD2     C 7787   3.684   0.217  17.311  0.3230  0.1555 -0.6007
  521MPD2    C1 7788   3.685   0.178  17.181  0.2321  0.1523  0.6314
  521MPD2    C2 7789   3.804   0.148  17.120 -0.2862  0.1641 -0.0797
  521MPD2    C3 7790   3.920   0.138  17.191 -0.1533 -0.4424  0.4842
  521MPD2    C4 7791   3.914   0.160  17.322 -0.3264  0.5945  0.4918
  521MPD2    C5 7792   3.798   0.201  17.378 -0.3493  0.2649 -0.3651
  521MPD2     H 7793   3.812   0.131  17.013 -2.6392  1.6244 -0.4778
  521MPD2    H1 7794   3.998   0.166  17.390  1.9609  0.4975 -2.3437
  521MPD2    H2 7795   3.598   0.260  17.360 -0.2186  0.7870 -2.0881
  521MPD2    H3 7796   3.807   0.230  17.482 -1.2799 -0.0076 -0.2101
  521MPD2     N 7797   4.037   0.098  17.119  0.7303 -0.4972  0.6370
  521MPD2    H5 7798   4.025   0.072  17.021  0.5558 -1.1458  0.8357
  521MPD2    N1 7799   3.559   0.193  17.116  0.0697 -0.5101 -0.1836
  521MPD2    H7 7800   3.484   0.220  17.179 -0.5983 -3.0821  0.1323
  522TMC3    C1 7801   4.258   0.031  17.087  0.0015  0.1305  0.1817
  522TMC3    C2 7802   4.358   4.680  17.140 -0.1710 -0.2302  0.0333
  522TMC3    C3 7803   4.475   4.655  17.073 -0.3356 -0.1845  0.5344
  522TMC3    C4 7804   4.276   0.075  16.961 -0.0124 -0.4912 -0.4182
  522TMC3    C5 7805   4.397   0.047  16.896 -0.9873 -0.2637 -0.1161
  522TMC3    C6 7806   4.499   4.712  16.948  0.2426  0.2806  0.5553
  522TMC3     C 7807   4.162   0.082  17.178  0.2486 -0.5492 -0.4044
  522TMC3     O 7808   4.181   0.054  17.295 -0.4293 -0.2784  0.1652
  522TMC3     H 7809   4.350   4.630  17.236 -0.4564 -3.1798 -1.5343
  522TMC3    H1 7810   4.216   0.163  16.940  0.7406  0.3841  1.0588
  522TMC3    H2 7811   4.591   4.697  16.893 -0.6213  1.8744 -1.2933
  522TMC3    C7 7812   4.392   0.050  16.750 -0.0389  0.2975  0.6098
  522TMC3    C8 7813   4.592   4.606  17.151  0.2357 -0.1527 -0.0794
  522TMC3    O1 7814   4.472   4.705  16.702 -0.7426 -0.0786 -0.3106
  522TMC3    O2 7815   4.593   4.609  17.275 -0.5906 -0.0430 -0.6192
  523MPD2     C 7816   1.623   4.649   9.908 -0.0859 -0.9169  0.3265
  523MPD2    C1 7817   1.526   4.578   9.850 -0.2429 -0.3309  0.0763
  523MPD2    C2 7818   1.427   4.633   9.771 -0.1687  0.6812 -0.5483
  523MPD2    C3 7819   1.431   0.036   9.741 -0.1939 -0.0445  0.6999
  523MPD2    C4 7820   1.533   0.110   9.796 -0.5704 -0.1585 -0.0158
  523MPD2    C5 7821   1.622   0.052   9.881 -0.2062  0.0909 -0.6758
  523MPD2     H 7822   1.351   4.569   9.727  0.4606 -0.4805  0.0561
  523MPD2    H1 7823   1.546   0.214   9.768 -0.0995 -0.2793 -0.2534
  523MPD2    H2 7824   1.701   4.604   9.967 -0.4205 -1.6919  0.1836
  523MPD2    H3 7825   1.701   0.112   9.923 -0.4829 -1.0698  1.5120
  523MPD2     N 7826   1.335   0.102   9.657 -0.0728  0.3477  0.0348
  523MPD2    H5 7827   1.354   0.202   9.651  0.7857  0.1347 -0.6515
  523MPD2    N1 7828   1.511   4.443   9.900 -0.2033  0.0220  0.2669
  523MPD2    H7 7829   1.578   4.408   9.968 -0.3255 -2.7194 -1.0390
  524TMC3    C1 7830   1.163   0.143   9.509  0.0909  0.8544  0.0988
  524TMC3    C2 7831   1.117   0.116   9.379  0.4706  0.2300  0.3569
  524TMC3    C3 7832   1.058   0.220   9.315  0.4020 -0.5760 -0.2216
  524TMC3    C4 7833   1.131   0.257   9.581 -0.4597 -0.7739  0.0763
  524TMC3    C5 7834   1.055   0.347   9.520  0.8172 -0.6598  0.3383
  524TMC3    C6 7835   1.035   0.341   9.384  0.1555 -0.0017  0.3294
  524TMC3     C 7836   1.251   0.048   9.563 -0.8662  0.2738  0.1342
  524TMC3     O 7837   1.216   4.670   9.546 -0.5376 -0.4926 -0.1363
  524TMC3     H 7838   1.159   0.032   9.325 -0.0931 -1.7522  3.0002
  524TMC3    H1 7839   1.162   0.276   9.683 -2.2923  1.3056  0.2447
  524TMC3    H2 7840   1.007   0.429   9.327 -1.1573 -0.4541  0.2788
  524TMC3    C7 7841   1.031   0.470   9.597 -0.0183  0.3551  0.2726
  524TMC3    C8 7842   1.035   0.209   9.172 -0.2463 -0.5170  0.1085
  524TMC3    O1 7843   1.110   0.497   9.689  0.3411 -0.3740  0.2227
  524TMC3    O2 7844   1.090   0.116   9.116  0.0115 -0.5282  0.4295
  525MPD2     C 7845   4.280   1.711  14.423 -0.1584 -0.8204 -0.6657
  525MPD2    C1 7846   4.409   1.660  14.433  0.2771  0.4232  0.4973
  525MPD2    C2 7847   4.513   1.751  14.399  0.6090 -0.4996 -0.2220
  525MPD2    C3 7848   4.493   1.880  14.359 -0.9356  0.4109  0.4210
  525MPD2    C4 7849   4.363   1.935  14.349 -0.0759  0.0286  0.7115
  525MPD2    C5 7850   4.260   1.850  14.380  0.5905 -0.4683 -0.8606
  525MPD2     H 7851   4.613   1.710  14.395  0.4072 -0.8847 -1.5187
  525MPD2    H1 7852   4.344   2.038  14.319 -1.4068 -0.7346 -1.1112
  525MPD2    H2 7853   4.189   1.654  14.440 -0.5558 -0.3171 -1.0587
  525MPD2    H3 7854   4.158   1.884  14.369  0.5112  0.2084  1.8864
  525MPD2     N 7855   4.601   1.969  14.326 -0.0196  0.0647 -0.7997
  525MPD2    H5 7856   4.580   2.062  14.290  0.5503  0.3676 -0.3475
  525MPD2    N1 7857   4.451   1.528  14.469  0.5172 -0.0605  0.2461
  525MPD2    H7 7858   4.551   1.509  14.466  0.6806  0.9336 -0.4748
  526TMC3    C1 7859   4.426   1.320  14.568  0.0117  0.0448 -0.4217
  526TMC3    C2 7860   4.392   1.303  14.695  0.5663  0.6542 -0.0941
  526TMC3    C3 7861   4.459   1.214  14.765 -0.3169 -0.2150  0.4962
  526TMC3    C4 7862   4.552   1.283  14.522  0.6656  0.2681  0.0124
  526TMC3    C5 7863   4.632   1.212  14.608  0.0171  0.1100 -0.4480
  526TMC3    C6 7864   4.584   1.172  14.730  0.7025 -0.0406 -0.4120
  526TMC3     C 7865   4.359   1.434  14.514 -0.1611  0.5469  0.2879
  526TMC3     O 7866   4.238   1.449  14.539 -0.3590  0.0262  0.3288
  526TMC3     H 7867   4.302   1.345  14.737  1.7344  1.9022  1.1851
  526TMC3    H1 7868   4.578   1.309  14.420 -1.3540 -0.7067 -0.7550
  526TMC3    H2 7869   4.659   1.124  14.792  1.1209  0.2300 -0.7060
  526TMC3    C7 7870   0.025   1.145  14.570 -0.1032  0.4205 -0.2826
  526TMC3    C8 7871   4.413   1.194  14.901  0.2024 -0.2570  0.3834
  526TMC3    O1 7872   0.079   1.077  14.654 -0.6867 -0.0322 -0.1980
  526TMC3    O2 7873   4.493   1.159  14.983  0.5784 -0.6518 -0.5205
  527MPD2     C 7874   2.913   0.081   1.186 -0.3314 -0.1423  0.4602
  527MPD2    C1 7875   2.820   4.726   1.140 -0.7341  0.1424 -0.4905
  527MPD2    C2 7876   2.853   4.635   1.039  0.4469  0.0978  0.4137
  527MPD2    C3 7877   2.984   4.616   0.998 -0.0412  0.4540 -0.6040
  527MPD2    C4 7878   3.078   4.694   1.064 -0.3927 -0.4228  0.2282
  527MPD2    C5 7879   3.045   0.058   1.150 -0.1873 -0.3836 -0.0509
  527MPD2     H 7880   2.784   4.565   0.994 -0.0284  1.1694 -0.5269
  527MPD2    H1 7881   3.174   4.702   1.015 -0.6554 -0.3804 -0.2805
  527MPD2    H2 7882   2.886   0.165   1.248  4.7715  0.7425  1.4442
  527MPD2    H3 7883   3.126   0.125   1.178  0.1147 -1.2595  1.1828
  527MPD2     N 7884   3.013   4.506   0.910  0.1461  0.2151  0.5073
  527MPD2    H5 7885   2.941   4.442   0.882  0.8423 -0.2370 -0.2418
  527MPD2    N1 7886   2.685   0.004   1.167 -0.0618  0.2040 -0.0891
  527MPD2    H7 7887   2.625   4.695   1.098  2.3736 -0.5107 -1.7307
  528TMC3    C1 7888   2.487   0.067   1.282  0.3963  0.3146 -0.5193
  528TMC3    C2 7889   2.418   0.073   1.166  0.3128  0.4062 -0.1304
  528TMC3    C3 7890   2.282   0.052   1.167 -0.4221  0.1243 -0.5277
  528TMC3    C4 7891   2.428   0.047   1.397  0.4516  0.0163  0.4219
  528TMC3    C5 7892   2.295   0.020   1.396 -0.4115 -0.6917 -0.1342
  528TMC3    C6 7893   2.227   0.012   1.286  0.8912 -0.6635  0.6828
  528TMC3     C 7894   2.636   0.078   1.280 -0.6662  0.6498 -0.6123
  528TMC3     O 7895   2.697   0.107   1.384 -0.2438 -0.1523 -0.4176
  528TMC3     H 7896   2.468   0.083   1.070  0.3744 -2.2133 -0.3765
  528TMC3    H1 7897   2.483   0.059   1.490 -1.9533 -0.9719  1.9770
  528TMC3    H2 7898   2.130   4.698   1.292 -0.1178  1.1540 -0.8315
  528TMC3    C7 7899   2.238   4.710   1.520 -0.1941 -0.0959  0.0602
  528TMC3    C8 7900   2.228   4.730   1.043 -0.1981 -0.0120 -0.2048
  528TMC3    O1 7901   2.114   4.718   1.525 -0.3852  0.0768  0.2374
  528TMC3    O2 7902   2.305   4.685   0.959 -0.2095  0.5430 -0.2238
  529MPD2     C 7903   3.914   2.401   0.877  0.1505 -0.3594 -0.8201
  529MPD2    C1 7904   4.015   2.498   0.873  0.4174 -0.8733 -0.2141
  529MPD2    C2 7905   3.988   2.618   0.812  0.3877 -0.3402  0.3116
  529MPD2    C3 7906   3.870   2.639   0.741 -0.2216  0.6777  0.4567
  529MPD2    C4 7907   3.775   2.542   0.734  0.7859  0.7519  0.4907
  529MPD2    C5 7908   3.792   2.435   0.821  0.6344 -0.3997 -0.0677
  529MPD2     H 7909   4.066   2.691   0.828 -0.4233  0.6679 -0.3401
  529MPD2    H1 7910   3.684   2.555   0.677  0.0480  0.6607  1.6415
  529MPD2    H2 7911   3.924   2.298   0.909 -3.1104 -1.4448 -3.2618
  529MPD2    H3 7912   3.714   2.361   0.824  2.4535 -2.2979  0.1103
  529MPD2     N 7913   3.853   2.752   0.664 -0.2569  0.1831 -0.2697
  529MPD2    H5 7914   3.760   2.772   0.628  0.4974  3.2468 -0.5113
  529MPD2    N1 7915   4.140   2.478   0.919  0.0827 -0.4636 -0.0275
  529MPD2    H7 7916   4.210   2.544   0.886 -0.5684  0.6889  0.9138
  530TMC3    C1 7917   4.310   2.388   1.066 -0.1628 -1.2135  0.8076
  530TMC3    C2 7918   4.403   2.465   0.999  0.6581  0.1238  0.1967
  530TMC3    C3 7919   4.529   2.469   1.041 -0.1077 -0.3290  0.1872
  530TMC3    C4 7920   4.335   2.316   1.180 -0.1773 -0.0080  0.4803
  530TMC3    C5 7921   4.464   2.334   1.221 -0.4363  0.0068 -0.2014
  530TMC3    C6 7922   4.561   2.398   1.155  0.0021 -0.0961  0.1684
  530TMC3     C 7923   4.174   2.379   1.009 -0.2624 -0.4361  0.1682
  530TMC3     O 7924   4.102   2.290   1.053  0.6986 -0.1526 -0.0353
  530TMC3     H 7925   4.390   2.508   0.900  2.0299 -1.1739 -0.5436
  530TMC3    H1 7926   4.260   2.259   1.233  0.1403 -1.7539 -0.9239
  530TMC3    H2 7927   4.660   2.409   1.199  0.2568 -1.1799 -0.1392
  530TMC3    C7 7928   4.508   2.268   1.339 -0.1852  0.3815  0.7019
  530TMC3    C8 7929   4.627   2.552   0.972  0.0035 -0.2617 -0.8127
  530TMC3    O1 7930   4.625   2.279   1.367  0.6130  0.1354 -0.8294
  530TMC3    O2 7931   4.584   2.644   0.901  0.2199  0.2577  0.3440
  531MPD2     C 7932   3.676   1.103  12.944 -0.1568 -0.0963 -0.4045
  531MPD2    C1 7933   3.789   1.043  13.007 -0.7573 -0.6848 -0.3683
  531MPD2    C2 7934   3.858   0.939  12.946  0.7157 -0.0581 -0.3159
  531MPD2    C3 7935   3.812   0.903  12.821  0.5029 -0.3790 -0.0982
  531MPD2    C4 7936   3.714   0.976  12.755 -0.2944  0.4970  0.2772
  531MPD2    C5 7937   3.639   1.068  12.819 -0.2685  0.2306  0.0577
  531MPD2     H 7938   3.936   0.881  12.993  2.3774  2.5538  0.1163
  531MPD2    H1 7939   3.693   0.958  12.650  1.1696  1.8765 -0.2560
  531MPD2    H2 7940   3.626   1.185  12.995  0.2023 -0.7815  1.0644
  531MPD2    H3 7941   3.561   1.117  12.763  0.2903 -1.7259 -2.4658
  531MPD2     N 7942   3.874   0.796  12.769 -0.3756 -0.3450  0.0678
  531MPD2    H5 7943   3.928   0.739  12.833  0.2614  0.8932  0.6488
  531MPD2    N1 7944   3.830   1.099  13.132  0.3877 -0.3362 -0.3051
  531MPD2    H7 7945   3.781   1.179  13.171  0.6771 -0.3999  0.1941
  532TMC3    C1 7946   3.935   1.104  13.339  0.5045  0.1340 -0.0457
  532TMC3    C2 7947   3.843   1.028  13.415 -0.4700  0.7080  0.1446
  532TMC3    C3 7948   3.864   0.971  13.538 -0.0852  0.2889 -0.4438
  532TMC3    C4 7949   4.057   1.111  13.392 -0.5731  1.0243  0.3909
  532TMC3    C5 7950   4.081   1.046  13.513 -0.3530 -0.2709 -0.3302
  532TMC3    C6 7951   3.988   0.977  13.590  0.7454 -0.4016  0.1649
  532TMC3     C 7952   3.935   1.050  13.203  0.0237  0.0111  0.6156
  532TMC3     O 7953   4.005   0.949  13.192 -0.5116 -0.7309  0.2233
  532TMC3     H 7954   3.748   1.021  13.364 -0.1198 -0.2490 -0.3780
  532TMC3    H1 7955   4.137   1.156  13.336  3.1877 -3.8189  1.9041
  532TMC3    H2 7956   4.010   0.935  13.688  1.1822  0.9270  0.6343
  532TMC3    C7 7957   4.215   0.986  13.517  0.3589  0.6686  0.2281
  532TMC3    C8 7958   3.823   0.839  13.526  0.3520  0.5971  0.1620
  532TMC3    O1 7959   4.302   1.037  13.452 -0.2648 -0.6456 -0.3124
  532TMC3    O2 7960   3.744   0.795  13.607 -0.1419  0.3849 -0.3627
  533TMC3    C1 7961   0.082   2.042  14.348  0.4037  0.0137  0.6205
  533TMC3    C2 7962   0.209   2.010  14.310 -0.5595 -0.6763  0.0270
  533TMC3    C3 7963   0.304   2.037  14.401 -0.6511  0.1898  0.5100
  533TMC3    C4 7964   0.054   2.115  14.464 -0.4844 -0.1639  0.5582
  533TMC3    C5 7965   0.161   2.148  14.542  0.3375  0.3155  0.6476
  533TMC3    C6 7966   0.282   2.101  14.513 -0.1835 -0.1877 -0.5043
  533TMC3     C 7967   0.000   1.930  14.317  0.2348  0.1982 -0.4705
  533TMC3     O 7968   0.066   1.828  14.323  0.2048  0.3908  0.3584
  533TMC3     H 7969   0.237   1.952  14.223 -1.7959  1.1918 -1.6394
  533TMC3    H1 7970   4.689   2.123  14.506 -1.3760 -0.5024 -1.4515
  533TMC3    H2 7971   0.366   2.134  14.575 -0.3800 -0.9843  0.1822
  533TMC3    C7 7972   0.123   2.152  14.679  0.8980  0.9946 -0.2677
  533TMC3    C8 7973   0.434   2.064  14.348  0.1104  0.5386  0.9263
  533TMC3    O1 7974   0.182   2.082  14.760 -0.0323 -0.7483 -0.3539
  533TMC3    O2 7975   0.435   2.113  14.233 -0.0492  0.0847  0.4260
  534MPD2     C 7976   2.708   3.029   0.875 -0.1027  0.6900 -0.5260
  534MPD2    C1 7977   2.701   3.163   0.892  0.0835 -0.1054 -0.0999
  534MPD2    C2 7978   2.576   3.221   0.900  0.1057  0.1424  0.9406
  534MPD2    C3 7979   2.457   3.149   0.882  0.2341  0.0892  0.1305
  534MPD2    C4 7980   2.467   3.008   0.862 -0.8160 -0.8230  0.3874
  534MPD2    C5 7981   2.591   2.957   0.851  0.1810 -0.4821 -0.0938
  534MPD2     H 7982   2.565   3.328   0.915  0.7924  0.4037 -0.4287
  534MPD2    H1 7983   2.379   2.945   0.874 -1.4348 -0.5562 -2.8981
  534MPD2    H2 7984   2.802   2.975   0.872 -0.2542  0.3085  1.7167
  534MPD2    H3 7985   2.603   2.851   0.834 -0.3970 -0.7290  1.0637
  534MPD2     N 7986   2.323   3.202   0.893  0.3556 -0.3674  0.1077
  534MPD2    H5 7987   2.258   3.125   0.897  1.0231 -0.8405  1.7593
  534MPD2    N1 7988   2.819   3.240   0.908  0.3694  0.5624 -0.7756
  534MPD2    H7 7989   2.809   3.340   0.924 -2.1900  0.0963  0.5856
  535TMC3    C1 7990   2.143   3.348   0.871  0.2077  1.1399 -0.3942
  535TMC3    C2 7991   2.068   3.253   0.935 -0.3524  0.4898 -0.1471
  535TMC3    C3 7992   1.931   3.266   0.937  0.2421 -0.6221 -0.5373
  535TMC3    C4 7993   2.082   3.451   0.795  1.2422 -0.4815  0.8281
  535TMC3    C5 7994   1.945   3.453   0.791  0.3201  0.0372  0.4222
  535TMC3    C6 7995   1.874   3.372   0.876  0.2893 -0.1695  0.0480
  535TMC3     C 7996   2.284   3.332   0.862 -0.0376 -0.1507  0.3609
  535TMC3     O 7997   2.357   3.421   0.816 -0.5828  0.1346  0.2635
  535TMC3     H 7998   2.109   3.170   0.992  0.3205 -0.3365 -1.8357
  535TMC3    H1 7999   2.133   3.510   0.719 -0.3367  1.9613  1.6366
  535TMC3    H2 8000   1.770   3.400   0.888  0.3250 -0.5795  1.2897
  535TMC3    C7 8001   1.897   3.441   0.650 -0.5385 -0.6871  0.7598
  535TMC3    C8 8002   1.841   3.147   0.946  0.9373 -0.3363 -0.9116
  535TMC3    O1 8003   1.844   3.331   0.632 -0.3410 -0.2471 -0.1230
  535TMC3    O2 8004   1.729   3.165   0.902  0.8238 -0.3046  0.0303
  536MPD2     C 8005   0.922   1.435  16.544 -0.0046  0.6129 -0.1860
  536MPD2    C1 8006   0.797   1.378  16.512 -0.8635  0.1035  0.6822
  536MPD2    C2 8007   0.765   1.390  16.375 -0.1868 -0.6391 -0.0832
  536MPD2    C3 8008   0.844   1.462  16.276  0.2197 -0.1032  0.8512
  536MPD2    C4 8009   0.963   1.518  16.317  0.2446  0.2587 -0.0228
  536MPD2    C5 8010   1.001   1.508  16.450 -0.5255 -0.6806  0.3375
  536MPD2     H 8011   0.678   1.337  16.339 -0.0205 -0.3997 -0.8365
  536MPD2    H1 8012   1.023   1.575  16.248  0.3650 -1.5681 -1.4299
  536MPD2    H2 8013   0.958   1.429  16.646 -0.0576  0.1061 -0.1965
  536MPD2    H3 8014   1.093   1.558  16.477 -1.7184  0.5455  2.1003
  536MPD2     N 8015   0.799   1.483  16.140 -0.7668  0.1029  0.4601
  536MPD2    H5 8016   0.853   1.551  16.087 -0.9662  0.5384  0.8233
  536MPD2    N1 8017   0.713   1.306  16.598 -0.0082  0.1290 -0.5356
  536MPD2    H7 8018   0.751   1.302  16.692  1.7363  0.2581 -1.2369
  537TMC3    C1 8019   0.559   1.156  16.679  0.1456 -0.4144  0.1960
  537TMC3    C2 8020   0.654   1.120  16.774 -0.2948 -0.1584 -0.2141
  537TMC3    C3 8021   0.608   1.020  16.858 -0.1122 -0.7915  0.3126
  537TMC3    C4 8022   0.442   1.092  16.654  0.1087  0.4695 -0.2003
  537TMC3    C5 8023   0.406   0.996  16.747 -0.2204  0.5376  0.5125
  537TMC3    C6 8024   0.492   0.959  16.844  0.0826 -0.4245  0.2540
  537TMC3     C 8025   0.592   1.255  16.577  0.0912  0.0739 -0.7272
  537TMC3     O 8026   0.517   1.260  16.486  0.0182 -0.2470  0.5474
  537TMC3     H 8027   0.756   1.158  16.782 -0.2180 -0.4136  0.0324
  537TMC3    H1 8028   0.370   1.117  16.576  0.8944  0.4439 -0.9386
  537TMC3    H2 8029   0.452   0.899  16.925  2.8965 -1.4934  0.8438
  537TMC3    C7 8030   0.291   0.914  16.726  0.1827 -0.2730  0.0293
  537TMC3    C8 8031   0.686   1.009  16.978 -0.1292  0.7098 -0.1615
  537TMC3    O1 8032   0.181   0.966  16.698  0.1902 -0.8124 -0.3000
  537TMC3    O2 8033   0.769   1.100  17.005  0.3327  0.0991  0.5760
  538TMC3    C1 8034   2.221   4.125  10.510  0.4130 -0.1928  0.0244
  538TMC3    C2 8035   2.331   4.084  10.446 -0.0916  0.4789  0.0161
  538TMC3    C3 8036   2.344   4.153  10.329 -0.1169  0.5102  0.5281
  538TMC3    C4 8037   2.126   4.218  10.465 -0.0002 -0.0560  0.9660
  538TMC3    C5 8038   2.150   4.272  10.345  0.3205 -0.0719  0.9650
  538TMC3    C6 8039   2.265   4.248  10.269 -0.2441 -0.8973 -0.0969
  538TMC3     C 8040   2.225   4.115  10.652  0.0494 -0.4879 -0.6134
  538TMC3     O 8041   2.123   4.153  10.711 -0.4829 -0.1744  0.2320
  538TMC3     H 8042   2.399   4.006  10.479 -1.4697 -1.4724 -1.7255
  538TMC3    H1 8043   2.037   4.239  10.524 -0.3709  0.2468  0.2927
  538TMC3    H2 8044   2.288   4.302  10.177 -2.2253 -1.1690 -0.7510
  538TMC3    C7 8045   2.046   4.359  10.304  0.2325 -0.2597  0.0280
  538TMC3    C8 8046   2.469   4.122  10.263 -0.8158 -0.3840 -0.3597
  538TMC3    O1 8047   1.930   4.326  10.302  0.3150 -0.4218 -0.1084
  538TMC3    O2 8048   2.482   4.001  10.242  0.2429 -0.2841 -0.5161
  539MPD2     C 8049   2.139   3.629  11.397 -0.4323 -0.7692  0.1982
  539MPD2    C1 8050   2.106   3.605  11.268 -1.7325  0.3976 -0.6268
  539MPD2    C2 8051   1.993   3.670  11.213 -0.5211  0.4574  0.1838
  539MPD2    C3 8052   1.915   3.760  11.286 -0.2555 -0.2168 -0.1733
  539MPD2    C4 8053   1.954   3.779  11.415  0.5556  0.2721 -0.7274
  539MPD2    C5 8054   2.063   3.715  11.466 -0.4319 -0.3414  0.0933
  539MPD2     H 8055   1.975   3.670  11.106  0.5390  0.1332  0.0031
  539MPD2    H1 8056   1.900   3.856  11.470 -0.3835 -1.4644  0.7556
  539MPD2    H2 8057   2.229   3.586  11.439 -1.0939  1.9713  4.3818
  539MPD2    H3 8058   2.104   3.741  11.564 -0.3173 -0.1918  0.0052
  539MPD2     N 8059   1.805   3.833  11.246 -0.3164  0.1136 -0.0156
  539MPD2    H5 8060   1.775   3.903  11.313  3.1426  1.0846  0.5078
  539MPD2    N1 8061   2.204   3.541  11.188 -0.1924 -0.1051 -0.6913
  539MPD2    H7 8062   2.293   3.509  11.226 -0.7541 -0.3169  0.4649
  540TMC3    C1 8063   1.628   3.897  11.114 -0.2078 -0.6008  0.1866
  540TMC3    C2 8064   1.552   3.879  10.995 -0.5008 -0.1270  0.4473
  540TMC3    C3 8065   1.434   3.952  10.987  0.3904 -0.1536 -0.0316
  540TMC3    C4 8066   1.606   4.004  11.199  0.3330  0.5448  0.0110
  540TMC3    C5 8067   1.499   4.085  11.172 -0.1285  0.0439  1.0939
  540TMC3    C6 8068   1.406   4.056  11.069  0.1191  0.4546 -0.5515
  540TMC3     C 8069   1.734   3.806  11.135 -0.0691  0.2496 -0.1984
  540TMC3     O 8070   1.750   3.725  11.049  0.3980  0.1277  0.0255
  540TMC3     H 8071   1.567   3.796  10.926  0.6369  0.4282  0.0267
  540TMC3    H1 8072   1.679   4.024  11.276 -1.4109  0.4019  1.7017
  540TMC3    H2 8073   1.322   4.120  11.047 -1.1298 -0.8812  0.3355
  540TMC3    C7 8074   1.450   4.175  11.268 -0.0705 -0.5180 -0.5492
  540TMC3    C8 8075   1.367   3.947  10.861 -0.0701 -0.5121 -0.1705
  540TMC3    O1 8076   1.331   4.203  11.257 -0.0762 -0.1463  0.6332
  540TMC3    O2 8077   1.257   3.999  10.856  0.1742  0.2106 -0.0090
  541MPD2     C 8078   0.081   0.410  13.276  0.0819 -0.2740  0.2776
  541MPD2    C1 8079   0.109   0.345  13.160 -0.2263  0.2106  0.0610
  541MPD2    C2 8080   0.127   0.428  13.052  0.1765 -0.3055 -0.8227
  541MPD2    C3 8081   0.125   0.565  13.062 -0.0457 -0.1262 -0.4138
  541MPD2    C4 8082   0.100   0.616  13.186  0.5077 -0.1521 -0.6304
  541MPD2    C5 8083   0.081   0.539  13.296 -0.1230  0.3729 -0.3745
  541MPD2     H 8084   0.128   0.379  12.955 -1.0204  0.2317 -1.0973
  541MPD2    H1 8085   0.098   0.724  13.200 -2.8235 -0.4949  1.6304
  541MPD2    H2 8086   0.054   0.347  13.360 -0.7372  1.0642  1.0114
  541MPD2    H3 8087   0.044   0.577  13.391  0.7928  1.0084 -0.2696
  541MPD2     N 8088   0.133   0.659  12.957 -0.3943 -0.5601  0.5956
  541MPD2    H5 8089   0.118   0.756  12.982 -2.4007 -0.3255 -1.5452
  541MPD2    N1 8090   0.108   0.206  13.158 -0.2248 -0.1906  0.2673
  541MPD2    H7 8091   0.086   0.160  13.246 -2.7593  1.0552  0.2925
  542TMC3    C1 8092   0.149   0.739  12.732  0.0667  0.2899 -0.1500
  542TMC3    C2 8093   0.196   0.713  12.607 -0.5956  0.1019  0.6432
  542TMC3    C3 8094   0.154   0.780  12.493 -0.0698  0.1414  0.2502
  542TMC3    C4 8095   0.054   0.834  12.745 -0.0038 -0.1400  0.2171
  542TMC3    C5 8096   0.016   0.903  12.635 -0.5656 -0.0444 -0.4712
  542TMC3    C6 8097   0.076   0.892  12.509 -0.6612 -0.1209  0.5692
  542TMC3     C 8098   0.153   0.628  12.823 -0.8621 -0.1135  0.1536
  542TMC3     O 8099   0.173   0.522  12.769 -0.0675 -0.0759  0.2334
  542TMC3     H 8100   0.270   0.635  12.603  1.5457  2.1033  1.0276
  542TMC3    H1 8101   0.009   0.853  12.842 -0.6536 -2.2802  0.3226
  542TMC3    H2 8102   0.030   0.939  12.423  1.3366 -1.0698 -1.0491
  542TMC3    C7 8103   4.649   1.020  12.653  0.3280 -0.2804 -0.9646
  542TMC3    C8 8104   0.212   0.762  12.362  0.1035  0.2583 -0.2825
  542TMC3    O1 8105   4.615   1.045  12.767 -0.6134  0.4024 -0.1263
  542TMC3    O2 8106   0.218   0.866  12.297  0.0920 -0.3918  0.2409
  543TMC3    C1 8107   4.295   2.244  17.339  0.0348  0.2563 -0.7537
  543TMC3    C2 8108   4.299   2.112  17.377  0.0760 -0.0386 -0.1496
  543TMC3    C3 8109   4.259   2.083  17.502 -0.6046  0.2427  0.2368
  543TMC3    C4 8110   4.240   2.343  17.409  0.1683  0.0162 -0.2552
  543TMC3    C5 8111   4.202   2.314  17.537  0.2253 -0.3311  0.6315
  543TMC3    C6 8112   4.211   2.183  17.586  0.0059  0.0329 -0.2645
  543TMC3     C 8113   4.344   2.261  17.200 -0.4556 -0.3457 -0.2808
  543TMC3     O 8114   4.428   2.178  17.173 -0.3385 -0.3398 -0.0273
  543TMC3     H 8115   4.334   2.039  17.306 -1.8020 -1.4186  0.3369
  543TMC3    H1 8116   4.255   2.446  17.380  1.8012 -0.1448  0.0257
  543TMC3    H2 8117   4.150   2.144  17.667  0.2538  1.7933  0.7515
  543TMC3    C7 8118   4.105   2.393  17.593  0.0430  0.3471 -0.2415
  543TMC3    C8 8119   4.212   1.948  17.526 -0.3219 -0.2270 -0.0144
  543TMC3    O1 8120   4.037   2.332  17.676  0.9476  0.2646 -0.7462
  543TMC3    O2 8121   4.195   1.878  17.425  0.0745  0.4186 -0.4933
  544MPD2     C 8122   4.109   1.559   0.112  0.1835 -0.4158 -0.1753
  544MPD2    C1 8123   4.080   1.577  17.718  0.7986  0.0521 -0.4927
  544MPD2    C2 8124   4.122   1.694  17.652  0.7243  0.6659  0.5275
  544MPD2    C3 8125   4.193   1.789  17.723 -0.1948 -1.1151  0.2286
  544MPD2    C4 8126   4.222   1.768   0.119  0.0583 -0.0634 -0.4996
  544MPD2    C5 8127   4.171   1.660   0.183  0.3649 -0.3384 -0.2680
  544MPD2     H 8128   4.107   1.715  17.547  0.4741  1.9617  0.8240
  544MPD2    H1 8129   4.273   1.849   0.171  1.8946 -0.7566 -1.2299
  544MPD2    H2 8130   4.084   1.468   0.164 -0.3774 -0.3338 -0.3072
  544MPD2    H3 8131   4.193   1.639   0.287 -0.0215 -0.8686 -0.2897
  544MPD2     N 8132   4.230   1.911  17.662 -0.1384 -0.1456 -0.0910
  544MPD2    H5 8133   4.296   1.971  17.712  0.7236  0.2747 -1.7450
  544MPD2    N1 8134   4.009   1.487  17.641 -0.0029 -0.6931 -0.4720
  544MPD2    H7 8135   3.950   1.528  17.570 -0.6440  1.7326  1.4216
  545TMC3    C1 8136   3.926   1.279  17.570  0.0842 -0.2693  0.3376
  545TMC3    C2 8137   3.816   1.346  17.507  0.3500  0.4521 -0.1236
  545TMC3    C3 8138   3.737   1.274  17.424 -0.1726  0.1276  0.5799
  545TMC3    C4 8139   3.942   1.146  17.562 -0.0924 -0.1232  0.2606
  545TMC3    C5 8140   3.848   1.074  17.488 -0.2528 -0.0560  0.2514
  545TMC3    C6 8141   3.743   1.135  17.423  0.8410 -0.6357 -0.3021
  545TMC3     C 8142   4.008   1.350  17.664  0.0894 -0.3767  0.1244
  545TMC3     O 8143   4.069   1.282   0.016  0.1868 -0.1291  0.5588
  545TMC3     H 8144   3.798   1.450  17.533  1.5567  0.0393  2.4225
  545TMC3    H1 8145   4.017   1.099  17.625 -0.2988 -0.2699  0.3960
  545TMC3    H2 8146   3.682   1.079  17.353 -1.5869  0.5735  0.8431
  545TMC3    C7 8147   3.836   0.926  17.479  0.8083 -0.0582 -0.4595
  545TMC3    C8 8148   3.602   1.326  17.379 -0.5692 -0.6863  0.8101
  545TMC3    O1 8149   3.722   0.880  17.473  0.2445 -0.2378  0.4129
  545TMC3    O2 8150   3.523   1.250  17.325 -0.1707  0.5175 -0.3214
  546MPD2     C 8151   0.641   1.895   0.149 -0.2222  0.2243  0.0014
  546MPD2    C1 8152   0.577   1.929   0.033  0.1074 -0.0497  0.8612
  546MPD2    C2 8153   0.589   2.057  17.728 -0.2140  0.5341 -0.6850
  546MPD2    C3 8154   0.664   2.153   0.061 -0.2467 -0.4913 -0.5525
  546MPD2    C4 8155   0.714   2.121   0.182 -1.0826 -0.4213  0.0978
  546MPD2    C5 8156   0.706   1.995   0.228 -0.6411 -0.1265  0.1338
  546MPD2     H 8157   0.529   2.074  17.640 -1.1059  1.9898  0.2083
  546MPD2    H1 8158   0.764   2.198   0.240 -0.0222 -2.9358  2.5149
  546MPD2    H2 8159   0.646   1.797   0.195 -0.7394  0.2588  0.1349
  546MPD2    H3 8160   0.757   1.964   0.318  0.7054 -1.3874 -1.0680
  546MPD2     N 8161   0.694   2.278   0.011  0.3880 -0.1863  0.3781
  546MPD2    H5 8162   0.749   2.333   0.076  1.4754 -0.2460 -0.4987
  546MPD2    N1 8163   0.508   1.832  17.696  0.0828 -0.6680  0.5059
  546MPD2    H7 8164   0.515   1.738  17.733  2.8618 -1.4028 -1.8686
  547TMC3    C1 8165   0.392   1.719  17.529  0.4033  0.1732  0.2125
  547TMC3    C2 8166   0.334   1.735  17.401  0.0991 -0.1313 -0.7085
  547TMC3    C3 8167   0.326   1.621  17.330 -0.1410 -0.6794 -0.4913
  547TMC3    C4 8168   0.405   1.601  17.593 -0.0691  0.1933  0.2048
  547TMC3    C5 8169   0.401   1.487  17.508  0.2985 -0.0588 -0.3702
  547TMC3    C6 8170   0.367   1.498  17.372  0.5478 -0.4924  0.0918
  547TMC3     C 8171   0.429   1.845  17.586 -0.9370  0.5899 -0.4061
  547TMC3     O 8172   0.386   1.951  17.541  0.5482  0.3006  0.2263
  547TMC3     H 8173   0.337   1.829  17.349  1.1322 -0.6950 -1.6612
  547TMC3    H1 8174   0.435   1.595  17.697 -0.1698  1.8086  0.3237
  547TMC3    H2 8175   0.360   1.413  17.304 -2.3356  1.8103 -2.4947
  547TMC3    C7 8176   0.406   1.360  17.581 -0.5712  0.0777 -0.1567
  547TMC3    C8 8177   0.275   1.640  17.192 -0.7779  0.3949  0.6785
  547TMC3    O1 8178   0.441   1.369  17.697 -0.1493 -0.1563  0.7613
  547TMC3    O2 8179   0.200   1.735  17.174 -0.3925 -0.3918  0.5457
  548MPD2     C 8180   0.827   2.479  12.925 -0.2890  0.1889 -0.5941
  548MPD2    C1 8181   0.776   2.355  12.915  0.5640  0.2623 -0.9524
  548MPD2    C2 8182   0.841   2.249  12.855 -0.1886 -0.1965 -0.3526
  548MPD2    C3 8183   0.969   2.272  12.817  0.5159  0.7737 -0.1898
  548MPD2    C4 8184   1.028   2.395  12.837  0.4719  0.4795 -0.2676
  548MPD2    C5 8185   0.957   2.500  12.893 -0.4814 -0.2408 -0.4735
  548MPD2     H 8186   0.786   2.156  12.841  1.1527 -0.5577 -3.2676
  548MPD2    H1 8187   1.133   2.408  12.817  0.9507 -0.8856  1.3012
  548MPD2    H2 8188   0.768   2.564  12.960 -0.2748  0.0256 -0.1659
  548MPD2    H3 8189   1.003   2.597  12.912 -0.7052 -0.1366 -0.4604
  548MPD2     N 8190   1.034   2.169  12.750 -0.7659  0.3774 -0.4232
  548MPD2    H5 8191   0.984   2.081  12.743  0.6540 -0.3899 -1.0951
  548MPD2    N1 8192   0.637   2.356  12.948  0.2758 -0.1518  0.5519
  548MPD2    H7 8193   0.603   2.448  12.974 -2.3687 -1.4382  1.7039
  549TMC3    C1 8194   0.412   2.292  12.919 -0.1830 -0.2743  0.5232
  549TMC3    C2 8195   0.390   2.421  12.881  0.3300 -0.2283 -0.1703
  549TMC3    C3 8196   0.263   2.473  12.894  0.4329 -0.2855 -0.2313
  549TMC3    C4 8197   0.311   2.204  12.945 -0.9964 -0.3999  0.4751
  549TMC3    C5 8198   0.179   2.258  12.946 -0.3018  0.1076  0.2253
  549TMC3    C6 8199   0.155   2.391  12.933  0.5769 -0.6627 -0.0415
  549TMC3     C 8200   0.547   2.249  12.944  0.1736 -0.6336 -0.5665
  549TMC3     O 8201   0.562   2.129  12.925  0.2453 -0.2817  0.2915
  549TMC3     H 8202   0.467   2.492  12.849  1.7291 -1.5398  0.3000
  549TMC3    H1 8203   0.325   2.097  12.959  0.3947  0.0213  2.2795
  549TMC3    H2 8204   0.060   2.444  12.943  1.6488  0.8025  2.4557
  549TMC3    C7 8205   0.069   2.169  12.953  0.4363  0.3770 -0.4324
  549TMC3    C8 8206   0.224   2.577  12.799 -0.3522  0.0143 -0.2144
  549TMC3    O1 8207   4.695   2.216  12.989 -0.2623 -0.1997  0.6206
  549TMC3    O2 8208   0.113   2.571  12.753  0.4582  0.9724 -0.0323
  550TMC3    C1 8209   0.037   0.408  12.157 -0.1555 -0.1742  0.4397
  550TMC3    C2 8210   4.718   0.452  12.275  0.9571  0.2173 -0.0259
  550TMC3    C3 8211   4.649   0.573  12.262 -0.5234 -0.3907  0.3033
  550TMC3    C4 8212   0.022   0.479  12.037 -0.5632  0.3632  0.2979
  550TMC3    C5 8213   4.681   0.596  12.036 -0.4360  0.4403  0.0234
  550TMC3    C6 8214   4.633   0.644  12.150 -0.4780 -0.0365 -0.4470
  550TMC3     C 8215   0.078   0.269  12.147 -0.5777  0.6752 -0.1088
  550TMC3     O 8216   0.096   0.207  12.251 -0.0334 -0.0219  0.1050
  550TMC3     H 8217   0.005   0.399  12.367 -1.6168 -0.2691  0.2779
  550TMC3    H1 8218   0.071   0.439  11.950  0.6853  0.8216  0.7914
  550TMC3    H2 8219   4.583   0.740  12.147  0.4673  0.4821  0.4718
  550TMC3    C7 8220   4.580   0.579  11.933  0.0239 -0.6661  0.3911
  550TMC3    C8 8221   4.581   0.635  12.374  0.6800  0.4417  1.1954
  550TMC3    O1 8222   4.564   0.463  11.900  0.4069 -0.8476  0.0174
  550TMC3    O2 8223   4.499   0.723  12.355  0.5102  0.2530 -0.2844
  551TMC3    C1 8224   2.028   3.323  13.376  0.7881 -0.1820  0.2444
  551TMC3    C2 8225   2.137   3.263  13.318  0.1327  0.7653 -0.1787
  551TMC3    C3 8226   2.266   3.312  13.330 -0.1098  0.4917 -0.5243
  551TMC3    C4 8227   2.040   3.439  13.440 -0.0848  0.0935 -0.0403
  551TMC3    C5 8228   2.172   3.474  13.461 -0.2541 -0.1489  0.4302
  551TMC3    C6 8229   2.287   3.427  13.400 -0.1820  0.2487 -0.1210
  551TMC3     C 8230   1.908   3.307  13.299  0.0964  0.9313  0.4210
  551TMC3     O 8231   1.856   3.196  13.297  0.0214  0.6222 -0.0510
  551TMC3     H 8232   2.116   3.174  13.259  0.8865  0.6125 -0.2180
  551TMC3    H1 8233   1.961   3.495  13.489 -0.7143 -1.1089  0.2985
  551TMC3    H2 8234   2.387   3.461  13.424  1.2282 -0.8573 -4.4400
  551TMC3    C7 8235   2.197   3.571  13.566  0.1537  0.4600  0.7705
  551TMC3    C8 8236   2.345   3.280  13.220 -0.0953 -0.1878  0.4062
  551TMC3    O1 8237   2.292   3.552  13.638 -0.2739 -0.2990 -0.0481
  551TMC3    O2 8238   2.323   3.174  13.171  0.0767  0.3046  0.0629
  552MPD2     C 8239   4.350   0.145  14.197 -0.9698  0.5130  0.7638
  552MPD2    C1 8240   4.318   0.015  14.242  0.3240  0.3596 -0.8302
  552MPD2    C2 8241   4.366   4.705  14.362 -0.2208 -0.6832  0.4664
  552MPD2    C3 8242   4.437   0.054  14.444 -0.2294  0.1200  0.0248
  552MPD2    C4 8243   4.464   0.187  14.401  1.0184  0.4742 -0.6115
  552MPD2    C5 8244   4.415   0.230  14.280  0.0687  0.6033  0.4285
  552MPD2     H 8245   4.338   4.605  14.391 -0.3722 -0.7220  0.1862
  552MPD2    H1 8246   4.523   0.255  14.462  0.7073  1.5172 -1.4785
  552MPD2    H2 8247   4.309   0.189  14.106  0.3879  1.1440  0.4636
  552MPD2    H3 8248   4.454   0.327  14.249 -1.6768  0.8985 -0.8325
  552MPD2     N 8249   4.484   0.016  14.568 -0.2154 -0.1249 -0.5057
  552MPD2    H5 8250   4.503   0.093  14.631 -4.5127  1.3589 -1.0276
  552MPD2    N1 8251   4.240   4.664  14.166  0.4545  0.1382  0.4927
  552MPD2    H7 8252   4.241   4.563  14.174 -0.3724  0.2904  2.6486
  553TMC3    C1 8253   4.091   4.599  13.994  0.4036  0.0406  0.1344
  553TMC3    C2 8254   4.001   4.642  13.898  0.5348  0.1164 -0.9103
  553TMC3    C3 8255   3.945   4.556  13.803 -0.0053 -0.6983 -0.8769
  553TMC3    C4 8256   4.127   4.469  13.999  0.2622  0.5309 -0.4923
  553TMC3    C5 8257   4.070   4.384  13.905 -0.4633 -0.6386 -0.0292
  553TMC3    C6 8258   3.989   4.422  13.807  0.3702 -0.1372 -0.3841
  553TMC3     C 8259   4.158   4.702  14.067 -1.0091 -0.3131  0.2611
  553TMC3     O 8260   4.130   0.082  14.030  0.4114 -0.6296  0.9475
  553TMC3     H 8261   3.980   0.014  13.895  0.8231  0.1622 -1.2969
  553TMC3    H1 8262   4.207   4.425  14.058 -2.0536 -1.9691  0.7653
  553TMC3    H2 8263   3.953   4.350  13.734  1.5804 -0.2668 -0.8493
  553TMC3    C7 8264   4.121   4.248  13.893 -0.0869  0.1304  0.5199
  553TMC3    C8 8265   3.903   4.621  13.682  0.4164 -0.1540 -0.1628
  553TMC3    O1 8266   4.036   4.162  13.865  0.1653  0.1394 -0.4490
  553TMC3    O2 8267   3.953   4.726  13.652  0.1677  0.4012 -0.2127
  554TMC3    C1 8268   0.988   4.192  11.283 -0.4514  0.0691 -1.0198
  554TMC3    C2 8269   0.894   4.104  11.228 -0.5322 -0.8237  0.9469
  554TMC3    C3 8270   0.841   4.140  11.106 -0.2461 -0.1760  0.2122
  554TMC3    C4 8271   1.015   4.319  11.235  0.0834 -0.2149 -0.3920
  554TMC3    C5 8272   0.950   4.353  11.119 -0.3782 -0.2299  0.3224
  554TMC3    C6 8273   0.877   4.263  11.047 -0.5189  0.7564  0.3564
  554TMC3     C 8274   1.027   4.175  11.421 -0.8253  0.0658  0.2595
  554TMC3     O 8275   1.057   4.273  11.488 -0.3458 -0.0663  0.4258
  554TMC3     H 8276   0.860   4.016  11.282  1.6875 -1.4684  1.2749
  554TMC3    H1 8277   1.088   4.379  11.288  0.8529 -0.5777 -1.0357
  554TMC3    H2 8278   0.815   4.294  10.963  0.0494 -2.1137 -1.1118
  554TMC3    C7 8279   1.000   4.467  11.037  0.1124  0.2982  0.2467
  554TMC3    C8 8280   0.741   4.055  11.034  0.0103  0.2858 -0.2043
  554TMC3    O1 8281   0.975   4.465  10.917  0.4416  0.4990  0.1178
  554TMC3    O2 8282   0.709   3.953  11.095 -0.3257 -0.4988 -0.2985
  555TMC3    C1 8283   0.093   3.767  15.334  0.0486 -0.2207 -0.0826
  555TMC3    C2 8284   0.157   3.804  15.444  0.1691 -0.4064 -0.0826
  555TMC3    C3 8285   0.197   3.709  15.535  0.6185 -0.3094  1.0945
  555TMC3    C4 8286   0.071   3.635  15.299 -0.1066 -0.7016 -0.6366
  555TMC3    C5 8287   0.126   3.541  15.387 -0.3024 -0.0765 -0.2560
  555TMC3    C6 8288   0.187   3.576  15.507  0.6394  0.2880 -0.3303
  555TMC3     C 8289   0.087   3.863  15.227 -0.1668 -0.3164 -0.6175
  555TMC3     O 8290   0.187   3.942  15.226 -0.1071 -0.6359 -0.3078
  555TMC3     H 8291   0.162   3.911  15.462  0.1595 -0.3262 -0.5656
  555TMC3    H1 8292   0.021   3.608  15.207  1.0623 -1.0066 -1.1858
  555TMC3    H2 8293   0.207   3.505  15.586 -1.1041  0.1557  0.0039
  555TMC3    C7 8294   0.095   3.401  15.363 -0.2980  0.1976 -0.2469
  555TMC3    C8 8295   0.206   3.756  15.671 -0.1162  0.6117  0.1956
  555TMC3    O1 8296   0.092   3.318  15.454  0.3211 -0.0815 -0.3527
  555TMC3    O2 8297   0.169   3.871  15.696  0.4833 -0.2985  0.7878
  556MPD2     C 8298   2.741   0.739  10.333 -1.0287 -0.2097 -0.2094
  556MPD2    C1 8299   2.819   0.647  10.393 -0.1610 -0.0208  0.2651
  556MPD2    C2 8300   2.854   0.529  10.329  0.1251 -0.1106  0.2157
  556MPD2    C3 8301   2.804   0.500  10.207  0.7566 -0.0776 -0.2435
  556MPD2    C4 8302   2.718   0.594  10.146 -0.1689 -0.4996 -0.4726
  556MPD2    C5 8303   2.687   0.710  10.209  0.4102  0.6894  0.6080
  556MPD2     H 8304   2.920   0.464  10.385  1.2710  3.0503  2.5093
  556MPD2    H1 8305   2.665   0.586  10.051  0.0428  0.0371 -0.6333
  556MPD2    H2 8306   2.711   0.835  10.373  2.8012  0.7628  0.3241
  556MPD2    H3 8307   2.627   0.784  10.158 -1.7550 -1.8983 -0.5692
  556MPD2     N 8308   2.845   0.386  10.134 -0.4100 -0.1493  0.3348
  556MPD2    H5 8309   2.900   0.316  10.183  0.3225  0.2339  0.0635
  556MPD2    N1 8310   2.873   0.665  10.525  0.4083 -0.6538  0.2358
  556MPD2    H7 8311   2.911   0.585  10.573 -0.0163 -1.6751 -1.1357
  557TMC3    C1 8312   2.863   0.234   9.943 -0.7567  0.1972  0.1982
  557TMC3    C2 8313   2.873   0.225   9.807 -1.1411 -0.7927 -0.3185
  557TMC3    C3 8314   2.891   0.097   9.764 -0.1585  0.4464  0.3584
  557TMC3    C4 8315   2.869   0.127  10.032 -0.5014 -0.3165 -0.5350
  557TMC3    C5 8316   2.884   4.730   9.983 -0.0423  0.2016  0.2061
  557TMC3    C6 8317   2.882   4.713   9.842 -0.4832  0.0286  0.7481
  557TMC3     C 8318   2.825   0.368   9.994  0.4068  0.4679 -0.2144
  557TMC3     O 8319   2.781   0.446   9.911  0.6284 -0.1903 -0.0064
  557TMC3     H 8320   2.868   0.310   9.740  0.4913 -0.8511 -0.5020
  557TMC3    H1 8321   2.887   0.135  10.139 -0.9969 -2.5325 -0.2927
  557TMC3    H2 8322   2.886   4.616   9.796  2.3965 -0.3523  1.7926
  557TMC3    C7 8323   2.839   4.624  10.073  0.0689 -1.1595  0.2587
  557TMC3    C8 8324   2.870   0.081   9.617 -0.0324  0.5362  0.2541
  557TMC3    O1 8325   2.763   4.663  10.162  0.2372  0.1426  0.4697
  557TMC3    O2 8326   2.891   0.177   9.547 -0.6472 -0.2586  0.1996
  558TMC3    C1 8327   0.650   2.883  10.317  0.0231  0.0473  0.1303
  558TMC3    C2 8328   0.535   2.938  10.358 -0.5604  0.0423  0.6403
  558TMC3    C3 8329   0.427   2.931  10.263 -1.1078 -0.3117  0.5158
  558TMC3    C4 8330   0.664   2.830  10.195 -0.0740  1.0336  0.1840
  558TMC3    C5 8331   0.556   2.835  10.105  0.6729 -0.2358 -0.3781
  558TMC3    C6 8332   0.435   2.882  10.141 -0.3171 -0.0680 -0.5069
  558TMC3     C 8333   0.774   2.888  10.386  0.3780  0.6146  0.2319
  558TMC3     O 8334   0.876   2.889  10.317  0.0372  0.4699  0.7820
  558TMC3     H 8335   0.534   2.980  10.458 -0.9140 -0.6753  0.9422
  558TMC3    H1 8336   0.755   2.777  10.170  0.8249  2.9090 -0.4688
  558TMC3    H2 8337   0.351   2.892  10.074 -1.2229  1.4918  0.8852
  558TMC3    C7 8338   0.576   2.759   9.985  0.5639  0.5650  0.1419
  558TMC3    C8 8339   0.299   2.957  10.320 -0.8108 -0.1386  0.0445
  558TMC3    O1 8340   0.665   2.676   9.988 -0.0314 -0.0392  0.3078
  558TMC3    O2 8341   0.203   2.913  10.257 -0.1547  0.2739  0.5566
  559MPD2     C 8342   0.481   3.191   9.937  1.0207 -0.4233  0.3597
  559MPD2    C1 8343   0.457   3.247  10.059 -0.3311  0.0448  0.0880
  559MPD2    C2 8344   0.560   3.261  10.146  0.8431  1.1122  0.5072
  559MPD2    C3 8345   0.685   3.214  10.111 -0.1440 -1.5263  0.1346
  559MPD2    C4 8346   0.710   3.150   9.984  0.9215 -0.0300 -0.4537
  559MPD2    C5 8347   0.600   3.136   9.897  0.2497  0.2035 -0.2578
  559MPD2     H 8348   0.545   3.320  10.236  2.0495  0.9158  0.8382
  559MPD2    H1 8349   0.805   3.104   9.958  0.1543 -1.2979 -1.0312
  559MPD2    H2 8350   0.394   3.188   9.872  1.0748  1.2422  0.2140
  559MPD2    H3 8351   0.611   3.084   9.803 -2.9083 -1.5820  0.3483
  559MPD2     N 8352   0.787   3.222  10.215 -0.3637 -0.9935 -0.5977
  559MPD2    H5 8353   0.757   3.280  10.293 -0.2212 -2.2901  0.4092
  559MPD2    N1 8354   0.325   3.276  10.103  0.0826 -0.0075  0.0229
  559MPD2    H7 8355   0.256   3.256  10.031  1.7066 -3.3695 -0.5857
  560TMC3    C1 8356   0.977   3.204  10.337  0.5429  0.6445 -0.3407
  560TMC3    C2 8357   0.908   3.221  10.453 -0.9067 -0.1484 -0.6828
  560TMC3    C3 8358   0.983   3.242  10.567  0.7018 -0.6489  0.0073
  560TMC3    C4 8359   1.111   3.195  10.334  0.8209 -0.0290  0.0236
  560TMC3    C5 8360   1.178   3.220  10.453  0.6487  0.2660 -0.8210
  560TMC3    C6 8361   1.118   3.245  10.572 -0.0034 -0.0915 -1.0474
  560TMC3     C 8362   0.917   3.190  10.206  0.2353  0.0174 -0.9053
  560TMC3     O 8363   0.982   3.155  10.108 -0.1008 -0.0906 -0.0726
  560TMC3     H 8364   0.801   3.223  10.464 -0.8402 -2.5811  0.4175
  560TMC3    H1 8365   1.166   3.160  10.248  2.5124 -1.0347  1.4997
  560TMC3    H2 8366   1.176   3.282  10.655  0.3514  0.8420 -1.7071
  560TMC3    C7 8367   1.315   3.172  10.461 -0.8882 -0.1135 -0.0289
  560TMC3    C8 8368   0.908   3.241  10.692  0.8028 -0.2004  0.3641
  560TMC3    O1 8369   1.339   3.055  10.427 -0.6648  0.0153  0.0122
  560TMC3    O2 8370   0.789   3.282  10.682 -0.4177  0.3121 -0.2809
  561TMC3    C1 8371   3.282   2.449  11.152  0.2475 -0.1225 -0.5749
  561TMC3    C2 8372   3.240   2.404  11.278 -0.1403 -0.2146  0.2056
  561TMC3    C3 8373   3.229   2.504  11.370 -0.5145  0.2476 -0.2250
  561TMC3    C4 8374   3.317   2.576  11.119 -0.5104  0.1321  0.8527
  561TMC3    C5 8375   3.306   2.671  11.219 -0.1509 -0.2322 -0.3500
  561TMC3    C6 8376   3.260   2.638  11.344  0.4350  0.0561  0.5644
  561TMC3     C 8377   3.337   2.340  11.063 -0.3067  0.1324 -0.0086
  561TMC3     O 8378   3.303   2.231  11.096  0.2643  0.3846 -0.2142
  561TMC3     H 8379   3.232   2.299  11.305 -1.2156 -0.0570  0.5372
  561TMC3    H1 8380   3.310   2.597  11.013  1.5283  2.2021  1.1191
  561TMC3    H2 8381   3.267   2.713  11.422 -1.5458 -0.9495  1.7144
  561TMC3    C7 8382   3.298   2.810  11.179  0.1681 -0.9795 -0.1541
  561TMC3    C8 8383   3.198   2.472  11.505 -0.7347  0.2021  0.2439
  561TMC3    O1 8384   3.236   2.876  11.261  0.8087 -0.3938 -0.4114
  561TMC3    O2 8385   3.232   2.359  11.541 -0.2662 -0.5288 -0.0035
  562TMC3    C1 8386   4.282   3.844  16.784 -0.7721  0.3356  0.5746
  562TMC3    C2 8387   4.397   3.903  16.721 -0.3658 -0.9393  0.5060
  562TMC3    C3 8388   4.417   3.873  16.584  0.5343 -0.8114  0.4879
  562TMC3    C4 8389   4.211   3.752  16.717 -0.2457  0.3326 -0.4149
  562TMC3    C5 8390   4.236   3.723  16.589 -0.3447 -0.7959  0.0475
  562TMC3    C6 8391   4.336   3.785  16.520 -0.1438 -0.1560  0.3654
  562TMC3     C 8392   4.251   3.868  16.925 -0.4003 -1.0089  0.1844
  562TMC3     O 8393   4.166   3.804  16.980 -0.2725 -0.2115 -0.4599
  562TMC3     H 8394   4.459   3.971  16.777  1.1430 -2.3168  0.4881
  562TMC3    H1 8395   4.138   3.690  16.768 -2.5355  3.9828  0.7296
  562TMC3    H2 8396   4.352   3.763  16.415  1.6090  0.9729  0.4080
  562TMC3    C7 8397   4.213   3.592  16.559 -1.6007  0.0185  0.4523
  562TMC3    C8 8398   4.528   3.945  16.516 -0.2020 -0.5838  0.2264
  562TMC3    O1 8399   4.162   3.568  16.447  0.7861 -0.3642 -0.2713
  562TMC3    O2 8400   4.584   4.036  16.575 -0.3843 -0.4571 -0.2279
  563MPD2     C 8401   2.014   0.187  15.644 -0.2685  0.2143 -0.1445
  563MPD2    C1 8402   2.048   0.278  15.746 -0.4679 -0.6774 -0.8441
  563MPD2    C2 8403   2.164   0.252  15.828 -0.2980  0.8372  0.7077
  563MPD2    C3 8404   2.233   0.138  15.793 -0.4573 -0.0789 -0.4452
  563MPD2    C4 8405   2.192   0.043  15.700  0.7189 -0.3907  0.2987
  563MPD2    C5 8406   2.084   0.073  15.618 -0.0483  0.6382  0.3095
  563MPD2     H 8407   2.203   0.319  15.903  0.3854  1.2170  0.0070
  563MPD2    H1 8408   2.244   4.684  15.679 -0.2199 -0.8183 -0.1644
  563MPD2    H2 8409   1.936   0.206  15.572 -1.4342  0.3578  1.1638
  563MPD2    H3 8410   2.049   0.001  15.545 -0.5245  0.6672  0.5144
  563MPD2     N 8411   2.348   0.122  15.871 -0.2949 -0.7105 -0.6832
  563MPD2    H5 8412   2.382   0.204  15.920 -0.4045 -0.4966 -0.9715
  563MPD2    N1 8413   1.971   0.396  15.768 -0.1224  0.7353  0.1840
  563MPD2    H7 8414   1.890   0.412  15.709  0.8437 -0.2185 -1.3922
  564TMC3    C1 8415   1.886   0.440  15.972  0.6400  0.2815  0.8748
  564TMC3    C2 8416   1.772   0.372  15.946  0.4339  0.2728  0.7402
  564TMC3    C3 8417   1.726   0.284  16.039 -0.2374 -0.1759 -0.5182
  564TMC3    C4 8418   1.946   0.439  16.099 -0.1354  0.5544 -0.2431
  564TMC3    C5 8419   1.900   0.349  16.190  0.0233  0.5630  0.2096
  564TMC3    C6 8420   1.787   0.281  16.163 -0.6862  0.2102 -0.7142
  564TMC3     C 8421   1.983   0.477  15.881 -0.2675  0.1718 -1.0440
  564TMC3     O 8422   2.077   0.538  15.923 -0.4595 -0.0887  0.2724
  564TMC3     H 8423   1.721   0.379  15.851 -0.4769  0.7281  1.2626
  564TMC3    H1 8424   2.027   0.505  16.126  0.8610 -0.5278 -0.6015
  564TMC3    H2 8425   1.732   0.222  16.235  0.3621 -1.6425 -1.4475
  564TMC3    C7 8426   1.999   0.291  16.280  0.0468  0.2293 -0.5774
  564TMC3    C8 8427   1.661   0.166  15.999  0.5154  0.3001  0.3171
  564TMC3    O1 8428   2.103   0.354  16.299 -0.7934 -0.0872 -0.0621
  564TMC3    O2 8429   1.634   0.087  16.081 -0.2241  0.0033 -0.1285
  565TMC3    C1 8430   2.731   1.681  10.240  0.2271  0.2823  0.2337
  565TMC3    C2 8431   2.734   1.685  10.376  0.2726 -0.2407 -0.2615
  565TMC3    C3 8432   2.710   1.563  10.442  0.3070 -0.0089 -0.0886
  565TMC3    C4 8433   2.705   1.564  10.174  0.3353 -0.3149  0.2288
  565TMC3    C5 8434   2.678   1.448  10.245 -0.3613 -0.2964 -0.4909
  565TMC3    C6 8435   2.686   1.439  10.385  0.3120 -0.2978 -0.6231
  565TMC3     C 8436   2.760   1.790  10.149 -0.1086  0.3510  0.0267
  565TMC3     O 8437   2.711   1.785  10.036 -0.1873  0.5616 -0.2771
  565TMC3     H 8438   2.741   1.781  10.425 -2.7080 -0.4994  0.6830
  565TMC3    H1 8439   2.731   1.548  10.070 -0.3398 -1.6043  0.2613
  565TMC3    H2 8440   2.644   1.359  10.444 -0.5681 -1.9612 -3.5117
  565TMC3    C7 8441   2.606   1.353  10.166 -0.3569 -0.1596 -0.1822
  565TMC3    C8 8442   2.691   1.559  10.591 -0.0226  0.0833  0.1525
  565TMC3    O1 8443   2.559   1.402  10.063 -0.5164  0.2246  0.0724
  565TMC3    O2 8444   2.689   1.449  10.644  0.2778 -0.1400 -0.1411
  566MPD2     C 8445   4.262   3.561  13.991  0.3250  0.4369  0.0748
  566MPD2    C1 8446   4.245   3.443  13.916  0.0837  0.8503 -0.3532
  566MPD2    C2 8447   4.121   3.420  13.856  0.4725  0.0468  0.1139
  566MPD2    C3 8448   4.013   3.503  13.862  0.0783 -0.5299 -0.4492
  566MPD2    C4 8449   4.029   3.619  13.940 -0.0475 -0.0407 -0.3405
  566MPD2    C5 8450   4.149   3.648  14.001 -0.0996 -0.3629  0.3947
  566MPD2     H 8451   4.109   3.334  13.790  0.3482 -0.3395  0.6422
  566MPD2    H1 8452   3.951   3.691  13.960 -1.4312 -1.3462 -1.0389
  566MPD2    H2 8453   4.355   3.586  14.039  0.5401  0.2426 -0.2418
  566MPD2    H3 8454   4.158   3.739  14.059 -0.0774  0.7349 -1.3579
  566MPD2     N 8455   3.889   3.468  13.800  0.1637 -0.3555 -0.0474
  566MPD2    H5 8456   3.812   3.529  13.825  0.3803  0.3610 -1.1067
  566MPD2    N1 8457   4.349   3.354  13.896 -0.1647 -0.1397 -0.3227
  566MPD2    H7 8458   4.435   3.370  13.949 -0.2994 -0.2946 -0.0601
  567TMC3    C1 8459   4.494   3.204  13.798 -0.1297  0.6354  0.0338
  567TMC3    C2 8460   4.580   3.213  13.692  0.4727  0.1914  0.3017
  567TMC3    C3 8461   4.718   3.190  13.699  0.3979  0.0863  0.2669
  567TMC3    C4 8462   4.558   3.174  13.921 -0.6842 -0.0318 -0.1920
  567TMC3    C5 8463   4.694   3.172  13.926  0.2960 -0.3810  0.1689
  567TMC3    C6 8464   0.046   3.162  13.817 -0.2255  1.0036 -0.5845
  567TMC3     C 8465   4.366   3.266  13.794  0.9897 -0.2826  0.2141
  567TMC3     O 8466   4.299   3.261  13.691 -0.2621 -0.4789  0.8320
  567TMC3     H 8467   4.540   3.235  13.594  0.1997  1.5129  0.7125
  567TMC3    H1 8468   4.514   3.203  14.015  0.1209 -0.1518  0.2164
  567TMC3    H2 8469   0.153   3.149  13.834 -0.6802 -1.1663  0.5670
  567TMC3    C7 8470   0.023   3.156  14.059  0.6857 -0.0582  0.1121
  567TMC3    C8 8471   0.058   3.221  13.576  0.1844  0.6472 -0.0482
  567TMC3    O1 8472   0.141   3.194  14.049  0.3299  0.0514 -0.0690
  567TMC3    O2 8473   4.729   3.242  13.472 -0.1913 -0.6013 -0.0304
  568MPD2     C 8474   1.553   3.521  16.207  0.1214 -0.8114  0.4262
  568MPD2    C1 8475   1.480   3.585  16.307  0.3735 -0.7479 -0.6026
  568MPD2    C2 8476   1.405   3.697  16.277 -0.1986 -0.2448  0.0223
  568MPD2    C3 8477   1.406   3.755  16.156  0.1984  0.6141 -0.3225
  568MPD2    C4 8478   1.478   3.686  16.053  0.2719 -0.1068  0.1384
  568MPD2    C5 8479   1.557   3.578  16.080  0.0899 -0.2347  0.5340
  568MPD2     H 8480   1.345   3.737  16.358 -0.8532  1.3174 -1.2425
  568MPD2    H1 8481   1.461   3.715  15.950  1.2180 -0.0436 -0.0032
  568MPD2    H2 8482   1.615   3.434  16.228  0.6370 -0.1469  1.6633
  568MPD2    H3 8483   1.607   3.524  16.001  1.5557 -0.1224  1.3881
  568MPD2     N 8484   1.342   3.882  16.141 -0.2395 -0.2091 -0.9054
  568MPD2    H5 8485   1.330   3.942  16.222  1.5332 -1.5584  0.3670
  568MPD2    N1 8486   1.484   3.527  16.432 -0.5803 -0.5322  0.1296
  568MPD2    H7 8487   1.513   3.429  16.428 -1.0553 -0.5292 -3.2621
  569TMC3    C1 8488   1.280   4.080  16.020  0.0373 -0.5183  0.3707
  569TMC3    C2 8489   1.239   4.130  16.136  0.3150 -0.0948 -0.6419
  569TMC3    C3 8490   1.241   4.266  16.141 -0.4636 -0.7021  0.2278
  569TMC3    C4 8491   1.312   4.151  15.910 -0.0664  0.0056  0.5851
  569TMC3    C5 8492   1.314   4.286  15.910 -0.1337  0.0743 -0.1164
  569TMC3    C6 8493   1.280   4.347  16.038  0.7362 -0.1543 -0.1937
  569TMC3     C 8494   1.317   3.938  16.018 -0.3965  0.2466  0.6883
  569TMC3     O 8495   1.340   3.885  15.909  0.4144 -0.4288 -0.0820
  569TMC3     H 8496   1.203   4.062  16.212 -2.3869  0.6974 -1.2087
  569TMC3    H1 8497   1.347   4.100  15.821 -1.4344  0.1063 -0.0068
  569TMC3    H2 8498   1.269   4.454  16.050 -4.1259 -0.7137  0.5101
  569TMC3    C7 8499   1.370   4.360  15.798 -0.0090 -0.2792  0.1731
  569TMC3    C8 8500   1.231   4.318  16.284  0.9991 -0.0735  0.1249
  569TMC3    O1 8501   1.346   4.330  15.682 -0.0939  0.2850 -0.2626
  569TMC3    O2 8502   1.145   4.269  16.355  0.1174  0.3406  0.7658
  570TMC3    C1 8503   0.677   2.979  15.684  0.4807  0.7246 -0.2800
  570TMC3    C2 8504   0.719   3.027  15.560 -0.2436  0.0425  0.7858
  570TMC3    C3 8505   0.753   3.164  15.550 -0.1707 -0.4089 -0.2091
  570TMC3    C4 8506   0.655   3.069  15.788  0.0416 -0.9800  0.0042
  570TMC3    C5 8507   0.685   3.201  15.765  0.4575  0.3311 -0.4975
  570TMC3    C6 8508   0.743   3.253  15.655 -0.4929  0.3935 -0.4610
  570TMC3     C 8509   0.643   2.837  15.690  0.2984 -0.2931  0.1849
  570TMC3     O 8510   0.602   2.789  15.582 -0.4859 -0.2007  0.9461
  570TMC3     H 8511   0.715   2.949  15.484 -0.2413  0.9302 -0.1310
  570TMC3    H1 8512   0.607   3.041  15.881  1.6784 -2.1899  0.4802
  570TMC3    H2 8513   0.777   3.356  15.649 -0.3087  0.3481 -0.1842
  570TMC3    C7 8514   0.724   3.267  15.886  0.1038  0.4224 -0.5086
  570TMC3    C8 8515   0.854   3.204  15.456 -0.4987  0.0045 -0.8631
  570TMC3    O1 8516   0.778   3.193  15.966  0.2190 -0.5992  0.4167
  570TMC3    O2 8517   0.913   3.308  15.490 -0.5844 -0.4939 -0.4706
  571MPD2     C 8518   3.242   0.440  17.509 -0.1436 -0.1845 -0.6051
  571MPD2    C1 8519   3.342   0.348  17.539  0.0962 -0.1449 -0.6942
  571MPD2    C2 8520   3.445   0.388  17.625 -0.1303  0.2201 -0.0369
  571MPD2    C3 8521   3.447   0.518  17.676  0.1720 -0.7142  0.4051
  571MPD2    C4 8522   3.342   0.604  17.651 -0.8755 -0.2589  0.4060
  571MPD2    C5 8523   3.239   0.560  17.568  0.1204 -0.5347 -0.9251
  571MPD2     H 8524   3.529   0.320  17.641  1.0612  1.6498 -0.2054
  571MPD2    H1 8525   3.332   0.703  17.693  1.0539  0.0095  0.2190
  571MPD2    H2 8526   3.167   0.415  17.434 -1.2291 -1.4210  0.8977
  571MPD2    H3 8527   3.155   0.627  17.556  0.1298 -0.5413 -1.0247
  571MPD2     N 8528   3.551   0.570   0.014  0.3774  0.1064 -0.0861
  571MPD2    H5 8529   3.540   0.667   0.041 -3.3424  0.6318 -3.5346
  571MPD2    N1 8530   3.334   0.224  17.476  0.2272 -0.1454 -0.0844
  571MPD2    H7 8531   3.256   0.205  17.413  0.5198  0.4391 -0.6197
  572TMC3    C1 8532   3.753   0.589   0.129  0.8790  0.0317  0.2547
  572TMC3    C2 8533   3.882   0.556   0.123  0.7673  0.1152 -0.1917
  572TMC3    C3 8534   3.972   0.663   0.140 -0.1251 -0.2014 -0.5213
  572TMC3    C4 8535   3.714   0.719   0.153 -0.0163  0.2822 -0.2336
  572TMC3    C5 8536   3.809   0.817   0.164 -0.1273 -0.8143 -0.0938
  572TMC3    C6 8537   3.939   0.795   0.162 -0.3957  1.0801 -0.2340
  572TMC3     C 8538   3.659   0.500   0.057  0.4966 -0.0395 -0.0726
  572TMC3     O 8539   3.681   0.381   0.065 -0.6232 -0.1374  0.3624
  572TMC3     H 8540   3.914   0.466   0.071  1.0809  0.8218 -1.2204
  572TMC3    H1 8541   3.609   0.742   0.169 -0.0389 -0.0884  0.1652
  572TMC3    H2 8542   4.016   0.871   0.163 -0.6367  1.3146  1.8425
  572TMC3    C7 8543   3.759   0.956   0.159 -0.2882  0.5594 -0.3246
  572TMC3    C8 8544   4.108   0.628   0.150  0.5079 -0.2036  0.7749
  572TMC3    O1 8545   3.645   0.969   0.110  0.4242  0.0399  0.2051
  572TMC3    O2 8546   4.191   0.710   0.122  0.1333  0.1167 -0.6484
  573MPD2     C 8547   4.691   0.004   0.615 -0.0620 -0.6456  0.3493
  573MPD2    C1 8548   0.024   0.117   0.573  0.7337  0.9732 -0.8398
  573MPD2    C2 8549   0.000   0.171   0.449 -0.5648  0.3566  0.1341
  573MPD2    C3 8550   4.659   0.102   0.355 -0.0820 -0.0085  0.2343
  573MPD2    C4 8551   4.600   4.718   0.394 -0.3727 -0.4632 -0.2133
  573MPD2    C5 8552   4.609   4.681   0.526 -0.7098 -0.2955 -0.6683
  573MPD2     H 8553   0.028   0.271   0.417 -0.6714  0.5504  0.6421
  573MPD2    H1 8554   4.527   4.662   0.337  0.5947 -1.8793 -0.0510
  573MPD2    H2 8555   4.709   4.692   0.712  0.9394 -0.4798  0.2509
  573MPD2    H3 8556   4.540   4.599   0.545 -2.0299  0.7970 -0.7995
  573MPD2     N 8557   4.623   0.166   0.232  0.1223  0.2736 -0.0301
  573MPD2    H5 8558   4.539   0.135   0.184 -2.0411  0.3550  3.7104
  573MPD2    N1 8559   0.101   0.189   0.679  0.1061  1.0058 -0.1116
  573MPD2    H7 8560   0.098   0.151   0.773 -0.6595 -0.1878 -0.6189
  574TMC3    C1 8561   4.640   0.305   0.041  0.5158  0.0070  0.3882
  574TMC3    C2 8562   4.501   0.294   0.022  0.1584 -0.1868 -0.2694
  574TMC3    C3 8563   4.449   0.380  17.664  0.3036 -0.1810 -0.1976
  574TMC3    C4 8564   4.720   0.373  17.687  0.5917  0.2271 -0.5289
  574TMC3    C5 8565   4.655   0.446  17.592 -0.2259  0.0602 -0.1616
  574TMC3    C6 8566   4.519   0.459  17.580 -0.5684  0.5772 -0.1518
  574TMC3     C 8567   4.696   0.266   0.171  1.1182  0.0462 -0.4081
  574TMC3     O 8568   0.069   0.314   0.205  0.8056 -0.3794  0.1641
  574TMC3     H 8569   4.435   0.234   0.084  0.0072 -1.9582 -2.1515
  574TMC3    H1 8570   0.095   0.376  17.686  0.6633 -0.9010  3.8673
  574TMC3    H2 8571   4.469   0.498  17.492  1.1296 -0.5817 -1.6465
  574TMC3    C7 8572   0.011   0.508  17.494  0.1192  0.0613  0.1581
  574TMC3    C8 8573   4.301   0.396  17.666  0.2283 -0.1124 -0.4473
  574TMC3    O1 8574   0.126   0.478  17.486  0.1267  0.0913  0.0564
  574TMC3    O2 8575   4.244   0.296  17.693  0.5315 -0.0196  0.1909
  575TMC3    C1 8576   2.594   1.320  11.462  0.4262 -0.6142  0.6668
  575TMC3    C2 8577   2.590   1.189  11.431  0.8731 -0.8974  0.2009
  575TMC3    C3 8578   2.561   1.148  11.309 -0.9352  0.2775 -0.2614
  575TMC3    C4 8579   2.598   1.408  11.358  0.1797  0.6890 -0.2377
  575TMC3    C5 8580   2.564   1.363  11.231  0.4937 -0.5373  0.1078
  575TMC3    C6 8581   2.540   1.231  11.209  0.3076  0.0080  0.0231
  575TMC3     C 8582   2.607   1.371  11.602 -0.1657 -0.1093  0.2793
  575TMC3     O 8583   2.619   1.494  11.601  0.2147  0.5285  0.1436
  575TMC3     H 8584   2.600   1.113  11.508  0.8623 -1.6253 -0.5189
  575TMC3    H1 8585   2.636   1.508  11.371 -1.2952  0.9826  1.7541
  575TMC3    H2 8586   2.501   1.198  11.114 -0.1470  1.3829 -0.2743
  575TMC3    C7 8587   2.575   1.439  11.106 -0.8283 -0.5528  0.0267
  575TMC3    C8 8588   2.547   0.998  11.290  0.1805  0.4260 -0.3405
  575TMC3    O1 8589   2.556   1.376  11.001  0.1483  0.0808 -0.3755
  575TMC3    O2 8590   2.528   0.927  11.387  0.0184  0.5303  0.1783
  576MPD2     C 8591   2.131   2.983  12.410  0.4164 -0.3207  0.3895
  576MPD2    C1 8592   2.237   3.065  12.378 -0.4237  0.5098  0.0018
  576MPD2    C2 8593   2.259   3.185  12.446 -0.2915  0.1338 -0.6180
  576MPD2    C3 8594   2.179   3.217  12.557  0.0092  0.2153 -0.1217
  576MPD2    C4 8595   2.084   3.125  12.599  0.3264 -0.1891 -0.0575
  576MPD2    C5 8596   2.060   3.011  12.526 -0.3757 -0.6021 -0.2489
  576MPD2     H 8597   2.335   3.257  12.417  0.8377 -0.4650  0.8561
  576MPD2    H1 8598   2.009   3.144  12.674  0.4288  1.4963 -0.3743
  576MPD2    H2 8599   2.104   2.898  12.349  0.7314 -1.0398  1.2570
  576MPD2    H3 8600   1.977   2.946  12.553 -0.2231 -0.4675  0.5618
  576MPD2     N 8601   2.188   3.343  12.623  0.7295  0.1032  1.0217
  576MPD2    H5 8602   2.231   3.421  12.575  1.4488 -0.9785 -0.0732
  576MPD2    N1 8603   2.312   3.043  12.267  0.1312  0.1427  0.0439
  576MPD2    H7 8604   2.369   3.118  12.229  0.7801 -0.0664  0.6111
  577TMC3    C1 8605   2.418   2.916  12.102  0.0563  0.5810  0.1948
  577TMC3    C2 8606   2.472   2.797  12.067 -0.1728  0.1432  0.1024
  577TMC3    C3 8607   2.568   2.792  11.969  0.3382 -0.5371  0.2045
  577TMC3    C4 8608   2.443   3.035  12.029  0.1597  0.1737 -0.5182
  577TMC3    C5 8609   2.530   3.026  11.926 -0.3171  0.6679  0.3788
  577TMC3    C6 8610   2.588   2.901  11.894  0.3247  0.7644 -0.0133
  577TMC3     C 8611   2.327   2.921  12.208  0.0574  0.8283  0.9038
  577TMC3     O 8612   2.279   2.811  12.236  0.1209  0.1215 -0.1623
  577TMC3     H 8613   2.461   2.721  12.143 -0.9074 -1.3148 -1.4636
  577TMC3    H1 8614   2.403   3.133  12.047  0.0804  0.1379 -0.4999
  577TMC3    H2 8615   2.646   2.897  11.802 -0.8591  1.6289 -0.7969
  577TMC3    C7 8616   2.589   3.142  11.869  0.4636 -0.0955 -0.6996
  577TMC3    C8 8617   2.650   2.671  11.964 -1.1005  0.0293 -0.6359
  577TMC3    O1 8618   2.601   3.234  11.945  0.1439  0.0183  0.7481
  577TMC3    O2 8619   2.630   2.593  12.058 -0.2173 -0.2455  0.1194
  578MPD2     C 8620   1.233   3.289   0.333  0.8557 -0.1449 -0.2830
  578MPD2    C1 8621   1.255   3.283   0.471 -0.5532 -0.3633 -0.2756
  578MPD2    C2 8622   1.285   3.160   0.528  0.5923  0.1951 -0.1419
  578MPD2    C3 8623   1.275   3.043   0.457  0.4965 -0.5457  0.4041
  578MPD2    C4 8624   1.247   3.050   0.322  0.4069 -0.0863 -0.0098
  578MPD2    C5 8625   1.234   3.171   0.261  0.3832  0.2646 -0.0727
  578MPD2     H 8626   1.299   3.157   0.636 -0.6808 -0.8460 -0.0118
  578MPD2    H1 8627   1.243   2.964   0.257 -0.6671 -0.6478  0.7998
  578MPD2    H2 8628   1.200   3.375   0.276  1.1059 -0.1514 -0.4329
  578MPD2    H3 8629   1.204   3.174   0.157  1.1248  0.4647 -0.2814
  578MPD2     N 8630   1.288   2.924   0.527 -0.0357  0.1176  0.0301
  578MPD2    H5 8631   1.315   2.927   0.625  0.5944  0.3113 -0.1495
  578MPD2    N1 8632   1.243   3.403   0.549  0.9603 -0.1785 -0.5311
  578MPD2    H7 8633   1.247   3.488   0.493  0.4379  0.8413  0.9833
  579TMC3    C1 8634   1.287   2.677   0.566  0.3571  0.3435  0.5572
  579TMC3    C2 8635   1.370   2.692   0.665  1.5751  0.1000 -0.1252
  579TMC3    C3 8636   1.386   2.582   0.746 -0.5149  0.0352  0.0203
  579TMC3    C4 8637   1.219   2.563   0.547 -0.2281  0.0140  0.4725
  579TMC3    C5 8638   1.212   2.474   0.646  0.2713 -0.0588  0.5431
  579TMC3    C6 8639   1.302   2.476   0.744  0.6606 -0.5477 -0.2616
  579TMC3     C 8640   1.259   2.794   0.485 -0.1226  0.4346  0.6156
  579TMC3     O 8641   1.189   2.759   0.390 -0.2437 -1.0234  0.3552
  579TMC3     H 8642   1.440   2.775   0.661  2.7637 -0.8401  1.1066
  579TMC3    H1 8643   1.156   2.545   0.461 -0.8984  0.1455  0.9353
  579TMC3    H2 8644   1.294   2.418   0.835 -1.0452  0.2174  0.0861
  579TMC3    C7 8645   1.125   2.360   0.641 -0.7391 -0.0837 -0.5485
  579TMC3    C8 8646   1.484   2.591   0.857  0.4103 -0.5349 -0.2923
  579TMC3    O1 8647   1.151   2.272   0.719 -0.7237 -0.3650 -0.4029
  579TMC3    O2 8648   1.507   2.495   0.925 -0.5555 -0.1848 -0.0126
  580TMC3    C1 8649   0.393   2.459  12.468 -0.0571  0.3807 -0.2473
  580TMC3    C2 8650   0.503   2.480  12.546  0.6821 -0.5716 -0.3452
  580TMC3    C3 8651   0.577   2.367  12.573  0.7294 -0.3178 -1.0821
  580TMC3    C4 8652   0.359   2.331  12.422  0.0583 -0.4384  0.1887
  580TMC3    C5 8653   0.428   2.224  12.467  0.6645  0.5710 -0.2688
  580TMC3    C6 8654   0.547   2.240  12.538 -0.4444 -0.6175 -0.1792
  580TMC3     C 8655   0.364   2.567  12.382 -0.3804  1.0196 -0.0590
  580TMC3     O 8656   0.442   2.661  12.365 -0.0885 -0.1085 -0.6868
  580TMC3     H 8657   0.531   2.578  12.582  3.1624 -1.3350 -0.1919
  580TMC3    H1 8658   0.272   2.314  12.358  1.1650  0.1240 -1.4695
  580TMC3    H2 8659   0.604   2.151  12.562 -0.8537 -0.4130  1.5844
  580TMC3    C7 8660   0.405   2.087  12.414  0.5120  0.4681 -0.2393
  580TMC3    C8 8661   0.718   2.403  12.576  0.6507  0.3928 -0.1020
  580TMC3    O1 8662   0.471   1.996  12.463 -0.3638 -0.5930  0.0933
  580TMC3    O2 8663   0.741   2.522  12.601 -0.3945 -0.1949 -0.4863
  581MPD2     C 8664   3.140   1.859  15.070  0.1980  0.0819 -0.8504
  581MPD2    C1 8665   3.080   1.938  15.166  0.0658 -0.6458 -0.7213
  581MPD2    C2 8666   2.961   2.002  15.128 -0.0617  0.0713 -1.1519
  581MPD2    C3 8667   2.892   1.966  15.013  0.9609 -0.5289  0.2940
  581MPD2    C4 8668   2.943   1.872  14.924  0.0778 -0.0969 -0.3261
  581MPD2    C5 8669   3.071   1.825  14.952  0.4398  0.2134  0.5190
  581MPD2     H 8670   2.923   2.081  15.192 -0.9110 -0.5304 -0.9085
  581MPD2    H1 8671   2.905   1.836  14.830  0.0714  0.0440 -0.3773
  581MPD2    H2 8672   3.235   1.809  15.085 -1.0337 -2.1066 -0.4128
  581MPD2    H3 8673   3.120   1.754  14.886 -1.2412  0.7419 -1.2950
  581MPD2     N 8674   2.774   2.025  14.969 -0.2765 -0.5019  0.1107
  581MPD2    H5 8675   2.730   1.979  14.891 -2.1779  1.4100  0.0798
  581MPD2    N1 8676   3.133   1.944  15.292 -0.1282 -0.7289 -0.1543
  581MPD2    H7 8677   3.222   1.898  15.309  0.0857  0.0088  0.7422
  582TMC3    C1 8678   3.081   1.882  15.508  0.0507 -0.4936 -0.2417
  582TMC3    C2 8679   3.015   1.903  15.628  0.4002 -0.6431 -0.4711
  582TMC3    C3 8680   2.953   1.799  15.686 -0.2418 -0.3238  0.0236
  582TMC3    C4 8681   3.078   1.757  15.451 -0.3953 -0.2527  0.0823
  582TMC3    C5 8682   2.992   1.662  15.498  0.4127  0.1856  0.2411
  582TMC3    C6 8683   2.928   1.684  15.617 -0.1635  0.6419  0.2129
  582TMC3     C 8684   3.062   1.982  15.402 -0.0973  0.2126 -0.3100
  582TMC3     O 8685   2.962   2.049  15.419  0.0403  0.7378 -0.1268
  582TMC3     H 8686   3.006   2.002  15.672  0.8517 -0.6533 -0.3454
  582TMC3    H1 8687   3.135   1.730  15.363 -1.6322  2.1875 -1.4887
  582TMC3    H2 8688   2.867   1.605  15.661 -1.8993  1.7385 -0.2175
  582TMC3    C7 8689   2.892   1.653  15.398  0.1890 -0.0463  0.0837
  582TMC3    C8 8690   2.903   1.818  15.822  0.2611 -0.7363  0.1630
  582TMC3    O1 8691   2.891   1.556  15.320  0.5206 -0.1292  0.4476
  582TMC3    O2 8692   2.798   1.884  15.841  0.3999  0.1388  0.4059
  583MPD2     C 8693   2.803   3.205  16.639  0.2603 -0.3596  0.1009
  583MPD2    C1 8694   2.854   3.315  16.575  0.1549 -0.1600 -0.3241
  583MPD2    C2 8695   2.826   3.444  16.623 -0.3053 -0.0091  0.3919
  583MPD2    C3 8696   2.753   3.455  16.742 -0.0309 -0.4536 -0.0335
  583MPD2    C4 8697   2.706   3.343  16.808 -0.3107 -0.2706  1.3663
  583MPD2    C5 8698   2.721   3.217  16.760  0.2790 -0.3017  0.6668
  583MPD2     H 8699   2.867   3.536  16.583  0.3756 -0.2183  0.6046
  583MPD2    H1 8700   2.645   3.348  16.898 -1.3973  0.0552  0.6168
  583MPD2    H2 8701   2.820   3.102  16.611 -2.2144 -0.8606  0.4434
  583MPD2    H3 8702   2.682   3.125  16.801  0.8920 -0.9847 -0.2715
  583MPD2     N 8703   2.723   3.584  16.788  0.0739 -0.2423  0.3196
  583MPD2    H5 8704   2.773   3.658  16.740 -0.0542  0.0960  0.6978
  583MPD2    N1 8705   2.964   3.301  16.481  0.6317  0.8193 -0.4190
  583MPD2    H7 8706   2.995   3.386  16.434  3.4298  0.2630  0.4193
  584TMC3    C1 8707   2.656   3.757  16.936 -0.1954 -0.2833  0.1089
  584TMC3    C2 8708   2.742   3.839  16.877  0.0670 -0.2474  0.1578
  584TMC3    C3 8709   2.763   3.966  16.929 -0.0292 -0.0069 -0.4374
  584TMC3    C4 8710   2.597   3.797  17.056 -0.2806 -0.0638  0.8798
  584TMC3    C5 8711   2.626   3.921  17.112 -0.0280 -0.6669  0.1704
  584TMC3    C6 8712   2.715   4.004  17.054  0.2240 -0.2789  0.0398
  584TMC3     C 8713   2.648   3.615  16.904 -0.7910 -0.4185 -0.1766
  584TMC3     O 8714   2.570   3.550  16.967 -0.2388 -0.4033  0.0025
  584TMC3     H 8715   2.798   3.820  16.786 -0.7246  0.9462 -0.5840
  584TMC3    H1 8716   2.521   3.734  17.101 -0.3487 -1.0814 -0.6774
  584TMC3    H2 8717   2.720   4.108  17.084  0.8035 -0.9372  2.1590
  584TMC3    C7 8718   2.580   3.938  17.246 -0.2622 -0.1145 -0.5507
  584TMC3    C8 8719   2.784   4.065  16.826  0.0229  0.5967  0.9733
  584TMC3    O1 8720   2.498   3.862  17.293  0.5915 -0.2129  0.2398
  584TMC3    O2 8721   2.765   4.032  16.709 -0.0152 -0.1085 -0.0508
  585MPD2     C 8722   1.606   2.789   0.217  0.2266 -0.0175 -0.3551
  585MPD2    C1 8723   1.720   2.723   0.165 -0.0859 -0.8130 -0.1553
  585MPD2    C2 8724   1.698   2.603   0.097 -0.0881 -0.1834  0.3578
  585MPD2    C3 8725   1.578   2.534   0.101  0.0777  0.5236 -0.8499
  585MPD2    C4 8726   1.467   2.603   0.148 -0.4217 -0.2106  0.7098
  585MPD2    C5 8727   1.483   2.725   0.208 -0.1470 -0.2708 -0.0016
  585MPD2     H 8728   1.781   2.564   0.039  0.3165  2.9648 -1.1830
  585MPD2    H1 8729   1.369   2.560   0.131  0.6255 -1.9404 -0.9146
  585MPD2    H2 8730   1.598   2.896   0.234 -0.3604  0.1567 -1.7301
  585MPD2    H3 8731   1.388   2.773   0.229 -0.1585 -0.5563  0.5958
  585MPD2     N 8732   1.567   2.403   0.052  0.2558 -0.4809 -0.1143
  585MPD2    H5 8733   1.474   2.366   0.036  0.6476 -2.1265  1.3275
  585MPD2    N1 8734   1.846   2.785   0.165  0.2642 -0.5509 -0.0502
  585MPD2    H7 8735   1.847   2.886   0.176 -0.2288 -0.5007 -0.5044
  586TMC3    C1 8736   1.645   2.184   0.010 -0.3633  0.0783 -0.0219
  586TMC3    C2 8737   1.744   2.115  17.670 -0.5599 -0.2275 -0.8252
  586TMC3    C3 8738   1.736   1.976  17.662 -0.9055  0.4950  0.4332
  586TMC3    C4 8739   1.527   2.123   0.053 -0.4827 -0.5745  0.3646
  586TMC3    C5 8740   1.521   1.987   0.025 -0.8255  0.3770 -0.1445
  586TMC3    C6 8741   1.624   1.914  17.704 -0.1454 -0.6021  0.2984
  586TMC3     C 8742   1.673   2.327   0.028 -0.4761 -0.1659 -0.4173
  586TMC3     O 8743   1.791   2.345   0.059 -0.0640 -0.4891  0.4540
  586TMC3     H 8744   1.826   2.167  17.623  1.0084 -0.8974  1.1870
  586TMC3    H1 8745   1.449   2.188   0.089 -0.8268 -0.7023 -0.1492
  586TMC3    H2 8746   1.619   1.807  17.688  1.0130 -0.7219  0.7060
  586TMC3    C7 8747   1.399   1.910   0.043  0.2940  0.4166  0.2358
  586TMC3    C8 8748   1.844   1.899  17.595  0.3636  0.1376  0.1875
  586TMC3    O1 8749   1.412   1.791   0.052 -0.3102  0.3420  0.2941
  586TMC3    O2 8750   1.814   1.789  17.555  0.3394 -0.2982  0.0423
  587TMC3    C1 8751   4.060   0.856  16.856  0.3507  0.6273  0.4649
  587TMC3    C2 8752   3.973   0.951  16.922  0.3803 -0.3156  0.1325
  587TMC3    C3 8753   3.931   0.913  17.047 -0.3191 -0.0465 -0.4953
  587TMC3    C4 8754   4.117   0.744  16.919 -0.6004 -0.3585  0.0484
  587TMC3    C5 8755   4.061   0.722  17.040  0.1421  0.2825 -0.4321
  587TMC3    C6 8756   3.965   0.791  17.107 -0.3563  0.0900 -0.0448
  587TMC3     C 8757   4.121   0.886  16.725 -0.2729 -0.0383  0.1702
  587TMC3     O 8758   4.235   0.850  16.697  0.0760 -0.0464  0.3433
  587TMC3     H 8759   3.934   1.042  16.879 -0.5572 -0.3765  0.8540
  587TMC3    H1 8760   4.185   0.672  16.875 -1.7865  1.1259 -4.1965
  587TMC3    H2 8761   3.923   0.757  17.201  1.9044  0.1680  1.0021
  587TMC3    C7 8762   4.118   0.610  17.108  0.5252 -0.6618  0.1186
  587TMC3    C8 8763   3.937   1.025  17.138 -0.1122  0.0702 -0.2270
  587TMC3    O1 8764   4.039   0.550  17.182  0.6621 -0.6508  0.5049
  587TMC3    O2 8765   3.998   0.999  17.238  0.4721 -0.6407  0.2407
  588TMC3    C1 8766   1.851   3.569   9.472 -0.4537 -0.3324 -0.4726
  588TMC3    C2 8767   1.829   3.436   9.473 -0.0446  0.4222  0.5438
  588TMC3    C3 8768   1.937   3.364   9.511 -0.4401 -0.3769 -0.2563
  588TMC3    C4 8769   1.979   3.624   9.484 -0.4089  0.5447 -0.0077
  588TMC3    C5 8770   2.085   3.543   9.521 -0.0506  0.2863 -0.7154
  588TMC3    C6 8771   2.063   3.411   9.546  0.2644  0.1839  1.0224
  588TMC3     C 8772   1.745   3.668   9.471 -0.0717 -0.3263  0.4020
  588TMC3     O 8773   1.662   3.651   9.381 -0.0751 -0.6466 -0.3124
  588TMC3     H 8774   1.728   3.400   9.467  0.1117  0.2644 -1.1934
  588TMC3    H1 8775   1.988   3.718   9.430  1.1665 -0.0765 -0.8352
  588TMC3    H2 8776   2.150   3.348   9.558  1.2679  1.2315 -0.7919
  588TMC3    C7 8777   2.206   3.602   9.569  1.5297 -0.4552  0.2917
  588TMC3    C8 8778   1.918   3.224   9.518  0.4983  0.2288 -0.3050
  588TMC3    O1 8779   2.284   3.532   9.630 -0.4800 -0.3444 -0.4377
  588TMC3    O2 8780   1.821   3.172   9.458  0.0780 -0.5669 -0.3776
  589TMC3    C1 8781   1.289   0.472   1.740  0.0509  1.0502 -0.1123
  589TMC3    C2 8782   1.420   0.430   1.762  0.5487 -0.7105  0.0569
  589TMC3    C3 8783   1.480   0.372   1.648  0.3381  0.7202  0.1531
  589TMC3    C4 8784   1.237   0.483   1.614  0.2947  0.4680 -0.2227
  589TMC3    C5 8785   1.318   0.443   1.503  0.1505  0.7602 -0.1953
  589TMC3    C6 8786   1.438   0.376   1.520  0.2186 -0.4849 -0.0136
  589TMC3     C 8787   1.231   0.532   1.854 -0.3734  0.5531 -0.5518
  589TMC3     O 8788   1.288   0.508   1.963 -0.3272 -0.1093 -0.1582
  589TMC3     H 8789   1.472   0.447   1.856 -2.4593 -0.0977  1.5923
  589TMC3    H1 8790   1.138   0.523   1.593 -0.6234 -0.6405  1.9931
  589TMC3    H2 8791   1.492   0.335   1.435  0.2310 -0.7990  0.1449
  589TMC3    C7 8792   1.263   0.418   1.377 -0.2096  0.4993 -0.1669
  589TMC3    C8 8793   1.620   0.342   1.676 -0.3645 -0.2051 -0.0874
  589TMC3    O1 8794   1.297   0.315   1.324 -0.8491  0.3073 -0.7285
  589TMC3    O2 8795   1.656   0.313   1.793 -0.2438  0.6887  0.0839
  590MPD2     C 8796   0.983   4.379  16.827  0.4301  0.4627  0.2424
  590MPD2    C1 8797   0.914   4.397  16.707 -0.4998 -0.0968  0.3020
  590MPD2    C2 8798   0.966   4.482  16.606 -1.3025 -0.1867  0.7027
  590MPD2    C3 8799   1.075   4.562  16.627  0.3807 -0.4416 -0.0631
  590MPD2    C4 8800   1.145   4.542  16.751 -0.3058  0.5389  0.3465
  590MPD2    C5 8801   1.102   4.454  16.843 -0.3470 -0.1726 -0.2536
  590MPD2     H 8802   0.914   4.510  16.515  0.7128 -1.9564 -0.9813
  590MPD2    H1 8803   1.227   4.605  16.782  0.3374 -0.3362  0.4068
  590MPD2    H2 8804   0.955   4.308  16.903  0.4566  0.3469  0.1450
  590MPD2    H3 8805   1.159   4.439  16.934 -1.3709 -2.9341 -0.0720
  590MPD2     N 8806   1.124   4.644  16.521 -0.1699 -0.3570  0.2220
  590MPD2    H5 8807   1.084   4.638  16.428 -1.9817 -0.5481  1.0052
  590MPD2    N1 8808   0.791   4.335  16.707  0.5181  0.3611 -0.5357
  590MPD2    H7 8809   0.754   4.296  16.793 -1.6352  0.0199 -1.6357
  591TMC3    C1 8810   1.268   0.067  16.411  0.3521  0.3593  0.2868
  591TMC3    C2 8811   1.224   0.028  16.286  0.2220 -0.1102  0.4791
  591TMC3    C3 8812   1.261   0.107  16.179 -0.0084  0.7970 -0.2842
  591TMC3    C4 8813   1.344   0.184  16.419 -0.3658 -1.2745  0.4224
  591TMC3    C5 8814   1.368   0.264  16.308  0.6497 -1.1373 -1.0301
  591TMC3    C6 8815   1.323   0.226  16.186  0.1690  0.8684  0.1288
  591TMC3     C 8816   1.232   4.727  16.535 -0.4717  0.1732 -0.7357
  591TMC3     O 8817   1.271   0.040  16.641 -0.0005  0.0903 -0.1679
  591TMC3     H 8818   1.169   4.671  16.267  0.9817 -0.2552 -1.0448
  591TMC3    H1 8819   1.376   0.218  16.517  0.9371 -1.3516  0.0260
  591TMC3    H2 8820   1.368   0.271  16.098 -1.4907  0.7431 -0.7852
  591TMC3    C7 8821   1.458   0.382  16.334 -0.1791  0.2017  0.3132
  591TMC3    C8 8822   1.230   0.057  16.050 -0.5401  0.1723  0.3829
  591TMC3    O1 8823   1.529   0.382  16.433 -0.4376 -0.8941  0.3606
  591TMC3    O2 8824   1.197   4.668  16.041  0.3408 -0.1047 -0.7305
  592MPD2     C 8825   1.221   1.401  11.588  0.1157 -0.3572  0.1390
  592MPD2    C1 8826   1.183   1.475  11.697 -0.9848  0.4613  0.4473
  592MPD2    C2 8827   1.070   1.443  11.761 -0.1448 -0.6091 -0.2685
  592MPD2    C3 8828   0.986   1.336  11.725  0.1312 -0.4846 -0.4342
  592MPD2    C4 8829   1.024   1.263  11.609  0.0958 -0.6924 -0.6301
  592MPD2    C5 8830   1.146   1.295  11.552  0.1106  0.2539 -0.8027
  592MPD2     H 8831   1.038   1.487  11.855  0.2476 -2.5580  0.7758
  592MPD2    H1 8832   0.978   1.168  11.583  0.6072 -1.4153  1.1560
  592MPD2    H2 8833   1.314   1.429  11.539 -0.5227 -0.8474 -1.3432
  592MPD2    H3 8834   1.185   1.238  11.469 -2.4307 -0.6227 -1.3926
  592MPD2     N 8835   0.878   1.311  11.802 -0.2056  0.6061 -0.0963
  592MPD2    H5 8836   0.855   1.385  11.868  0.4591  0.2049  0.5745
  592MPD2    N1 8837   1.272   1.582  11.741  0.3585 -0.2853  0.4391
  592MPD2    H7 8838   1.359   1.602  11.692  2.2438 -1.4091  3.3437
  593TMC3    C1 8839   1.346   1.757  11.875 -0.3342  0.3933 -0.2804
  593TMC3    C2 8840   1.327   1.841  11.986  0.7603  0.1932  0.4911
  593TMC3    C3 8841   1.413   1.943  12.013  0.3389  0.5126 -1.0413
  593TMC3    C4 8842   1.462   1.769  11.801  0.4531 -0.6242 -0.0072
  593TMC3    C5 8843   1.544   1.872  11.829  0.5800 -0.3612 -0.3771
  593TMC3    C6 8844   1.530   1.953  11.940 -0.0676  0.5676 -0.3972
  593TMC3     C 8845   1.252   1.655  11.857  0.6297  0.0361 -0.1892
  593TMC3     O 8846   1.167   1.641  11.940  0.4014  0.4599  0.1799
  593TMC3     H 8847   1.231   1.839  12.037 -0.1498 -1.6144 -1.3040
  593TMC3    H1 8848   1.491   1.698  11.724  1.0805 -0.4110  0.0358
  593TMC3    H2 8849   1.610   2.021  11.968  0.6900  0.3881 -2.1535
  593TMC3    C7 8850   1.668   1.894  11.750  0.0687 -0.3482  0.5816
  593TMC3    C8 8851   1.384   2.041  12.125 -0.0581 -0.0237  0.1780
  593TMC3    O1 8852   1.764   1.953  11.798  0.0606  0.8935  0.4194
  593TMC3    O2 8853   1.273   2.031  12.179 -0.8630  0.2467 -0.0994
  594MPD2     C 8854   0.434   0.029  15.079 -0.8550  0.1190  0.1090
  594MPD2    C1 8855   0.331   0.080  14.995 -0.1362  0.6136  0.5582
  594MPD2    C2 8856   0.355   0.191  14.913 -0.3827  0.3358  0.5994
  594MPD2    C3 8857   0.482   0.247  14.908  0.3075 -0.5789  0.3318
  594MPD2    C4 8858   0.575   0.198  14.999  0.6597 -0.2510 -0.1758
  594MPD2    C5 8859   0.549   0.102  15.088  0.1901  0.1232 -0.7970
  594MPD2     H 8860   0.278   0.229  14.846  1.3351 -1.1152 -2.2271
  594MPD2    H1 8861   0.674   0.243  15.006  0.0731  0.9983 -0.0171
  594MPD2    H2 8862   0.433   4.685  15.154  0.6383  0.3270  0.3477
  594MPD2    H3 8863   0.621   0.077  15.165 -2.3334  2.4962  2.3305
  594MPD2     N 8864   0.502   0.351  14.819  0.0414 -0.2056  0.2477
  594MPD2    H5 8865   0.452   0.348  14.730 -2.1540 -2.3266  1.5512
  594MPD2    N1 8866   0.205   0.018  14.993  0.2493  0.0283  0.0419
  594MPD2    H7 8867   0.200   4.666  15.046 -0.0920  0.0631  0.0658
  595TMC3    C1 8868   0.716   0.674  14.568 -0.1815  0.4282  0.0769
  595TMC3    C2 8869   0.722   0.575  14.656  0.1123 -0.4665 -0.4517
  595TMC3    C3 8870   0.602   0.530  14.708 -0.7585  0.0694  0.5290
  595TMC3    C4 8871   0.603   0.715  14.502  0.0515 -0.3944 -0.5726
  595TMC3    C5 8872   0.482   0.655  14.545  0.5918 -0.0658 -0.5449
  595TMC3    C6 8873   0.482   0.566  14.651  0.1426  0.5168  0.4896
  595TMC3     C 8874   0.837   0.745  14.528 -0.6950 -0.2671 -0.7154
  595TMC3     O 8875   0.917   0.778  14.612 -0.4572 -0.7801  0.5406
  595TMC3     H 8876   0.815   0.553  14.707  0.4267 -0.0365 -0.8481
  595TMC3    H1 8877   0.599   0.808  14.448  1.8346  0.2193  0.3701
  595TMC3    H2 8878   0.392   0.546  14.707  0.2090 -3.5916 -0.8803
  595TMC3    C7 8879   0.362   0.739  14.518  0.3417 -0.5041  0.2133
  595TMC3    C8 8880   0.620   0.419  14.805  0.0127  0.3300 -0.0990
  595TMC3    O1 8881   0.273   0.745  14.601 -0.3994 -0.2701  0.0374
  595TMC3    O2 8882   0.718   0.425  14.878  0.0275  0.2074  0.1661
  596MPD2     C 8883   3.726   3.215  16.638  0.2074 -1.0923  0.1920
  596MPD2    C1 8884   3.751   3.299  16.531 -0.0045  0.3894  0.0760
  596MPD2    C2 8885   3.820   3.250  16.420  0.3192 -0.0977 -0.3515
  596MPD2    C3 8886   3.850   3.112  16.406 -0.7163 -0.8475  0.4111
  596MPD2    C4 8887   3.828   3.031  16.512 -0.1815  0.3867 -0.0220
  596MPD2    C5 8888   3.762   3.079  16.626 -0.2658  0.4260 -0.3372
  596MPD2     H 8889   3.836   3.317  16.336  1.9651 -0.6903 -0.5154
  596MPD2    H1 8890   3.859   2.928  16.494  0.8234  0.2059  2.7433
  596MPD2    H2 8891   3.680   3.246  16.731  0.7053 -1.0941  0.4408
  596MPD2    H3 8892   3.759   3.025  16.720  0.2872  1.2060  0.1321
  596MPD2     N 8893   3.891   3.048  16.290 -0.3408  0.7471 -0.6806
  596MPD2    H5 8894   3.854   2.954  16.280  0.5036 -0.0419  3.6970
  596MPD2    N1 8895   3.714   3.437  16.539 -0.3749 -0.0314 -0.0568
  596MPD2    H7 8896   3.746   3.496  16.464 -0.0736  0.2207  0.2693
  597TMC3    C1 8897   3.619   3.624  16.631  0.0285  0.3078 -0.0369
  597TMC3    C2 8898   3.731   3.692  16.582 -0.5585 -0.4765 -0.1969
  597TMC3    C3 8899   3.726   3.828  16.601 -0.0743  0.4665 -0.7384
  597TMC3    C4 8900   3.512   3.680  16.687 -0.1203  0.2603 -0.0521
  597TMC3    C5 8901   3.529   3.811  16.713 -0.2307 -0.3894  0.3675
  597TMC3    C6 8902   3.628   3.887  16.680  0.4214  0.2346  0.3654
  597TMC3     C 8903   3.628   3.480  16.633 -0.1008 -0.6015 -0.0878
  597TMC3     O 8904   3.547   3.416  16.705 -0.1027 -0.0282 -0.1150
  597TMC3     H 8905   3.823   3.643  16.550 -0.7865  0.1784 -1.8540
  597TMC3    H1 8906   3.430   3.618  16.722 -0.7335 -1.2008 -4.0933
  597TMC3    H2 8907   3.620   3.994  16.692 -0.1496  0.1233  0.9927
  597TMC3    C7 8908   3.449   3.853  16.828  0.5403  0.3562 -0.1084
  597TMC3    C8 8909   3.839   3.920  16.570 -0.4086 -0.6988 -0.1992
  597TMC3    O1 8910   3.415   3.768  16.908  0.6078  0.2333  0.1457
  597TMC3    O2 8911   3.840   4.029  16.615  0.0265 -0.1725  0.0888
  598TMC3    C1 8912   1.830   0.166  15.263 -0.5088 -0.1190  0.7217
  598TMC3    C2 8913   1.723   0.244  15.263  0.1843 -0.3622  0.1523
  598TMC3    C3 8914   1.737   0.385  15.278  0.2296  0.7197  0.3537
  598TMC3    C4 8915   1.956   0.215  15.278  0.8813 -0.3228 -0.5057
  598TMC3    C5 8916   1.968   0.350  15.293  0.3129  0.3465  0.0663
  598TMC3    C6 8917   1.861   0.438  15.293  0.0078 -0.1224 -0.2575
  598TMC3     C 8918   1.819   0.082  15.145 -0.5539 -0.0959  0.0475
  598TMC3     O 8919   1.719   0.010  15.142  0.4033  0.5241 -0.8331
  598TMC3     H 8920   1.622   0.206  15.259  0.5074 -1.1720 -0.4624
  598TMC3    H1 8921   2.051   0.165  15.268  1.0677 -0.5028  1.9770
  598TMC3    H2 8922   1.871   0.546  15.296 -3.0085  0.1298  1.3015
  598TMC3    C7 8923   2.067   0.394  15.194  0.1906 -0.1091  0.0756
  598TMC3    C8 8924   1.622   0.462  15.235 -0.4491 -0.2184 -0.3181
  598TMC3    O1 8925   2.110   0.303  15.119 -0.8006 -0.0869  0.0594
  598TMC3    O2 8926   1.651   0.568  15.188  0.4279 -0.0841 -0.1781
  599MPD2     C 8927   1.843   2.097  15.741  0.4095  0.1335  0.2713
  599MPD2    C1 8928   1.893   2.081  15.875 -0.4320 -0.7980 -0.1210
  599MPD2    C2 8929   1.814   2.113  15.986  0.5279  0.4855 -0.5585
  599MPD2    C3 8930   1.686   2.161  15.960 -0.2810  0.3819  0.5026
  599MPD2    C4 8931   1.640   2.188  15.831  0.5556  0.1606 -0.2540
  599MPD2    C5 8932   1.717   2.156  15.723  0.0995 -0.6548  0.1913
  599MPD2     H 8933   1.864   2.099  16.081 -1.3082  0.3513  0.3716
  599MPD2    H1 8934   1.543   2.235  15.817  0.9488  0.6970 -1.2129
  599MPD2    H2 8935   1.902   2.075  15.654 -1.1851 -0.4906 -0.6569
  599MPD2    H3 8936   1.687   2.168  15.619  2.4457 -0.0463 -0.4056
  599MPD2     N 8937   1.597   2.184  16.076  0.0723  0.1887  0.3383
  599MPD2    H5 8938   1.508   2.231  16.061 -1.4265 -2.7796 -0.1125
  599MPD2    N1 8939   2.019   2.021  15.876 -0.3077 -0.4293  0.2011
  599MPD2    H7 8940   2.072   2.005  15.791  0.2467  1.2863  0.2319
  600TMC3    C1 8941   1.523   2.159  16.292 -0.0247  0.0255 -0.2270
  600TMC3    C2 8942   1.489   2.076  16.394 -0.1424 -0.2962 -0.8898
  600TMC3    C3 8943   1.450   2.135  16.511 -0.1940  0.6875 -0.5931
  600TMC3    C4 8944   1.525   2.298  16.311  0.6539 -0.3840  0.3623
  600TMC3    C5 8945   1.507   2.352  16.434  0.3749 -0.6418 -0.9226
  600TMC3    C6 8946   1.465   2.267  16.534  0.4127  0.1120 -0.4804
  600TMC3     C 8947   1.611   2.113  16.194  0.0087 -0.5356  0.1003
  600TMC3     O 8948   1.692   2.030  16.227  0.4044  0.1962 -0.6576
  600TMC3     H 8949   1.486   1.968  16.382  0.2692 -0.5215  1.0915
  600TMC3    H1 8950   1.543   2.374  16.237  1.8989 -1.0376 -0.0063
  600TMC3    H2 8951   1.449   2.309  16.633 -1.6224 -0.3153 -0.6411
  600TMC3    C7 8952   1.507   2.490  16.454 -0.0024 -0.4038 -0.5837
  600TMC3    C8 8953   1.360   2.063  16.598 -0.1813 -0.5512  0.2006
  600TMC3    O1 8954   1.429   2.531  16.538  0.2233 -0.3775  0.2725
  600TMC3    O2 8955   1.364   2.098  16.713  0.1813 -0.5170  0.3197
  601MPD2     C 8956   3.775   1.468   0.227  0.9113  0.2012 -0.1565
  601MPD2    C1 8957   3.698   1.380   0.150 -1.3477 -0.4233  0.4083
  601MPD2    C2 8958   3.729   1.244   0.133 -0.5490 -0.1053  0.6046
  601MPD2    C3 8959   3.824   1.189   0.216 -0.1670  0.4689 -0.3650
  601MPD2    C4 8960   3.899   1.268   0.299  0.1706 -0.0021 -0.3040
  601MPD2    C5 8961   3.880   1.408   0.302  0.0191 -0.3741 -0.6465
  601MPD2     H 8962   3.673   1.192   0.056 -1.8378 -0.0899  1.5266
  601MPD2    H1 8963   3.974   1.227   0.364  2.4614  4.1339 -0.3529
  601MPD2    H2 8964   3.762   1.575   0.241 -3.1606 -0.2557 -0.5310
  601MPD2    H3 8965   3.936   1.477   0.364 -1.9296 -0.3646  1.1351
  601MPD2     N 8966   3.850   1.050   0.210 -0.6616  0.4116 -0.1164
  601MPD2    H5 8967   3.932   1.018   0.259 -0.7315  0.8368  0.2803
  601MPD2    N1 8968   3.588   1.426   0.077 -0.5029  0.5395  0.0298
  601MPD2    H7 8969   3.531   1.352   0.037 -1.0799  0.6491  0.6522
  602TMC3    C1 8970   3.424   1.566  17.709  0.0605  0.2397 -0.8101
  602TMC3    C2 8971   3.361   1.683  17.700  0.0668 -1.4514  0.4578
  602TMC3    C3 8972   3.231   1.681  17.652 -0.2374  0.0336 -0.1992
  602TMC3    C4 8973   3.376   1.446  17.665  0.6488 -0.6409 -0.9512
  602TMC3    C5 8974   3.252   1.452  17.615  0.0076  0.2707  0.2335
  602TMC3    C6 8975   3.174   1.565  17.601  0.2463  0.0769 -0.0141
  602TMC3     C 8976   3.550   1.557   0.046 -0.2139 -0.0306 -0.0449
  602TMC3     O 8977   3.608   1.661   0.080  0.6275 -0.1353  0.1060
  602TMC3     H 8978   3.399   1.777   0.004 -0.7748 -2.0388  2.6810
  602TMC3    H1 8979   3.432   1.354  17.651  1.3389 -0.1888 -1.1600
  602TMC3    H2 8980   3.072   1.559  17.566 -0.1071 -0.4901  1.1266
  602TMC3    C7 8981   3.208   1.329  17.550 -0.4414  0.3399  0.0247
  602TMC3    C8 8982   3.154   1.803  17.641 -0.5258 -0.0072  0.1118
  602TMC3    O1 8983   3.269   1.225  17.567  0.2439 -0.4787  0.3716
  602TMC3    O2 8984   3.131   1.874  17.734 -0.1170  0.1942  0.8121
  603TMC3    C1 8985   2.208   0.912  10.599  0.1422  0.3839  0.9112
  603TMC3    C2 8986   2.232   0.917  10.737  0.6051 -0.3340  0.1450
  603TMC3    C3 8987   2.215   1.040  10.797  0.6320 -0.1566  0.8025
  603TMC3    C4 8988   2.166   1.014  10.519  0.0364 -0.3937 -0.4435
  603TMC3    C5 8989   2.151   1.136  10.580 -0.3038 -0.1780  1.0201
  603TMC3    C6 8990   2.170   1.151  10.720  0.1885  0.8094 -0.7957
  603TMC3     C 8991   2.235   0.782  10.539 -0.4721 -0.2542 -0.5120
  603TMC3     O 8992   2.306   0.707  10.607  0.2130 -0.0103 -0.0293
  603TMC3     H 8993   2.258   0.827  10.791 -2.9538 -1.0138  0.7356
  603TMC3    H1 8994   2.154   1.014  10.412  0.1809 -0.7880 -0.4592
  603TMC3    H2 8995   2.139   1.243  10.769  0.6188 -0.2289  1.4411
  603TMC3    C7 8996   2.078   1.240  10.509 -0.1152 -0.8056  0.5029
  603TMC3    C8 8997   2.203   1.039  10.936 -0.2286  0.6946  0.1413
  603TMC3    O1 8998   2.073   1.246  10.388 -0.1581 -0.1283 -0.4774
  603TMC3    O2 8999   2.201   0.930  10.993  0.2630  0.0003 -0.0168
  604MPD2     C 9000   3.194   4.673  16.296  0.6345 -1.1163  0.1734
  604MPD2    C1 9001   3.064   4.649  16.265  0.5683  0.2244 -0.5439
  604MPD2    C2 9002   3.027   4.566  16.162  0.0167  0.1092 -0.2908
  604MPD2    C3 9003   3.131   4.521  16.085 -0.4907 -0.6277 -0.1435
  604MPD2    C4 9004   3.259   4.549  16.119  0.5031  0.4410 -0.2351
  604MPD2    C5 9005   3.295   4.627  16.225 -0.5954 -0.2031  0.5926
  604MPD2     H 9006   2.924   4.551  16.131  0.2572 -0.3572 -0.8474
  604MPD2    H1 9007   3.336   4.518  16.049  1.5081  2.1019  0.1380
  604MPD2    H2 9008   3.215   4.727  16.388 -1.1117  0.1725 -0.1946
  604MPD2    H3 9009   3.402   4.639  16.243 -1.0606  0.4669  2.9425
  604MPD2     N 9010   3.101   4.448  15.964  0.8082 -0.0711  0.1777
  604MPD2    H5 9011   3.008   4.452  15.926  1.0791  1.5739 -0.2999
  604MPD2    N1 9012   2.972   4.720  16.344 -0.5223 -0.4434  0.4628
  604MPD2    H7 9013   3.012   0.053  16.409  0.2043 -0.7947  0.3787
  605TMC3    C1 9014   2.773   0.024  16.471 -0.5481 -0.8834  0.5671
  605TMC3    C2 9015   2.840   0.115  16.554 -0.2624 -0.5998  0.4298
  605TMC3    C3 9016   2.773   0.206  16.623  0.3624 -0.5766 -0.2623
  605TMC3    C4 9017   2.645   4.733  16.482 -0.6617 -0.0286  1.1730
  605TMC3    C5 9018   2.577   0.082  16.572  0.1456 -0.3212  0.4202
  605TMC3    C6 9019   2.642   0.176  16.648  0.6193 -0.5274  0.7000
  605TMC3     C 9020   2.841   4.694  16.360  0.5848 -0.6254  0.3393
  605TMC3     O 9021   2.775   4.613  16.289 -0.0417 -0.2607 -0.9374
  605TMC3     H 9022   2.948   0.107  16.560 -0.1194  2.0149  1.1871
  605TMC3    H1 9023   2.593   4.658  16.423 -0.4990  0.4334  0.4389
  605TMC3    H2 9024   2.589   0.255  16.700 -1.4353 -0.5763 -1.3328
  605TMC3    C7 9025   2.432   0.113  16.549  0.1004 -0.1767  0.3055
  605TMC3    C8 9026   2.852   0.281  16.727  0.2675  0.0772  0.4465
  605TMC3    O1 9027   2.400   0.228  16.575  0.3312 -0.1452 -0.0236
  605TMC3    O2 9028   2.819   0.297  16.841 -0.1304 -0.2085  0.0401
  606TMC3    C1 9029   3.232   3.379  17.402  0.1102 -0.7731 -0.6576
  606TMC3    C2 9030   3.229   3.338  17.528  0.0096  0.2665 -0.2494
  606TMC3    C3 9031   3.199   3.212  17.560 -0.3536 -0.1149 -0.0887
  606TMC3    C4 9032   3.198   3.297  17.298  0.1976 -0.7189 -0.3424
  606TMC3    C5 9033   3.149   3.174  17.331 -0.3543 -0.3469 -0.9222
  606TMC3    C6 9034   3.146   3.129  17.461 -0.0583 -0.6319 -0.4644
  606TMC3     C 9035   3.265   3.518  17.366 -0.5484  0.6044 -0.0611
  606TMC3     O 9036   3.304   3.541  17.252  0.0774  0.6464  0.0652
  606TMC3     H 9037   3.278   3.402  17.600 -0.7036  0.2288  0.2726
  606TMC3    H1 9038   3.206   3.334  17.196  1.1194 -2.4241 -0.8915
  606TMC3    H2 9039   3.136   3.025  17.487  0.1374 -0.1583  1.5343
  606TMC3    C7 9040   3.203   3.073  17.244  0.1652 -0.1319  0.5798
  606TMC3    C8 9041   3.281   3.153  17.668  0.0146 -0.9231 -0.2913
  606TMC3    O1 9042   3.297   3.116  17.177  0.1225 -0.1794 -0.1120
  606TMC3    O2 9043   3.378   3.219  17.698 -0.1199 -0.2378 -0.4187
  607MPD2     C 9044   1.399   1.301  11.894 -0.6545  0.3460 -0.5768
  607MPD2    C1 9045   1.525   1.344  11.940  0.0789 -0.6774 -0.0499
  607MPD2    C2 9046   1.555   1.347  12.076 -0.0337  0.3054  0.4991
  607MPD2    C3 9047   1.476   1.276  12.161 -0.6453  0.2528 -0.3828
  607MPD2    C4 9048   1.349   1.244  12.116 -0.1425 -0.9522 -0.9023
  607MPD2    C5 9049   1.313   1.260  11.988  0.3750 -0.5295 -0.0104
  607MPD2     H 9050   1.645   1.388  12.120  1.5648 -1.6209 -0.9577
  607MPD2    H1 9051   1.272   1.194  12.174  0.5778 -1.3935 -0.3325
  607MPD2    H2 9052   1.372   1.297  11.789  0.8746  0.7429 -0.9802
  607MPD2    H3 9053   1.211   1.232  11.962  0.3355  1.6009 -2.1232
  607MPD2     N 9054   1.511   1.271  12.299 -0.3872  0.3553 -0.2383
  607MPD2    H5 9055   1.608   1.295  12.317 -0.8293  1.4000  0.7846
  607MPD2    N1 9056   1.637   1.386  11.858 -0.5484 -0.1673 -0.0065
  607MPD2    H7 9057   1.716   1.429  11.906 -1.0505 -1.6410  2.1466
  608TMC3    C1 9058   1.766   1.468  11.685  0.2855 -0.4542 -0.1844
  608TMC3    C2 9059   1.867   1.431  11.768 -0.1538 -0.1351  0.2226
  608TMC3    C3 9060   1.989   1.483  11.753  0.2148 -0.0402 -0.8181
  608TMC3    C4 9061   1.782   1.556  11.580 -0.1729 -0.5221 -0.3711
  608TMC3    C5 9062   1.901   1.616  11.577  0.8251  0.3262  0.4000
  608TMC3    C6 9063   2.011   1.571  11.650  0.1419  0.0357  0.2924
  608TMC3     C 9064   1.633   1.413  11.727 -0.8239  0.2487 -0.1011
  608TMC3     O 9065   1.534   1.433  11.659 -0.2854  0.3889 -0.6127
  608TMC3     H 9066   1.862   1.342  11.831 -0.3093  0.4298  1.0066
  608TMC3    H1 9067   1.705   1.599  11.517 -0.3182  0.7298  0.6504
  608TMC3    H2 9068   2.103   1.628  11.659 -0.2460  0.8132 -0.6328
  608TMC3    C7 9069   1.927   1.675  11.450 -0.0200 -0.8518  0.1269
  608TMC3    C8 9070   2.090   1.462  11.854  0.0507 -0.2840  0.1305
  608TMC3    O1 9071   1.884   1.618  11.353  0.6829  0.1218  0.2359
  608TMC3    O2 9072   2.201   1.448  11.811 -0.0188 -0.8905  0.0559
  609TMC3    C1 9073   4.717   0.624   8.906 -0.4501  0.4529 -0.3850
  609TMC3    C2 9074   4.720   0.682   8.777 -0.1608 -0.0893  0.0816
  609TMC3    C3 9075   0.063   0.621   8.681  0.2126  0.3736 -0.2993
  609TMC3    C4 9076   0.066   0.515   8.936  0.3478  0.0855 -0.4104
  609TMC3    C5 9077   0.149   0.458   8.835  0.4302 -0.9131  0.3542
  609TMC3    C6 9078   0.147   0.514   8.710  0.2744  0.1674  0.7501
  609TMC3     C 9079   4.630   0.674   9.020 -0.0536 -0.5238  0.8906
  609TMC3     O 9080   4.646   0.627   9.134  1.1852  0.0078 -0.3105
  609TMC3     H 9081   4.663   0.770   8.749 -1.6670 -0.2175  2.7613
  609TMC3    H1 9082   0.060   0.470   9.035 -0.5805 -0.5391 -0.7567
  609TMC3    H2 9083   0.179   0.460   8.622 -0.9068  0.9872 -0.1808
  609TMC3    C7 9084   0.242   0.349   8.861  0.3509  1.1460  0.6343
  609TMC3    C8 9085   0.059   0.682   8.543  0.0167  0.1029 -0.6430
  609TMC3    O1 9086   0.218   0.292   8.967 -0.0060  0.2757 -0.3678
  609TMC3    O2 9087   4.696   0.750   8.515  0.1785  0.1164 -0.1225
  610TMC3    C1 9088   1.931   1.642  12.538  0.0942  0.0835  0.5194
  610TMC3    C2 9089   1.937   1.690  12.413  0.2041 -0.3530  0.2562
  610TMC3    C3 9090   2.062   1.692  12.350 -0.4434 -0.7406 -0.3469
  610TMC3    C4 9091   2.038   1.578  12.588  0.5595  0.4279 -0.2999
  610TMC3    C5 9092   2.157   1.576  12.525 -0.2845 -0.1142  0.3043
  610TMC3    C6 9093   2.181   1.644  12.404 -0.2535 -0.6540  0.3763
  610TMC3     C 9094   1.804   1.641  12.617  0.1978 -0.2046 -0.2919
  610TMC3     O 9095   1.806   1.609  12.735  0.0976 -0.6085  0.2108
  610TMC3     H 9096   1.849   1.733  12.365  0.6042  0.5167  0.3103
  610TMC3    H1 9097   2.023   1.533  12.685  0.6712  1.1646  0.0564
  610TMC3    H2 9098   2.272   1.642  12.347 -0.0558  0.8863  0.6549
  610TMC3    C7 9099   2.262   1.485  12.584 -0.2409  0.0276 -0.5095
  610TMC3    C8 9100   2.063   1.731  12.212 -0.7240  0.2235  0.1405
  610TMC3    O1 9101   2.222   1.407  12.673 -0.5978  0.1636 -0.0987
  610TMC3    O2 9102   1.954   1.751  12.158 -0.2868 -0.1767  0.5759
  611MPD2     C 9103   0.681   1.890  10.861 -0.4686  0.4249  1.0389
  611MPD2    C1 9104   0.750   1.818  10.768 -0.1040 -0.5555 -0.3113
  611MPD2    C2 9105   0.888   1.800  10.785  0.1804 -0.7690 -0.4758
  611MPD2    C3 9106   0.950   1.862  10.891  0.3587  0.4357  0.5705
  611MPD2    C4 9107   0.881   1.945  10.973  0.0833 -0.3974  0.0952
  611MPD2    C5 9108   0.745   1.957  10.964 -1.1213  0.8795 -0.5778
  611MPD2     H 9109   0.943   1.724  10.731 -0.0226 -0.5911 -0.9348
  611MPD2    H1 9110   0.937   1.993  11.052 -1.6328  0.6330  0.6808
  611MPD2    H2 9111   0.573   1.894  10.851 -0.1238  0.8089 -2.4069
  611MPD2    H3 9112   0.693   2.023  11.034 -0.2300  0.2168  0.7107
  611MPD2     N 9113   1.094   1.840  10.899 -0.4343 -0.0595 -0.3246
  611MPD2    H5 9114   1.136   1.792  10.819 -1.9241 -1.5702 -0.1768
  611MPD2    N1 9115   0.666   1.755  10.671  0.2719 -0.4265 -0.3811
  611MPD2    H7 9116   0.569   1.777  10.690 -0.0831  0.4479 -3.2017
  612TMC3    C1 9117   1.293   1.782  11.004  0.4340  1.0395  0.6354
  612TMC3    C2 9118   1.361   1.767  10.885 -0.2262 -0.1575 -0.7682
  612TMC3    C3 9119   1.460   1.676  10.875  0.2678 -0.4263 -0.1203
  612TMC3    C4 9120   1.320   1.701  11.106  0.2637  0.4128 -0.1708
  612TMC3    C5 9121   1.420   1.607  11.096  0.4777  0.4473 -0.2724
  612TMC3    C6 9122   1.493   1.589  10.979 -0.1562  0.7208  0.1526
  612TMC3     C 9123   1.163   1.841  11.015  0.6720 -0.2581  0.3821
  612TMC3     O 9124   1.110   1.841  11.126 -0.2242  1.1452 -0.2487
  612TMC3     H 9125   1.336   1.833  10.802  0.7426  0.5375 -0.5127
  612TMC3    H1 9126   1.270   1.720  11.200  0.3853  2.0118 -0.4301
  612TMC3    H2 9127   1.573   1.517  10.968  0.9637  2.3908 -2.6650
  612TMC3    C7 9128   1.431   1.521  11.209  0.0404  0.0658 -0.0915
  612TMC3    C8 9129   1.555   1.689  10.765 -0.3975 -0.0462  0.5258
  612TMC3    O1 9130   1.332   1.500  11.276 -0.0134  0.5699  0.2986
  612TMC3    O2 9131   1.541   1.783  10.686 -0.2609  0.0775  0.2469
  613MPD2     C 9132   0.473   3.447  16.851 -0.8990  0.3154 -0.0394
  613MPD2    C1 9133   0.493   3.332  16.782 -0.2067  0.2418 -0.6454
  613MPD2    C2 9134   0.418   3.220  16.822  0.0981  0.0402 -0.2868
  613MPD2    C3 9135   0.318   3.236  16.912  0.3652  0.4990 -0.9790
  613MPD2    C4 9136   0.298   3.359  16.978  0.5718  0.7245 -0.6838
  613MPD2    C5 9137   0.382   3.469  16.951 -0.0270  0.8605  0.3015
  613MPD2     H 9138   0.429   3.118  16.785 -0.2298 -0.2781  0.4993
  613MPD2    H1 9139   0.222   3.375  17.053  0.5437  0.6745 -0.7018
  613MPD2    H2 9140   0.535   3.532  16.827  0.6969 -0.1111  2.5905
  613MPD2    H3 9141   0.365   3.561  17.005  0.2238 -0.1986  2.1827
  613MPD2     N 9142   0.246   3.115  16.936 -0.7775 -0.2557 -0.0475
  613MPD2    H5 9143   0.263   3.033  16.879 -0.6399  0.3249 -0.8442
  613MPD2    N1 9144   0.587   3.331  16.682  0.1840  0.8912  0.0038
  613MPD2    H7 9145   0.641   3.416  16.669  0.6282  0.6509  0.2705
  614TMC3    C1 9146   0.692   3.257  16.494  0.5894 -0.5508 -0.7543
  614TMC3    C2 9147   0.702   3.146  16.415 -0.4648  0.3393  0.6720
  614TMC3    C3 9148   0.666   3.148  16.283 -0.4512 -0.0421 -0.0439
  614TMC3    C4 9149   0.654   3.377  16.432  0.5567  0.4273 -0.2141
  614TMC3    C5 9150   0.623   3.380  16.304  0.2266  0.1429  0.5628
  614TMC3    C6 9151   0.618   3.263  16.232 -0.4251  0.0692 -0.4597
  614TMC3     C 9152   0.613   3.224  16.606  0.0796 -0.1714 -0.5444
  614TMC3     O 9153   0.549   3.120  16.587  0.1802 -0.6433  0.0186
  614TMC3     H 9154   0.760   3.068  16.464 -0.7174  1.1450  2.2564
  614TMC3    H1 9155   0.659   3.473  16.482  1.5516 -0.6554  1.7471
  614TMC3    H2 9156   0.580   3.265  16.131  0.0846 -0.7071 -0.6690
  614TMC3    C7 9157   0.553   3.505  16.264  0.8637 -0.9359 -0.5374
  614TMC3    C8 9158   0.590   3.027  16.246 -0.3293 -0.6015 -0.1473
  614TMC3    O1 9159   0.571   3.613  16.324  0.7780  0.0788 -0.5144
  614TMC3    O2 9160   0.569   3.007  16.127 -0.4068 -0.4225  0.2263
  615MPD2     C 9161   4.567   4.628  16.194  0.5642 -0.4551 -0.3975
  615MPD2    C1 9162   4.593   4.677  16.067  0.5412 -0.3296  0.3487
  615MPD2    C2 9163   4.585   4.590  15.957 -0.4887  0.3131  1.3172
  615MPD2    C3 9164   4.561   4.456  15.977  0.4533 -0.2115  0.3664
  615MPD2    C4 9165   4.541   4.408  16.104  0.3505  0.2531 -0.2317
  615MPD2    C5 9166   4.543   4.497  16.208 -0.3335  0.2074 -0.2383
  615MPD2     H 9167   4.575   4.634  15.858  0.5625 -0.1786  0.9865
  615MPD2    H1 9168   4.505   4.307  16.120  0.7153  0.1586  0.0043
  615MPD2    H2 9169   4.579   4.697  16.277 -1.6151  0.0641 -0.5202
  615MPD2    H3 9170   4.529   4.462  16.309  0.0616  2.4032  0.5843
  615MPD2     N 9171   4.558   4.378  15.855  0.2093  0.1040 -0.0254
  615MPD2    H5 9172   4.594   4.425  15.773 -0.4697 -0.7013 -0.7871
  615MPD2    N1 9173   4.605   0.079  16.044  0.4337 -0.9817  0.1465
  615MPD2    H7 9174   4.604   0.110  15.947  1.5703 -0.4161  0.3162
  616TMC3    C1 9175   4.612   0.313  16.078 -0.1573 -0.3804  0.1866
  616TMC3    C2 9176   4.718   0.396  16.098  0.7234 -0.0585  0.2734
  616TMC3    C3 9177   4.715   0.521  16.037  0.5618 -0.3615  0.3719
  616TMC3    C4 9178   4.502   0.347  16.008  0.2203  0.2275  0.2891
  616TMC3    C5 9179   4.500   0.475  15.951 -0.8358 -0.2121  0.0989
  616TMC3    C6 9180   4.607   0.561  15.967  0.0493  0.1134 -0.9417
  616TMC3     C 9181   4.619   0.180  16.141  0.1372 -0.3667 -0.0083
  616TMC3     O 9182   4.677   0.173  16.250 -0.3199 -0.1109 -0.4315
  616TMC3     H 9183   0.062   0.363  16.166 -0.3453 -0.3541  1.3786
  616TMC3    H1 9184   4.424   0.279  15.977  1.1807 -0.2838 -0.9789
  616TMC3    H2 9185   4.597   0.657  15.918 -1.4783  0.6763  0.4749
  616TMC3    C7 9186   4.376   0.539  15.913 -0.1920  0.0293 -0.0460
  616TMC3    C8 9187   0.077   0.619  16.079  0.1252  0.0838  0.5867
  616TMC3    O1 9188   4.385   0.632  15.840 -0.6644 -0.5939  0.4693
  616TMC3    O2 9189   0.126   0.599  16.186  0.2440 -0.1132  0.8112
  617MPD2     C 9190   2.657   3.212  13.818  0.1864  0.1409  0.0568
  617MPD2    C1 9191   2.670   3.138  13.927 -0.9580 -0.7367 -0.3126
  617MPD2    C2 9192   2.553   3.085  13.988 -0.2975  0.0033  0.0252
  617MPD2    C3 9193   2.431   3.110  13.929 -0.0171  1.1772  0.8109
  617MPD2    C4 9194   2.422   3.173  13.805  0.3135  0.1723 -0.1804
  617MPD2    C5 9195   2.542   3.222  13.759 -0.4298  0.4064  0.4225
  617MPD2     H 9196   2.557   3.026  14.079  2.9361  0.0474 -0.0822
  617MPD2    H1 9197   2.324   3.191  13.763  0.1410  1.8532  0.9348
  617MPD2    H2 9198   2.741   3.255  13.764  0.3230  2.1815  1.8951
  617MPD2    H3 9199   2.536   3.281  13.668 -0.1688  1.0346  0.8152
  617MPD2     N 9200   2.310   3.069  13.986 -0.1617 -0.7373  0.8458
  617MPD2    H5 9201   2.225   3.084  13.933  0.3268 -0.0403  0.2689
  617MPD2    N1 9202   2.799   3.103  13.965  0.7575 -0.0460 -0.3159
  617MPD2    H7 9203   2.871   3.134  13.902  0.9908  0.6800  0.3021
  618TMC3    C1 9204   2.957   2.946  13.994  0.4763 -0.6851 -0.1124
  618TMC3    C2 9205   2.968   2.810  13.997  0.5503  0.0529  0.1293
  618TMC3    C3 9206   3.091   2.763  13.979 -0.3335 -0.1682  0.0583
  618TMC3    C4 9207   3.061   3.031  13.974 -0.1276  0.1788  0.8128
  618TMC3    C5 9208   3.182   2.984  13.948 -0.0388  0.1004 -0.2673
  618TMC3    C6 9209   3.198   2.846  13.955 -0.4491 -0.1430  0.4627
  618TMC3     C 9210   2.824   2.984  14.028 -0.1324 -0.1005  0.1305
  618TMC3     O 9211   2.742   2.899  14.056 -0.5335  0.3515  0.3403
  618TMC3     H 9212   2.882   2.744  14.006 -0.4844  1.2695 -0.9051
  618TMC3    H1 9213   3.056   3.135  14.004 -1.3239 -0.2337  2.0320
  618TMC3    H2 9214   3.298   2.804  13.951 -0.6575 -0.5234 -0.9116
  618TMC3    C7 9215   3.287   3.069  14.012 -0.2398 -0.3037  0.5161
  618TMC3    C8 9216   3.092   2.634  13.905  0.5045  0.5143 -0.1106
  618TMC3    O1 9217   3.257   3.131  14.112 -0.2710 -0.5958  0.2847
  618TMC3    O2 9218   2.997   2.562  13.934  0.1712 -0.1006  0.2187
  619MPD2     C 9219   4.209   4.233  13.519  0.0756 -0.0823  0.0072
  619MPD2    C1 9220   4.113   4.301  13.454  0.3710 -0.2798 -0.1722
  619MPD2    C2 9221   3.990   4.252  13.426  0.2654 -0.2952 -0.6842
  619MPD2    C3 9222   3.960   4.123  13.462 -0.8001 -0.0729  0.0316
  619MPD2    C4 9223   4.050   4.050  13.538  0.1275 -0.4921 -0.1067
  619MPD2    C5 9224   4.172   4.105  13.566 -0.1352 -0.3992  0.4352
  619MPD2     H 9225   3.922   4.315  13.369 -0.9683 -1.0614 -0.0674
  619MPD2    H1 9226   4.021   3.950  13.569  0.9765 -0.2787  1.3940
  619MPD2    H2 9227   4.306   4.272  13.548 -0.7434  1.8957  0.0931
  619MPD2    H3 9228   4.241   4.051  13.629  0.2689 -2.1883 -1.5549
  619MPD2     N 9229   3.834   4.070  13.449 -0.2297  0.7673 -0.0404
  619MPD2    H5 9230   3.810   3.993  13.511 -0.8372  1.7545  0.9636
  619MPD2    N1 9231   4.128   4.430  13.414  0.1357  0.3568 -0.1972
  619MPD2    H7 9232   4.049   4.470  13.365  0.7619  2.8931  0.8558
  620TMC3    C1 9233   4.217   4.648  13.373  0.1988 -0.1075  0.4192
  620TMC3    C2 9234   4.116   4.664  13.284  0.3945 -0.3106  1.1574
  620TMC3    C3 9235   4.080   0.058  13.264 -0.0302 -0.0713 -0.3154
  620TMC3    C4 9236   4.285   0.017  13.432 -0.3859  0.8271  0.6491
  620TMC3    C5 9237   4.245   0.146  13.406  0.3128  0.9053 -0.1706
  620TMC3    C6 9238   4.141   0.167  13.322 -0.5265  0.1554 -0.5164
  620TMC3     C 9239   4.238   4.519  13.438  0.0275 -0.0249 -0.0661
  620TMC3     O 9240   4.335   4.512  13.513  0.4017 -0.0308  0.5562
  620TMC3     H 9241   4.060   4.584  13.238  0.8985 -0.1792  0.2956
  620TMC3    H1 9242   4.377   0.000  13.487  1.4948  0.8101 -2.4980
  620TMC3    H2 9243   4.106   0.265  13.291 -2.8049 -0.2364  0.8862
  620TMC3    C7 9244   4.329   0.258  13.434 -0.2076  0.4235  0.5746
  620TMC3    C8 9245   3.968   0.090  13.173  0.0253 -0.3211 -0.5419
  620TMC3    O1 9246   4.449   0.230  13.450  0.0200  0.1706  0.3684
  620TMC3    O2 9247   3.987   0.188  13.098 -0.0356 -0.0061  0.0261
  621MPD2     C 9248   4.277   4.247   9.398 -0.4582 -0.3430  0.1521
  621MPD2    C1 9249   4.305   4.245   9.536  0.2982 -0.7371  0.2585
  621MPD2    C2 9250   4.398   4.334   9.592  0.2968 -0.2974 -0.1813
  621MPD2    C3 9251   4.447   4.437   9.513  0.0981 -0.2126 -0.5558
  621MPD2    C4 9252   4.413   4.441   9.378  0.1036 -0.0258 -0.5709
  621MPD2    C5 9253   4.343   4.338   9.321  0.7784 -0.0926  0.7694
  621MPD2     H 9254   4.416   4.328   9.699  1.0318  0.7712 -0.2400
  621MPD2    H1 9255   4.454   4.513   9.308 -0.7097 -0.8664 -1.9128
  621MPD2    H2 9256   4.209   4.180   9.347 -1.6978 -0.5451  2.0456
  621MPD2    H3 9257   4.321   4.338   9.215 -0.1701  0.3410  0.9731
  621MPD2     N 9258   4.509   4.544   9.580 -0.2631  0.8605 -0.3094
  621MPD2    H5 9259   4.526   4.524   9.678 -0.0842  1.0652 -0.3004
  621MPD2    N1 9260   4.237   4.161   9.632 -0.0430 -0.3573 -0.5908
  621MPD2    H7 9261   4.276   4.174   9.725 -0.4471 -0.4547 -0.4096
  622TMC3    C1 9262   4.083   4.007   9.723 -0.4488 -0.3579  0.1000
  622TMC3    C2 9263   4.111   4.056   9.851 -0.5378 -0.0245  0.4036
  622TMC3    C3 9264   4.031   4.011   9.953 -0.4643 -0.1019  0.0528
  622TMC3    C4 9265   3.988   3.912   9.699 -0.2782  0.2931  0.1949
  622TMC3    C5 9266   3.912   3.874   9.809  0.3008 -0.3112 -0.0909
  622TMC3    C6 9267   3.924   3.928   9.934 -0.1934 -0.1609 -0.5826
  622TMC3     C 9268   4.134   4.069   9.603  0.3804 -0.4321 -0.4231
  622TMC3     O 9269   4.085   4.035   9.498 -0.1795  0.0168  0.0683
  622TMC3     H 9270   4.198   4.117   9.874 -0.3402  0.3198 -1.2811
  622TMC3    H1 9271   3.983   3.874   9.598  1.0618 -0.9162  0.5801
  622TMC3    H2 9272   3.863   3.899  10.019  0.1619 -1.4806 -0.7786
  622TMC3    C7 9273   3.789   3.798   9.790 -0.5261 -0.3954  0.9538
  622TMC3    C8 9274   4.050   4.063  10.092  0.0999 -0.2364 -0.2295
  622TMC3    O1 9275   3.713   3.787   9.885  0.1831 -0.3524 -0.4415
  622TMC3    O2 9276   4.164   4.096  10.128  0.2670 -0.5236 -0.0936
  623MPD2     C 9277   3.167   0.059  15.830  0.1275 -0.3353  0.4107
  623MPD2    C1 9278   3.115   0.127  15.945 -0.2251  0.4917  0.6230
  623MPD2    C2 9279   3.200   0.189  16.035  0.1902  0.4691 -0.2067
  623MPD2    C3 9280   3.331   0.204  16.004  0.1801 -0.1017  0.6266
  623MPD2    C4 9281   3.378   0.144  15.889 -0.0563 -0.2324 -0.1309
  623MPD2    C5 9282   3.301   0.076  15.800  0.0951  0.3552  0.2419
  623MPD2     H 9283   3.165   0.224  16.132  3.1178  2.0070  0.3120
  623MPD2    H1 9284   3.482   0.152  15.860  0.3110  0.7775  1.4694
  623MPD2    H2 9285   3.105   0.006  15.759 -1.5839 -0.1124  1.7390
  623MPD2    H3 9286   3.357   0.036  15.717 -3.2261  1.0955 -2.3682
  623MPD2     N 9287   3.414   0.278  16.088 -0.1512 -0.0425  0.3078
  623MPD2    H5 9288   3.366   0.316  16.169  0.7303  0.2689  0.6894
  623MPD2    N1 9289   2.980   0.116  15.979  0.2271 -0.0912 -0.3431
  623MPD2    H7 9290   2.948   0.161  16.064  0.9920 -1.1762  0.5114
  624TMC3    C1 9291   3.744   0.281  16.393 -0.2057  0.2506 -1.0019
  624TMC3    C2 9292   3.663   0.353  16.473  0.5830 -0.3661 -0.0546
  624TMC3    C3 9293   3.552   0.416  16.417  0.5444  1.0586  0.0678
  624TMC3    C4 9294   3.717   0.266  16.259  0.3465  0.3072  0.1128
  624TMC3    C5 9295   3.604   0.331  16.209 -0.7524 -0.0074  0.3428
  624TMC3    C6 9296   3.524   0.412  16.281  0.1624 -0.3017 -0.2041
  624TMC3     C 9297   3.851   0.213  16.448  0.5888  0.4748  0.2938
  624TMC3     O 9298   3.841   0.193  16.568  0.4900 -0.2235  0.1679
  624TMC3     H 9299   3.674   0.360  16.581  0.4248 -0.1818 -0.0510
  624TMC3    H1 9300   3.789   0.222  16.191  0.1165  0.0399  0.0424
  624TMC3    H2 9301   3.444   0.474  16.244 -1.1513 -0.5221  2.2603
  624TMC3    C7 9302   3.551   0.287  16.082 -0.3264  0.5440 -0.2912
  624TMC3    C8 9303   3.425   0.405  16.487  0.1596  0.0606 -0.5064
  624TMC3    O1 9304   3.635   0.245  16.001 -0.3812 -0.3694 -0.0818
  624TMC3    O2 9305   3.332   0.355  16.423  0.8718 -0.4200  0.1556
  625MPD2     C 9306   3.643   2.039   0.702  0.0197 -0.4757 -0.7319
  625MPD2    C1 9307   3.617   1.912   0.745 -0.4578 -0.4033 -0.3079
  625MPD2    C2 9308   3.725   1.840   0.799  0.2674 -0.7264 -0.1846
  625MPD2    C3 9309   3.847   1.894   0.824 -0.3656 -0.1094 -0.0943
  625MPD2    C4 9310   3.867   2.023   0.778 -0.0036  0.4028  0.0685
  625MPD2    C5 9311   3.772   2.097   0.717 -0.4246  0.5982  0.3020
  625MPD2     H 9312   3.712   1.744   0.849  0.1240 -0.1332  0.9107
  625MPD2    H1 9313   3.967   2.064   0.780  0.8441 -1.6545  0.3146
  625MPD2    H2 9314   3.565   2.091   0.647 -0.5053  1.4313  1.8341
  625MPD2    H3 9315   3.796   2.196   0.681  0.3572 -0.5919 -2.4105
  625MPD2     N 9316   3.950   1.816   0.881 -0.5671  0.4782 -0.2690
  625MPD2    H5 9317   3.928   1.729   0.928  1.4136 -0.0257 -0.2607
  625MPD2    N1 9318   3.487   1.860   0.735 -0.5322 -0.1998  0.0495
  625MPD2    H7 9319   3.427   1.920   0.680 -0.1319 -0.1586 -0.3377
  626TMC3    C1 9320   3.301   1.715   0.762  0.8542 -0.1763  0.6487
  626TMC3    C2 9321   3.222   1.768   0.661 -0.0223  0.4647  0.7469
  626TMC3    C3 9322   3.097   1.726   0.646 -0.2023  0.0367  0.1395
  626TMC3    C4 9323   3.246   1.623   0.842 -0.4135  0.1320  0.1842
  626TMC3    C5 9324   3.118   1.586   0.828  0.1252 -0.2085 -0.6057
  626TMC3    C6 9325   3.044   1.626   0.720 -0.0244 -0.3227 -0.2873
  626TMC3     C 9326   3.439   1.750   0.796 -0.8505 -0.1212 -0.0216
  626TMC3     O 9327   3.497   1.682   0.880 -0.1686 -0.6858  0.7694
  626TMC3     H 9328   3.252   1.848   0.595  3.0434 -2.2783 -1.1729
  626TMC3    H1 9329   3.303   1.586   0.926 -3.3461 -2.1916  1.1428
  626TMC3    H2 9330   2.948   1.581   0.700 -0.6895 -0.1664  2.5746
  626TMC3    C7 9331   3.079   1.471   0.912  0.3459 -0.2251 -0.2295
  626TMC3    C8 9332   3.020   1.785   0.537 -0.0805  0.0644 -0.3909
  626TMC3    O1 9333   3.161   1.420   0.988 -0.8832 -0.0738  0.3041
  626TMC3    O2 9334   3.074   1.872   0.463  0.0066 -0.4014 -0.1281
  627MPD2     C 9335   2.435   2.080  14.330 -0.1079 -0.4244 -0.0097
  627MPD2    C1 9336   2.381   2.036  14.454 -0.8110  0.4989 -0.4928
  627MPD2    C2 9337   2.320   1.913  14.459 -0.1301 -0.8847  0.2139
  627MPD2    C3 9338   2.305   1.838  14.348  0.2568  0.2926 -0.0865
  627MPD2    C4 9339   2.364   1.881  14.232  0.4852  0.2526 -0.9120
  627MPD2    C5 9340   2.428   2.000  14.216 -0.1828  0.9895 -0.3502
  627MPD2     H 9341   2.272   1.880  14.550 -2.0469  1.8140  0.1882
  627MPD2    H1 9342   2.358   1.825  14.139 -1.5705  1.2615 -1.4021
  627MPD2    H2 9343   2.469   2.182  14.318  1.0959 -0.8093  0.1194
  627MPD2    H3 9344   2.461   2.037  14.119 -0.7409 -2.5367 -1.8837
  627MPD2     N 9345   2.231   1.723  14.366 -0.4961 -0.2685  0.1364
  627MPD2    H5 9346   2.180   1.722  14.454 -3.2075 -0.0863 -1.4461
  627MPD2    N1 9347   2.389   2.129  14.565 -0.0987  0.0472  0.1177
  627MPD2    H7 9348   2.406   2.225  14.540  2.3208 -0.0927  1.2874
  628TMC3    C1 9349   2.452   2.175  14.789 -0.4091 -0.2523  0.3080
  628TMC3    C2 9350   2.543   2.111  14.865  0.2357  0.4639 -0.0344
  628TMC3    C3 9351   2.606   2.189  14.959  0.0936  0.2857 -0.7310
  628TMC3    C4 9352   2.403   2.297  14.802 -0.4848 -0.7215 -0.9927
  628TMC3    C5 9353   2.459   2.369  14.908  0.1412  0.3783  0.5949
  628TMC3    C6 9354   2.566   2.320  14.977  0.4209  0.4377 -0.5479
  628TMC3     C 9355   2.382   2.084  14.697 -0.0282  0.9178  0.2814
  628TMC3     O 9356   2.363   1.974  14.744 -0.7680  0.2344  0.6700
  628TMC3     H 9357   2.571   2.007  14.852  0.8685  0.6131  0.1345
  628TMC3    H1 9358   2.328   2.333  14.732 -1.0371 -2.0245 -1.0667
  628TMC3    H2 9359   2.594   2.369  15.070 -0.6367 -2.8280  1.4993
  628TMC3    C7 9360   2.405   2.496  14.944 -0.5327  0.4108 -0.0664
  628TMC3    C8 9361   2.727   2.142  15.023 -0.1920 -0.0299 -0.4749
  628TMC3    O1 9362   2.436   2.544  15.052 -0.5906 -0.2248 -0.0663
  628TMC3    O2 9363   2.776   2.214  15.109 -0.1084  0.2973 -0.0941
  629MPD2     C 9364   0.335   1.067  16.020  0.6424  0.0348  0.0098
  629MPD2    C1 9365   0.340   0.976  16.125  0.4874  0.2547  0.0615
  629MPD2    C2 9366   0.265   0.860  16.111  0.1065 -0.6372  0.3225
  629MPD2    C3 9367   0.164   0.849  16.007 -0.7681  0.7351 -0.2813
  629MPD2    C4 9368   0.140   0.954  15.921  0.4060  0.4710  0.0885
  629MPD2    C5 9369   0.234   1.053  15.918  0.6095  0.1439  0.2438
  629MPD2     H 9370   0.272   0.772  16.174 -0.0352 -1.9423 -1.4786
  629MPD2    H1 9371   0.062   0.958  15.845 -0.7120 -0.6812  1.1817
  629MPD2    H2 9372   0.407   1.147  16.008 -0.4214  1.0441  0.3904
  629MPD2    H3 9373   0.240   1.124  15.836  0.0522  0.6119  0.6103
  629MPD2     N 9374   0.088   0.731  15.991 -0.8040 -0.3413 -0.4294
  629MPD2    H5 9375   0.033   0.733  15.906  0.5097  0.5297 -1.2394
  629MPD2    N1 9376   0.435   0.988  16.229  0.1351  0.8640  0.0536
  629MPD2    H7 9377   0.516   1.046  16.213 -0.8003  2.6207  1.4981
  630TMC3    C1 9378   0.569   0.884  16.402 -0.8188  0.9477 -0.2137
  630TMC3    C2 9379   0.672   0.961  16.356  1.0386  0.6120  0.0730
  630TMC3    C3 9380   0.790   0.952  16.425 -0.9961  0.9491 -0.6395
  630TMC3    C4 9381   0.578   0.810  16.516 -0.3062 -1.3208  0.1143
  630TMC3    C5 9382   0.702   0.800  16.583  0.7095  0.3845  0.0296
  630TMC3    C6 9383   0.805   0.869  16.539  0.6415  0.0082 -0.3742
  630TMC3     C 9384   0.436   0.907  16.341  0.5485 -0.3237 -0.4117
  630TMC3     O 9385   0.337   0.841  16.384  0.5031 -0.1440  0.2620
  630TMC3     H 9386   0.671   1.026  16.269  1.3480  1.2557  0.5557
  630TMC3    H1 9387   0.494   0.747  16.544 -0.3921 -1.1096  0.3352
  630TMC3    H2 9388   0.907   0.845  16.567 -0.7070 -2.5715  2.3079
  630TMC3    C7 9389   0.711   0.692  16.677 -0.1271 -0.1167  0.3979
  630TMC3    C8 9390   0.906   1.032  16.379 -0.0983 -0.4873 -0.5844
  630TMC3    O1 9391   0.611   0.631  16.699 -0.3986 -0.3164 -0.1384
  630TMC3    O2 9392   0.992   1.046  16.465  0.0054  0.0175 -0.2527
  631MPD2     C 9393   3.783   4.616  15.410 -0.5191 -0.2853 -0.2102
  631MPD2    C1 9394   3.889   4.677  15.344  0.6166  0.3579  0.2482
  631MPD2    C2 9395   4.007   4.611  15.361 -0.5174  0.1622 -0.3628
  631MPD2    C3 9396   4.014   4.493  15.428 -0.6615  0.2636  0.3975
  631MPD2    C4 9397   3.903   4.427  15.484  0.1856 -0.5539  0.3485
  631MPD2    C5 9398   3.788   4.497  15.478 -0.1076  0.0029  0.1304
  631MPD2     H 9399   4.097   4.662  15.328  0.2683 -1.4304 -0.6639
  631MPD2    H1 9400   3.913   4.344  15.553  2.1247  0.4785  1.3298
  631MPD2    H2 9401   3.683   4.656  15.399 -0.1549  0.2673 -1.5798
  631MPD2    H3 9402   3.699   4.455  15.523  0.2766 -0.4207  0.4991
  631MPD2     N 9403   4.146   4.437  15.435  0.1357 -0.0419  0.5650
  631MPD2    H5 9404   4.228   4.485  15.400 -1.1452 -0.8100 -3.5347
  631MPD2    N1 9405   3.863   0.059  15.275 -0.0519  0.0630  0.0446
  631MPD2    H7 9406   3.771   0.104  15.276 -1.1067 -2.1214  0.5264
  632TMC3    C1 9407   3.900   0.216  15.101 -0.6703 -0.2713  0.2061
  632TMC3    C2 9408   3.762   0.241  15.089  0.4567 -0.0108  0.2672
  632TMC3    C3 9409   3.727   0.358  15.033  0.5317  0.4545  0.5685
  632TMC3    C4 9410   4.003   0.299  15.055 -0.4622  0.1977  0.6286
  632TMC3    C5 9411   3.959   0.418  15.005  0.0274  0.0740 -1.0860
  632TMC3    C6 9412   3.825   0.448  14.995 -0.1275  0.2009  0.5101
  632TMC3     C 9413   3.953   0.103  15.184 -0.2403  0.5987  0.1083
  632TMC3     O 9414   4.060   0.049  15.151 -0.1019 -0.0269 -0.9545
  632TMC3     H 9415   3.675   0.184  15.120  1.6601 -3.0241 -1.9136
  632TMC3    H1 9416   4.104   0.268  15.079 -0.1849 -0.0036 -0.8429
  632TMC3    H2 9417   3.797   0.543  14.951 -1.1975 -0.6576 -0.6474
  632TMC3    C7 9418   4.031   0.467  14.888 -0.0235 -0.1009 -0.8244
  632TMC3    C8 9419   3.586   0.397  15.003  0.0815  0.5520  0.6885
  632TMC3    O1 9420   3.960   0.514  14.797 -0.2373  0.6406 -0.3936
  632TMC3    O2 9421   3.580   0.493  14.926  0.4430 -0.0085  0.1981
  633MPD2     C 9422   2.812   3.029  17.188 -0.2427  0.1472 -0.9727
  633MPD2    C1 9423   2.849   2.958  17.069  0.0530 -0.5386 -0.2391
  633MPD2    C2 9424   2.807   2.831  17.059  0.6029 -0.4913  0.6249
  633MPD2    C3 9425   2.754   2.761  17.165  0.0446 -0.5929 -0.3582
  633MPD2    C4 9426   2.726   2.829  17.276 -0.4141 -0.8496 -0.6537
  633MPD2    C5 9427   2.748   2.960  17.290 -0.0766 -0.1203 -0.1014
  633MPD2     H 9428   2.810   2.777  16.965  2.1418 -1.1177  1.0487
  633MPD2    H1 9429   2.680   2.779  17.361  0.0502 -0.0400  0.0772
  633MPD2    H2 9430   2.857   3.125  17.211  0.5555 -1.1364  2.7804
  633MPD2    H3 9431   2.726   3.009  17.385  0.7801 -0.5354  0.3101
  633MPD2     N 9432   2.738   2.621  17.176 -0.1934 -0.1867 -0.0991
  633MPD2    H5 9433   2.721   2.586  17.270 -0.6138 -3.3083 -1.3281
  633MPD2    N1 9434   2.924   3.012  16.967  0.4278 -0.1824 -0.2503
  633MPD2    H7 9435   2.935   2.959  16.881  1.5250 -0.3149 -0.0240
  634TMC3    C1 9436   3.066   3.173  16.856 -0.1921 -0.0593  0.0886
  634TMC3    C2 9437   3.164   3.086  16.815 -0.4031 -0.6708  0.5829
  634TMC3    C3 9438   3.270   3.127  16.737 -0.1361 -0.6614  0.0648
  634TMC3    C4 9439   3.083   3.311  16.844 -0.4985 -0.1563  0.0456
  634TMC3    C5 9440   3.188   3.346  16.763  0.3076  0.1450 -0.2959
  634TMC3    C6 9441   3.279   3.259  16.705  0.2721 -0.6628  0.0556
  634TMC3     C 9442   2.986   3.141  16.978 -0.3596 -0.2473  0.5785
  634TMC3     O 9443   2.972   3.235  17.054  0.1645  0.7511 -0.1156
  634TMC3     H 9444   3.158   2.983  16.849  1.3900 -0.8942  0.2588
  634TMC3    H1 9445   2.998   3.376  16.864 -0.1366  0.7050 -1.1769
  634TMC3    H2 9446   3.358   3.302  16.644 -1.0122  0.3377 -0.9147
  634TMC3    C7 9447   3.174   3.465  16.683  0.2073 -0.1422  0.0865
  634TMC3    C8 9448   3.336   3.024  16.665  0.2294  0.4078 -0.0784
  634TMC3    O1 9449   3.208   3.471  16.567  0.6285 -0.3411  0.5198
  634TMC3    O2 9450   3.298   2.908  16.687  0.6013  0.1624  0.3265
  635TMC3    C1 9451   3.391   0.004  17.414 -0.9184  0.6432 -0.6258
  635TMC3    C2 9452   3.499   4.684  17.356 -0.2976  0.9356 -0.3091
  635TMC3    C3 9453   3.480   4.591  17.249  1.1330 -0.3243 -0.4682
  635TMC3    C4 9454   3.267   4.712  17.372  0.1274 -0.1050  0.4256
  635TMC3    C5 9455   3.251   4.614  17.276  0.2118  0.4028  0.1648
  635TMC3    C6 9456   3.357   4.556  17.213  0.0390 -0.8044 -0.1625
  635TMC3     C 9457   3.416   0.119  17.504  0.4682 -0.5919 -0.2454
  635TMC3     O 9458   3.526   0.120  17.560  0.3827  0.5759  0.0577
  635TMC3     H 9459   3.598   4.709  17.392  0.3271 -0.0799 -1.3162
  635TMC3    H1 9460   3.178   0.014  17.423 -0.9169  2.2477 -3.0587
  635TMC3    H2 9461   3.355   4.489  17.127 -2.5971  1.9745 -2.2644
  635TMC3    C7 9462   3.128   4.589  17.209  0.5859  0.2618  0.0782
  635TMC3    C8 9463   3.585   4.573  17.149 -0.3606 -0.0810  0.0517
  635TMC3    O1 9464   3.125   4.563  17.088 -0.3014  0.1619 -0.2619
  635TMC3    O2 9465   3.549   4.577  17.031  0.3537  0.0376  0.2054
  636MPD2     C 9466   4.199   3.296  16.525 -0.2014 -0.0762 -0.6575
  636MPD2    C1 9467   4.273   3.366  16.625 -0.2549  0.2946  0.2521
  636MPD2    C2 9468   4.368   3.291  16.698  0.1494  0.8562  0.4532
  636MPD2    C3 9469   4.382   3.155  16.675  0.4977 -0.1084 -0.6707
  636MPD2    C4 9470   4.307   3.089  16.578 -0.2754 -0.0261  0.1687
  636MPD2    C5 9471   4.215   3.161  16.502 -0.1050 -0.5978 -0.0397
  636MPD2     H 9472   4.447   3.340  16.754  0.8733  0.3902 -0.1705
  636MPD2    H1 9473   4.315   2.984  16.554  0.8764  0.0759  0.0841
  636MPD2    H2 9474   4.124   3.350  16.469  1.1891  1.1658 -1.3215
  636MPD2    H3 9475   4.153   3.107  16.432 -1.8187 -0.8637  1.6942
  636MPD2     N 9476   4.478   3.086  16.748 -0.5641  0.0443 -0.2989
  636MPD2    H5 9477   4.516   3.140  16.824 -1.1955 -2.6232  1.9043
  636MPD2    N1 9478   4.276   3.507  16.644  0.3814  0.1185  0.3391
  636MPD2    H7 9479   4.342   3.542  16.714  0.5410 -2.0744  1.2967
  637TMC3    C1 9480   4.643   2.931  16.810  0.4012  0.2758  0.5051
  637TMC3    C2 9481   4.681   3.011  16.917  0.7376  0.1026  0.2786
  637TMC3    C3 9482   0.058   2.977  16.987 -0.1674  0.0714 -0.2226
  637TMC3    C4 9483   4.734   2.843  16.749 -0.4651 -0.1079 -0.4077
  637TMC3    C5 9484   0.114   2.817  16.823  0.0023  0.2660 -1.0837
  637TMC3    C6 9485   0.143   2.878  16.941 -0.2959  0.0044  0.3946
  637TMC3     C 9486   4.524   2.955  16.729  0.8091 -0.3512  0.5292
  637TMC3     O 9487   4.473   2.857  16.674 -0.3845  0.0319  0.0807
  637TMC3     H 9488   4.621   3.085  16.968 -2.2498 -0.3659 -2.5474
  637TMC3    H1 9489   4.707   2.812  16.649  0.9136  2.0844 -1.4423
  637TMC3    H2 9490   0.236   2.846  16.988 -0.1823 -0.6690 -0.2921
  637TMC3    C7 9491   0.236   2.803  16.742 -0.0823 -0.2519 -0.6311
  637TMC3    C8 9492   0.128   3.103  17.012  0.0441  0.6344 -1.1734
  637TMC3    O1 9493   0.330   2.876  16.780 -0.2371  0.1206 -0.0498
  637TMC3    O2 9494   0.071   3.188  17.082  1.0187 -0.4759  0.5067
  638MPD2     C 9495   4.612   2.364  14.849  0.8404  0.3520  0.0216
  638MPD2    C1 9496   4.690   2.257  14.831  0.1652  0.6362  0.2214
  638MPD2    C2 9497   4.683   2.153  14.922  0.6756 -0.4614 -0.7924
  638MPD2    C3 9498   4.594   2.153  15.018 -0.1299  0.2847 -0.6298
  638MPD2    C4 9499   4.518   2.268  15.044  0.1251 -0.4097 -0.1506
  638MPD2    C5 9500   4.537   2.375  14.964  0.2956 -0.3030 -0.8642
  638MPD2     H 9501   0.003   2.061  14.907  0.8251 -0.4996 -0.0064
  638MPD2    H1 9502   4.439   2.274  15.118 -0.0353 -2.6758 -0.1352
  638MPD2    H2 9503   4.603   2.434  14.767  0.3521 -0.9980 -1.0634
  638MPD2    H3 9504   4.469   2.460  14.968  0.5192 -0.2227  1.4771
  638MPD2     N 9505   4.574   2.027  15.073  0.1643  0.0814  0.3902
  638MPD2    H5 9506   4.630   1.953  15.032 -0.8786  0.2989 -1.4291
  638MPD2    N1 9507   0.022   2.246  14.714 -0.6463  0.7769  0.3234
  638MPD2    H7 9508   0.008   2.321  14.648 -1.2640 -0.0577 -0.4991
  639TMC3    C1 9509   4.453   1.849  15.153  0.2371 -0.1769  0.0034
  639TMC3    C2 9510   4.337   1.783  15.140 -0.2018  1.1259 -0.0148
  639TMC3    C3 9511   4.338   1.649  15.138  0.4853 -0.2651  0.8168
  639TMC3    C4 9512   4.581   1.787  15.163  0.4272 -0.6706 -0.1888
  639TMC3    C5 9513   4.572   1.648  15.175  0.2975 -0.1356  0.0489
  639TMC3    C6 9514   4.454   1.584  15.161  0.4723 -1.1034  0.4667
  639TMC3     C 9515   4.458   1.996  15.134  0.1290 -0.0744 -0.8295
  639TMC3     O 9516   4.355   2.060  15.141  0.8657 -0.1174 -0.4857
  639TMC3     H 9517   4.246   1.831  15.107  0.7265  2.5728 -0.4660
  639TMC3    H1 9518   4.670   1.842  15.193  0.1891 -0.0585 -0.6196
  639TMC3    H2 9519   4.450   1.477  15.142 -1.4205 -0.6955 -1.4482
  639TMC3    C7 9520   4.695   1.569  15.169 -0.2181 -0.5301 -0.0506
  639TMC3    C8 9521   4.267   1.607  15.018 -0.2628  0.2433  0.5165
  639TMC3    O1 9522   4.683   1.447  15.188 -0.0146 -0.0830 -0.3096
  639TMC3    O2 9523   4.336   1.580  14.923  0.4383  0.2064  0.7525
  640MPD2     C 9524   4.640   0.827  10.059  0.8740 -0.3138  0.4589
  640MPD2    C1 9525   4.704   0.923   9.983 -0.3914 -0.5967 -0.3827
  640MPD2    C2 9526   4.689   1.058  10.008  0.7571  0.2993 -0.0097
  640MPD2    C3 9527   4.613   1.093  10.113 -0.3672  0.0564 -0.4251
  640MPD2    C4 9528   4.553   1.002  10.195  0.3670  0.0640  0.1794
  640MPD2    C5 9529   4.560   0.870  10.165 -0.2697  0.3624 -0.0358
  640MPD2     H 9530   0.008   1.128   9.945 -1.0439  0.0211 -1.8333
  640MPD2    H1 9531   4.500   1.032  10.284 -2.7181 -0.5248 -1.4611
  640MPD2    H2 9532   4.645   0.721  10.039  0.7783 -0.6030  1.9723
  640MPD2    H3 9533   4.502   0.799  10.222  0.5743 -1.0316 -0.9153
  640MPD2     N 9534   4.586   1.233  10.137  0.5043 -0.2543  0.3030
  640MPD2    H5 9535   4.503   1.256  10.190  0.3377  0.0016 -0.0711
  640MPD2    N1 9536   0.048   0.877   9.874 -0.8153  0.1980  0.1710
  640MPD2    H7 9537   0.052   0.775   9.866  0.0602  0.2310  0.2012
  641TMC3    C1 9538   0.170   0.878   9.667 -0.6972  0.3289  0.0233
  641TMC3    C2 9539   0.226   0.758   9.694  0.6747  0.0418 -0.6043
  641TMC3    C3 9540   0.270   0.691   9.584 -0.1515 -0.7549  0.0668
  641TMC3    C4 9541   0.163   0.937   9.544 -0.1540  0.0845 -0.4137
  641TMC3    C5 9542   0.207   0.863   9.439 -0.8236 -0.2081  0.2492
  641TMC3    C6 9543   0.262   0.738   9.459 -0.7587  0.2794  0.5309
  641TMC3     C 9544   0.103   0.951   9.775 -0.3625  0.3790  0.2459
  641TMC3     O 9545   0.106   1.071   9.769  0.5573  0.0660  0.1995
  641TMC3     H 9546   0.228   0.714   9.793 -0.6575 -0.2307 -0.7060
  641TMC3    H1 9547   0.127   1.039   9.535 -1.8216 -0.7190 -2.8841
  641TMC3    H2 9548   0.312   0.686   9.379  1.4033  0.2115  1.9389
  641TMC3    C7 9549   0.171   0.905   9.308  0.0816 -0.5757  0.7374
  641TMC3    C8 9550   0.366   0.582   9.597 -0.5072 -0.2324  0.4706
  641TMC3    O1 9551   0.157   1.024   9.319 -0.1345 -0.3283  0.0021
  641TMC3    O2 9552   0.344   0.497   9.510 -0.0752  0.0475 -0.4234
  642TMC3    C1 9553   1.195   2.046  12.617  0.0908 -0.1893  1.2133
  642TMC3    C2 9554   1.327   2.031  12.600  0.7106  0.1280  0.1467
  642TMC3    C3 9555   1.374   1.930  12.513 -0.6449  0.4453 -0.3102
  642TMC3    C4 9556   1.098   1.987  12.538 -0.1976  0.1629  0.1761
  642TMC3    C5 9557   1.142   1.881  12.458 -0.3162  0.6966  0.1140
  642TMC3    C6 9558   1.279   1.860  12.444 -0.0639 -0.2852  0.8582
  642TMC3     C 9559   1.156   2.170  12.688 -0.1088 -0.4593 -0.3314
  642TMC3     O 9560   1.244   2.252  12.700 -0.0441  0.0700 -0.9701
  642TMC3     H 9561   1.403   2.101  12.631  1.4917 -1.0214  0.8477
  642TMC3    H1 9562   0.993   2.008  12.551  0.0087  0.1302  1.9197
  642TMC3    H2 9563   1.325   1.792  12.372  0.0298  0.1313  0.5263
  642TMC3    C7 9564   1.047   1.786  12.400 -0.2290  0.2714 -0.2675
  642TMC3    C8 9565   1.511   1.926  12.461 -0.0465 -0.3448  0.3751
  642TMC3    O1 9566   1.094   1.722  12.303 -0.3305  0.0827  0.1464
  642TMC3    O2 9567   1.532   1.873  12.353 -0.6963  0.2223 -1.0348
  643TMC3    C1 9568   0.241   1.061   0.495  0.2790  0.6046 -1.0229
  643TMC3    C2 9569   0.110   1.050   0.446 -0.1509  0.2866  0.1150
  643TMC3    C3 9570   0.092   0.973   0.341  0.6621  0.4691  0.9787
  643TMC3    C4 9571   0.345   1.000   0.429 -0.4814 -0.4522  0.6185
  643TMC3    C5 9572   0.317   0.924   0.319 -0.4193 -0.2607 -0.1607
  643TMC3    C6 9573   0.190   0.894   0.290 -0.0594 -0.2252 -0.0142
  643TMC3     C 9574   0.268   1.186   0.564 -0.1136 -0.4829  0.1625
  643TMC3     O 9575   0.212   1.280   0.507 -0.4412 -0.1845  0.2230
  643TMC3     H 9576   0.030   1.109   0.489 -1.3286 -0.3575 -1.1895
  643TMC3    H1 9577   0.450   1.018   0.448 -0.0654 -2.2717  0.0412
  643TMC3    H2 9578   0.162   0.840   0.200 -1.6935  0.2337  0.2303
  643TMC3    C7 9579   0.395   0.959   0.201 -0.8807 -0.4546  0.3719
  643TMC3    C8 9580   0.030   1.042   0.237 -0.4798 -0.2486 -0.0969
  643TMC3    O1 9581   0.481   1.046   0.212 -0.4855  0.0365 -0.5052
  643TMC3    O2 9582   4.731   0.976   0.142  1.0419 -0.2023  0.1573
  644MPD2     C 9583   4.632   1.294   9.418  0.5014  0.2057  0.5591
  644MPD2    C1 9584   0.016   1.360   9.391  0.1441  0.4674 -0.8819
  644MPD2    C2 9585   0.012   1.494   9.400 -0.4517 -0.3789  0.0050
  644MPD2    C3 9586   4.627   1.558   9.433  0.0477 -0.3573  0.2280
  644MPD2    C4 9587   4.510   1.485   9.446 -0.2395 -0.7915  0.9130
  644MPD2    C5 9588   4.511   1.351   9.441 -0.3338 -0.4536 -0.8482
  644MPD2     H 9589   0.101   1.555   9.390 -0.1072 -0.8548  0.2164
  644MPD2    H1 9590   4.419   1.538   9.474 -0.2620  0.8994 -2.3747
  644MPD2    H2 9591   4.628   1.186   9.417 -0.1596  0.2407 -0.8009
  644MPD2    H3 9592   4.427   1.288   9.466  0.3622 -0.8969  0.3780
  644MPD2     N 9593   4.624   1.698   9.449  0.3190 -0.1135 -0.6758
  644MPD2    H5 9594   4.716   1.740   9.463  0.0342  0.3932 -0.2972
  644MPD2    N1 9595   0.137   1.291   9.363 -0.5827 -0.8009  0.4726
  644MPD2    H7 9596   0.140   1.191   9.380 -1.4043 -0.6378  1.5596
  645TMC3    C1 9597   4.555   1.919   9.459 -0.9599 -1.3281 -0.2682
  645TMC3    C2 9598   4.478   2.005   9.395 -0.0185 -0.0392 -0.5481
  645TMC3    C3 9599   4.489   2.138   9.428  0.3744  0.0414  0.2775
  645TMC3    C4 9600   4.640   1.953   9.560  0.0334  0.7122 -0.7351
  645TMC3    C5 9601   4.645   2.086   9.589  0.0846 -0.2570 -0.4921
  645TMC3    C6 9602   4.575   2.183   9.524  0.3613  0.1621 -0.3117
  645TMC3     C 9603   4.515   1.783   9.438  0.2113 -0.2230 -0.0379
  645TMC3     O 9604   4.402   1.755   9.402 -0.3309  0.0969  0.9895
  645TMC3     H 9605   4.405   1.971   9.322 -0.1886  1.1420 -0.9346
  645TMC3    H1 9606   4.694   1.878   9.617 -0.2134 -1.7252 -3.7050
  645TMC3    H2 9607   4.580   2.286   9.558  0.9527  0.4924 -1.3934
  645TMC3    C7 9608   4.725   2.144   9.698  0.4936 -0.2961 -0.0485
  645TMC3    C8 9609   4.422   2.236   9.347  0.2150  0.6329  0.2352
  645TMC3    O1 9610   0.106   2.111   9.716 -0.0445  0.4285  0.5166
  645TMC3    O2 9611   4.318   2.206   9.290  0.4644 -0.6678 -0.2731
  646MPD2     C 9612   4.620   0.846  14.365  0.3756  0.0055 -0.1814
  646MPD2    C1 9613   4.538   0.869  14.474 -0.5399 -0.7322 -0.4061
  646MPD2    C2 9614   4.427   0.955  14.468 -0.1124 -0.4973  0.2030
  646MPD2    C3 9615   4.398   1.022  14.349 -0.4166  0.0149  0.3134
  646MPD2    C4 9616   4.478   0.997  14.235  0.0764  1.1198 -0.1755
  646MPD2    C5 9617   4.588   0.911  14.244 -0.0898  0.5570 -0.0330
  646MPD2     H 9618   4.360   0.968  14.552 -2.3727  0.3146 -1.7363
  646MPD2    H1 9619   4.457   1.053  14.144 -1.2788 -2.3062 -1.9508
  646MPD2    H2 9620   4.714   0.793  14.370  1.2068  1.6458  1.5072
  646MPD2    H3 9621   4.648   0.898  14.155 -0.8166 -2.3182 -0.0967
  646MPD2     N 9622   4.290   1.114  14.344  0.3541  0.3574  0.3561
  646MPD2    H5 9623   4.251   1.130  14.437  0.5712 -2.2492  0.8762
  646MPD2    N1 9624   4.580   0.806  14.595 -0.0616 -0.9591 -0.2585
  646MPD2    H7 9625   4.665   0.751  14.588  0.9923  0.1664  3.1559
  647TMC3    C1 9626   4.621   0.793  14.834 -0.3992  0.0790 -0.6842
  647TMC3    C2 9627   4.559   0.749  14.942 -0.5188 -0.3361  0.0721
  647TMC3    C3 9628   4.639   0.696  15.041 -0.1919  0.2577  0.0341
  647TMC3    C4 9629   0.026   0.807  14.824 -0.4955 -0.7116  0.4360
  647TMC3    C5 9630   0.099   0.749  14.927  0.2916 -0.2490 -0.1632
  647TMC3    C6 9631   0.040   0.686  15.027  0.2429 -0.4961  0.4412
  647TMC3     C 9632   4.531   0.829  14.724  0.0770  0.0708  0.0577
  647TMC3     O 9633   4.420   0.873  14.756  0.1320 -0.5960 -0.2575
  647TMC3     H 9634   4.452   0.734  14.939 -0.9395  3.0488 -0.7540
  647TMC3    H1 9635   0.063   0.835  14.726 -2.3302  1.4723  0.3594
  647TMC3    H2 9636   0.099   0.652  15.112 -1.6636 -1.6324  1.3212
  647TMC3    C7 9637   0.244   0.767  14.956 -0.1204  0.2181  0.2297
  647TMC3    C8 9638   4.566   0.636  15.155 -0.9841  0.8427 -0.3076
  647TMC3    O1 9639   0.286   0.715  15.058  0.1221  0.3810  0.6274
  647TMC3    O2 9640   4.451   0.669  15.171  0.2663  0.1833 -0.0671
  648TMC3    C1 9641   3.847   3.062  16.059  0.1703  0.2202  0.1191
  648TMC3    C2 9642   3.843   2.926  16.028 -0.3564  0.4651 -0.2670
  648TMC3    C3 9643   3.766   2.895  15.924  0.3493 -0.3595 -0.0461
  648TMC3    C4 9644   3.774   3.160  15.996  0.0902 -0.3062  0.0159
  648TMC3    C5 9645   3.685   3.110  15.900  0.9187 -0.2829  0.4412
  648TMC3    C6 9646   3.682   2.983  15.860 -0.0559  0.5394  0.2810
  648TMC3     C 9647   3.933   3.110  16.175 -0.2021  0.4510  0.5128
  648TMC3     O 9648   3.985   3.223  16.165 -0.4671  0.1937  0.4163
  648TMC3     H 9649   3.903   2.853  16.082  0.1688 -0.0558 -1.5530
  648TMC3    H1 9650   3.781   3.263  16.027  1.0836 -0.3756  0.0431
  648TMC3    H2 9651   3.645   2.949  15.764  0.7996  1.9528 -0.5472
  648TMC3    C7 9652   3.627   3.197  15.810 -1.3387  0.5013 -0.5465
  648TMC3    C8 9653   3.788   2.775  15.853  0.0850  0.4443  0.0332
  648TMC3    O1 9654   3.623   3.161  15.690 -0.3274  0.4659  0.0351
  648TMC3    O2 9655   3.689   2.722  15.802  0.2433  0.0510  0.3964
  649TMC3    C1 9656   2.975   4.287  12.945  0.1295 -0.1110 -0.5047
  649TMC3    C2 9657   3.089   4.360  12.952  0.6852  0.1119  0.1305
  649TMC3    C3 9658   3.141   4.385  13.073  0.0815  0.7489 -0.2181
  649TMC3    C4 9659   2.941   4.208  13.048 -0.2990 -0.3207 -1.2149
  649TMC3    C5 9660   3.010   4.219  13.167 -0.3048 -0.4446 -0.5276
  649TMC3    C6 9661   3.103   4.310  13.181  0.9550 -0.3172 -0.0858
  649TMC3     C 9662   2.883   4.323  12.834 -0.2840 -0.1096 -0.2422
  649TMC3     O 9663   2.765   4.335  12.873 -0.0406 -0.3044  0.0046
  649TMC3     H 9664   3.118   4.424  12.869 -0.5773 -0.8490 -1.0518
  649TMC3    H1 9665   2.841   4.167  13.050 -0.0477 -0.8163  0.9494
  649TMC3    H2 9666   3.147   4.322  13.279  1.5149 -0.8378 -0.2754
  649TMC3    C7 9667   2.924   4.201  13.280 -0.1728 -0.1056  0.2969
  649TMC3    C8 9668   3.237   4.487  13.089  0.5799 -0.2735 -0.2353
  649TMC3    O1 9669   2.915   4.287  13.362  0.6233  0.0226 -0.0323
  649TMC3    O2 9670   3.312   4.501  12.993 -0.6216 -0.4335  0.0168
  650TMC3    C1 9671   0.271   1.288  12.518  0.0237 -0.0930  0.6791
  650TMC3    C2 9672   0.216   1.352  12.625 -0.3343  0.3356 -0.1313
  650TMC3    C3 9673   0.125   1.449  12.617  0.9631 -0.0875  0.1995
  650TMC3    C4 9674   0.213   1.311  12.391 -0.0168 -0.7187  0.2944
  650TMC3    C5 9675   0.121   1.413  12.385 -0.6229  0.2903 -0.3638
  650TMC3    C6 9676   0.087   1.488  12.491  0.4031  0.7601 -0.2004
  650TMC3     C 9677   0.348   1.165  12.538 -0.2132 -0.3358  0.5352
  650TMC3     O 9678   0.351   1.111  12.648 -0.4879 -0.3134  0.1816
  650TMC3     H 9679   0.261   1.318  12.718  0.7831  1.8050 -0.1207
  650TMC3    H1 9680   0.231   1.250  12.304  2.9580  0.3469  0.1639
  650TMC3    H2 9681   0.011   1.565  12.480 -2.4601 -2.1630 -0.9609
  650TMC3    C7 9682   0.140   1.513  12.274 -0.3195 -0.2052  0.0242
  650TMC3    C8 9683   0.122   1.557  12.716 -0.2772  0.4514 -0.3299
  650TMC3    O1 9684   0.163   1.476  12.161  0.2155  0.0355 -0.3065
  650TMC3    O2 9685   0.226   1.620  12.739  0.2077  0.0962  0.6503
  651MPD2     C 9686   4.136   2.888  10.150  0.4929  0.0560  0.1997
  651MPD2    C1 9687   4.108   3.018  10.189 -0.7896  0.9960 -0.4620
  651MPD2    C2 9688   4.210   3.110  10.189 -0.0762 -0.1225 -0.1243
  651MPD2    C3 9689   4.343   3.071  10.165 -0.0587  0.5670  0.8500
  651MPD2    C4 9690   4.363   2.938  10.133  0.1456 -0.5147 -0.5116
  651MPD2    C5 9691   4.267   2.843  10.133 -0.1882 -0.4255 -0.0976
  651MPD2     H 9692   4.186   3.214  10.206  0.6147  0.2317 -1.2964
  651MPD2    H1 9693   4.464   2.905  10.112  1.2560  2.4118  0.2760
  651MPD2    H2 9694   4.057   2.814  10.137  2.2335 -1.8308  0.2653
  651MPD2    H3 9695   4.289   2.744  10.096 -0.0901 -0.3968 -0.1160
  651MPD2     N 9696   4.439   3.167  10.192 -0.9250  0.1126  0.5683
  651MPD2    H5 9697   4.410   3.257  10.228  0.1973  1.5782 -2.2049
  651MPD2    N1 9698   3.977   3.059  10.232  0.8456 -0.3198 -0.3214
  651MPD2    H7 9699   3.965   3.158  10.252 -0.2028 -0.2706 -1.1540
  652TMC3    C1 9700   0.142   3.339  10.249  0.0329 -0.4328 -0.4228
  652TMC3    C2 9701   0.055   3.269  10.174  0.3570  0.3213  0.2682
  652TMC3    C3 9702   4.656   3.266  10.213 -0.5255 -0.3523  0.5833
  652TMC3    C4 9703   0.100   3.420  10.357 -0.4305 -0.1881  0.4030
  652TMC3    C5 9704   4.701   3.422  10.382 -0.0493  0.8390  0.5398
  652TMC3    C6 9705   4.609   3.351  10.310  1.1062  0.3628  0.3335
  652TMC3     C 9706   0.283   3.332  10.221 -0.1493 -0.7098  0.6205
  652TMC3     O 9707   0.346   3.378  10.316 -0.5709 -0.3134 -1.2485
  652TMC3     H 9708   0.085   3.192  10.105 -0.1983 -0.3040  0.7311
  652TMC3    H1 9709   0.171   3.462  10.427 -1.1899  2.3965 -0.4007
  652TMC3    H2 9710   4.503   3.372  10.316  1.0572  1.1950 -3.0927
  652TMC3    C7 9711   4.647   3.523  10.462  0.6843  0.3840 -0.7153
  652TMC3    C8 9712   4.572   3.149  10.169 -0.3692  0.0692 -0.7030
  652TMC3    O1 9713   4.560   3.497  10.544 -0.8863 -0.0538 -0.2736
  652TMC3    O2 9714   4.633   3.053  10.121  0.0784  0.0481 -0.0874
  653MPD2     C 9715   2.527   3.409  17.545  1.1408 -0.3250  0.1301
  653MPD2    C1 9716   2.592   3.463  17.434 -0.2427 -0.1096  0.3899
  653MPD2    C2 9717   2.582   3.391  17.313  0.0597  0.6332  0.4580
  653MPD2    C3 9718   2.499   3.276  17.312  0.7400 -0.0153 -0.2986
  653MPD2    C4 9719   2.431   3.233  17.422  0.8046  0.1538  0.1557
  653MPD2    C5 9720   2.454   3.292  17.539 -0.1693 -0.4042 -0.2417
  653MPD2     H 9721   2.626   3.447  17.231  1.4674  0.1009  0.8488
  653MPD2    H1 9722   2.363   3.149  17.417 -0.2692  1.0283  0.2168
  653MPD2    H2 9723   2.521   3.467  17.636 -0.2998  2.4423 -1.7225
  653MPD2    H3 9724   2.400   3.260  17.627 -1.6626  1.2436 -0.5550
  653MPD2     N 9725   2.489   3.208  17.187  0.3991 -0.0742  0.4651
  653MPD2    H5 9726   2.560   3.228  17.117  0.9183  0.4892  1.1544
  653MPD2    N1 9727   2.666   3.587  17.462  0.5226 -0.3788 -0.0801
  653MPD2    H7 9728   2.650   3.618  17.558 -0.4200 -1.0675 -0.0095
  654TMC3    C1 9729   2.420   3.044  17.029  0.2434  0.4461 -0.2610
  654TMC3    C2 9730   2.321   3.084  16.941  0.1239  0.1534 -0.0178
  654TMC3    C3 9731   2.280   3.004  16.846  0.0060 -0.2818  0.2014
  654TMC3    C4 9732   2.450   2.907  17.029  0.1130 -0.4758 -0.4121
  654TMC3    C5 9733   2.395   2.824  16.940 -0.1524 -0.4132  0.1138
  654TMC3    C6 9734   2.320   2.872  16.835 -0.4790  0.8797  1.1814
  654TMC3     C 9735   2.400   3.107  17.160  0.5893  0.2143  0.2538
  654TMC3     O 9736   2.324   3.041  17.224 -0.6241  0.0725 -0.1095
  654TMC3     H 9737   2.288   3.187  16.946  0.3346  0.1860  0.6490
  654TMC3    H1 9738   2.493   2.866  17.120  2.8258 -2.1067 -2.4354
  654TMC3    H2 9739   2.295   2.813  16.748 -0.2118 -1.4966  2.7020
  654TMC3    C7 9740   2.328   2.709  17.001 -0.4559  0.4721  0.0410
  654TMC3    C8 9741   2.158   3.049  16.767 -0.3802 -0.1530 -0.1914
  654TMC3    O1 9742   2.216   2.676  16.960 -0.4656 -0.6005  0.3085
  654TMC3    O2 9743   2.129   3.170  16.771 -0.2983  0.4943 -0.1498
  655MPD2     C 9744   4.280   3.138  15.576  0.4001  0.1446  0.1501
  655MPD2    C1 9745   4.171   3.206  15.517  0.0526  0.3432 -0.3082
  655MPD2    C2 9746   4.149   3.183  15.380  0.1259 -0.0868  0.7149
  655MPD2    C3 9747   4.239   3.115  15.302 -0.4923  0.3561  0.5755
  655MPD2    C4 9748   4.344   3.053  15.364 -0.5896 -0.9581 -0.2029
  655MPD2    C5 9749   4.366   3.067  15.497 -0.3199 -0.1834 -0.5229
  655MPD2     H 9750   4.067   3.235  15.334 -0.8335 -0.3948  2.0840
  655MPD2    H1 9751   4.411   2.989  15.308 -0.1563 -0.5018 -0.2123
  655MPD2    H2 9752   4.298   3.147  15.683 -1.0582 -1.7461  0.5358
  655MPD2    H3 9753   4.456   3.026  15.541 -0.4343  1.2974  1.0898
  655MPD2     N 9754   4.217   3.115  15.159 -0.0239  0.4062  0.6110
  655MPD2    H5 9755   4.131   3.157  15.124 -0.3168 -0.8729 -0.2586
  655MPD2    N1 9756   4.089   3.298  15.580 -0.0849  0.3633  0.5440
  655MPD2    H7 9757   4.023   3.347  15.520 -0.2929  0.1737  0.6204
  656TMC3    C1 9758   4.027   3.463  15.739  0.0876  1.1179  0.3794
  656TMC3    C2 9759   3.985   3.479  15.866  0.0159  0.4298  0.4843
  656TMC3    C3 9760   3.911   3.590  15.905  0.2540  0.0034 -0.0287
  656TMC3    C4 9761   4.000   3.550  15.640 -0.0336 -0.4812 -0.0624
  656TMC3    C5 9762   3.932   3.666  15.677 -0.1060 -0.1436  0.1897
  656TMC3    C6 9763   3.870   3.677  15.804 -0.0143  0.4234  0.1444
  656TMC3     C 9764   4.088   3.330  15.715 -0.2211 -0.5174 -0.2632
  656TMC3     O 9765   4.142   3.270  15.809  0.0901  0.1565 -0.4198
  656TMC3     H 9766   3.989   3.399  15.939 -2.2941 -0.6098 -0.5353
  656TMC3    H1 9767   4.042   3.539  15.541 -0.3247  2.2887 -0.4964
  656TMC3    H2 9768   3.802   3.758  15.826 -1.7048 -0.9973  0.2488
  656TMC3    C7 9769   3.914   3.768  15.578 -0.1403 -0.3675 -0.0030
  656TMC3    C8 9770   3.841   3.588  16.033 -0.0455  0.0589  0.3289
  656TMC3    O1 9771   3.991   3.768  15.481 -0.7702  0.8396 -0.7530
  656TMC3    O2 9772   3.837   3.483  16.095  0.4163 -0.7910  0.5374
  657TMC3    C1 9773   3.156   2.913  14.722 -0.8150 -1.3754 -0.4256
  657TMC3    C2 9774   3.198   2.946  14.850 -0.7760 -0.5632 -0.1973
  657TMC3    C3 9775   3.150   3.066  14.902  0.4117 -0.0380  0.5226
  657TMC3    C4 9776   3.077   2.990  14.649  0.7364 -0.5849 -0.3198
  657TMC3    C5 9777   3.036   3.110  14.700  0.5319  0.0070 -0.6071
  657TMC3    C6 9778   3.060   3.144  14.829  0.3043 -0.3046 -0.6569
  657TMC3     C 9779   3.235   2.812  14.648 -0.1857  0.2216 -0.1152
  657TMC3     O 9780   3.249   2.826  14.524  0.7813 -0.4856 -0.3248
  657TMC3     H 9781   3.275   2.893  14.904  0.9932 -1.3537 -3.4882
  657TMC3    H1 9782   3.046   2.949  14.553 -0.0402 -0.2859 -0.1972
  657TMC3    H2 9783   3.015   3.234  14.869  2.1709  0.6579 -0.7348
  657TMC3    C7 9784   2.948   3.202  14.620 -0.5132 -0.2219  0.4185
  657TMC3    C8 9785   3.215   3.106  15.031 -0.1838  0.2947  0.5861
  657TMC3    O1 9786   2.881   3.284  14.679  0.2975 -0.3375 -0.3632
  657TMC3    O2 9787   3.284   3.026  15.096 -0.2196  0.0695  0.5442
  658MPD2     C 9788   4.710   3.207  14.568  0.0671 -0.2104  0.0859
  658MPD2    C1 9789   4.603   3.128  14.520  0.6150  0.0458  0.7153
  658MPD2    C2 9790   4.605   3.080  14.389  0.2728 -0.3833 -0.3055
  658MPD2    C3 9791   4.701   3.129  14.302  0.1045 -0.6720 -0.1104
  658MPD2    C4 9792   0.078   3.207  14.342  0.3012  0.0042 -0.1296
  658MPD2    C5 9793   0.077   3.240  14.480 -0.1166  0.6178  0.5382
  658MPD2     H 9794   4.523   3.021  14.350  1.2299 -3.4415  2.2699
  658MPD2    H1 9795   0.159   3.243  14.280  0.2377 -0.2825 -0.3813
  658MPD2    H2 9796   4.712   3.245  14.670 -0.3051 -0.7702  0.3025
  658MPD2    H3 9797   0.161   3.299  14.514 -1.3236 -0.0672  4.6323
  658MPD2     N 9798   4.676   3.113  14.165  0.6446 -0.3901  0.1312
  658MPD2    H5 9799   4.583   3.077  14.147 -0.1009  1.2550  0.7426
  658MPD2    N1 9800   4.491   3.116  14.607  0.9368  0.2444  0.0370
  658MPD2    H7 9801   4.491   3.166  14.695  0.3463 -2.7213  1.7268
  659TMC3    C1 9802   4.298   3.027  14.705  0.3226 -0.7031 -0.7709
  659TMC3    C2 9803   4.340   3.060  14.829  0.6378 -0.1016 -0.3998
  659TMC3    C3 9804   4.251   3.081  14.935 -0.2423 -0.5874  0.1908
  659TMC3    C4 9805   4.167   3.004  14.679  0.2952  0.1877 -0.4329
  659TMC3    C5 9806   4.080   3.009  14.791 -0.0925 -0.0435 -0.6322
  659TMC3    C6 9807   4.120   3.042  14.918  0.1509 -0.0696  0.6730
  659TMC3     C 9808   4.377   3.040  14.583 -0.7835 -0.2458  0.6999
  659TMC3     O 9809   4.334   2.987  14.481  0.3305 -0.4841 -0.0692
  659TMC3     H 9810   4.446   3.063  14.852  1.1749  0.8272 -3.0094
  659TMC3    H1 9811   4.133   2.975  14.580  0.0275  1.5906 -0.7560
  659TMC3    H2 9812   4.050   3.054  14.999  1.7239  1.1293  1.8618
  659TMC3    C7 9813   3.940   3.007  14.762 -0.2335 -0.4616 -0.1295
  659TMC3    C8 9814   4.309   3.078  15.065 -0.2914  0.6364 -0.2078
  659TMC3    O1 9815   3.876   3.089  14.824 -0.1102  0.5100  0.5874
  659TMC3    O2 9816   4.421   3.048  15.082  0.6761 -0.0766  0.3289
  660MPD2     C 9817   2.586   2.384  12.709 -0.0914 -0.0357 -0.3967
  660MPD2    C1 9818   2.449   2.386  12.709  0.6381 -0.0111 -0.1657
  660MPD2    C2 9819   2.384   2.300  12.799 -0.0119  0.3550  0.1988
  660MPD2    C3 9820   2.451   2.231  12.898  0.4988  0.4418 -0.4013
  660MPD2    C4 9821   2.589   2.244  12.902  0.1015  0.6777 -0.0407
  660MPD2    C5 9822   2.650   2.315  12.809 -0.5370  0.1983  0.0577
  660MPD2     H 9823   2.278   2.284  12.782 -0.3972  1.5577  1.4429
  660MPD2    H1 9824   2.654   2.205  12.979 -0.6618  1.2086  0.8697
  660MPD2    H2 9825   2.638   2.454  12.645  1.4444 -2.5115 -1.8720
  660MPD2    H3 9826   2.758   2.314  12.812 -0.5629 -0.7129  0.7017
  660MPD2     N 9827   2.393   2.150  12.997  0.1950 -0.7611 -0.4220
  660MPD2    H5 9828   2.457   2.084  13.041 -0.7996 -0.2463  1.7819
  660MPD2    N1 9829   2.383   2.462  12.610  0.2161 -0.1161 -0.1342
  660MPD2    H7 9830   2.443   2.494  12.535  0.9044 -0.1507  0.4004
  661TMC3    C1 9831   2.198   2.551  12.486  0.1788 -0.1926 -0.0505
  661TMC3    C2 9832   2.255   2.498  12.371 -0.3444 -0.6811  1.1512
  661TMC3    C3 9833   2.177   2.494  12.260  0.1840 -0.1419  1.3233
  661TMC3    C4 9834   2.063   2.576  12.492  1.0424  0.0649 -0.0032
  661TMC3    C5 9835   1.981   2.556  12.378 -1.1065  0.4143 -0.2735
  661TMC3    C6 9836   2.036   2.518  12.259 -0.1318  0.4401 -0.3018
  661TMC3     C 9837   2.246   2.488  12.611  0.1458  0.3463  0.5992
  661TMC3     O 9838   2.155   2.460  12.689 -0.1564  0.0784  0.1103
  661TMC3     H 9839   2.362   2.490  12.362 -0.3244  1.0623 -0.2068
  661TMC3    H1 9840   2.018   2.625  12.577 -0.5612 -1.5328  0.0736
  661TMC3    H2 9841   1.983   2.508  12.165 -0.8380  0.1303  0.1302
  661TMC3    C7 9842   1.838   2.540  12.404 -0.2978  0.3277  0.3561
  661TMC3    C8 9843   2.244   2.467  12.138  0.1084 -0.0074 -0.2441
  661TMC3    O1 9844   1.786   2.615  12.480 -0.4436  0.1837 -0.0779
  661TMC3    O2 9845   2.351   2.413  12.146  0.3086  0.0432 -0.3585
  662MPD2     C 9846   2.309   1.865  17.402  0.5629  0.1740  0.2743
  662MPD2    C1 9847   2.213   1.767  17.415 -0.1809 -0.6748 -0.1814
  662MPD2    C2 9848   2.093   1.804  17.475  0.0017  0.0168  0.2863
  662MPD2    C3 9849   2.075   1.937  17.522  0.3166 -0.0958 -0.0848
  662MPD2    C4 9850   2.177   2.030  17.507  0.5913  0.2691  0.4190
  662MPD2    C5 9851   2.290   2.000  17.434 -0.3886  0.3877  0.0774
  662MPD2     H 9852   2.013   1.731  17.470 -1.8258  1.7694  3.3642
  662MPD2    H1 9853   2.168   2.133  17.539  2.9516  0.8241 -0.7390
  662MPD2    H2 9854   2.407   1.834  17.369  1.6586  0.6357  3.0412
  662MPD2    H3 9855   2.364   2.075  17.407  1.6368 -0.8666  2.1327
  662MPD2     N 9856   1.962   1.973  17.593  0.2982 -0.1087  1.0171
  662MPD2    H5 9857   1.958   2.067  17.632 -0.0888  0.4909 -0.4611
  662MPD2    N1 9858   2.236   1.631  17.375 -0.2706  0.6039  0.5695
  662MPD2    H7 9859   2.168   1.560  17.399 -1.1982  1.6486  1.0347
  663TMC3    C1 9860   2.348   1.448  17.280 -0.0225  0.0040  0.1348
  663TMC3    C2 9861   2.331   1.377  17.394  0.3170 -0.0592  0.6074
  663TMC3    C3 9862   2.408   1.265  17.417 -0.0904  0.1569 -0.4817
  663TMC3    C4 9863   2.414   1.396  17.170  0.9277 -0.0399 -0.0578
  663TMC3    C5 9864   2.466   1.272  17.185 -0.1594  0.4467 -0.1336
  663TMC3    C6 9865   2.460   1.213  17.305  0.6620 -0.2757  0.1080
  663TMC3     C 9866   2.339   1.592  17.291 -0.3097 -0.0401  0.0594
  663TMC3     O 9867   2.419   1.659  17.224  0.0114  0.5736  0.1031
  663TMC3     H 9868   2.292   1.435  17.477  0.9633  1.3496 -0.0846
  663TMC3    H1 9869   2.440   1.459  17.086 -0.4149 -0.2658 -0.6409
  663TMC3    H2 9870   2.513   1.119  17.323  0.1719 -0.0576  2.7139
  663TMC3    C7 9871   2.461   1.192  17.067  0.1191  0.2454 -0.0968
  663TMC3    C8 9872   2.324   1.165  17.478 -0.5380 -0.8527 -0.0397
  663TMC3    O1 9873   2.434   1.254  16.965  0.2918  0.1551  0.1890
  663TMC3    O2 9874   2.343   1.053  17.440  0.8365  0.3528 -0.3583
  664MPD2     C 9875   0.073   0.052  17.531  0.5102 -0.9983 -0.3913
  664MPD2    C1 9876   0.213   0.055  17.529 -0.1163  0.3492  0.0945
  664MPD2    C2 9877   0.269   0.024  17.655  0.4476 -0.1313  0.0409
  664MPD2    C3 9878   0.195   4.704   0.022  0.1497  0.9301 -0.1834
  664MPD2    C4 9879   0.061   4.697   0.016  0.0018  0.1489 -0.0993
  664MPD2    C5 9880   0.003   0.002  17.637 -0.4643 -0.1187 -0.9554
  664MPD2     H 9881   0.378   0.027  17.662  0.7052 -2.8475 -2.8407
  664MPD2    H1 9882   4.733   4.664   0.097 -0.5896 -1.2873 -1.1386
  664MPD2    H2 9883   0.009   0.066  17.445  0.4520  0.0855 -0.1729
  664MPD2    H3 9884   4.629   0.006  17.635 -0.5516 -1.6086  0.8293
  664MPD2     N 9885   0.269   4.677   0.136  0.2744  0.3429  0.3583
  664MPD2    H5 9886   0.362   4.717   0.146  0.1563  0.9039 -0.8006
  664MPD2    N1 9887   0.283   0.091  17.415 -0.4054  0.2368  0.1255
  664MPD2    H7 9888   0.383   0.085  17.431 -0.2969 -1.0354 -1.1276
  665TMC3    C1 9889   0.270   4.651   0.363 -0.0110  0.7078 -0.0074
  665TMC3    C2 9890   0.247   4.576   0.481 -0.5103 -0.0663 -0.4466
  665TMC3    C3 9891   0.315   4.632   0.589  0.0134 -0.0386 -0.9520
  665TMC3    C4 9892   0.338   0.039   0.366  1.0098  0.1721 -0.2425
  665TMC3    C5 9893   0.408   0.073   0.474 -0.5376  0.5321 -0.3546
  665TMC3    C6 9894   0.410   4.733   0.593 -0.2124 -0.5185  0.2427
  665TMC3     C 9895   0.218   4.601   0.236  0.3568  0.3378 -0.8966
  665TMC3     O 9896   0.134   4.508   0.235  0.6122  0.6611 -0.5360
  665TMC3     H 9897   0.182   4.489   0.483  1.0614 -1.2499 -0.5859
  665TMC3    H1 9898   0.341   0.106   0.281 -1.5933 -0.1383 -0.5930
  665TMC3    H2 9899   0.464   0.036   0.679 -1.6317  2.8538 -0.2912
  665TMC3    C7 9900   0.480   0.201   0.452 -0.4066  0.6340 -0.0579
  665TMC3    C8 9901   0.265   4.606   0.725 -0.2102 -0.2133  0.4063
  665TMC3    O1 9902   0.473   0.274   0.349 -0.2727 -0.6540  0.4266
  665TMC3    O2 9903   0.294   4.695   0.805  0.2120 -0.3811 -0.2533
  666TMC3    C1 9904   4.614   0.024   9.607  0.4666 -0.5014 -0.0712
  666TMC3    C2 9905   4.692   4.687   9.700 -0.3099 -0.0911 -0.6591
  666TMC3    C3 9906   0.021   0.031   9.786  0.3736  0.3425  0.1666
  666TMC3    C4 9907   4.599   0.156   9.603  0.4986 -0.4331 -0.0508
  666TMC3    C5 9908   4.674   0.236   9.693  0.3119  0.0013 -0.4314
  666TMC3    C6 9909   0.023   0.166   9.785  0.8747  0.3395  0.6259
  666TMC3     C 9910   4.528   4.674   9.527  0.0533 -0.5956 -0.0837
  666TMC3     O 9911   4.475   4.720   9.424 -0.5473 -0.1846 -0.0166
  666TMC3     H 9912   4.722   4.585   9.683  3.5123  1.2363 -1.9298
  666TMC3    H1 9913   4.519   0.199   9.544 -0.3848 -0.9026  0.8079
  666TMC3    H2 9914   0.070   0.226   9.862  1.1859  2.2505 -1.0518
  666TMC3    C7 9915   4.632   0.370   9.717  0.5582  0.2720  0.1547
  666TMC3    C8 9916   0.122   4.699   9.862  0.2015 -0.8590 -0.1518
  666TMC3    O1 9917   4.614   0.391   9.837 -0.1077 -0.8597  0.0351
  666TMC3    O2 9918   0.101   4.586   9.907 -0.0924 -0.8480 -0.4056
  667MPD2     C 9919   1.766   0.357  14.724 -0.0287 -0.0538 -0.1162
  667MPD2    C1 9920   1.692   0.447  14.787  0.1501  0.2759 -0.6536
  667MPD2    C2 9921   1.562   0.417  14.798  0.5314  0.9365 -0.3318
  667MPD2    C3 9922   1.508   0.292  14.770 -0.1527 -0.2002  0.6485
  667MPD2    C4 9923   1.588   0.207  14.696 -0.5436 -0.5173 -0.1857
  667MPD2    C5 9924   1.712   0.235  14.677 -0.2139  0.0400  0.3567
  667MPD2     H 9925   1.500   0.486  14.854 -0.5456 -0.0880 -0.2671
  667MPD2    H1 9926   1.558   0.108  14.663 -2.4336 -0.6825  2.0542
  667MPD2    H2 9927   1.874   0.364  14.711  0.1107 -0.0114  1.1269
  667MPD2    H3 9928   1.772   0.165  14.621 -0.2891  0.0035  0.3209
  667MPD2     N 9929   1.382   0.252  14.818 -0.1925  0.2085  0.2006
  667MPD2    H5 9930   1.349   0.313  14.892  0.4458  0.6906  0.0850
  667MPD2    N1 9931   1.747   0.570  14.826  0.5073  0.0441  0.0296
  667MPD2    H7 9932   1.685   0.626  14.883  0.7616  1.0745 -0.6981
  668TMC3    C1 9933   1.897   0.738  14.884 -0.0057  0.3996 -0.0443
  668TMC3    C2 9934   1.974   0.830  14.815 -0.0659  0.8499  0.3706
  668TMC3    C3 9935   1.996   0.949  14.880  0.6701  0.1870  0.7053
  668TMC3    C4 9936   1.824   0.767  14.997 -0.7802 -0.1989 -0.3783
  668TMC3    C5 9937   1.859   0.887  15.052  0.2333 -0.3278  0.2892
  668TMC3    C6 9938   1.945   0.979  15.001 -0.9193 -0.2375  0.4877
  668TMC3     C 9939   1.877   0.615  14.806  0.0616 -0.3356  0.2847
  668TMC3     O 9940   1.961   0.584  14.724  0.1579 -1.0154  0.5734
  668TMC3     H 9941   2.013   0.802  14.717  3.1188 -1.5299  2.3108
  668TMC3    H1 9942   1.759   0.695  15.046 -0.1476 -1.0165 -0.7328
  668TMC3    H2 9943   1.958   1.077  15.046 -0.6288 -0.4813  0.9384
  668TMC3    C7 9944   1.835   0.914  15.200  0.0114 -0.0725 -0.7025
  668TMC3    C8 9945   2.081   1.057  14.823 -0.1042  0.1297 -0.0533
  668TMC3    O1 9946   1.881   1.019  15.245 -0.0729 -0.5199 -0.1422
  668TMC3    O2 9947   2.088   1.155  14.900  0.6692  0.3969  0.4614
  669TMC3    C1 9948   4.602   4.505  14.962  0.1568  0.5222  0.4920
  669TMC3    C2 9949   4.531   4.512  14.844 -0.3059 -0.0495  0.0505
  669TMC3    C3 9950   4.548   4.621  14.759 -0.4447  0.8404 -0.4466
  669TMC3    C4 9951   4.714   4.587  14.988 -1.1701 -0.4103 -0.3788
  669TMC3    C5 9952   4.726   4.690  14.902  0.6667 -0.1471  0.0767
  669TMC3    C6 9953   4.645   4.704  14.792 -0.0697  0.4648 -0.4207
  669TMC3     C 9954   4.552   4.418  15.067  0.0774  0.0259  0.4930
  669TMC3     O 9955   4.627   4.413  15.165  0.1635 -0.4971  0.4928
  669TMC3     H 9956   4.482   4.420  14.816  0.4548 -0.1742 -0.8902
  669TMC3    H1 9957   0.021   4.582  15.088  0.6229  3.3663 -0.9159
  669TMC3    H2 9958   4.694   0.043  14.729  0.2118 -0.7905 -1.6308
  669TMC3    C7 9959   0.096   0.057  14.921 -0.0830 -0.2261  0.2017
  669TMC3    C8 9960   4.491   4.622  14.626  0.5599 -0.0626 -0.1483
  669TMC3    O1 9961   0.072   0.166  14.871  0.3095 -0.0929  0.1395
  669TMC3    O2 9962   4.472   4.508  14.579 -0.6074  0.0862  0.0998
  670MPD2     C 9963   2.596   2.517  13.582 -0.3533 -0.3400 -0.0202
  670MPD2    C1 9964   2.700   2.601  13.625  0.7927 -0.0353  0.1688
  670MPD2    C2 9965   2.692   2.636  13.756  1.0792 -0.5705 -0.5133
  670MPD2    C3 9966   2.587   2.606  13.838 -0.2104 -0.4199  0.7023
  670MPD2    C4 9967   2.481   2.530  13.795  0.4559  0.1911 -0.1707
  670MPD2    C5 9968   2.487   2.486  13.665  0.0929  0.2056  0.0224
  670MPD2     H 9969   2.769   2.705  13.790 -0.1089 -0.6959  2.4535
  670MPD2    H1 9970   2.401   2.497  13.860  2.0680 -1.3480  1.0344
  670MPD2    H2 9971   2.596   2.466  13.487 -0.6670  0.1518 -0.2848
  670MPD2    H3 9972   2.410   2.419  13.630 -1.6558  2.0400  0.3810
  670MPD2     N 9973   2.583   2.665  13.966  0.0260  0.2072  0.1810
  670MPD2    H5 9974   2.665   2.720  13.990  0.1196 -0.6082  1.6609
  670MPD2    N1 9975   2.802   2.654  13.541 -0.7957 -0.3830  0.1966
  670MPD2    H7 9976   2.873   2.715  13.581 -1.6757  0.6315  0.1918
  671TMC3    C1 9977   2.531   2.666  14.197  0.3289 -0.3797 -0.6315
  671TMC3    C2 9978   2.653   2.613  14.232  0.6175  0.3384  0.4564
  671TMC3    C3 9979   2.659   2.538  14.350  0.0315 -0.6431  0.1428
  671TMC3    C4 9980   2.428   2.650  14.284 -0.0146 -0.1681  0.0143
  671TMC3    C5 9981   2.445   2.580  14.404 -0.0491 -0.0860  0.1285
  671TMC3    C6 9982   2.562   2.533  14.448  0.1020 -0.0702  0.3141
  671TMC3     C 9983   2.488   2.641  14.063 -0.9554  0.0121 -0.4349
  671TMC3     O 9984   2.370   2.614  14.050  0.2341 -0.4549 -0.0325
  671TMC3     H 9985   2.725   2.591  14.153 -0.5904 -0.1662 -0.4930
  671TMC3    H1 9986   2.328   2.690  14.269 -0.3099 -0.2665  1.6422
  671TMC3    H2 9987   2.555   2.467  14.534  0.0008 -0.4881 -0.0135
  671TMC3    C7 9988   2.338   2.488  14.416 -0.2325  0.2578  0.8541
  671TMC3    C8 9989   2.757   2.425  14.342 -0.2612  0.6629  0.0211
  671TMC3    O1 9990   2.325   2.441  14.531  0.6619  0.1143  0.3931
  671TMC3    O2 9991   2.827   2.416  14.241  0.2228  0.3361 -0.0676
  672MPD2     C 9992   3.147   3.165   0.327  0.4079 -0.7752 -0.0248
  672MPD2    C1 9993   3.175   3.077   0.430  0.7357 -0.0020 -0.2871
  672MPD2    C2 9994   3.281   3.108   0.511 -0.8978  0.1463 -0.7514
  672MPD2    C3 9995   3.375   3.206   0.472  0.1048  0.1107  0.5124
  672MPD2    C4 9996   3.345   3.285   0.367 -0.4896  0.3152 -0.7104
  672MPD2    C5 9997   3.229   3.277   0.303  0.1337 -0.1421 -0.1546
  672MPD2     H 9998   3.296   3.051   0.601 -0.4804 -0.5264 -1.2456
  672MPD2    H1 9999   3.407   3.373   0.355  1.0927 -0.5013  1.5053
  672MPD2    H210000   3.056   3.159   0.268  0.2113 -0.6501  0.2646
  672MPD2    H310001   3.203   3.352   0.230  3.6750 -1.9062 -3.1920
  672MPD2     N10002   3.484   3.254   0.549  0.2820  0.2241 -0.1068
  672MPD2    H510003   3.521   3.345   0.521  1.6437 -0.0350  0.8559
  672MPD2    N110004   3.085   2.976   0.473 -0.2771  0.4376 -0.0739
  672MPD2    H710005   3.093   2.929   0.563  0.9010  0.2047 -0.2966
  673TMC3    C110006   2.888   2.853   0.476 -0.5631  0.4335  0.6805
  673TMC3    C210007   2.938   2.763   0.571  0.3780  0.5265  0.4313
  673TMC3    C310008   2.839   2.691   0.633  0.0547  0.4349  0.4082
  673TMC3    C410009   2.760   2.881   0.455  0.1532  0.7136 -0.0847
  673TMC3    C510010   2.667   2.805   0.513 -0.4957  0.1705  0.1217
  673TMC3    C610011   2.707   2.710   0.601  0.1441  0.4623  0.4913
  673TMC3     C10012   2.982   2.928   0.395  0.3457 -0.6571 -0.2325
  673TMC3     O10013   2.948   2.959   0.279 -0.8782  0.2859 -0.2922
  673TMC3     H10014   3.044   2.743   0.579  0.0131 -2.5251 -2.6477
  673TMC3    H110015   2.730   2.956   0.382  1.2768  0.9720 -0.2789
  673TMC3    H210016   2.629   2.646   0.642  0.2616  0.5701  0.8784
  673TMC3    C710017   2.529   2.846   0.511  0.0528  0.4128  0.8438
  673TMC3    C810018   2.876   2.573   0.702 -0.1963 -0.4463 -0.7920
  673TMC3    O110019   2.448   2.779   0.573 -0.5222 -0.0154  0.5970
  673TMC3    O210020   2.783   2.493   0.709 -0.0288 -0.1634 -0.5491
  674MPD2     C10021   2.855   2.550   0.262 -0.3298 -0.3204 -0.7922
  674MPD2    C110022   2.741   2.504   0.318 -0.4815  0.2486 -0.1385
  674MPD2    C210023   2.618   2.569   0.290  0.7795 -0.2577 -0.1277
  674MPD2    C310024   2.611   2.682   0.207  0.1307 -0.2907  0.0026
  674MPD2    C410025   2.726   2.724   0.155 -0.5675 -0.1190 -0.2857
  674MPD2    C510026   2.845   2.663   0.183  0.2927  1.0713 -0.1005
  674MPD2     H10027   2.524   2.528   0.326 -0.1371  0.7350 -1.3685
  674MPD2    H110028   2.726   2.812   0.091  2.0677 -0.4956 -0.8004
  674MPD2    H210029   2.951   2.502   0.277 -0.4164 -0.2312  0.0505
  674MPD2    H310030   2.937   2.708   0.148  0.0694  2.4599  1.1236
  674MPD2     N10031   2.483   2.732   0.177 -0.1053 -0.6675  0.3970
  674MPD2    H510032   2.404   2.679   0.215  0.2957 -2.1662 -0.8656
  674MPD2    N110033   2.750   2.390   0.398  0.3063  0.8075  0.1663
  674MPD2    H710034   2.841   2.344   0.407 -0.4635 -1.0104 -1.2761
  675TMC3    C110035   2.686   2.227   0.550 -0.3116  0.0010 -0.0094
  675TMC3    C210036   2.592   2.139   0.595  0.4004 -0.1898 -0.4332
  675TMC3    C310037   2.627   2.040   0.686 -1.0921 -0.1226  0.3306
  675TMC3    C410038   2.820   2.222   0.591 -0.2306 -0.2623 -0.6899
  675TMC3    C510039   2.853   2.116   0.678 -0.2120 -0.0985  0.9695
  675TMC3    C610040   2.758   2.026   0.725  0.1395  0.0844  0.1221
  675TMC3     C10041   2.644   2.327   0.457 -0.2268 -0.9291 -0.4514
  675TMC3     O10042   2.523   2.357   0.463 -0.0325  0.7086  0.7944
  675TMC3     H10043   2.493   2.155   0.554  0.7026 -0.5651 -1.3007
  675TMC3    H110044   2.894   2.296   0.563  0.2066 -0.5461 -0.2586
  675TMC3    H210045   2.779   1.935   0.781  1.5408 -0.0683 -0.6492
  675TMC3    C710046   2.995   2.107   0.734  0.0744 -0.1743 -0.4661
  675TMC3    C810047   2.525   1.948   0.727 -0.8235  0.0044  0.0846
  675TMC3    O110048   3.088   2.161   0.677 -0.2397  0.1191  0.1625
  675TMC3    O210049   2.553   1.834   0.761 -0.4126  0.3163  0.2955
  676MPD2     C10050   0.704   1.238  11.118 -1.2542 -0.3551 -0.2577
  676MPD2    C110051   0.570   1.192  11.133  0.1892  0.8255 -0.2221
  676MPD2    C210052   0.527   1.092  11.039 -0.2002  0.3426  0.2287
  676MPD2    C310053   0.602   1.051  10.934 -0.6493  0.1331  0.0992
  676MPD2    C410054   0.729   1.107  10.917 -0.2814 -0.5360 -0.0484
  676MPD2    C510055   0.781   1.199  11.008 -0.2586 -0.0193 -0.0843
  676MPD2     H10056   0.425   1.057  11.045 -0.0246  0.2103  2.3111
  676MPD2    H110057   0.783   1.096  10.824 -2.2502 -1.1593 -1.1223
  676MPD2    H210058   0.744   1.317  11.181  0.5539 -1.9129  0.5695
  676MPD2    H310059   0.877   1.242  10.981  0.7418 -1.7788  0.6501
  676MPD2     N10060   0.559   0.950  10.846 -0.0659 -0.1993 -0.4870
  676MPD2    H510061   0.599   0.947  10.752 -2.0056 -4.5265 -1.1818
  676MPD2    N110062   0.491   1.231  11.239 -0.4342  0.3813 -0.0324
  676MPD2    H710063   0.405   1.179  11.249 -2.2769  3.4065 -0.1289
  677TMC3    C110064   0.432   1.362  11.425  0.0048  0.4195 -0.0720
  677TMC3    C210065   0.312   1.385  11.362  0.1159  0.4494 -0.0661
  677TMC3    C310066   0.227   1.478  11.408  0.7300  0.6510  0.7781
  677TMC3    C410067   0.473   1.443  11.526 -0.1373 -0.5424 -0.3966
  677TMC3    C510068   0.381   1.541  11.557  0.0900  0.6608  0.0508
  677TMC3    C610069   0.258   1.562  11.502  0.8220 -0.0457 -0.0531
  677TMC3     C10070   0.534   1.320  11.335 -0.1475 -0.7622 -0.1271
  677TMC3     O10071   0.651   1.348  11.372 -0.1001  0.2040 -0.0576
  677TMC3     H10072   0.287   1.318  11.280 -1.4711  1.4194 -0.3746
  677TMC3    H110073   0.564   1.432  11.583  0.1947 -0.1060 -0.8413
  677TMC3    H210074   0.184   1.631  11.542 -1.8846 -1.7134 -2.2155
  677TMC3    C710075   0.394   1.614  11.686  0.7075  0.0288 -0.8543
  677TMC3    C810076   0.091   1.460  11.368  0.1478 -0.2639  0.8804
  677TMC3    O110077   0.292   1.656  11.741  0.2226 -0.2045  0.0550
  677TMC3    O210078   0.075   1.426  11.251  0.1620 -0.1689 -0.1502
  678MPD2     C10079   2.108   0.351   1.520  0.2815 -0.3282 -0.0330
  678MPD2    C110080   2.031   0.411   1.422 -0.3472  0.3370  0.3224
  678MPD2    C210081   1.890   0.405   1.435  0.1481  0.8641 -0.4124
  678MPD2    C310082   1.831   0.348   1.546 -0.5779 -0.8048  0.3824
  678MPD2    C410083   1.911   0.296   1.646 -0.2080  0.1233  0.9242
  678MPD2    C510084   2.049   0.294   1.632  0.6057 -0.2560  0.1015
  678MPD2     H10085   1.822   0.443   1.360 -1.9252 -0.7957  0.6025
  678MPD2    H110086   1.870   0.256   1.738  1.2997 -0.7658  1.2160
  678MPD2    H210087   2.214   0.333   1.533  0.2065 -0.3123  0.6162
  678MPD2    H310088   2.106   0.252   1.714  0.1463 -1.7283 -0.3400
  678MPD2     N10089   1.692   0.366   1.562 -0.3983  0.2463 -0.1052
  678MPD2    H510090   1.650   0.421   1.488 -0.2345  0.7320  0.1652
  678MPD2    N110091   2.087   0.459   1.303  0.2868 -0.1638 -0.0455
  678MPD2    H710092   2.024   0.500   1.234  0.9166 -1.7441 -1.5532
  679TMC3    C110093   2.401   0.608   1.000 -0.1427 -0.3307  0.1353
  679TMC3    C210094   2.364   0.521   1.096  0.1974  0.3179 -0.8573
  679TMC3    C310095   2.245   0.543   1.152  0.2565  0.0122  0.6565
  679TMC3    C410096   2.313   0.701   0.949 -1.0875 -0.0784 -0.2449
  679TMC3    C510097   2.191   0.717   1.014 -0.3913 -0.0537 -0.1326
  679TMC3    C610098   2.161   0.649   1.126  0.6688 -0.5169  0.3419
  679TMC3     C10099   2.535   0.588   0.942 -0.4269  0.7221 -0.2416
  679TMC3     O10100   2.594   0.487   0.979  0.1352 -0.4838 -0.3028
  679TMC3     H10101   2.433   0.441   1.123  1.3859  1.2236 -1.2254
  679TMC3    H110102   2.338   0.784   0.883 -0.7142 -0.6092 -0.7675
  679TMC3    H210103   2.072   0.672   1.184 -0.4586 -1.9078 -0.8525
  679TMC3    C710104   2.101   0.820   0.964 -0.0934 -0.7228 -0.7769
  679TMC3    C810105   2.219   0.459   1.270 -0.0758 -0.2598 -0.1001
  679TMC3    O110106   2.129   0.865   0.852 -0.3085  0.3313 -0.5840
  679TMC3    O210107   2.314   0.402   1.326  0.3320  0.2790  0.0196
  680MPD2     C10108   2.218   0.034  13.434  0.5149  0.1635 -0.5128
  680MPD2    C110109   2.271   0.023  13.559  0.6026 -0.6569 -0.3091
  680MPD2    C210110   2.349   0.124  13.603  0.2659  1.1389 -0.2011
  680MPD2    C310111   2.375   0.245  13.539  0.5503 -0.2017 -0.0431
  680MPD2    C410112   2.306   0.260  13.419  0.8584 -0.5341 -0.5091
  680MPD2    C510113   2.233   0.154  13.374 -0.6623 -0.3056  0.3208
  680MPD2     H10114   2.404   0.106  13.694 -0.6296  1.2136  0.3533
  680MPD2    H110115   2.314   0.352  13.362  1.0827 -1.2166 -1.5760
  680MPD2    H210116   2.165   4.693  13.377 -0.5483  2.1979 -2.1935
  680MPD2    H310117   2.177   0.167  13.283 -1.3851 -1.0145  0.6650
  680MPD2     N10118   2.467   0.347  13.581 -0.3150 -0.4393 -0.0555
  680MPD2    H510119   2.507   0.410  13.512  1.4067 -0.7266  0.6852
  680MPD2    N110120   2.259   4.644  13.644  0.8856 -0.9042  0.1928
  680MPD2    H710121   2.297   4.642  13.738 -0.1352 -0.2327  0.6100
  681TMC3    C110122   2.245   4.422  13.704  0.6485 -0.4277 -0.8347
  681TMC3    C210123   2.213   4.460  13.833 -1.1673  0.3628 -0.4934
  681TMC3    C310124   2.269   4.401  13.940 -0.0482 -0.1434 -0.6044
  681TMC3    C410125   2.338   4.333  13.683 -0.1824 -0.7316 -0.4529
  681TMC3    C510126   2.412   4.292  13.787  0.7818  0.8592 -0.4356
  681TMC3    C610127   2.376   4.314  13.916 -0.1201  0.3890  0.0144
  681TMC3     C10128   2.215   4.520  13.600 -0.6917  0.7644 -0.3049
  681TMC3     O10129   2.203   4.479  13.484  0.1025  0.0218 -0.1788
  681TMC3     H10130   2.123   4.519  13.845 -2.7444 -2.5327  2.0443
  681TMC3    H110131   2.366   4.319  13.579  0.1072  1.0014 -0.6115
  681TMC3    H210132   2.424   4.264  14.000 -1.2087 -0.9563 -0.1601
  681TMC3    C710133   2.492   4.174  13.758 -0.5473 -0.1451  0.1703
  681TMC3    C810134   2.240   4.477  14.059  0.0226  0.6473  0.1189
  681TMC3    O110135   2.484   4.082  13.833  0.1112  0.1509 -1.1968
  681TMC3    O210136   2.124   4.513  14.074 -0.5243  0.1944 -0.4936
  682MPD2     C10137   4.221   1.332  10.482 -0.7771 -0.6428  0.7853
  682MPD2    C110138   4.210   1.195  10.478  1.3172 -0.0398 -0.2139
  682MPD2    C210139   4.181   1.127  10.593 -0.4853 -0.2973  0.7411
  682MPD2    C310140   4.161   1.199  10.710 -0.3948  0.6898 -0.6010
  682MPD2    C410141   4.156   1.335  10.714 -0.4858  0.9605  0.1336
  682MPD2    C510142   4.191   1.401  10.599 -0.2528 -1.0354  0.2962
  682MPD2     H10143   4.157   1.022  10.580 -2.2288  0.1341  0.4874
  682MPD2    H110144   4.125   1.402  10.793 -0.6119 -1.4848  2.1697
  682MPD2    H210145   4.249   1.392  10.396  1.5261 -0.5063  1.6190
  682MPD2    H310146   4.189   1.509  10.590 -0.0412 -0.8078  3.0096
  682MPD2     N10147   4.149   1.127  10.831 -0.2872  0.0806  0.8404
  682MPD2    H510148   4.104   1.169  10.912 -0.2203 -0.6121  1.2443
  682MPD2    N110149   4.219   1.114  10.362  0.1919  0.3682 -0.4656
  682MPD2    H710150   4.198   1.018  10.385 -1.5085  0.1878 -2.8403
  683TMC3    C110151   4.120   0.967  11.216  0.2275  0.4402 -0.6170
  683TMC3    C210152   4.130   0.832  11.230 -0.1782  0.0489 -0.6630
  683TMC3    C310153   4.126   0.752  11.118 -0.5945  0.5359  0.0827
  683TMC3    C410154   4.137   1.030  11.092 -0.3196  0.3373  0.4419
  683TMC3    C510155   4.153   0.943  10.982 -0.2043  0.5725  0.5546
  683TMC3    C610156   4.127   0.808  10.992 -0.3659  0.1152 -0.1171
  683TMC3     C10157   4.093   1.050  11.325  1.1790  0.0086 -0.0823
  683TMC3     O10158   4.137   1.165  11.325  0.2669 -0.7417 -0.3496
  683TMC3     H10159   4.125   0.782  11.326 -2.1799  0.8442 -0.3689
  683TMC3    H110160   4.155   1.136  11.085  1.5818 -0.0028  0.1155
  683TMC3    H210161   4.106   0.749  10.903  1.8099 -1.3464  0.3480
  683TMC3    C710162   4.182   0.995  10.850  0.1934 -0.3067  0.0464
  683TMC3    C810163   4.073   0.612  11.124 -0.2354  0.7787  0.2663
  683TMC3    O110164   4.204   0.908  10.766  0.0186  0.0505  0.2578
  683TMC3    O210165   4.001   0.575  11.032 -0.0273  0.0618  0.0237
  684MPD2     C10166   2.607   0.564  16.354 -0.2940  0.3071  0.3202
  684MPD2    C110167   2.668   0.538  16.233 -0.3058 -0.3623 -0.4417
  684MPD2    C210168   2.730   0.643  16.163 -0.4267 -0.3111 -0.1694
  684MPD2    C310169   2.741   0.766  16.219  0.2681 -0.6465  0.0654
  684MPD2    C410170   2.677   0.789  16.336  0.2218 -1.0136 -0.1687
  684MPD2    C510171   2.609   0.692  16.399  0.2871  0.3573  0.6637
  684MPD2     H10172   2.772   0.619  16.066  0.4103  0.0183  0.1046
  684MPD2    H110173   2.669   0.889  16.377 -0.3369 -1.2716  0.3726
  684MPD2    H210174   2.563   0.490  16.419 -1.3908 -0.0332 -0.8214
  684MPD2    H310175   2.556   0.715  16.490 -0.8269 -1.1320  0.3857
  684MPD2     N10176   2.813   0.874  16.154  0.3218  0.1304  0.3015
  684MPD2    H510177   2.846   0.954  16.207 -0.0015  0.3561  0.1619
  684MPD2    N110178   2.675   0.405  16.183 -0.1909 -0.1015  0.5290
  684MPD2    H710179   2.725   0.401  16.095 -0.6131 -0.4877  0.3047
  685TMC3    C110180   2.615   0.190  16.123 -0.4495  0.9330 -0.1416
  685TMC3    C210181   2.504   0.123  16.082 -0.1386  0.4113  0.0632
  685TMC3    C310182   2.529   0.028  15.985  0.2579 -0.4596 -0.2972
  685TMC3    C410183   2.743   0.156  16.082 -0.4694  0.5932  0.3619
  685TMC3    C510184   2.761   0.059  15.981  0.8320 -0.0374 -0.4521
  685TMC3    C610185   2.649   4.727  15.933  0.2838 -0.2511  0.8361
  685TMC3     C10186   2.593   0.300  16.214 -0.6302 -0.5529  0.3746
  685TMC3     O10187   2.504   0.285  16.293  0.1769 -0.0364 -0.1387
  685TMC3     H10188   2.411   0.161  16.122 -0.3102  0.9047 -0.8017
  685TMC3    H110189   2.823   0.216  16.124  1.1694 -0.7586 -0.8296
  685TMC3    H210190   2.659   4.661  15.848 -1.3173  1.2205 -0.4979
  685TMC3    C710191   2.882   0.041  15.917  0.2902  0.3719  0.3017
  685TMC3    C810192   2.427   0.007  15.882 -0.0191 -0.0604  0.2268
  685TMC3    O110193   2.891   4.694  15.828 -0.2152 -0.1222  0.2516
  685TMC3    O210194   2.423   4.632  15.825  0.6136  0.7866 -0.2256
  686MPD2     C10195   4.318   0.174  15.344  0.1738 -0.4376  0.1027
  686MPD2    C110196   4.322   0.116  15.464  0.2468 -0.4777 -0.4343
  686MPD2    C210197   4.413   0.020  15.497 -0.1703 -0.6463  0.1602
  686MPD2    C310198   4.498   4.705  15.402 -0.3891 -1.0931 -0.3640
  686MPD2    C410199   4.505   0.033  15.277  0.4348 -0.3673 -0.0005
  686MPD2    C510200   4.413   0.134  15.251  0.0682  0.8543 -0.3913
  686MPD2     H10201   4.397   4.700  15.590 -0.7882  0.2880  0.6011
  686MPD2    H110202   4.559   4.727  15.192  0.5871 -0.3062  0.0666
  686MPD2    H210203   4.238   0.241  15.316 -2.2506 -1.6295  4.2005
  686MPD2    H310204   4.406   0.173  15.151  0.5984  0.8478 -0.4317
  686MPD2     N10205   4.536   4.575  15.401 -0.0793  0.4504 -0.6633
  686MPD2    H510206   4.561   4.537  15.310  0.5345  0.2517 -0.4181
  686MPD2    N110207   4.219   0.162  15.552 -0.2736  0.0340  0.4522
  686MPD2    H710208   4.157   0.234  15.516  0.4832 -0.1204 -1.1902
  687TMC3    C110209   4.536   4.369  15.510  0.9270  0.1075  0.3357
  687TMC3    C210210   4.407   4.355  15.465 -0.4425  0.2872 -0.2616
  687TMC3    C310211   4.312   4.302  15.550  0.1176  0.2809 -0.4236
  687TMC3    C410212   4.574   4.301  15.624 -0.3078 -0.4564  0.2817
  687TMC3    C510213   4.479   4.234  15.695 -0.0691  0.6183  0.2437
  687TMC3    C610214   4.348   4.226  15.658 -0.3387 -0.5967  0.5407
  687TMC3     C10215   4.574   4.503  15.512 -0.3948 -0.1362 -0.3705
  687TMC3     O10216   4.599   4.549  15.621 -0.0181  0.3119  0.0029
  687TMC3     H10217   4.377   4.391  15.368  0.5557 -1.2389 -1.1368
  687TMC3    H110218   4.672   4.317  15.668 -0.6052 -3.3576  1.9728
  687TMC3    H210219   4.264   4.192  15.718 -0.5928  0.7166  0.9317
  687TMC3    C710220   4.495   4.259  15.839 -0.3912  0.0947 -0.0802
  687TMC3    C810221   4.174   4.319  15.502 -0.3307 -0.6009 -0.1589
  687TMC3    O110222   4.430   4.186  15.919 -0.0515  0.2736  0.4627
  687TMC3    O210223   4.098   4.243  15.562 -0.0313 -0.0085 -0.0166
  688MPD2     C10224   3.185   4.207  17.100  0.3531  0.5719  0.2192
  688MPD2    C110225   3.181   4.072  17.112  0.8541  0.0622 -0.2969
  688MPD2    C210226   3.266   4.001  17.028  0.3822 -0.2339 -0.2205
  688MPD2    C310227   3.342   4.059  16.925  0.7700 -0.7985 -0.5050
  688MPD2    C410228   3.339   4.196  16.918  0.8028 -0.2651 -0.3364
  688MPD2    C510229   3.260   4.270  17.002 -0.2165 -0.2500 -0.2717
  688MPD2     H10230   3.263   3.893  17.030 -2.9452 -0.1967 -4.0605
  688MPD2    H110231   3.394   4.239  16.835  0.1808 -0.5682 -0.8960
  688MPD2    H210232   3.114   4.271  17.151  0.7931 -0.3584  1.9880
  688MPD2    H310233   3.237   4.374  16.983 -1.4576 -0.9007 -2.3979
  688MPD2     N10234   3.417   3.989  16.826 -0.0814  0.1098 -0.7043
  688MPD2    H510235   3.441   4.033  16.738 -1.0720  0.1331 -0.9610
  688MPD2    N110236   3.098   3.996  17.204  0.1063 -0.3116  0.1802
  688MPD2    H710237   3.093   3.895  17.202 -4.8882 -0.0633  0.3470
  689TMC3    C110238   2.973   3.947  17.397 -0.0082 -0.3587  0.0763
  689TMC3    C210239   2.977   3.984  17.532  0.2567 -0.1206 -0.6104
  689TMC3    C310240   2.908   3.893  17.612  0.1351  0.0481  0.2925
  689TMC3    C410241   2.891   3.846  17.347  0.5508  0.4374  0.0522
  689TMC3    C510242   2.823   3.765  17.430  0.7533 -0.1852  0.0846
  689TMC3    C610243   2.833   3.787  17.564 -0.1495 -0.2247 -0.2832
  689TMC3     C10244   3.026   4.049  17.306 -0.1001  0.0585 -0.1994
  689TMC3     O10245   3.003   4.164  17.341 -0.2191  0.0717  0.5086
  689TMC3     H10246   3.040   4.065  17.564  1.0320 -0.3610 -1.5276
  689TMC3    H110247   2.885   3.834  17.239  2.5384  0.3417 -0.0452
  689TMC3    H210248   2.786   3.716  17.631 -0.7787  1.9707  1.6179
  689TMC3    C710249   2.754   3.651  17.375 -0.7343 -0.3528  0.3567
  689TMC3    C810250   2.931   3.919   0.012  0.1272 -0.5698 -0.3391
  689TMC3    O110251   2.772   3.624  17.255  0.8995  0.3798  0.3638
  689TMC3    O210252   3.012   4.005   0.040 -0.2356 -0.2203  0.0688
  690MPD2     C10253   1.133   1.450  15.761 -0.1497  0.2336 -0.0212
  690MPD2    C110254   1.052   1.420  15.649 -0.3076 -0.0500 -0.7891
  690MPD2    C210255   1.096   1.460  15.526 -0.3232  0.1121  0.8136
  690MPD2    C310256   1.228   1.507  15.513 -0.2549  0.2761  0.5555
  690MPD2    C410257   1.311   1.523  15.620 -0.0406  0.5417 -0.0901
  690MPD2    C510258   1.261   1.495  15.748 -0.1877 -0.1783  0.3198
  690MPD2     H10259   1.032   1.439  15.441 -0.5809  0.3490  0.9493
  690MPD2    H110260   1.412   1.560  15.613  0.1863  0.2027  1.3040
  690MPD2    H210261   1.092   1.438  15.860 -1.3565 -3.1774 -0.9142
  690MPD2    H310262   1.316   1.508  15.841  0.4536  0.5797 -0.1624
  690MPD2     N10263   1.273   1.538  15.379 -0.0478 -0.3493  0.1310
  690MPD2    H510264   1.195   1.542  15.314 -0.1887 -2.1403  0.1879
  690MPD2    N110265   0.924   1.362  15.651  1.0393 -0.7307  0.2660
  690MPD2    H710266   0.878   1.353  15.561  0.7582 -1.1074  0.4475
  691TMC3    C110267   0.754   1.212  15.728  0.2335  0.0302  0.0810
  691TMC3    C210268   0.735   1.157  15.599  0.0925  0.3795  0.2558
  691TMC3    C310269   0.683   1.029  15.585 -0.4988 -0.4226 -0.0188
  691TMC3    C410270   0.705   1.138  15.838 -0.6690  0.2417  0.5551
  691TMC3    C510271   0.663   1.003  15.821 -0.8168 -0.0714 -0.1539
  691TMC3    C610272   0.651   0.955  15.695  0.5424 -0.1735  0.4760
  691TMC3     C10273   0.862   1.311  15.760  0.1883 -0.3041  0.8767
  691TMC3     O10274   0.893   1.327  15.876 -0.5998  0.0706  0.5161
  691TMC3     H10275   0.764   1.207  15.508 -0.6343  2.2691  1.0441
  691TMC3    H110276   0.713   1.183  15.936 -0.4853  0.3390  0.4951
  691TMC3    H210277   0.631   0.851  15.671  0.5326 -0.4431  1.6493
  691TMC3    C710278   0.638   0.914  15.928  0.3821  0.0016  0.3438
  691TMC3    C810279   0.588   1.013  15.476 -0.6139 -0.1117  0.1264
  691TMC3    O110280   0.690   0.947  16.035 -0.4957 -0.6206 -0.0416
  691TMC3    O210281   0.613   0.919  15.398 -0.5117  0.1794 -0.1431
  692TMC3    C110282   2.212   1.907  15.978  0.6079  0.0055  0.1719
  692TMC3    C210283   2.289   1.895  16.095 -0.2702  0.1267 -0.2440
  692TMC3    C310284   2.424   1.862  16.082  0.2834 -1.0883  0.6338
  692TMC3    C410285   2.259   1.879  15.853  0.3302  0.6288 -0.3592
  692TMC3    C510286   2.381   1.824  15.851  0.3879 -0.2663 -0.2155
  692TMC3    C610287   2.462   1.814  15.959  0.2759  0.5548 -0.0816
  692TMC3     C10288   2.076   1.965  15.994  0.1950  0.2093  0.4372
  692TMC3     O10289   2.036   1.958  16.108 -0.3169 -0.0212 -0.0214
  692TMC3     H10290   2.255   1.953  16.179 -1.5378 -1.5708  0.4137
  692TMC3    H110291   2.189   1.894  15.772 -1.3003  0.2931  0.9919
  692TMC3    H210292   2.567   1.806  15.933 -0.0373  1.0274 -1.5113
  692TMC3    C710293   2.418   1.744  15.740 -0.5197  0.2068 -0.1590
  692TMC3    C810294   2.452   1.749  16.171  0.5336 -0.2962  0.6232
  692TMC3    O110295   2.381   1.780  15.632 -0.4609 -0.1164  0.1414
  692TMC3    O210296   2.506   1.648  16.122 -0.0534 -0.4102 -0.4790
  693MPD2     C10297   1.931   0.110  10.202  0.6254 -0.7267 -0.2414
  693MPD2    C110298   1.844   0.009  10.235 -0.1374  0.0880  0.3968
  693MPD2    C210299   1.902   4.617  10.257 -0.0216  0.4054  0.2769
  693MPD2    C310300   2.035   4.592  10.219  0.2094  0.5771  0.3810
  693MPD2    C410301   2.116   4.696  10.182  0.5382 -0.3935 -0.0723
  693MPD2    C510302   2.059   0.084  10.163 -0.0903  0.5525 -0.3633
  693MPD2     H10303   1.842   4.535  10.296  0.2995 -0.0402 -0.1669
  693MPD2    H110304   2.219   4.687  10.148 -0.0603 -0.6719 -1.8251
  693MPD2    H210305   1.884   0.204  10.175  0.1970 -0.1507  2.5462
  693MPD2    H310306   2.126   0.161  10.127 -0.5020  0.9130 -0.3608
  693MPD2     N10307   2.099   4.471  10.250 -0.8465 -0.6889  0.0945
  693MPD2    H510308   2.199   4.484  10.251 -0.7589 -1.3404 -0.6549
  693MPD2    N110309   1.707   0.039  10.246 -0.1863 -0.0484  0.8566
  693MPD2    H710310   1.690   0.139  10.250  1.5686  0.2895  0.0808
  694TMC3    C110311   1.474   0.006  10.276  0.0578 -0.1287  0.5514
  694TMC3    C210312   1.373   4.658  10.231  0.4818  1.2325 -0.5560
  694TMC3    C310313   1.258   4.644  10.305  0.6480  0.2011 -0.5618
  694TMC3    C410314   1.461   0.060  10.407  0.2143 -0.3419 -0.0284
  694TMC3    C510315   1.344   0.035  10.477  0.2017  0.4090  0.5327
  694TMC3    C610316   1.239   4.697  10.434 -0.6781  0.2918  0.2284
  694TMC3     C10317   1.607   4.680  10.254  0.3047  0.2029  0.5219
  694TMC3     O10318   1.619   4.561  10.237  0.3891  0.2508  0.0576
  694TMC3     H10319   1.399   4.590  10.150 -1.3177  1.1311 -1.0375
  694TMC3    H110320   1.539   0.116  10.457 -0.2582 -0.2198  0.5711
  694TMC3    H210321   1.145   4.698  10.488 -0.8560  1.2602 -0.1034
  694TMC3    C710322   1.334   0.083  10.614  0.5504 -0.5174  0.3599
  694TMC3    C810323   1.144   4.595  10.245  0.0401  0.5699 -0.3746
  694TMC3    O110324   1.395   0.186  10.641 -0.4013  0.2959  0.3140
  694TMC3    O210325   1.050   4.556  10.312  0.1482  0.1215  0.3499
  695MPD2     C10326   3.012   1.998  13.486 -0.0636  0.0825 -0.0514
  695MPD2    C110327   2.960   2.030  13.610 -0.3769 -0.2698 -0.0573
  695MPD2    C210328   2.832   2.088  13.619  0.4427  0.2729  0.9098
  695MPD2    C310329   2.747   2.094  13.517 -0.1878 -1.0071  0.6054
  695MPD2    C410330   2.794   2.054  13.394 -0.0491 -0.2128  0.7496
  695MPD2    C510331   2.930   2.013  13.377 -0.3024 -0.2118 -0.0392
  695MPD2     H10332   2.799   2.111  13.719  0.3286  0.3291  0.8582
  695MPD2    H110333   2.732   2.064  13.305 -0.0822  0.4827  0.8458
  695MPD2    H210334   3.109   1.952  13.473 -0.9176 -1.5824 -0.5995
  695MPD2    H310335   2.959   1.988  13.276 -0.2900 -1.9621  0.3836
  695MPD2     N10336   2.607   2.113  13.542 -0.4243  0.1387 -0.5925
  695MPD2    H510337   2.580   2.132  13.638  1.6799  0.9352 -0.1452
  695MPD2    N110338   3.028   1.998  13.733  0.0503  0.4208  0.1213
  695MPD2    H710339   2.987   2.000  13.826  2.9981  0.9646  1.4027
  696TMC3    C110340   2.382   2.137  13.535  0.1609 -0.9464  0.6814
  696TMC3    C210341   2.369   2.093  13.665 -1.4057 -0.0544  0.3456
  696TMC3    C310342   2.245   2.096  13.730  0.5066 -0.8862  0.0972
  696TMC3    C410343   2.274   2.171  13.461 -0.4643 -0.0700  0.2767
  696TMC3    C510344   2.158   2.187  13.531  0.2952 -0.1118 -0.4260
  696TMC3    C610345   2.138   2.151  13.663  0.0018  0.3823  0.8878
  696TMC3     C10346   2.505   2.108  13.456  0.5522  0.1133  0.0042
  696TMC3     O10347   2.490   2.094  13.335  0.4607  0.0452 -0.2223
  696TMC3     H10348   2.447   2.052  13.728 -1.1652  3.0101  2.0391
  696TMC3    H110349   2.287   2.214  13.362 -0.4509  1.7011  1.0398
  696TMC3    H210350   2.045   2.169  13.717  0.3555 -2.4208  2.4460
  696TMC3    C710351   2.083   2.305  13.492 -0.0140  0.1533 -0.5923
  696TMC3    C810352   2.261   2.141  13.866  0.4709  0.4241  0.0508
  696TMC3    O110353   2.080   2.336  13.372  0.7354  0.1493 -0.3134
  696TMC3    O210354   2.361   2.208  13.883  0.1527 -0.0979 -0.1415
  697MPD2     C10355   1.599   4.112  15.499  0.1818  0.4456  0.2313
  697MPD2    C110356   1.610   4.091  15.359  0.6853 -0.1969  0.0553
  697MPD2    C210357   1.694   4.175  15.279  0.0335  0.0751  0.5433
  697MPD2    C310358   1.754   4.288  15.336  0.1818 -0.5473 -0.0500
  697MPD2    C410359   1.736   4.311  15.465  1.0466  0.1750  0.0265
  697MPD2    C510360   1.663   4.223  15.546 -0.2825 -0.0054  0.4089
  697MPD2     H10361   1.725   4.145  15.180 -0.2832 -0.5626  0.6374
  697MPD2    H110362   1.783   4.395  15.515 -0.8422  1.1922  0.0838
  697MPD2    H210363   1.551   4.045  15.569  0.2502  1.6845  1.4596
  697MPD2    H310364   1.671   4.251  15.650  2.7253  0.4290  0.0419
  697MPD2     N10365   1.832   4.364  15.247 -0.1742 -0.5031  0.2201
  697MPD2    H510366   1.827   4.328  15.153 -0.1384  2.0488 -0.7721
  697MPD2    N110367   1.560   3.974  15.302  0.0467  0.1284 -0.5887
  697MPD2    H710368   1.569   3.975  15.201 -0.4329 -0.6600 -0.6374
  698TMC3    C110369   2.036   4.480  15.186 -0.3763 -0.1094  0.6706
  698TMC3    C210370   2.132   4.564  15.227  0.5560 -0.5232 -0.2211
  698TMC3    C310371   2.238   4.596  15.146 -0.2234  0.5167 -0.5081
  698TMC3    C410372   2.052   4.414  15.067 -0.1552 -0.5520  0.0992
  698TMC3    C510373   2.161   4.440  14.991  0.1043 -0.3860  0.2364
  698TMC3    C610374   2.251   4.540  15.026  0.3011 -0.0188  0.6819
  698TMC3     C10375   1.938   4.453  15.286 -0.2852  0.7089  0.2611
  698TMC3     O10376   1.962   4.486  15.402 -0.8622  0.4664  0.6463
  698TMC3     H10377   2.112   4.604  15.326  1.6672  2.2589 -1.1209
  698TMC3    H110378   1.987   4.335  15.031  1.4776 -0.6783 -2.5612
  698TMC3    H210379   2.324   4.572  14.953  1.2789  1.2971  2.2301
  698TMC3    C710380   2.156   4.394  14.857  1.1178 -0.6717  0.0944
  698TMC3    C810381   2.300   4.721  15.158 -0.7578 -0.1199  0.0172
  698TMC3    O110382   2.052   4.357  14.808 -0.6344  0.4156  0.0349
  698TMC3    O210383   2.260   0.054  15.250  0.4854  0.4823 -0.2658
  699TMC3    C110384   2.209   2.066  13.108 -0.0466 -0.2771 -0.6694
  699TMC3    C210385   2.272   1.948  13.133  0.7033  0.0029  0.0465
  699TMC3    C310386   2.211   1.844  13.196  0.8417 -0.7860  0.3630
  699TMC3    C410387   2.085   2.085  13.172  0.0021  0.2381 -0.1419
  699TMC3    C510388   2.030   1.978  13.243 -0.3497 -0.3029  0.2862
  699TMC3    C610389   2.090   1.860  13.255 -0.4664 -0.4695 -0.0549
  699TMC3     C10390   2.257   2.164  13.018 -1.0794 -0.1015 -0.1283
  699TMC3     O10391   2.182   2.248  12.986 -0.1634 -0.0486  0.1167
  699TMC3     H10392   2.341   1.923  13.052  0.0324 -0.0582 -0.5040
  699TMC3    H110393   2.023   2.170  13.146  0.8506  0.1478 -2.4496
  699TMC3    H210394   2.042   1.782  13.314 -1.9619  0.9014  0.5300
  699TMC3    C710395   1.898   1.993  13.302 -0.0405  0.4437  0.1476
  699TMC3    C810396   2.283   1.719  13.207  0.8325 -0.0993  0.5403
  699TMC3    O110397   1.839   1.893  13.341  0.1276 -0.1711 -0.0195
  699TMC3    O210398   2.205   1.633  13.240 -0.0604 -0.3008 -0.2631
  700TMC3    C110399   0.748   4.283  17.198  0.4223  0.5849 -0.8573
  700TMC3    C210400   0.780   4.152  17.167  0.0191  0.4263 -0.5050
  700TMC3    C310401   0.904   4.111  17.221 -0.7231  0.4047 -0.4362
  700TMC3    C410402   0.818   4.354  17.284 -0.7453 -0.3790 -0.6444
  700TMC3    C510403   0.936   4.307  17.333  0.2079 -0.5901  0.5104
  700TMC3    C610404   0.991   4.189  17.289 -0.2589  0.4202 -0.2817
  700TMC3     C10405   0.688   4.359  17.089  0.6636  0.8207  0.7708
  700TMC3     O10406   0.610   4.301  17.018  0.3469  0.5973  0.0014
  700TMC3     H10407   0.726   4.099  17.090 -2.2262  1.4057  0.4015
  700TMC3    H110408   0.808   4.461  17.302  2.7885 -0.4592  1.6542
  700TMC3    H210409   1.076   4.146  17.340 -2.0712 -0.3798  2.0740
  700TMC3    C710410   1.012   4.385  17.421 -0.1333  0.4579  0.7799
  700TMC3    C810411   0.948   3.985  17.166  1.0779  0.0906 -0.0082
  700TMC3    O110412   1.132   4.361  17.421  0.2583 -0.3523  0.0656
  700TMC3    O210413   1.063   3.957  17.168 -0.1560  0.0957  0.1671
  701TMC3    C110414   0.877   3.509  15.100 -0.6216 -0.3367  0.0819
  701TMC3    C210415   0.939   3.453  14.989 -0.5396 -0.5820  0.4984
  701TMC3    C310416   1.062   3.503  14.964  0.3526 -0.7404 -0.6912
  701TMC3    C410417   0.933   3.610  15.178  0.1105  0.2208  0.1733
  701TMC3    C510418   1.051   3.661  15.140  0.1601  0.3403  0.0122
  701TMC3    C610419   1.119   3.607  15.032 -0.5724 -0.6834  0.0185
  701TMC3     C10420   0.763   3.442  15.162 -0.2061  0.3675  0.0823
  701TMC3     O10421   0.722   3.478  15.270  0.0168 -0.1687 -0.4201
  701TMC3     H10422   0.906   3.363  14.938 -2.0167  0.4444 -0.3602
  701TMC3    H110423   0.883   3.652  15.265  0.2843 -1.1629  0.9434
  701TMC3    H210424   1.218   3.636  14.999 -0.4000  0.1851  1.2676
  701TMC3    C710425   1.100   3.782  15.195 -0.6085  0.5823  0.1003
  701TMC3    C810426   1.143   3.428  14.869 -0.3270 -0.3825  0.2643
  701TMC3    O110427   1.174   3.853  15.126 -0.0915  0.0161 -0.2694
  701TMC3    O210428   1.263   3.452  14.873  0.0157 -0.5205  0.2515
  702MPD2     C10429   0.709   0.926  10.209  0.4960 -0.6704 -0.5199
  702MPD2    C110430   0.608   0.975  10.300 -0.5037  0.0638  0.2524
  702MPD2    C210431   0.580   1.108  10.307  0.7681  0.1441 -0.0792
  702MPD2    C310432   0.645   1.194  10.223 -0.1769  0.3538 -0.1560
  702MPD2    C410433   0.751   1.146  10.143 -0.5535 -0.0139  0.6091
  702MPD2    C510434   0.784   1.013  10.133  0.0079 -0.0040 -0.0065
  702MPD2     H10435   0.499   1.147  10.369 -1.6675 -2.3127 -1.7124
  702MPD2    H110436   0.816   1.210  10.084  0.8588 -1.3300  0.7489
  702MPD2    H210437   0.725   0.820  10.193  0.5973 -0.0394 -4.6295
  702MPD2    H310438   0.861   0.975  10.067  2.7430  0.3883  2.9969
  702MPD2     N10439   0.620   1.332  10.230  0.5130  0.2555  0.0699
  702MPD2    H510440   0.680   1.396  10.179  1.0724 -0.3340  0.0052
  702MPD2    N110441   0.534   0.890  10.389 -0.1157 -0.5582  0.5150
  702MPD2    H710442   0.472   0.948  10.444 -1.9862 -2.1884  0.1351
  703TMC3    C110443   0.509   1.520  10.310 -0.5308  0.0070  1.2718
  703TMC3    C210444   0.382   1.536  10.354 -0.1681 -0.6100 -0.2329
  703TMC3    C310445   0.355   1.578  10.476 -0.0376 -0.3166  0.0385
  703TMC3    C410446   0.622   1.562  10.373 -0.3631 -0.0769  0.0408
  703TMC3    C510447   0.593   1.619  10.494  0.0770 -0.1328  0.0693
  703TMC3    C610448   0.466   1.621  10.549  0.1153  0.2982  0.2583
  703TMC3     C10449   0.504   1.385  10.275  0.2105  0.5998  0.1961
  703TMC3     O10450   0.402   1.334  10.315 -0.2007  0.3315  0.0254
  703TMC3     H10451   0.295   1.531  10.289 -0.5698  1.6580  0.1070
  703TMC3    H110452   0.723   1.548  10.337  0.6254  0.4596  2.6234
  703TMC3    H210453   0.450   1.661  10.649  1.4721  1.8186 -0.1354
  703TMC3    C710454   0.703   1.674  10.570 -0.5234  0.0055  0.2086
  703TMC3    C810455   0.242   1.513  10.557  0.3686 -0.6426 -0.1989
  703TMC3    O110456   0.814   1.654  10.528  0.1004 -0.3331 -0.7142
  703TMC3    O210457   0.205   1.567  10.659  0.6314  0.2952 -0.3446
  704TMC3    C110458   3.681   3.630  12.508 -0.1976 -0.4262  0.9435
  704TMC3    C210459   3.778   3.608  12.418  0.6940  0.2376 -0.2501
  704TMC3    C310460   3.878   3.520  12.447 -0.2971  0.8449  0.2636
  704TMC3    C410461   3.678   3.573  12.626  0.6764 -0.5157  0.1343
  704TMC3    C510462   3.771   3.483  12.655  0.3251  0.0776  0.0327
  704TMC3    C610463   3.876   3.460  12.572  0.5322  0.0126  0.3209
  704TMC3     C10464   3.546   3.669  12.462 -0.4789 -0.1739 -0.5304
  704TMC3     O10465   3.467   3.715  12.542  0.0380  0.6410 -0.5169
  704TMC3     H10466   3.785   3.688  12.345  3.1074 -1.1343 -1.5278
  704TMC3    H110467   3.600   3.590  12.700  0.8951  0.1663  0.2030
  704TMC3    H210468   3.943   3.378  12.594  0.7487 -0.2849 -1.4442
  704TMC3    C710469   3.722   3.365  12.719  0.4086  0.2581 -1.0412
  704TMC3    C810470   3.899   3.431  12.331 -0.3094  0.4184 -0.0176
  704TMC3    O110471   3.780   3.263  12.695  0.6294 -0.4424 -0.4924
  704TMC3    O210472   3.866   3.480  12.224 -0.2345 -0.3824  0.1716
  705MPD2     C10473   2.211   1.592  16.933  0.1979  0.3921  0.0028
  705MPD2    C110474   2.247   1.725  16.950  0.2386  0.3881 -0.2700
  705MPD2    C210475   2.173   1.810  17.029  0.9668 -0.0578  0.2477
  705MPD2    C310476   2.063   1.760  17.098 -0.8685 -0.4345  0.1328
  705MPD2    C410477   2.033   1.622  17.080  0.3654 -0.7921 -0.2908
  705MPD2    C510478   2.096   1.543  16.989  0.1589 -0.2281  0.0316
  705MPD2     H10479   2.194   1.916  17.023 -0.9689  0.3238  0.2240
  705MPD2    H110480   1.961   1.565  17.138  1.7986 -1.7285  0.5382
  705MPD2    H210481   2.267   1.533  16.861  0.2588  0.8259 -0.3030
  705MPD2    H310482   2.066   1.440  16.975 -1.9067  0.3087  0.4414
  705MPD2     N10483   1.972   1.831  17.176 -0.1911 -0.0917 -0.2681
  705MPD2    H510484   1.896   1.778  17.217 -2.2706  1.7790 -1.7082
  705MPD2    N110485   2.350   1.789  16.875 -0.2355  0.0065 -0.5534
  705MPD2    H710486   2.347   1.888  16.897 -0.2035  0.0082 -0.5579
  706TMC3    C110487   2.629   1.862  16.509  0.0037 -0.2446  0.1666
  706TMC3    C210488   2.566   1.977  16.471 -0.0158  0.6721 -0.4400
  706TMC3    C310489   2.455   2.004  16.543 -0.0130  0.8128  0.4623
  706TMC3    C410490   2.593   1.784  16.617 -0.8783  0.3578 -0.0768
  706TMC3    C510491   2.483   1.820  16.691 -0.6117 -0.0153 -0.6933
  706TMC3    C610492   2.404   1.933  16.651 -0.0543  0.6206  0.2433
  706TMC3     C10493   2.762   1.839  16.470  0.1664 -0.1973 -0.0448
  706TMC3     O10494   2.837   1.782  16.550  0.1213 -0.5922  0.2483
  706TMC3     H10495   2.608   2.050  16.404 -2.1414  1.0460 -1.3897
  706TMC3    H110496   2.644   1.690  16.638 -0.6782  0.2514 -1.0051
  706TMC3    H210497   2.318   1.959  16.712  1.2760  0.1734  2.3192
  706TMC3    C710498   2.436   1.732  16.789  0.9256 -0.3883  0.3738
  706TMC3    C810499   2.377   2.106  16.481  0.4577  0.0778 -0.2437
  706TMC3    O110500   2.449   1.613  16.772  0.5259 -0.2645 -0.8046
  706TMC3    O210501   2.426   2.182  16.399 -0.4637  0.0856  0.0909
  707TMC3    C110502   4.437   0.966   1.424 -0.9563 -0.0276 -1.0060
  707TMC3    C210503   4.457   0.903   1.547  0.5083 -0.0337 -0.2366
  707TMC3    C310504   4.358   0.917   1.644 -0.5297  0.0328 -0.6387
  707TMC3    C410505   4.323   1.029   1.396 -0.3072 -0.3430 -0.3528
  707TMC3    C510506   4.224   1.036   1.491 -0.2249  0.4223  0.2469
  707TMC3    C610507   4.244   0.982   1.619 -0.0596  0.0248  1.0373
  707TMC3     C10508   4.529   0.921   1.326 -0.1258  0.3271  0.3433
  707TMC3     O10509   4.599   0.828   1.359  0.2125 -0.2277 -0.1334
  707TMC3     H10510   4.555   0.870   1.581  0.4103  0.7821  0.8633
  707TMC3    H110511   4.303   1.050   1.291  2.6320  0.3697 -0.7753
  707TMC3    H210512   4.176   1.005   1.701  0.4440 -1.0941  1.7629
  707TMC3    C710513   4.104   1.116   1.459 -1.1688  0.0800 -1.2193
  707TMC3    C810514   4.363   0.815   1.757 -0.0931  0.5088  0.1347
  707TMC3    O110515   4.109   1.181   1.358  0.6853  0.3865 -0.2674
  707TMC3    O210516   4.364   0.862   1.870  0.4232 -0.1284 -0.4082
  708MPD2     C10517   1.508   0.373  13.697  0.6506  0.3360  0.0959
  708MPD2    C110518   1.423   0.313  13.786 -0.5683  0.2198  0.3325
  708MPD2    C210519   1.459   0.318  13.914  0.5603 -0.7004  1.1960
  708MPD2    C310520   1.583   0.356  13.963 -0.1975  0.2298  0.0565
  708MPD2    C410521   1.678   0.398  13.876  0.2931 -0.3361  0.0993
  708MPD2    C510522   1.636   0.400  13.742  0.2186  0.2565  0.1531
  708MPD2     H10523   1.385   0.289  13.988 -0.3163  0.0815  0.6261
  708MPD2    H110524   1.783   0.412  13.896  0.2207 -1.0726  0.9857
  708MPD2    H210525   1.494   0.369  13.590  0.8048  1.9892  0.0094
  708MPD2    H310526   1.707   0.434  13.668 -0.7602 -0.3304 -1.0591
  708MPD2     N10527   1.603   0.350  14.098  0.0160 -0.1609  0.4559
  708MPD2    H510528   1.520   0.312  14.143 -0.8613  0.0645 -0.9657
  708MPD2    N110529   1.292   0.262  13.764 -0.4110 -0.1383  0.2006
  708MPD2    H710530   1.247   0.217  13.843  0.2385 -2.8440 -0.9555
  709TMC3    C110531   1.095   0.197  13.662  0.3412  0.3685 -0.8303
  709TMC3    C210532   0.984   0.270  13.639  0.3048  0.2410 -0.0307
  709TMC3    C310533   0.870   0.234  13.708 -0.1214  0.0911  0.1227
  709TMC3    C410534   1.099   0.090  13.751 -0.1196  0.4841  0.5434
  709TMC3    C510535   0.989   0.082  13.838 -0.4538 -0.1731 -0.2216
  709TMC3    C610536   0.872   0.137  13.809 -0.1260 -0.1407  0.0079
  709TMC3     C10537   1.220   0.269  13.644 -0.0323  0.1667 -0.2535
  709TMC3     O10538   1.236   0.347  13.553  0.2244  0.1592 -0.3261
  709TMC3     H10539   0.980   0.354  13.571 -0.9596  1.3022  1.3381
  709TMC3    H110540   1.186   0.028  13.768  1.1201  1.3865 -2.4487
  709TMC3    H210541   0.776   0.104  13.847 -0.9309  3.0261  0.7705
  709TMC3    C710542   1.037   0.141  13.963 -0.6480  0.3682 -0.1334
  709TMC3    C810543   0.739   0.256  13.647 -0.2361  0.4133  0.5260
  709TMC3    O110544   1.157   0.147  13.976  0.1791 -0.8520 -0.0304
  709TMC3    O210545   0.641   0.244  13.721  0.2894 -0.3249  0.3490
  710TMC3    C110546   1.853   1.525   0.521 -0.4211  0.3289  0.1534
  710TMC3    C210547   1.835   1.500   0.385  0.2504 -0.0978 -0.1377
  710TMC3    C310548   1.830   1.365   0.352  0.1090 -0.0364  0.0810
  710TMC3    C410549   1.855   1.433   0.624 -0.0733  0.0169 -0.8589
  710TMC3    C510550   1.852   1.310   0.582  0.5888  0.1482  0.1721
  710TMC3    C610551   1.852   1.273   0.450  0.3048  0.3446  0.3608
  710TMC3     C10552   1.849   1.671   0.551  0.1178 -0.2497  0.2813
  710TMC3     O10553   1.852   1.753   0.460  0.0801  0.0719 -0.0553
  710TMC3     H10554   1.824   1.582   0.315  1.1430 -0.5021 -0.7357
  710TMC3    H110555   1.906   1.451   0.718 -2.1906 -0.5048  0.3784
  710TMC3    H210556   1.829   1.169   0.430  0.2252  0.7533 -1.6935
  710TMC3    C710557   1.877   1.208   0.679 -0.0468  0.3440 -0.0478
  710TMC3    C810558   1.908   1.338   0.230  0.8801  0.8646  0.7922
  710TMC3    O110559   1.956   1.124   0.641 -0.3417 -0.8917 -0.8164
  710TMC3    O210560   1.955   1.435   0.170  0.3936  0.4915  0.4891
  711TMC3    C110561   1.369   2.634  14.906 -0.1082 -0.6315  0.1165
  711TMC3    C210562   1.360   2.542  15.007  0.2002  0.1103 -0.5810
  711TMC3    C310563   1.399   2.568  15.132 -0.5012 -0.3903  0.4632
  711TMC3    C410564   1.423   2.756  14.932 -0.3028 -0.6043 -0.7273
  711TMC3    C510565   1.444   2.789  15.066 -0.1958  1.1110  0.1079
  711TMC3    C610566   1.435   2.693  15.163 -0.0349  0.6507 -0.9133
  711TMC3     C10567   1.349   2.585  14.771  0.1669  0.1705  0.3115
  711TMC3     O10568   1.354   2.463  14.755 -0.1852  0.0751 -0.2278
  711TMC3     H10569   1.321   2.441  14.995 -0.3287  0.1129  1.0696
  711TMC3    H110570   1.452   2.822  14.850 -1.6696 -0.4205 -1.0652
  711TMC3    H210571   1.447   2.723  15.266 -1.5036  1.2954 -0.9241
  711TMC3    C710572   1.563   2.869  15.085  0.2962  0.0377 -0.3068
  711TMC3    C810573   1.486   2.464  15.189  0.4857 -0.4650 -0.0731
  711TMC3    O110574   1.551   2.988  15.060 -0.0732  0.4157  0.1885
  711TMC3    O210575   1.500   2.362  15.123  0.5757  0.2681 -0.6193
  712MPD2     C10576   3.435   3.274  13.445 -0.6330  0.1695  0.3642
  712MPD2    C110577   3.328   3.363  13.449  0.4147  0.1950  0.3624
  712MPD2    C210578   3.356   3.495  13.477 -0.3102  0.1709  0.7358
  712MPD2    C310579   3.483   3.544  13.497 -0.4507 -0.4713  0.1338
  712MPD2    C410580   3.587   3.456  13.492  0.0520  0.5971  0.0692
  712MPD2    C510581   3.565   3.320  13.470 -0.2730 -0.4010 -0.4264
  712MPD2     H10582   3.271   3.563  13.478 -1.3278 -1.0942 -1.5317
  712MPD2    H110583   3.689   3.491  13.500  0.8662 -1.6420 -0.4684
  712MPD2    H210584   3.421   3.171  13.416  0.4327 -0.9174  3.6568
  712MPD2    H310585   3.645   3.248  13.466  0.3016  0.3021 -1.5483
  712MPD2     N10586   3.518   3.681  13.520  0.0688  0.3300 -0.7809
  712MPD2    H510587   3.618   3.697  13.517 -0.0561  1.2108 -0.4493
  712MPD2    N110588   3.195   3.330  13.409 -0.0468  0.3305  0.0306
  712MPD2    H710589   3.117   3.394  13.418 -1.7171 -1.8291  1.1637
  713TMC3    C110590   3.468   3.920  13.518 -0.1358  0.1235 -0.5987
  713TMC3    C210591   3.589   3.952  13.464  0.9324  0.6293  0.2838
  713TMC3    C310592   3.601   4.082  13.419 -0.9954 -0.8250 -0.1426
  713TMC3    C410593   3.376   4.016  13.542  0.4074  0.0779 -0.9419
  713TMC3    C510594   3.397   4.147  13.507 -0.4509  0.3243 -0.3180
  713TMC3    C610595   3.512   4.186  13.439 -0.1575  1.2854 -0.8254
  713TMC3     C10596   3.425   3.785  13.523  0.3052 -0.1173  0.1051
  713TMC3     O10597   3.307   3.775  13.554 -0.4753  0.2101  0.0371
  713TMC3     H10598   3.651   3.875  13.418 -1.7423 -0.2574 -1.8534
  713TMC3    H110599   3.279   3.991  13.584  0.4260  2.1291  0.3001
  713TMC3    H210600   3.516   4.283  13.390  1.8692  1.8987  0.5577
  713TMC3    C710601   3.296   4.250  13.535 -0.5577 -0.6817  0.2325
  713TMC3    C810602   3.729   4.134  13.389  0.9142  0.6000  0.0678
  713TMC3    O110603   3.172   4.235  13.503  0.0884 -0.4637 -0.5272
  713TMC3    O210604   3.733   4.222  13.305 -0.1395  0.3806  0.1851
  714MPD2     C10605   0.360   2.689   0.820  0.1206  0.5897 -0.2083
  714MPD2    C110606   0.371   2.565   0.881  0.3356  0.7898 -0.0064
  714MPD2    C210607   0.256   2.498   0.929 -0.7874  0.5420  0.4453
  714MPD2    C310608   0.137   2.566   0.932 -0.2490 -0.2692 -0.0815
  714MPD2    C410609   0.127   2.694   0.881  0.1162  0.0801 -0.2935
  714MPD2    C510610   0.236   2.739   0.815  0.6001  0.0385  0.2827
  714MPD2     H10611   0.260   2.399   0.973 -1.8930  0.3576  0.1178
  714MPD2    H110612   0.043   2.761   0.891 -0.3670 -0.5819  0.0550
  714MPD2    H210613   0.437   2.733   0.758  1.3018 -1.5656 -0.2855
  714MPD2    H310614   0.221   2.836   0.770 -1.4399 -0.4940 -0.1971
  714MPD2     N10615   0.025   2.502   0.991  0.3851  0.1044  0.0665
  714MPD2    H510616   0.039   2.415   1.042 -1.8622  0.0873  0.6587
  714MPD2    N110617   0.502   2.501   0.877 -0.3081  0.7215 -0.3564
  714MPD2    H710618   0.571   2.562   0.835 -0.1964  2.0335  1.7338
  715TMC3    C110619   0.674   2.345   0.908 -0.0922  0.1012  0.4787
  715TMC3    C210620   0.713   2.218   0.902 -0.0993 -0.0220 -0.4192
  715TMC3    C310621   0.844   2.188   0.914 -0.6336  0.4392  0.4798
  715TMC3    C410622   0.760   2.451   0.928  0.3981  0.1687 -0.9220
  715TMC3    C510623   0.888   2.415   0.946 -0.2760 -0.3738  0.4902
  715TMC3    C610624   0.936   2.287   0.942  0.6044 -0.2204  0.3396
  715TMC3     C10625   0.534   2.369   0.913  0.0079  0.4779  0.3131
  715TMC3     O10626   0.461   2.277   0.951 -0.3813 -0.2836 -0.7739
  715TMC3     H10627   0.641   2.140   0.881  1.1186 -1.5909  1.1674
  715TMC3    H110628   0.726   2.554   0.932 -1.2435 -0.4114 -0.0297
  715TMC3    H210629   1.043   2.272   0.955  0.6007 -1.3080 -0.9289
  715TMC3    C710630   0.994   2.519   0.969 -0.2022  0.1410 -0.4459
  715TMC3    C810631   0.881   2.050   0.923  0.7168 -0.0121  0.7455
  715TMC3    O110632   1.082   2.480   1.040  0.7623  0.2130 -0.5749
  715TMC3    O210633   0.815   1.976   0.991  0.0299 -0.6486  0.6280
  716MPD2     C10634   0.617   0.480   9.847  0.2084 -1.0573 -0.2861
  716MPD2    C110635   0.546   0.478   9.732 -0.6483  0.0328 -0.4569
  716MPD2    C210636   0.580   0.386   9.638  0.0739 -0.0189 -0.6831
  716MPD2    C310637   0.687   0.301   9.660 -0.0878 -0.5378 -0.4750
  716MPD2    C410638   0.767   0.317   9.767 -0.3218 -0.5825 -0.5230
  716MPD2    C510639   0.729   0.405   9.861 -0.1859 -0.5441 -0.0119
  716MPD2     H10640   0.516   0.373   9.551 -1.0353 -0.8467  0.2639
  716MPD2    H110641   0.856   0.262   9.793 -1.2582 -1.8079  0.1231
  716MPD2    H210642   0.594   0.548   9.928  2.5263 -0.4766 -0.1237
  716MPD2    H310643   0.777   0.432   9.954 -1.0559  0.8360  0.0488
  716MPD2     N10644   0.703   0.200   9.560 -0.2368 -0.7940  0.1888
  716MPD2    H510645   0.634   0.194   9.486 -0.8340  1.4374  0.5942
  716MPD2    N110646   0.448   0.579   9.714  0.1022  0.0065  0.5676
  716MPD2    H710647   0.450   0.661   9.774  1.3811  0.4751 -0.1044
  717TMC3    C110648   0.814   0.046   9.418  0.1191  0.0222 -0.7707
  717TMC3    C210649   0.737   0.095   9.322  0.0377  0.5144 -0.2143
  717TMC3    C310650   0.710   0.010   9.216 -0.0456 -1.2500  0.2126
  717TMC3    C410651   0.855   4.652   9.420 -0.2838 -0.3292 -0.6436
  717TMC3    C510652   0.817   4.564   9.322 -0.1520  0.7103 -0.8108
  717TMC3    C610653   0.744   4.616   9.212 -0.6311  0.0615 -0.2601
  717TMC3     C10654   0.804   0.107   9.555 -0.3832  0.1617  0.2682
  717TMC3     O10655   0.892   0.078   9.641 -0.0853 -0.0354 -0.3519
  717TMC3     H10656   0.721   0.201   9.312  1.7140  0.6677 -1.3289
  717TMC3    H110657   0.925   4.626   9.498 -0.1896  1.2388 -0.2118
  717TMC3    H210658   0.726   4.551   9.127 -0.4985  2.4790 -2.1424
  717TMC3    C710659   0.836   4.423   9.346 -0.0619  0.2291 -0.0676
  717TMC3    C810660   0.626   0.080   9.113 -0.2772  0.4117  0.7034
  717TMC3    O110661   0.909   4.389   9.439 -0.4168  0.4292 -0.4766
  717TMC3    O210662   0.578   0.184   9.152  0.1276 -0.2496 -0.4317
  718MPD2     C10663   4.544   4.169  12.152 -0.5585  0.3711 -0.4199
  718MPD2    C110664   4.536   4.039  12.127  0.0677 -0.6778 -0.0440
  718MPD2    C210665   4.469   3.952  12.211  0.1911 -0.2173  0.2498
  718MPD2    C310666   4.409   3.995  12.330  0.0580 -0.0453 -0.0761
  718MPD2    C410667   4.412   4.135  12.350  0.0337 -0.7349 -0.1386
  718MPD2    C510668   4.478   4.218  12.262 -0.3204 -0.3903  0.3024
  718MPD2     H10669   4.480   3.847  12.187  0.6356 -0.6168  2.1487
  718MPD2    H110670   4.361   4.182  12.434  0.3048  1.0077 -0.9471
  718MPD2    H210671   4.608   4.235  12.094 -1.2139  1.2462 -0.1597
  718MPD2    H310672   4.484   4.323  12.291 -1.2925 -0.8471  2.1570
  718MPD2     N10673   4.350   3.899  12.416 -0.2483 -0.1661  0.6464
  718MPD2    H510674   4.368   3.802  12.391  0.8578  0.6496 -1.6830
  718MPD2    N110675   4.596   3.981  12.013 -0.2679  0.0939 -0.9218
  718MPD2    H710676   4.673   4.026  11.965  1.2400  0.2000  1.6094
  719TMC3    C110677   4.655   3.788  11.889 -0.3727 -0.0183  0.3778
  719TMC3    C210678   4.641   3.662  11.933 -0.2456 -0.2870 -0.1098
  719TMC3    C310679   0.015   3.606  11.999 -0.4319  1.0487  0.2689
  719TMC3    C410680   0.041   3.850  11.876 -0.4223 -0.0757  0.0660
  719TMC3    C510681   0.142   3.784  11.940  0.1880 -0.2316 -0.2234
  719TMC3    C610682   0.133   3.673  12.015 -0.2130 -0.2884  0.6673
  719TMC3     C10683   4.554   3.870  11.949  0.2753  0.2015  0.0202
  719TMC3     O10684   4.443   3.814  11.964 -0.4524 -0.5477 -0.4364
  719TMC3     H10685   4.546   3.610  11.945 -0.5141 -0.3468 -2.5521
  719TMC3    H110686   0.048   3.947  11.827  2.4722 -0.5437 -0.4171
  719TMC3    H210687   0.220   3.618  12.050  0.7604  0.3619 -0.7285
  719TMC3    C710688   0.253   3.865  11.960 -0.1160  0.0556  0.5519
  719TMC3    C810689   4.721   3.502  12.096 -0.5179  0.2037  0.1710
  719TMC3    O110690   0.293   3.933  11.865  0.0216  0.9391  0.3441
  719TMC3    O210691   0.051   3.504  12.201 -0.2230 -0.3028  0.0924
  720MPD2     C10692   3.523   0.943  14.031 -0.0037  1.1672  0.2909
  720MPD2    C110693   3.588   0.889  13.921  0.4877 -0.4850  0.1568
  720MPD2    C210694   3.722   0.871  13.926 -0.6391  0.2164  0.2745
  720MPD2    C310695   3.796   0.907  14.033 -0.5307  0.0194  0.0230
  720MPD2    C410696   3.743   0.987  14.127  0.7023 -0.5494 -0.0973
  720MPD2    C510697   3.606   1.005  14.129  0.6807 -0.1018 -0.5833
  720MPD2     H10698   3.774   0.820  13.846 -0.1776  1.1433 -0.0244
  720MPD2    H110699   3.802   1.028  14.209  1.5420  0.5198 -1.2256
  720MPD2    H210700   3.416   0.952  14.043  0.1173  0.6726  1.6866
  720MPD2    H310701   3.551   1.061  14.203 -0.1322 -3.8291  1.6631
  720MPD2     N10702   3.933   0.860  14.047  0.1150 -0.6128  0.0515
  720MPD2    H510703   3.959   0.800  13.969 -1.2986  0.4602 -1.2608
  720MPD2    N110704   3.519   0.837  13.810 -0.1523 -0.2512  0.0289
  720MPD2    H710705   3.573   0.811  13.728 -1.2626 -1.7097 -0.2331
  721TMC3    C110706   4.142   0.800  14.141 -0.1048 -0.3445 -0.7475
  721TMC3    C210707   4.184   0.718  14.244  0.3015  0.1184  0.2532
  721TMC3    C310708   4.299   0.653  14.228 -0.2826 -0.9421 -0.1483
  721TMC3    C410709   4.212   0.808  14.021 -0.2125 -0.4004 -0.0100
  721TMC3    C510710   4.337   0.758  14.027  0.2219 -0.4764 -0.6247
  721TMC3    C610711   4.382   0.664  14.117 -0.6352  0.0945 -0.0521
  721TMC3     C10712   4.018   0.871  14.155  0.0255 -0.5007 -0.2333
  721TMC3     O10713   3.986   0.908  14.266 -0.3268 -0.0496  0.4908
  721TMC3     H10714   4.134   0.723  14.340  0.3838  0.4042  0.2823
  721TMC3    H110715   4.182   0.886  13.952  0.6597 -0.8169 -0.8546
  721TMC3    H210716   4.487   0.638  14.122 -1.1824 -1.8547  1.4012
  721TMC3    C710717   4.412   0.760  13.902 -0.2575 -0.0372 -0.5166
  721TMC3    C810718   4.359   0.585  14.340 -0.2575 -0.2869 -0.2796
  721TMC3    O110719   4.456   0.865  13.851 -0.2176 -0.0817 -0.4417
  721TMC3    O210720   4.480   0.552  14.332 -0.2189  0.4769 -0.1027
  722MPD2     C10721   2.442   4.278  13.277 -0.3924  0.3935 -0.6602
  722MPD2    C110722   2.392   4.403  13.260  0.2268  0.4909  0.1674
  722MPD2    C210723   2.278   4.410  13.174  0.1051 -0.4733  0.4492
  722MPD2    C310724   2.232   4.301  13.100  0.9999  0.2321  0.3496
  722MPD2    C410725   2.283   4.181  13.130 -0.6948  0.7763  0.1066
  722MPD2    C510726   2.388   4.172  13.212  0.6578  0.0526  0.4863
  722MPD2     H10727   2.221   4.503  13.172 -3.6241 -2.7673 -0.7812
  722MPD2    H110728   2.253   4.088  13.085 -0.0822  0.8073 -0.3538
  722MPD2    H210729   2.516   4.251  13.352  0.4971  0.3523 -1.5514
  722MPD2    H310730   2.428   4.073  13.231  1.2387 -0.1408 -1.7178
  722MPD2     N10731   2.118   4.313  13.008 -0.8035  0.3225  0.2087
  722MPD2    H510732   2.099   4.407  12.975  0.1659  0.5313  0.2424
  722MPD2    N110733   2.452   4.513  13.316  0.0283  0.5778 -0.3340
  722MPD2    H710734   2.420   4.601  13.276 -2.9232  0.3441  1.4915
  723TMC3    C110735   1.918   4.266  12.903 -0.7758  0.1669  0.1126
  723TMC3    C210736   1.896   4.209  12.780  0.0070 -0.0702 -0.4891
  723TMC3    C310737   1.868   4.295  12.681 -0.2591  0.6287  0.1830
  723TMC3    C410738   1.906   4.400  12.932 -0.0986 -0.4180 -1.0398
  723TMC3    C510739   1.874   4.484  12.823  0.3012  0.6120 -0.2870
  723TMC3    C610740   1.858   4.433  12.696 -0.5867 -0.5336  0.3831
  723TMC3     C10741   2.030   4.209  12.975 -0.2374  0.5281  0.1786
  723TMC3     O10742   2.052   4.087  12.977  0.3265  0.1017 -0.0939
  723TMC3     H10743   1.938   4.111  12.765  0.0822 -0.2178  0.6653
  723TMC3    H110744   1.905   4.441  13.032  0.1955  0.3836 -1.3680
  723TMC3    H210745   1.826   4.491  12.610  0.6952  0.4963  0.5948
  723TMC3    C710746   1.828   4.614  12.859 -0.9264  0.0747  0.3954
  723TMC3    C810747   1.880   4.239  12.543 -0.2284 -0.7306 -0.2026
  723TMC3    O110748   1.888   4.663  12.956  0.0616  0.4177  0.3360
  723TMC3    O210749   1.895   4.311  12.446 -0.3417 -0.0114  0.3575
  724TMC3    C110750   2.567   2.069  10.305  0.1198 -0.4015 -0.5178
  724TMC3    C210751   2.513   2.090  10.182 -0.3634  0.3157 -0.2415
  724TMC3    C310752   2.581   2.177  10.101  0.2852  0.0581  0.3069
  724TMC3    C410753   2.691   2.121  10.341 -0.0545  0.7869  0.6281
  724TMC3    C510754   2.769   2.190  10.247  0.8907 -0.0952  0.3917
  724TMC3    C610755   2.706   2.220  10.126  0.4749 -0.0696 -0.1623
  724TMC3     C10756   2.513   1.971  10.400 -0.4489 -0.0342  0.1889
  724TMC3     O10757   2.564   1.970  10.512 -0.4534  0.0919  0.2952
  724TMC3     H10758   2.411   2.068  10.156  0.1927 -1.2105 -1.1008
  724TMC3    H110759   2.726   2.099  10.441 -0.3861 -0.0288  0.5628
  724TMC3    H210760   2.762   2.263  10.044 -1.3604  0.6095 -1.0751
  724TMC3    C710761   2.841   2.314  10.277 -0.4022 -0.3667  0.1688
  724TMC3    C810762   2.511   2.229   9.980  0.2251 -0.4705 -0.2141
  724TMC3    O110763   2.884   2.373  10.181 -0.5238  0.2416  0.3690
  724TMC3    O210764   2.405   2.177   9.958  0.0602 -0.0251  0.2645
  725TMC3    C110765   4.191   1.197  12.929  0.4539  0.7316 -0.3751
  725TMC3    C210766   4.076   1.253  12.878 -0.2577 -0.0809  0.2571
  725TMC3    C310767   4.024   1.197  12.768  0.0152  0.1401 -0.2437
  725TMC3    C410768   4.242   1.080  12.885  0.4446 -0.5115  0.5715
  725TMC3    C510769   4.182   1.028  12.774 -0.1320  0.1177  0.6724
  725TMC3    C610770   4.077   1.087  12.710  0.0817 -0.8458  0.5095
  725TMC3     C10771   4.293   1.289  12.985 -0.4461 -0.0453 -1.3493
  725TMC3     O10772   4.249   1.402  12.996 -0.0723  0.4696 -0.0298
  725TMC3     H10773   4.035   1.337  12.931  3.3078  1.7278  0.1524
  725TMC3    H110774   4.324   1.034  12.940  1.0103  0.9452  0.9376
  725TMC3    H210775   4.023   1.045  12.625 -0.8924  2.4185 -0.4539
  725TMC3    C710776   4.241   0.913  12.713 -0.1956  0.0815  0.4769
  725TMC3    C810777   3.942   1.276  12.685 -0.8574 -0.3256  0.4633
  725TMC3    O110778   4.210   0.891  12.596  0.2498  0.2271  0.2193
  725TMC3    O210779   3.935   1.241  12.568  0.4133  0.6590 -0.4380
  726MPD2     C10780   2.066   2.501  10.533 -0.0885 -0.1586 -0.1778
  726MPD2    C110781   1.954   2.485  10.451  0.1439 -0.6532  0.1447
  726MPD2    C210782   1.835   2.436  10.505  0.8840  0.2590  0.8324
  726MPD2    C310783   1.823   2.438  10.645 -0.7800  0.2912  0.1755
  726MPD2    C410784   1.933   2.460  10.728 -0.0000 -0.3687 -0.7475
  726MPD2    C510785   2.053   2.486  10.670 -0.4682 -0.6015  0.4668
  726MPD2     H10786   1.752   2.413  10.439  1.7302  1.1993 -0.5678
  726MPD2    H110787   1.932   2.452  10.836 -2.7039 -2.4020 -0.9338
  726MPD2    H210788   2.163   2.541  10.506  1.3310 -1.4326  3.0851
  726MPD2    H310789   2.140   2.501  10.732 -0.5244 -0.1728  0.4376
  726MPD2     N10790   1.697   2.415  10.710  0.1256  0.1979  0.8311
  726MPD2    H510791   1.707   2.398  10.810  1.2889 -0.2298  0.6500
  726MPD2    N110792   1.956   2.539  10.324 -0.0738  0.3430 -0.4325
  726MPD2    H710793   1.881   2.511  10.262 -0.8632 -1.7485  1.4497
  727TMC3    C110794   1.990   2.687  10.146  0.1321  0.0008 -0.3894
  727TMC3    C210795   1.988   2.819  10.127 -0.1193  0.6117 -0.6260
  727TMC3    C310796   1.911   2.867  10.021  0.3687 -0.0895 -0.0852
  727TMC3    C410797   1.931   2.597  10.062  0.8528  0.6708  0.2507
  727TMC3    C510798   1.870   2.643   9.940 -0.3260  0.5453 -0.4261
  727TMC3    C610799   1.861   2.777   9.923 -0.0676  0.4083 -0.5480
  727TMC3     C10800   2.033   2.641  10.275  0.2903  0.4853 -0.0060
  727TMC3     O10801   2.111   2.708  10.341 -0.4981 -0.6818 -0.3479
  727TMC3     H10802   2.028   2.887  10.201  1.0646  0.2687 -0.9642
  727TMC3    H110803   1.956   2.492  10.074  0.0713  0.2040 -2.1005
  727TMC3    H210804   1.813   2.815   9.834 -0.1796  1.9857  0.1722
  727TMC3    C710805   1.813   2.544   9.843  0.6109  0.9435 -1.0953
  727TMC3    C810806   1.890   3.011  10.007 -0.2072 -0.0837  0.5079
  727TMC3    O110807   1.821   2.426   9.875 -0.4252 -0.3628 -0.5946
  727TMC3    O210808   1.926   3.088  10.099 -0.5862 -0.0808  0.0056
  728TMC3    C110809   1.413   1.613  15.199  0.6178  0.4743  0.3075
  728TMC3    C210810   1.537   1.596  15.138  0.0724 -0.0843 -0.2644
  728TMC3    C310811   1.538   1.633  15.007  0.1101  0.3539  0.9742
  728TMC3    C410812   1.299   1.645  15.138  0.2913  0.2420  0.4019
  728TMC3    C510813   1.307   1.651  15.001  0.0562  0.4660 -0.6034
  728TMC3    C610814   1.425   1.653  14.930  0.0780 -0.7467  0.3836
  728TMC3     C10815   1.407   1.562  15.336  0.5789 -0.3724  0.7568
  728TMC3     O10816   1.514   1.556  15.396 -0.0950  0.3062 -0.6173
  728TMC3     H10817   1.630   1.577  15.190  0.2495 -1.6227 -1.1337
  728TMC3    H110818   1.211   1.675  15.193 -0.9711 -1.9875 -0.4037
  728TMC3    H210819   1.424   1.660  14.822  0.1451 -0.1502  0.4239
  728TMC3    C710820   1.174   1.659  14.938 -0.2110  0.2897 -0.2757
  728TMC3    C810821   1.669   1.685  14.973 -0.3913 -0.3221 -0.4194
  728TMC3    O110822   1.081   1.636  15.008 -0.2764  0.8742  0.0831
  728TMC3    O210823   1.766   1.631  15.030 -0.3420 -0.5318 -0.1057
  729MPD2     C10824   2.853   2.356  16.379  0.3207  0.3040  0.6822
  729MPD2    C110825   2.959   2.309  16.459 -0.2672 -0.1274  0.0882
  729MPD2    C210826   2.927   2.245  16.581  0.9492  0.0340  0.1365
  729MPD2    C310827   2.798   2.248  16.627  0.4847  0.9446 -1.1594
  729MPD2    C410828   2.697   2.302  16.551 -0.1724  0.0640 -0.0813
  729MPD2    C510829   2.726   2.343  16.418 -0.5212  0.9177 -0.2763
  729MPD2     H10830   3.008   2.213  16.645  2.6345 -1.9194 -2.9506
  729MPD2    H110831   2.597   2.306  16.592 -0.4461 -1.0131 -0.6416
  729MPD2    H210832   2.877   2.393  16.280 -1.2801  1.4978  0.7431
  729MPD2    H310833   2.645   2.381  16.358  0.0965  1.1556 -0.9479
  729MPD2     N10834   2.770   2.221  16.764 -0.2200  0.0897 -0.4230
  729MPD2    H510835   2.678   2.236  16.803  0.6835 -0.2063  1.8166
  729MPD2    N110836   3.092   2.347  16.429 -0.6407 -0.4434  0.5823
  729MPD2    H710837   3.104   2.389  16.337 -1.1504  0.4765  0.9303
  730TMC3    C110838   2.819   2.206  16.991  0.3680 -0.6093 -0.3483
  730TMC3    C210839   2.923   2.192  17.075 -0.5698 -0.7155  0.3514
  730TMC3    C310840   2.931   2.283  17.175  0.1848  0.2082 -0.2999
  730TMC3    C410841   2.730   2.310  17.005 -0.1500 -0.0380 -0.0750
  730TMC3    C510842   2.732   2.392  17.114 -0.0875 -0.4069  0.2405
  730TMC3    C610843   2.829   2.368  17.201  0.0010  0.9063  1.5825
  730TMC3     C10844   2.847   2.160  16.854 -0.0246  0.6034  0.8180
  730TMC3     O10845   2.947   2.091  16.838 -0.0700  0.7953  0.1391
  730TMC3     H10846   3.002   2.120  17.060  1.0997  1.7707 -2.9192
  730TMC3    H110847   2.653   2.330  16.931 -0.0941  1.2269  0.2032
  730TMC3    H210848   2.848   2.426  17.291  3.1206  2.0185  0.2243
  730TMC3    C710849   2.737   2.529  17.067  0.2329  0.4218  0.0874
  730TMC3    C810850   3.058   2.358  17.161 -0.1112  0.1802 -0.0015
  730TMC3    O110851   2.737   2.552  16.950 -0.5466 -0.1538  0.0897
  730TMC3    O210852   3.148   2.291  17.113  0.1377  0.3496 -0.2429
  731MPD2     C10853   3.677   4.720  12.237  0.3161 -0.0421 -0.0860
  731MPD2    C110854   3.740   0.099  12.193 -1.0847  0.3224 -0.0065
  731MPD2    C210855   3.772   0.191  12.295 -0.0075 -0.3318  0.0668
  731MPD2    C310856   3.742   0.166  12.427 -0.4352 -0.4463 -0.2811
  731MPD2    C410857   3.680   0.049  12.471 -0.0247 -0.4460  0.5236
  731MPD2    C510858   3.644   4.703  12.367  0.0592 -0.1742  0.3886
  731MPD2     H10859   3.812   0.289  12.275 -1.8003  0.0533 -1.6201
  731MPD2    H110860   3.633   0.032  12.567 -1.4777  0.7254  0.0276
  731MPD2    H210861   3.640   4.653  12.160  2.0064 -0.2763 -0.6894
  731MPD2    H310862   3.586   4.614  12.387 -1.0261  0.5864  0.6496
  731MPD2     N10863   3.778   0.269  12.517 -0.0479 -0.0032 -0.7705
  731MPD2    H510864   3.816   0.352  12.473  2.0359 -1.1600 -1.1891
  731MPD2    N110865   3.773   0.121  12.055 -0.0992 -0.0955  0.3559
  731MPD2    H710866   3.763   0.041  11.993  0.1932  0.3314 -0.2408
  732TMC3    C110867   3.848   0.224  11.865 -0.2998  0.3245 -0.7104
  732TMC3    C210868   3.778   0.142  11.781  0.5490  0.6745  1.0565
  732TMC3    C310869   3.796   0.148  11.648 -0.3568 -0.4741  0.3936
  732TMC3    C410870   3.935   0.314  11.812  0.0681  0.5034  0.0869
  732TMC3    C510871   3.947   0.333  11.674 -0.4934 -0.5480  0.3210
  732TMC3    C610872   3.880   0.240  11.593  0.3654 -0.6594 -0.1076
  732TMC3     C10873   3.818   0.237  12.003  0.4946  0.5647  0.3139
  732TMC3     O10874   3.824   0.346  12.054 -0.7946  0.2645  0.3064
  732TMC3     H10875   3.696   0.090  11.828  0.1626  1.2417  1.0165
  732TMC3    H110876   3.989   0.375  11.884  1.2674  1.2281 -1.4282
  732TMC3    H210877   3.890   0.244  11.486 -1.4224  1.0319 -0.2155
  732TMC3    C710878   4.018   0.450  11.621 -0.2429 -0.1110 -0.4994
  732TMC3    C810879   3.695   0.100  11.562 -0.3535 -0.4289  0.5365
  732TMC3    O110880   3.974   0.509  11.525  0.2444 -0.0152  0.2019
  732TMC3    O210881   3.728   0.047  11.458  0.0966 -0.3898 -0.4230
  733TMC3    C110882   4.139   3.714  12.789  0.0811 -0.6705 -0.4489
  733TMC3    C210883   4.182   3.833  12.730 -0.0552  0.4551 -0.6515
  733TMC3    C310884   4.269   3.815  12.623 -0.9200  0.1116  0.5811
  733TMC3    C410885   4.173   3.589  12.739  0.0499  0.1571 -0.2659
  733TMC3    C510886   4.265   3.582  12.640 -0.3993 -0.1349 -0.2536
  733TMC3    C610887   4.317   3.693  12.584  0.2437  0.2074 -0.8565
  733TMC3     C10888   4.018   3.735  12.865  0.0459  0.0930 -0.7914
  733TMC3     O10889   3.983   3.851  12.886 -0.7739  0.0348  0.5153
  733TMC3     H10890   4.139   3.928  12.758 -0.4064  0.4458 -1.1621
  733TMC3    H110891   4.134   3.499  12.784  1.5979  0.2376  1.2331
  733TMC3    H210892   4.385   3.688  12.500  1.1808  1.8066 -0.1961
  733TMC3    C710893   4.286   3.458  12.570 -0.4267 -0.0583 -0.0704
  733TMC3    C810894   4.293   3.936  12.541 -0.2730  0.4625 -0.3983
  733TMC3    O110895   4.206   3.368  12.581 -0.2443  0.6246 -0.0619
  733TMC3    O210896   4.252   4.045  12.582 -0.2199 -0.0309  0.2583
  734MPD2     C10897   2.186   1.294  12.336  0.0520 -0.2752 -0.0526
  734MPD2    C110898   2.055   1.322  12.326  0.6330 -0.2377 -0.9055
  734MPD2    C210899   2.004   1.382  12.206  0.9559 -0.0862 -0.5579
  734MPD2    C310900   2.088   1.394  12.097  0.5896 -0.3253 -0.0656
  734MPD2    C410901   2.222   1.360  12.110  1.1735  0.2637  0.5651
  734MPD2    C510902   2.271   1.314  12.231 -0.5133 -0.6755  0.0913
  734MPD2     H10903   1.899   1.404  12.196  0.6242 -1.1979  0.3752
  734MPD2    H110904   2.290   1.366  12.026  0.4860 -0.5444 -0.0522
  734MPD2    H210905   2.217   1.240  12.425  1.8178  0.5940 -0.1477
  734MPD2    H310906   2.373   1.276  12.238  0.2039  1.3213  0.5480
  734MPD2     N10907   2.031   1.447  11.980  0.0604  0.3082 -0.2042
  734MPD2    H510908   1.933   1.473  11.987 -0.2468 -1.1632  1.1685
  734MPD2    N110909   1.972   1.285  12.432  0.4025 -0.1061 -0.1327
  734MPD2    H710910   2.008   1.223  12.504  0.9414 -0.6894 -0.9146
  735TMC3    C110911   1.768   1.222  12.533  0.2425  0.0979 -0.4790
  735TMC3    C210912   1.633   1.255  12.518 -0.8827  0.3309  0.2247
  735TMC3    C310913   1.553   1.155  12.486 -0.3228 -0.7128  0.0411
  735TMC3    C410914   1.814   1.093  12.534 -0.4094 -0.1241 -0.1683
  735TMC3    C510915   1.716   0.995  12.515 -0.1963  0.2156  0.2277
  735TMC3    C610916   1.588   1.024  12.495 -0.2798 -0.0781 -0.1239
  735TMC3     C10917   1.837   1.308  12.441  0.0659  0.4932 -0.4918
  735TMC3     O10918   1.766   1.387  12.379  0.3551  0.2411 -0.0327
  735TMC3     H10919   1.602   1.359  12.517 -0.5720  0.4095 -1.4708
  735TMC3    H110920   1.920   1.069  12.531 -0.8388 -2.0453  0.0406
  735TMC3    H210921   1.526   0.942  12.461 -1.9829  0.8022  0.8862
  735TMC3    C710922   1.766   0.859  12.473 -0.6777  0.0095 -0.0249
  735TMC3    C810923   1.456   1.185  12.382  0.0415  0.4682 -0.6381
  735TMC3    O110924   1.687   0.769  12.499 -0.1771 -0.3686 -0.1460
  735TMC3    O210925   1.358   1.115  12.373  0.0489  0.4302  0.0917
  736MPD2     C10926   1.946   0.626  12.398  0.4503 -0.0717 -0.0282
  736MPD2    C110927   1.948   0.756  12.335  0.7122 -0.0702  0.2762
  736MPD2    C210928   2.025   0.766  12.222  0.3521 -0.1279  0.1736
  736MPD2    C310929   2.075   0.654  12.163 -0.5347 -0.0048 -0.2355
  736MPD2    C410930   2.068   0.527  12.224  0.5919  0.0288 -0.6921
  736MPD2    C510931   2.014   0.517  12.352  1.0410  0.1683 -0.3508
  736MPD2     H10932   2.032   0.865  12.177 -1.4093 -0.7346 -1.4433
  736MPD2    H110933   2.114   0.440  12.179 -1.3847 -1.7840  0.7681
  736MPD2    H210934   1.899   0.621  12.496  0.6463 -3.0482 -0.1014
  736MPD2    H310935   2.005   0.416  12.392 -0.1299  1.2258  2.0475
  736MPD2     N10936   2.132   0.667  12.037  0.0568 -0.4834 -0.3428
  736MPD2    H510937   2.149   0.583  11.984  1.0465  0.6619 -1.8281
  736MPD2    N110938   1.877   0.868  12.391  0.4274  0.5691 -0.6023
  736MPD2    H710939   1.892   0.959  12.349 -0.5725  0.3282 -1.4585
  737TMC3    C110940   2.184   0.772  11.839 -0.2557  0.2179  0.4596
  737TMC3    C210941   2.152   0.884  11.768 -0.1461 -1.1821  0.2015
  737TMC3    C310942   2.205   0.894  11.641 -0.1226 -0.2745  0.6374
  737TMC3    C410943   2.274   0.677  11.795 -0.5568 -0.1178  0.2025
  737TMC3    C510944   2.333   0.697  11.670  0.0478  0.1924  0.5387
  737TMC3    C610945   2.292   0.801  11.590  0.4775 -0.1993  0.1738
  737TMC3     C10946   2.160   0.789  11.978  0.1439 -0.0711  0.1960
  737TMC3     O10947   2.167   0.903  12.013  0.0663 -0.4706 -0.5613
  737TMC3     H10948   2.066   0.944  11.798  0.2930 -0.4255 -0.0402
  737TMC3    H110949   2.294   0.592  11.859 -0.5532 -1.2706 -1.3281
  737TMC3    H210950   2.325   0.814  11.487 -0.0149 -1.7925 -0.1917
  737TMC3    C710951   2.425   0.591  11.623 -0.2871 -1.0303  0.0090
  737TMC3    C810952   2.191   1.029  11.581 -0.5196  0.1570  0.3325
  737TMC3    O110953   2.428   0.478  11.671  0.3984 -0.4588 -0.4280
  737TMC3    O210954   2.164   1.119  11.657 -0.2355 -0.5251 -0.1645
  738MPD2     C10955   2.426   0.251  15.133 -0.6826 -0.1058  0.0126
  738MPD2    C110956   2.476   0.138  15.073 -0.1949  0.2832 -0.5650
  738MPD2    C210957   2.594   0.140  14.998 -0.5753 -0.2687  0.7069
  738MPD2    C310958   2.660   0.259  14.978 -0.1648 -0.5830 -0.6419
  738MPD2    C410959   2.607   0.369  15.042 -0.3085 -0.2380  0.0387
  738MPD2    C510960   2.500   0.364  15.127  0.2940 -0.2940 -0.3816
  738MPD2     H10961   2.614   0.043  14.953  1.1760  1.6438 -2.6385
  738MPD2    H110962   2.662   0.462  15.038  0.7611 -0.8521  0.5822
  738MPD2    H210963   2.328   0.259  15.179 -0.5376  2.8575 -0.1721
  738MPD2    H310964   2.455   0.441  15.188 -2.1443 -0.1412 -2.3816
  738MPD2     N10965   2.778   0.271  14.910 -0.8539  0.3840  0.7622
  738MPD2    H510966   2.796   0.365  14.876  1.6855  0.2610  1.8028
  738MPD2    N110967   2.414   0.010  15.081  0.8947  0.2029 -0.7467
  738MPD2    H710968   2.451   4.666  15.029  0.2701  0.0759 -1.0077
  739TMC3    C110969   2.981   0.231  14.824 -0.5407 -0.0890 -0.2003
  739TMC3    C210970   2.958   0.287  14.704  0.1041 -0.1900 -0.8396
  739TMC3    C310971   3.071   0.311  14.625  0.6956 -0.2071  0.2555
  739TMC3    C410972   3.106   0.197  14.867  0.0526 -0.0600 -0.5165
  739TMC3    C510973   3.214   0.217  14.787  0.4237  0.4970  0.1047
  739TMC3    C610974   3.201   0.283  14.669  0.0663  0.2242 -0.0149
  739TMC3     C10975   2.873   0.174  14.897  0.3433 -0.7033  0.4459
  739TMC3     O10976   2.890   0.077  14.967  0.2154 -0.0801  0.0266
  739TMC3     H10977   2.858   0.301  14.664 -0.3941 -0.4621  0.3013
  739TMC3    H110978   3.113   0.162  14.969  0.1133  0.7942 -0.2323
  739TMC3    H210979   3.287   0.316  14.613  1.7243 -0.9937  1.8319
  739TMC3    C710980   3.352   0.156  14.822  0.0054  0.3444  0.3469
  739TMC3    C810981   3.047   0.310  14.482 -0.2362 -0.7159  0.2501
  739TMC3    O110982   3.454   0.205  14.773  0.1317  0.0315  0.3061
  739TMC3    O210983   2.935   0.349  14.441  0.1532  0.2210  0.5196
  740TMC3    C110984   3.227   1.539  14.431  1.0081  0.2065 -0.5040
  740TMC3    C210985   3.253   1.494  14.553 -0.4090  0.6306 -0.4061
  740TMC3    C310986   3.377   1.421  14.564 -0.3891  0.2326  0.0149
  740TMC3    C410987   3.298   1.513  14.314 -0.9008 -0.2863 -0.1039
  740TMC3    C510988   3.414   1.440  14.332  0.5428  0.2481 -0.5590
  740TMC3    C610989   3.455   1.386  14.454 -0.1349 -0.5513  0.1181
  740TMC3     C10990   3.094   1.598  14.417  0.4137  0.3523  0.0243
  740TMC3     O10991   3.073   1.647  14.306  0.0144 -0.0177  0.1620
  740TMC3     H10992   3.201   1.528  14.642 -2.1369  1.1402 -1.6135
  740TMC3    H110993   3.266   1.552  14.218 -2.6823  1.0316  1.0229
  740TMC3    H210994   3.543   1.325  14.464 -0.0417 -0.5874 -0.9254
  740TMC3    C710995   3.517   1.429  14.236 -0.4800  0.3232 -0.5462
  740TMC3    C810996   3.398   1.375  14.700 -0.1687 -0.5854 -0.2854
  740TMC3    O110997   3.634   1.459  14.266  0.0773  0.1787 -0.2679
  740TMC3    O210998   3.326   1.408  14.791  0.2443 -0.2501 -0.0018
  741TMC3    C110999   3.151   0.608  14.276  0.2466 -0.5397  0.2761
  741TMC3    C211000   3.029   0.610  14.212 -0.2394  0.0378  0.2070
  741TMC3    C311001   2.921   0.630  14.286  0.5512  0.2467  0.3554
  741TMC3    C411002   3.170   0.635  14.404  0.4013 -0.8179  0.2993
  741TMC3    C511003   3.055   0.662  14.478  0.6806  0.5302  0.6378
  741TMC3    C611004   2.928   0.658  14.421 -0.0082  0.6305 -0.2849
  741TMC3     C11005   3.277   0.586  14.204 -0.3877  0.1166 -0.1119
  741TMC3     O11006   3.384   0.575  14.263  0.0693 -0.1903  0.1954
  741TMC3     H11007   3.000   0.569  14.116  0.0389  0.1695  0.0700
  741TMC3    H111008   3.269   0.647  14.447  0.1646  0.3109  0.5064
  741TMC3    H211009   2.848   0.675  14.492 -1.4295 -0.2150 -1.6955
  741TMC3    C711010   3.066   0.716  14.615  0.2991 -0.1519  0.0875
  741TMC3    C811011   2.790   0.598  14.235 -0.9357 -0.3329 -0.0715
  741TMC3    O111012   2.961   0.739  14.677  0.2506 -0.6723 -0.2069
  741TMC3    O211013   2.762   0.634  14.119  0.0170 -0.4434 -0.8394
  742TMC3    C111014   2.906   4.162  15.264  0.2965 -1.0025 -0.0482
  742TMC3    C211015   2.890   4.181  15.133  0.2603 -0.3952  0.0980
  742TMC3    C311016   2.969   4.120  15.044  0.6723  0.1231 -0.4988
  742TMC3    C411017   3.005   4.081  15.310  0.1113 -0.7067  0.7141
  742TMC3    C511018   3.077   4.010  15.223 -0.1170 -0.4822  0.1628
  742TMC3    C611019   3.058   4.027  15.086 -0.4405  1.0601  0.9303
  742TMC3     C11020   2.823   4.227  15.359 -0.2429  0.4545 -0.8317
  742TMC3     O11021   2.823   4.174  15.467  0.0969  0.4039  0.6740
  742TMC3     H11022   2.821   4.254  15.091  1.9066  0.7471 -0.6298
  742TMC3    H111023   3.034   4.071  15.414  0.9660 -0.6767  0.4783
  742TMC3    H211024   3.120   3.972  15.016 -0.8895 -0.3721  1.6630
  742TMC3    C711025   3.177   3.930  15.279 -0.7693  0.4829  0.1081
  742TMC3    C811026   2.912   4.089  14.914 -0.6294 -0.1392  0.6673
  742TMC3    O111027   3.221   3.967  15.390  0.2039 -0.3896  0.3628
  742TMC3    O211028   2.880   3.973  14.894  0.0359  0.3223 -0.4675
  743MPD2     C11029   0.474   0.169   1.858 -0.7368 -0.1564 -0.1177
  743MPD2    C111030   0.459   0.067   1.770  0.1578  0.0978 -0.2493
  743MPD2    C211031   0.550   4.701   1.769 -0.6250  0.4662  0.5210
  743MPD2    C311032   0.659   4.697   1.856  0.2675  0.8675  0.0544
  743MPD2    C411033   0.674   0.069   1.944 -0.5241 -0.6854 -0.0070
  743MPD2    C511034   0.587   0.172   1.941 -0.6347  0.5108  0.4634
  743MPD2     H11035   0.536   4.617   1.701  0.6739  0.9552 -0.3351
  743MPD2    H111036   0.760   0.083   2.008 -0.2632 -1.1232 -0.2616
  743MPD2    H211037   0.404   0.251   1.859 -2.0713 -1.2755 -1.2847
  743MPD2    H311038   0.605   0.254   2.009  1.5913  1.2987 -1.0537
  743MPD2     N11039   0.755   4.600   1.829 -0.1841  0.2296  0.0207
  743MPD2    H511040   0.723   4.534   1.759 -1.9931  1.8797 -0.7330
  743MPD2    N111041   0.347   0.078   1.684  0.0751 -0.4230 -0.1974
  743MPD2    H711042   0.294   0.164   1.698  1.7865  0.8174 -1.3325
  744TMC3    C111043   0.185   0.029   1.523  0.5844  0.0316  0.2430
  744TMC3    C211044   0.109   0.132   1.570  0.0154  0.6150  0.1466
  744TMC3    C311045   0.011   0.180   1.490 -0.0709  0.3156 -0.1985
  744TMC3    C411046   0.158   4.701   1.403 -0.0476 -0.7907 -0.0601
  744TMC3    C511047   0.059   0.022   1.327 -0.4512 -0.0277 -0.1665
  744TMC3    C611048   4.713   0.124   1.373 -0.4339 -0.3393  0.5147
  744TMC3     C11049   0.315   4.727   1.579 -0.1922 -0.0720 -0.7121
  744TMC3     O11050   0.371   4.626   1.529 -0.2212  0.3645  0.0656
  744TMC3     H11051   0.132   0.177   1.666 -0.3708 -2.6722  1.7897
  744TMC3    H111052   0.220   4.621   1.365  2.2051  0.6340  0.6445
  744TMC3    H211053   4.635   0.167   1.312 -0.9806  1.1010  2.2503
  744TMC3    C711054   0.024   4.694   1.197 -1.3043 -0.0774 -0.5179
  744TMC3    C811055   4.645   0.273   1.545  0.0135 -0.0461  0.3036
  744TMC3    O111056   4.704   0.021   1.109 -1.1587 -0.1148 -0.3502
  744TMC3    O211057   4.596   0.353   1.461  0.0955 -0.1673 -0.4584
  745TMC3    C111058   3.007   3.227  13.310 -0.2686 -0.1493  0.0055
  745TMC3    C211059   2.928   3.275  13.406  0.2174 -0.2311  0.3818
  745TMC3    C311060   2.794   3.286  13.370 -0.2708  0.3221 -0.0864
  745TMC3    C411061   2.969   3.189  13.186  0.3198 -0.0273 -0.2528
  745TMC3    C511062   2.837   3.203  13.152 -0.5835 -0.2788 -0.2846
  745TMC3    C611063   2.747   3.244  13.252 -0.1721  0.0476  0.4956
  745TMC3     C11064   3.151   3.222  13.330 -0.1807  0.3386  0.5564
  745TMC3     O11065   3.215   3.134  13.271  0.0469 -0.0061  0.8004
  745TMC3     H11066   2.973   3.275  13.505 -0.7594  0.5407  0.8301
  745TMC3    H111067   3.041   3.163  13.108  0.1244  1.7490 -1.0360
  745TMC3    H211068   2.641   3.243  13.227 -0.5186 -1.4034  1.9785
  745TMC3    C711069   2.824   3.257  13.017  0.2716  0.1641 -0.0338
  745TMC3    C811070   2.709   3.360  13.463  0.0572 -0.4387 -0.0769
  745TMC3    O111071   2.857   3.178  12.929 -0.1761 -0.3174  0.2584
  745TMC3    O211072   2.594   3.382  13.428  0.3796 -0.4287 -0.6810
  746TMC3    C111073   0.448   0.774  10.751  0.3452 -0.3382 -0.3671
  746TMC3    C211074   0.517   0.798  10.630  0.0610  0.2035  0.3130
  746TMC3    C311075   0.497   0.709  10.529  0.3590  0.4359  1.1097
  746TMC3    C411076   0.374   0.662  10.764 -0.3405  1.0340 -0.0219
  746TMC3    C511077   0.368   0.569  10.665  0.5608 -0.5474 -1.0520
  746TMC3    C611078   0.423   0.595  10.550  0.1688 -0.3272 -0.3320
  746TMC3     C11079   0.462   0.861  10.868 -0.5869 -0.6714  0.0453
  746TMC3     O11080   0.396   0.845  10.971  0.5240  0.0042 -0.0050
  746TMC3     H11081   0.558   0.897  10.616  0.0297  0.1401 -0.2186
  746TMC3    H111082   0.321   0.649  10.858 -0.3319 -0.7449 -0.2557
  746TMC3    H211083   0.420   0.526  10.466  1.5282 -0.4712 -0.2645
  746TMC3    C711084   0.280   0.460  10.669 -0.4189 -0.2779 -0.2523
  746TMC3    C811085   0.538   0.753  10.402  0.2588 -0.2279  0.5185
  746TMC3    O111086   0.241   0.428  10.557 -0.0296  0.2279  0.1795
  746TMC3    O211087   0.575   0.669  10.319 -0.1681  0.2186 -0.4005
  747TMC3    C111088   2.927   0.776  10.730  0.0834 -0.5478  0.2972
  747TMC3    C211089   2.873   0.684  10.817 -0.8658  0.0463  0.8344
  747TMC3    C311090   2.889   0.703  10.948 -0.3894  0.2707  0.0357
  747TMC3    C411091   3.002   0.881  10.772 -0.0728 -0.6588  0.6071
  747TMC3    C511092   3.032   0.886  10.908  0.3980  0.7724 -0.4007
  747TMC3    C611093   2.968   0.805  11.000 -0.3143 -0.6039 -0.3523
  747TMC3     C11094   2.879   0.787  10.591 -0.0208 -1.0711  0.0131
  747TMC3     O11095   2.854   0.900  10.549  0.3646 -0.1232  0.0913
  747TMC3     H11096   2.828   0.598  10.769  0.8123  0.6588 -1.8500
  747TMC3    H111097   3.029   0.953  10.696  0.9318  1.4508  3.0000
  747TMC3    H211098   2.980   0.828  11.105  0.7476  2.8762 -1.2521
  747TMC3    C711099   3.112   0.999  10.954 -0.1936 -0.0577 -0.0791
  747TMC3    C811100   2.851   0.594  11.032 -0.3823 -0.1826 -0.1809
  747TMC3    O111101   3.096   1.031  11.075 -0.0472  0.0687  0.1823
  747TMC3    O211102   2.835   0.484  10.988 -0.2922 -0.4663  0.5515
  748MPD2     C11103   4.531   1.199   1.720  0.0931  0.0876  0.3544
  748MPD2    C111104   4.644   1.128   1.687 -0.3193 -0.3295 -0.8466
  748MPD2    C211105   4.716   1.159   1.575  0.3663  0.5968  0.5401
  748MPD2    C311106   4.676   1.261   1.491  0.1901 -0.2376 -0.5482
  748MPD2    C411107   4.549   1.314   1.509 -0.0685  0.7004 -0.2389
  748MPD2    C511108   4.480   1.292   1.626  0.2167  0.5199 -0.2429
  748MPD2     H11109   0.079   1.114   1.557 -0.5517 -0.5385 -1.7042
  748MPD2    H111110   4.515   1.392   1.442 -0.4266  0.5368 -0.2494
  748MPD2    H211111   4.477   1.180   1.812 -1.9649 -2.4193 -1.3960
  748MPD2    H311112   4.385   1.343   1.635 -0.1757 -0.7596  2.8902
  748MPD2     N11113   0.033   1.310   1.394  0.0971 -0.4132  0.1445
  748MPD2    H511114   0.124   1.265   1.394  1.1224  1.6520 -0.3120
  748MPD2    N111115   4.678   1.030   1.787 -0.2742 -0.6662  0.0328
  748MPD2    H711116   4.628   1.036   1.876 -0.6857  3.6631 -0.4565
  749TMC3    C111117   0.126   1.482   1.244  0.9346 -0.5016 -0.4091
  749TMC3    C211118   0.249   1.453   1.289 -0.3347  0.2698  0.2126
  749TMC3    C311119   0.347   1.521   1.227  0.2686  0.2207 -0.3572
  749TMC3    C411120   0.099   1.581   1.156  0.5229 -0.0425  0.0664
  749TMC3    C511121   0.197   1.655   1.116  0.0342  0.0365 -0.0969
  749TMC3    C611122   0.328   1.630   1.140  0.5784  0.8403  0.3602
  749TMC3     C11123   0.006   1.420   1.305 -0.1884  0.6264  0.7026
  749TMC3     O11124   4.635   1.477   1.287 -0.2387 -0.5591 -0.7178
  749TMC3     H11125   0.257   1.376   1.365 -0.1300  1.3038  1.2475
  749TMC3    H111126   0.001   1.614   1.123  0.6260 -0.5092 -0.7163
  749TMC3    H211127   0.407   1.700   1.116  1.0912  0.1515  0.0140
  749TMC3    C711128   0.173   1.741   1.002  0.4237  0.5331  0.1101
  749TMC3    C811129   0.484   1.486   1.262 -0.0824  0.0928  0.3470
  749TMC3    O111130   0.255   1.833   0.990 -0.3585  0.6399  0.3674
  749TMC3    O211131   0.584   1.565   1.252 -0.2052 -0.0813  0.1734
  750MPD2     C11132   0.933   2.777  11.295 -0.3317 -0.1201  0.6077
  750MPD2    C111133   0.810   2.742  11.352 -0.0851  0.3298 -0.3846
  750MPD2    C211134   0.751   2.624  11.306  0.6248  0.1795 -0.4594
  750MPD2    C311135   0.810   2.553  11.194  0.4928 -0.4703 -0.1105
  750MPD2    C411136   0.923   2.602  11.131  0.2459 -0.0590  0.2048
  750MPD2    C511137   0.980   2.713  11.183 -0.1945  0.4687  0.1793
  750MPD2     H11138   0.657   2.587  11.345 -0.0162  0.8102 -1.4001
  750MPD2    H111139   0.972   2.568  11.041 -0.1750 -0.3514  0.0864
  750MPD2    H211140   0.994   2.860  11.329  0.1136 -0.4717  0.6590
  750MPD2    H311141   1.067   2.756  11.134 -1.1213  3.0598  0.8138
  750MPD2     N11142   0.743   2.447  11.130  0.0084  0.7233 -0.4415
  750MPD2    H511143   0.771   2.424  11.036  0.0000  1.0182 -0.5153
  750MPD2    N111144   0.763   2.812  11.466 -0.0429  0.4734  0.4053
  750MPD2    H711145   0.816   2.887  11.509  1.2384  0.6282 -1.4526
  751TMC3    C111146   0.582   2.288  11.073  0.3741  1.1914 -0.0279
  751TMC3    C211147   0.493   2.200  11.131  0.6398 -0.2770 -0.2863
  751TMC3    C311148   0.420   2.127  11.047  0.2345  0.0363 -0.6095
  751TMC3    C411149   0.605   2.299  10.937  0.1573  0.2674 -0.0644
  751TMC3    C511150   0.523   2.232  10.858 -0.3680 -0.4589 -0.0858
  751TMC3    C611151   0.428   2.146  10.911 -0.6983  0.4778  0.4545
  751TMC3     C11152   0.634   2.378  11.172 -0.4779  0.8216 -0.1509
  751TMC3     O11153   0.605   2.353  11.287 -0.2358  0.3019 -0.3046
  751TMC3     H11154   0.492   2.170  11.235  1.2373 -2.2675 -0.8674
  751TMC3    H111155   0.669   2.375  10.894 -1.2086  2.2876  1.4965
  751TMC3    H211156   0.346   2.110  10.851  0.8544 -0.6838 -0.9921
  751TMC3    C711157   0.563   2.196  10.717  0.2415  0.2073 -0.2303
  751TMC3    C811158   0.339   2.017  11.091  0.5620 -0.1950  0.2592
  751TMC3    O111159   0.662   2.267  10.687 -0.5324  0.0080 -0.1893
  751TMC3    O211160   0.329   1.925  11.015  0.2098 -0.4225 -0.4617
  752TMC3    C111161   3.929   2.156  17.226 -0.1387  0.2300 -0.5006
  752TMC3    C211162   3.914   2.060  17.327 -0.3279  0.1886 -0.2852
  752TMC3    C311163   3.860   2.109  17.446 -0.2647  0.0028 -0.9474
  752TMC3    C411164   3.895   2.289  17.245  0.1571 -0.8221 -0.1419
  752TMC3    C511165   3.823   2.321  17.356  0.5352  0.1043 -0.1796
  752TMC3    C611166   3.800   2.234  17.460 -0.0467 -0.0460 -1.1422
  752TMC3     C11167   3.962   2.108  17.096  0.0832  0.5720 -0.7763
  752TMC3     O11168   4.056   2.031  17.088 -0.1767 -0.1139 -0.5153
  752TMC3     H11169   3.939   1.958  17.303 -0.1382 -0.3940  2.4087
  752TMC3    H111170   3.900   2.356  17.160  0.2758 -1.3416 -0.5474
  752TMC3    H211171   3.763   2.271  17.554  0.8389  0.3552 -0.9525
  752TMC3    C711172   3.759   2.458  17.364 -0.0187  0.2143  0.4835
  752TMC3    C811173   3.859   2.020  17.562  0.2808  0.0345 -0.1897
  752TMC3    O111174   3.818   2.542  17.305  0.3090  0.4049 -0.6362
  752TMC3    O211175   3.861   1.900  17.544  0.1239 -0.2820  0.4371
  753TMC3    C111176   1.639   3.824  13.247 -0.3826 -1.1366  0.3178
  753TMC3    C211177   1.697   3.770  13.353  0.3093  0.2084  0.1177
  753TMC3    C311178   1.658   3.640  13.391  0.0299  0.1177 -1.1651
  753TMC3    C411179   1.545   3.760  13.176  0.2654 -0.8938 -0.3169
  753TMC3    C511180   1.503   3.634  13.212  0.2958 -0.7476 -0.2428
  753TMC3    C611181   1.567   3.571  13.314  0.3718  0.2069 -0.1275
  753TMC3     C11182   1.661   3.962  13.212  0.8145 -0.4317  0.9204
  753TMC3     O11183   1.567   4.016  13.156 -0.1036  0.4363 -0.1242
  753TMC3     H11184   1.772   3.819  13.415  0.6668 -0.6955  0.4050
  753TMC3    H111185   1.498   3.810  13.092  0.2869  1.7561  1.2485
  753TMC3    H211186   1.558   3.464  13.332 -0.4281  0.3078  0.0847
  753TMC3    C711187   1.412   3.562  13.114 -0.2467 -0.0729  0.7909
  753TMC3    C811188   1.702   3.592  13.513  0.2513  0.2208 -0.0621
  753TMC3    O111189   1.382   3.619  13.008  0.0822  0.1814  0.3879
  753TMC3    O211190   1.680   3.472  13.532  0.0395  0.1375  0.0248
  754MPD2     C11191   0.515   2.377  13.329 -0.1945 -0.3323  0.4519
  754MPD2    C111192   0.508   2.248  13.287  0.7230  0.2377  0.1524
  754MPD2    C211193   0.386   2.185  13.257  0.2224  0.2356  0.1630
  754MPD2    C311194   0.268   2.255  13.282  0.7742  0.2869 -0.4599
  754MPD2    C411195   0.278   2.387  13.327  0.0666 -0.3155  0.2159
  754MPD2    C511196   0.402   2.450  13.349 -0.4044  0.3133 -0.3981
  754MPD2     H11197   0.389   2.087  13.212  0.9961  0.0497  0.6311
  754MPD2    H111198   0.185   2.443  13.334 -1.1004 -1.9788 -2.1658
  754MPD2    H211199   0.610   2.427  13.341  0.1250 -1.2243  1.6416
  754MPD2    H311200   0.408   2.553  13.383 -0.9167  0.6735 -1.3711
  754MPD2     N11201   0.143   2.191  13.290 -0.2913 -0.0620  0.9755
  754MPD2    H511202   0.064   2.244  13.326 -0.6679 -0.4831  0.7774
  754MPD2    N111203   0.634   2.182  13.280 -0.5909 -0.3504 -0.4292
  754MPD2    H711204   0.712   2.248  13.280  0.3924 -1.5032  1.5881
  755MPD2     C11205   4.168   2.620  13.277 -0.5142 -0.0940 -0.4638
  755MPD2    C111206   4.105   2.495  13.283  0.1877 -0.5516 -0.2340
  755MPD2    C211207   4.186   2.384  13.316  0.0909  0.8209 -0.3410
  755MPD2    C311208   4.321   2.391  13.328 -0.2605  0.5544 -0.9767
  755MPD2    C411209   4.377   2.516  13.333 -0.0879 -0.0306 -0.1510
  755MPD2    C511210   4.303   2.627  13.313 -0.1462 -0.1209 -0.0838
  755MPD2     H11211   4.131   2.291  13.326  0.4223  0.5172 -1.3247
  755MPD2    H111212   4.481   2.526  13.363 -0.4855 -1.1483  1.6228
  755MPD2    H211213   4.115   2.714  13.266 -0.2183  0.1072 -0.1642
  755MPD2    H311214   4.351   2.724  13.319  1.1534 -0.7243 -0.9253
  755MPD2     N11215   4.406   2.285  13.342 -0.2721  0.1549  0.4759
  755MPD2    H511216   4.502   2.302  13.367  0.1732 -0.3101 -0.8924
  755MPD2    N111217   3.965   2.475  13.249 -0.1604  0.5214 -0.4820
  755MPD2    H711218   3.946   2.377  13.230 -1.1621  0.9956 -1.9674
  756MPD2     C11219   0.495   2.593   9.748  0.6453  0.0209 -0.3522
  756MPD2    C111220   0.427   2.707   9.796  0.2161  0.0375 -0.5176
  756MPD2    C211221   0.312   2.741   9.736  0.6366  0.2084  0.0617
  756MPD2    C311222   0.256   2.678   9.635  0.0025 -0.0868 -0.0599
  756MPD2    C411223   0.317   2.559   9.586  0.1291 -0.2153  0.1716
  756MPD2    C511224   0.439   2.522   9.644  0.1983 -0.0635  0.7318
  756MPD2     H11225   0.249   2.824   9.770 -1.1566 -0.9287 -0.4818
  756MPD2    H111226   0.280   2.497   9.505 -3.0503  0.2489  1.2624
  756MPD2    H211227   0.589   2.564   9.793  1.8937  1.1911 -2.2209
  756MPD2    H311228   0.485   2.431   9.607  1.1574  0.1585  1.3728
  756MPD2     N11229   0.142   2.740   9.580  0.3058 -0.5516  0.8398
  756MPD2    H511230   0.125   2.838   9.598  0.5386  0.0266 -2.0914
  756MPD2    N111231   0.473   2.789   9.897 -0.6080 -0.3907  0.0305
  756MPD2    H711232   0.414   2.870   9.915 -0.0400 -0.4057  1.9641
  757MPD2     C11233   3.912   2.434   9.450  0.6238  0.5139 -0.0890
  757MPD2    C111234   4.024   2.360   9.484 -0.3787 -0.6877  0.4294
  757MPD2    C211235   4.145   2.424   9.472 -0.0382  0.4408 -0.0760
  757MPD2    C311236   4.153   2.558   9.439  0.1426 -0.6547 -0.0586
  757MPD2    C411237   4.041   2.625   9.405 -0.6222 -0.1787  0.2516
  757MPD2    C511238   3.925   2.564   9.410 -0.2035 -0.5468  0.1264
  757MPD2     H11239   4.233   2.366   9.498 -0.5296 -0.8959 -1.3571
  757MPD2    H111240   4.041   2.726   9.366 -1.6932 -0.7304 -1.1508
  757MPD2    H211241   3.816   2.386   9.440  0.8839 -0.0831  0.2848
  757MPD2    H311242   3.835   2.608   9.367  2.5255  4.0289 -0.9030
  757MPD2     N11243   4.282   2.614   9.429  0.1714  0.4298  0.0931
  757MPD2    H511244   4.354   2.547   9.455 -1.1406 -1.0313  0.0043
  757MPD2    N111245   4.007   2.223   9.513  0.1065 -0.2085  1.1932
  757MPD2    H711246   3.914   2.187   9.495 -0.3660  1.7252 -0.2435
  758MPD2     C11247   0.119   1.930  15.766  0.5712  0.3365  0.3990
  758MPD2    C111248   0.170   1.838  15.863  0.5052  0.3391  0.0630
  758MPD2    C211249   0.119   1.847  15.990 -0.1361  0.0634  0.6917
  758MPD2    C311250   0.035   1.950  16.023  0.2670 -0.0163  0.3070
  758MPD2    C411251   4.728   2.034  15.927  0.2613 -0.5543  0.4059
  758MPD2    C511252   0.038   2.026  15.801  0.3684 -0.2849  0.6218
  758MPD2     H11253   0.139   1.771  16.064  0.1699 -0.2522  0.2882
  758MPD2    H111254   4.651   2.105  15.952  1.3697  0.4567  0.9427
  758MPD2    H211255   0.146   1.925  15.661 -0.1538 -0.8946  0.2780
  758MPD2    H311256   4.716   2.066  15.717  1.1001 -2.1988 -0.7786
  758MPD2     N11257   4.708   1.955  16.145  0.0478 -0.2369  0.5886
  758MPD2    H511258   4.617   1.997  16.157  1.0456  2.0002  0.2307
  758MPD2    N111259   0.265   1.741  15.824  0.2001  0.3251  0.3297
  758MPD2    H711260   0.300   1.746  15.728  4.2190  0.9817  1.8390
  759MPD2     C11261   3.640   0.416  10.234  0.0403  0.4406  0.4947
  759MPD2    C111262   3.640   0.326  10.130  0.0604  0.2896 -0.1561
  759MPD2    C211263   3.713   0.351  10.020  0.9202  0.3824 -0.1328
  759MPD2    C311264   3.772   0.474  10.000  0.0020  0.3725 -0.3587
  759MPD2    C411265   3.760   0.573  10.096  0.3549 -0.2070  0.9156
  759MPD2    C511266   3.700   0.539  10.217 -0.3785  0.2749  0.3561
  759MPD2     H11267   3.712   0.275   9.942  0.9607  1.7496 -1.4742
  759MPD2    H111268   3.788   0.676  10.080 -0.3239 -0.1308  0.1870
  759MPD2    H211269   3.585   0.406  10.327 -2.0166  2.0626 -0.5556
  759MPD2    H311270   3.678   0.614  10.292  1.6750 -1.5292  2.7646
  759MPD2     N11271   3.858   0.487   9.886  0.1409  0.9669 -0.5040
  759MPD2    H511272   3.863   0.404   9.827 -0.7423  1.0894 -0.7423
  759MPD2    N111273   3.564   0.213  10.133  0.1265  0.2161  0.6143
  759MPD2    H711274   3.551   0.158  10.048 -0.5157 -0.5026  1.1734
  760MPD2     C11275   3.350   2.451  11.897 -0.5617 -0.1540  0.5467
  760MPD2    C111276   3.456   2.397  11.830  0.4858 -0.2150  0.0373
  760MPD2    C211277   3.491   2.267  11.856 -0.5542 -0.2145  0.1753
  760MPD2    C311278   3.429   2.191  11.951  0.6559  0.9248  0.3256
  760MPD2    C411279   3.334   2.252  12.028  0.5014 -0.9098 -0.0261
  760MPD2    C511280   3.292   2.382  11.996  0.1471  0.4121  0.8604
  760MPD2     H11281   3.576   2.232  11.799 -0.8774 -0.9055  0.1197
  760MPD2    H111282   3.292   2.204  12.116  1.4809  0.1756  1.0224
  760MPD2    H211283   3.316   2.552  11.879 -1.6159 -0.3173  1.5746
  760MPD2    H311284   3.222   2.435  12.059  0.6279  0.8856  0.9882
  760MPD2     N11285   3.478   2.062  11.980 -0.3806  0.0607 -0.5270
  760MPD2    H511286   3.439   2.022  12.064 -2.3811 -0.4670 -1.6913
  760MPD2    N111287   3.531   2.480  11.742  0.2034 -0.4454  0.2819
  760MPD2    H711288   3.615   2.437  11.705 -0.9933 -2.1687 -0.4444
  761MPD2     C11289   4.720   1.819  11.415  0.7510  0.9855 -0.0847
  761MPD2    C111290   0.010   1.798  11.283 -0.1549 -0.4970  0.0745
  761MPD2    C211291   0.118   1.856  11.220  0.0629  0.8944  0.9139
  761MPD2    C311292   0.189   1.950  11.285  0.3027  0.4485 -0.2444
  761MPD2    C411293   0.162   1.978  11.417  0.4056 -0.4213 -0.3697
  761MPD2    C511294   0.064   1.911  11.480 -0.4245 -0.0081  0.0121
  761MPD2     H11295   0.131   1.824  11.117 -1.6275 -1.1692  1.3491
  761MPD2    H111296   0.225   2.043  11.476 -0.8239  0.4734 -0.0543
  761MPD2    H211297   4.639   1.778  11.474  0.9052  0.2846 -0.3591
  761MPD2    H311298   0.064   1.926  11.587 -0.5641  2.1854 -0.2973
  761MPD2     N11299   0.293   2.024  11.220  0.2987  0.4031  0.3306
  761MPD2    H511300   0.309   2.109  11.274  0.2393  1.8746 -1.9814
  761MPD2    N111301   4.654   1.713  11.214  0.0837 -0.2945 -0.4231
  761MPD2    H711302   4.581   1.665  11.266  0.0085  1.7723  1.3985
  762MPD2     C11303   4.568   1.189  10.561 -0.1922 -0.0281  0.0042
  762MPD2    C111304   4.586   1.314  10.610  0.1586  0.3181 -0.7352
  762MPD2    C211305   4.706   1.377  10.603 -0.3412 -0.1623 -0.5850
  762MPD2    C311306   0.079   1.318  10.541  0.3807 -0.1166  0.0938
  762MPD2    C411307   0.063   1.193  10.481  0.1425 -0.0178  0.3717
  762MPD2    C511308   4.676   1.131  10.494  0.6173  0.3593 -0.4902
  762MPD2     H11309   4.719   1.483  10.623  1.5813 -0.8229  1.7279
  762MPD2    H111310   0.147   1.133  10.448 -0.3770 -1.0594  0.9502
  762MPD2    H211311   4.475   1.139  10.584  0.3714 -0.2038  1.9005
  762MPD2    H311312   4.661   1.031  10.456 -0.5169  1.5529 -3.1977
  762MPD2     N11313   0.195   1.392  10.499 -0.4476  0.1646  0.1440
  762MPD2    H511314   0.259   1.355  10.429  0.3435  0.7571  0.5558
  762MPD2    N111315   4.478   1.379  10.678 -0.2150 -0.5778  0.5126
  762MPD2    H711316   4.392   1.326  10.687 -0.6882 -0.1393 -1.2633
  763MPD2     C11317   1.380   1.687  16.142 -0.4366 -0.1804  0.1363
  763MPD2    C111318   1.514   1.705  16.135 -0.3250 -0.0309  0.1662
  763MPD2    C211319   1.590   1.706  16.254  0.2577  0.0625  0.3562
  763MPD2    C311320   1.529   1.709  16.376  0.4101 -0.6956  0.5910
  763MPD2    C411321   1.396   1.688  16.382  0.2468  1.0553  0.0224
  763MPD2    C511322   1.326   1.667  16.267 -0.6126  0.8291  0.1218
  763MPD2     H11323   1.698   1.717  16.256  0.3469 -1.1040  2.0236
  763MPD2    H111324   1.345   1.668  16.476  1.1925  2.3248  0.7953
  763MPD2    H211325   1.317   1.677  16.054  0.1611  0.7803 -0.3971
  763MPD2    H311326   1.219   1.655  16.279 -0.9103  1.1484 -2.1282
  763MPD2     N11327   1.613   1.726  16.491  0.1586  0.1014 -0.7564
  763MPD2    H511328   1.711   1.749  16.479  0.0416  0.1539 -1.5745
  763MPD2    N111329   1.571   1.718  16.009 -0.1224  0.0375  0.2319
  763MPD2    H711330   1.672   1.723  16.002 -0.3040  0.7635 -1.6848
  764MPD2     C11331   4.425   3.489   0.141  0.3756 -0.3053 -0.6191
  764MPD2    C111332   4.331   3.426   0.060  0.8681  0.1908  0.2321
  764MPD2    C211333   4.240   3.347   0.118 -0.0237 -0.0194 -0.3617
  764MPD2    C311334   4.227   3.338   0.255  0.0276  0.2198  0.5137
  764MPD2    C411335   4.320   3.398   0.339 -0.1965  0.1322  0.1532
  764MPD2    C511336   4.417   3.475   0.276  0.1013 -0.1076 -0.4711
  764MPD2     H11337   4.169   3.288   0.061 -0.5649 -0.1922  0.4960
  764MPD2    H111338   4.333   3.393   0.446  0.3455 -3.7904 -0.0787
  764MPD2    H211339   4.503   3.554   0.103  0.0802  1.0872  1.1784
  764MPD2    H311340   4.489   3.532   0.332  0.0330 -0.2757 -0.2135
  764MPD2     N11341   4.115   3.264   0.306  0.4135 -0.5095 -0.2013
  764MPD2    H511342   4.063   3.209   0.238 -1.4293 -0.0362  0.8090
  764MPD2    N111343   4.323   3.440  17.657 -0.0399 -0.7578  0.3172
  764MPD2    H711344   4.248   3.396  17.604 -1.8756  0.8577  1.5797
  765MPD2     C11345   0.116   1.112  15.285  0.4251 -0.3236  1.0820
  765MPD2    C111346   0.140   1.209  15.378 -0.2508  0.1706 -0.2016
  765MPD2    C211347   0.268   1.215  15.427  0.2732 -0.5365 -0.2047
  765MPD2    C311348   0.366   1.113  15.397 -0.1658  0.5378 -0.4355
  765MPD2    C411349   0.332   1.010  15.316 -0.1146  0.2898  0.3614
  765MPD2    C511350   0.205   1.010  15.261 -0.4541  0.2085 -0.0164
  765MPD2     H11351   0.298   1.290  15.500 -0.4826 -1.9014  1.4917
  765MPD2    H111352   0.395   0.924  15.296  1.6961  1.6879  0.0076
  765MPD2    H211353   0.015   1.112  15.246  0.9824  2.5364 -0.2982
  765MPD2    H311354   0.173   0.926  15.199 -0.2686 -0.7624  1.2034
  765MPD2     N11355   0.486   1.108  15.482 -0.4673 -0.6672 -0.0325
  765MPD2    H511356   0.481   1.175  15.559  0.9465 -2.2775  1.4581
  765MPD2    N111357   0.038   1.290  15.425  0.5815 -0.1818  0.3822
  765MPD2    H711358   4.679   1.265  15.393  0.5462  2.6874 -1.7149
  766MPD2     C11359   4.099   1.348  15.279 -0.8032 -0.5597  0.0040
  766MPD2    C111360   4.236   1.334  15.280  0.1382 -0.4781  0.7548
  766MPD2    C211361   4.295   1.274  15.172 -0.3998  0.2587 -0.5157
  766MPD2    C311362   4.225   1.243  15.055 -0.5805 -0.8341 -0.0407
  766MPD2    C411363   4.087   1.256  15.063  0.5246 -0.8381 -0.3818
  766MPD2    C511364   4.029   1.306  15.171  0.0091  0.5702  0.4423
  766MPD2     H11365   4.403   1.264  15.167 -0.4610  0.6657 -2.7744
  766MPD2    H111366   4.031   1.228  14.975 -1.4825 -0.7242  0.8387
  766MPD2    H211367   4.045   1.390  15.363  1.5679 -0.8932  1.6897
  766MPD2    H311368   3.921   1.321  15.167  0.0054  0.7217  0.9911
  766MPD2     N11369   4.275   1.207  14.927  0.3957  0.0807 -0.4127
  766MPD2    H511370   4.212   1.205  14.847  0.7956 -0.5972 -0.7101
  766MPD2    N111371   4.323   1.370  15.389  0.1421 -0.3564 -0.0018
  766MPD2    H711372   4.414   1.326  15.384  0.0235 -0.3243 -2.4093
  767MPD2     C11373   3.903   1.564  14.989 -0.2009  0.0674  0.0897
  767MPD2    C111374   4.035   1.564  14.941 -0.1213 -0.0972  0.6952
  767MPD2    C211375   4.063   1.515  14.815 -0.1815  0.2811  0.3896
  767MPD2    C311376   3.958   1.457  14.743 -0.8908  0.1160  0.2528
  767MPD2    C411377   3.829   1.462  14.795  0.2112 -0.1303  0.1969
  767MPD2    C511378   3.804   1.509  14.921 -0.6307  0.8892  0.5480
  767MPD2     H11379   4.161   1.528  14.770  0.4834  0.4343  1.8851
  767MPD2    H111380   3.744   1.412  14.751  0.2643  0.6833 -0.8239
  767MPD2    H211381   3.869   1.601  15.085  0.4157  0.7238  0.0567
  767MPD2    H311382   3.708   1.495  14.969 -0.1672  1.9392  1.7621
  767MPD2     N11383   3.988   1.393  14.618 -1.0395 -0.2217 -0.2559
  767MPD2    H511384   4.082   1.410  14.583 -1.4117  2.3243 -0.0780
  767MPD2    N111385   4.129   1.619  15.030  0.1494  0.5338  0.3893
  767MPD2    H711386   4.089   1.649  15.118  0.6945 -0.6020  1.0295
  768MPD2     C11387   0.265   0.148  10.203 -0.0207 -0.3095  0.1954
  768MPD2    C111388   0.210   0.089  10.310 -0.0307  0.3401  0.1776
  768MPD2    C211389   0.281   0.085  10.431  1.2059 -0.2389 -0.0656
  768MPD2    C311390   0.409   0.135  10.440 -0.9359  0.7759  0.9714
  768MPD2    C411391   0.459   0.200  10.328 -0.1393  0.4605 -0.9853
  768MPD2    C511392   0.390   0.204  10.208 -0.1665  0.1743  0.0128
  768MPD2     H11393   0.226   0.049  10.517  2.1612 -1.5543 -0.0121
  768MPD2    H111394   0.556   0.248  10.334 -0.0074  0.2747 -1.5946
  768MPD2    H211395   0.211   0.158  10.109 -0.9652 -2.8520  0.4828
  768MPD2    H311396   0.420   0.262  10.122  1.7957 -1.0327 -0.1021
  768MPD2     N11397   0.472   0.138  10.566 -0.2551  0.0374  0.4431
  768MPD2    H511398   0.555   0.197  10.563 -1.4156  1.6616 -0.0142
  768MPD2    N111399   0.079   0.031  10.319 -0.0662 -0.1460  0.2571
  768MPD2    H711400   0.056   4.722  10.408 -0.3136  0.1299  0.3301
  769MPD2     C11401   1.223   3.122  14.458  0.0981  0.3262  0.2182
  769MPD2    C111402   1.099   3.103  14.511 -0.7116 -0.1482  0.0367
  769MPD2    C211403   1.051   3.167  14.621 -0.2251 -0.6749 -0.0949
  769MPD2    C311404   1.133   3.264  14.678 -0.2400  0.3158  0.2342
  769MPD2    C411405   1.263   3.281  14.630 -0.1823  0.8393 -0.4393
  769MPD2    C511406   1.303   3.207  14.518  0.3103 -0.2254 -1.1919
  769MPD2     H11407   0.951   3.157  14.661 -0.7120 -2.1288 -1.6568
  769MPD2    H111408   1.333   3.346  14.681 -0.5730  0.7428  0.2150
  769MPD2    H211409   1.259   3.074  14.367  0.4910 -1.1342  1.1418
  769MPD2    H311410   1.403   3.235  14.484  2.0891 -2.3905  2.2395
  769MPD2     N11411   1.075   3.335  14.788  0.2240 -0.4875 -0.0513
  769MPD2    H511412   0.977   3.311  14.804 -0.6995  3.2214 -0.1465
  769MPD2    N111413   1.019   2.996  14.446  0.1064 -0.3395 -0.3431
  769MPD2    H711414   1.042   2.952  14.357  0.3548 -0.4101 -0.2439
  770MPD2     C11415   0.373   2.320  14.792 -0.4586  0.1719 -0.6125
  770MPD2    C111416   0.507   2.301  14.762 -0.2849 -0.1832  0.5625
  770MPD2    C211417   0.563   2.371  14.659 -0.0805 -0.2102 -1.0210
  770MPD2    C311418   0.498   2.482  14.608 -0.5143 -0.6609  0.6467
  770MPD2    C411419   0.373   2.508  14.651 -0.6818  0.3504 -0.3349
  770MPD2    C511420   0.306   2.428  14.742  0.2008  0.0728  0.5926
  770MPD2     H11421   0.663   2.347  14.626  0.9381  0.0512  1.8927
  770MPD2    H111422   0.325   2.596  14.610  0.7267  0.2852 -2.1216
  770MPD2    H211423   0.325   2.257  14.866 -2.9329  0.0693 -2.3352
  770MPD2    H311424   0.203   2.448  14.770 -0.5026  1.4599 -3.0446
  770MPD2     N11425   0.569   2.564  14.517  1.1574  0.2041  0.0976
  770MPD2    H511426   0.658   2.530  14.483  0.3395 -0.7705 -1.0394
  770MPD2    N111427   0.566   2.196  14.838  0.1909  0.3119  0.4976
  770MPD2    H711428   0.506   2.130  14.885 -1.4689 -0.3871 -2.6017
  771MPD2     C11429   2.432   0.733  13.441  0.6890 -0.3561 -0.3426
  771MPD2    C111430   2.331   0.796  13.513  0.0038 -0.2118 -0.4008
  771MPD2    C211431   2.196   0.778  13.473 -0.2679  0.0740  0.0538
  771MPD2    C311432   2.165   0.708  13.355  0.4761  0.4882  0.0246
  771MPD2    C411433   2.272   0.667  13.277 -0.0444 -1.1899 -0.0851
  771MPD2    C511434   2.402   0.675  13.325  0.1118 -0.2004 -0.7550
  771MPD2     H11435   2.116   0.806  13.541  0.5328 -0.6047  1.2706
  771MPD2    H111436   2.246   0.627  13.180  1.7227 -0.8921 -0.6763
  771MPD2    H211437   2.537   0.727  13.468  0.9261  0.4632 -1.0935
  771MPD2    H311438   2.485   0.639  13.266 -0.5662 -1.2568 -1.0720
  771MPD2     N11439   2.027   0.686  13.322 -0.0537 -0.7185 -0.2469
  771MPD2    H511440   1.958   0.746  13.365  1.5840  1.5459 -0.7705
  771MPD2    N111441   2.373   0.880  13.619  0.0605  0.0302  0.4692
  771MPD2    H711442   2.472   0.902  13.626  0.7815 -2.2997 -2.6442
  772MPD2     C11443   1.922   1.378  13.976 -0.1406 -0.3123  0.0032
  772MPD2    C111444   1.968   1.269  13.898 -0.3723 -0.4555  0.1523
  772MPD2    C211445   1.880   1.172  13.847 -0.0478  0.7411  0.3366
  772MPD2    C311446   1.750   1.187  13.884  0.0471 -0.7350  0.5325
  772MPD2    C411447   1.698   1.302  13.946 -0.4816  0.3204 -0.2647
  772MPD2    C511448   1.788   1.390  14.004 -0.5671 -0.1219 -0.1069
  772MPD2     H11449   1.912   1.083  13.795 -1.8576 -1.4908  3.0193
  772MPD2    H111450   1.593   1.311  13.972 -0.3266 -1.9553  1.1480
  772MPD2    H211451   1.989   1.450  14.020 -0.9275  1.7433 -2.1278
  772MPD2    H311452   1.749   1.456  14.081 -0.6814  0.4639 -0.6602
  772MPD2     N11453   1.646   1.092  13.850 -0.5742 -0.2147 -0.1154
  772MPD2    H511454   1.554   1.104  13.891 -0.7934 -0.5158 -0.5115
  772MPD2    N111455   2.104   1.252  13.863  0.2352  0.2675  1.2157
  772MPD2    H711456   2.128   1.162  13.823 -0.8116  0.6713 -0.3167
  773MPD2     C11457   0.536   1.829   0.703  0.0844 -0.3104  0.1364
  773MPD2    C111458   0.513   1.752   0.588  0.2304 -0.2572 -0.5962
  773MPD2    C211459   0.589   1.635   0.570  0.5452 -0.3853  0.0239
  773MPD2    C311460   0.679   1.590   0.669 -0.4586 -0.5025 -0.0078
  773MPD2    C411461   0.680   1.659   0.785 -0.0295 -0.7068  0.2229
  773MPD2    C511462   0.604   1.771   0.805  0.2129  0.5089  0.0928
  773MPD2     H11463   0.596   1.585   0.474 -1.0421  1.2824 -0.9606
  773MPD2    H111464   0.728   1.614   0.872 -1.1922 -1.2963  0.5600
  773MPD2    H211465   0.487   1.925   0.721 -0.5976 -0.7612  0.6843
  773MPD2    H311466   0.625   1.817   0.901 -2.6709 -0.8608  1.3730
  773MPD2     N11467   0.763   1.476   0.641 -0.3498  0.5166 -0.4889
  773MPD2    H511468   0.733   1.431   0.555  1.7581 -0.7266 -0.5796
  773MPD2    N111469   0.432   1.796   0.479 -0.6972 -0.3516  0.5128
  773MPD2    H711470   0.417   1.731   0.403 -1.8522 -0.4785  0.8504
  774MPD2     C11471   0.693   1.095  13.185 -0.2403  0.4220  0.2880
  774MPD2    C111472   0.599   1.100  13.282  0.2299  0.0995  0.5378
  774MPD2    C211473   0.548   1.221  13.311  0.3127 -0.2512 -0.1743
  774MPD2    C311474   0.594   1.337  13.240  0.1071 -0.3304  0.3459
  774MPD2    C411475   0.672   1.325  13.124  0.1905 -0.1286 -0.3504
  774MPD2    C511476   0.715   1.197  13.099  0.5524  0.1756  0.6979
  774MPD2     H11477   0.476   1.234  13.391  1.1188 -0.2572  0.5454
  774MPD2    H111478   0.718   1.403  13.064 -1.6175 -0.3123 -1.9817
  774MPD2    H211479   0.734   0.997  13.165  2.3245  0.9609  2.8607
  774MPD2    H311480   0.791   1.176  13.024 -0.0879 -0.0638  0.1139
  774MPD2     N11481   0.539   1.469  13.269 -0.4804 -0.5069  0.7975
  774MPD2    H511482   0.499   1.467  13.362 -1.1437 -2.9768  0.4707
  774MPD2    N111483   0.566   0.984  13.361  0.0151 -0.0209  0.5998
  774MPD2    H711484   0.621   0.905  13.326  2.6084  1.8289  0.5410
  775MPD2     C11485   0.998   3.046  15.158  0.0189  0.1749  0.1310
  775MPD2    C111486   0.993   3.136  15.261  0.0344 -0.0608 -0.3415
  775MPD2    C211487   1.083   3.242  15.262 -0.4519  0.0033  0.0032
  775MPD2    C311488   1.188   3.242  15.169  0.0518 -0.1162 -0.3554
  775MPD2    C411489   1.194   3.149  15.064  0.4256  0.1245  0.1975
  775MPD2    C511490   1.092   3.054  15.052  0.0983  0.0041 -0.9950
  775MPD2     H11491   1.062   3.326  15.328 -0.5993  0.2593 -0.3746
  775MPD2    H111492   1.265   3.151  14.983 -1.6024 -1.8521 -1.6303
  775MPD2    H211493   0.933   2.961  15.142  1.6506 -1.0000 -0.3386
  775MPD2    H311494   1.088   2.984  14.969  2.2866 -0.4634 -0.7115
  775MPD2     N11495   1.287   3.336  15.168 -0.4324 -0.0056 -0.0377
  775MPD2    H511496   1.361   3.329  15.099  0.9860  0.2703  1.4490
  775MPD2    N111497   0.884   3.120  15.356 -0.0442  0.3404  0.8352
  775MPD2    H711498   0.830   3.036  15.341  0.4080  0.2294 -0.1571
  776MPD2     C11499   0.235   3.428  11.389 -0.1188 -0.2338  0.1601
  776MPD2    C111500   0.369   3.392  11.417  0.6102  0.8084  0.6716
  776MPD2    C211501   0.466   3.442  11.330 -0.1171  0.8200 -0.6701
  776MPD2    C311502   0.425   3.532  11.229 -0.8557 -0.5606 -0.3558
  776MPD2    C411503   0.293   3.562  11.203 -0.3055  1.1018 -0.6659
  776MPD2    C511504   0.196   3.512  11.291  1.0768 -0.4876 -0.1844
  776MPD2     H11505   0.568   3.405  11.327 -0.6316 -0.4908 -2.4152
  776MPD2    H111506   0.277   3.634  11.124 -1.9188  0.1911 -1.1648
  776MPD2    H211507   0.158   3.396  11.458 -1.2641  1.8558 -0.1658
  776MPD2    H311508   0.094   3.546  11.281  0.9972 -1.0462 -1.2109
  776MPD2     N11509   0.517   3.578  11.139 -0.2059 -0.8105  0.6003
  776MPD2    H511510   0.471   3.591  11.049  0.5471  1.3057  0.5290
  776MPD2    N111511   0.397   3.300  11.523 -0.3278  0.1119 -0.4833
  776MPD2    H711512   0.317   3.277  11.580  0.1431 -0.5616 -0.0946
  777MPD2     C11513   0.703   0.610   0.705 -0.0164  0.6202 -0.0192
  777MPD2    C111514   0.663   0.514   0.794  0.5224 -0.3050 -0.2825
  777MPD2    C211515   0.618   0.392   0.747  0.4824 -0.9766 -0.4211
  777MPD2    C311516   0.596   0.368   0.612 -0.1113  0.3124 -0.2511
  777MPD2    C411517   0.637   0.465   0.518 -0.9092  0.2017  0.0804
  777MPD2    C511518   0.678   0.588   0.573  0.2810 -0.4327 -0.0541
  777MPD2     H11519   0.588   0.310   0.810 -1.7098  1.1775  1.3628
  777MPD2    H111520   0.629   0.452   0.411  0.3039 -0.7356  0.1027
  777MPD2    H211521   0.739   0.703   0.747 -1.2434  0.9167  0.3924
  777MPD2    H311522   0.706   0.666   0.504 -1.4149  0.7655  0.6066
  777MPD2     N11523   0.533   0.242   0.573 -0.4713  0.3869  0.1349
  777MPD2    H511524   0.537   0.165   0.639 -3.6413  0.1140  0.0124
  777MPD2    N111525   0.678   0.546   0.925 -0.2409  0.0931 -0.1748
  777MPD2    H711526   0.688   0.643   0.954 -1.1830  0.4009 -0.9007
  778MPD2     C11527   2.190   1.271  14.652  0.3238 -0.4678  0.0750
  778MPD2    C111528   2.226   1.137  14.637 -0.2387  0.1752  0.5418
  778MPD2    C211529   2.325   1.107  14.547  0.0623 -0.3334  0.1701
  778MPD2    C311530   2.375   1.200  14.463  0.2637 -0.1482  1.3566
  778MPD2    C411531   2.345   1.334  14.487  0.0253  0.8800 -0.1190
  778MPD2    C511532   2.269   1.368  14.591 -0.3550 -0.1205  0.2160
  778MPD2     H11533   2.364   1.006  14.536 -0.4232 -0.9254  3.7873
  778MPD2    H111534   2.370   1.417  14.422 -0.4312  1.8105  0.8889
  778MPD2    H211535   2.116   1.308  14.723 -0.6100 -1.4338 -0.3944
  778MPD2    H311536   2.258   1.473  14.616  2.1149  0.1295  0.2434
  778MPD2     N11537   2.457   1.157  14.361  0.1738 -0.0052  0.0254
  778MPD2    H511538   2.467   1.056  14.365  1.4787  0.0754 -1.1817
  778MPD2    N111539   2.155   1.036  14.712 -0.1252  0.6050  0.2896
  778MPD2    H711540   2.168   0.946  14.668 -0.4484  0.2571  0.9148
  779MPD2     C11541   1.690   4.643  13.908  0.0257  0.2546  0.0285
  779MPD2    C111542   1.817   4.613  13.955 -0.7942  0.0660 -0.1792
  779MPD2    C211543   1.920   4.704  13.926  0.1023 -0.4570  0.4954
  779MPD2    C311544   1.903   0.065  13.832 -0.0956  0.0029 -0.0659
  779MPD2    C411545   1.777   0.075  13.769 -0.1048 -0.6383 -0.2050
  779MPD2    C511546   1.670   0.007  13.810 -0.2387 -0.2106  0.3818
  779MPD2     H11547   2.014   4.709  13.980  1.3737  0.1084 -1.7545
  779MPD2    H111548   1.764   0.165  13.709 -1.2730  0.0414  1.0522
  779MPD2    H211549   1.595   4.598  13.937 -0.3143  1.3312  0.6019
  779MPD2    H311550   1.572   0.036  13.775  0.1359  0.2293 -0.3039
  779MPD2     N11551   2.017   0.152  13.802  0.3255 -0.0301  0.0950
  779MPD2    H511552   2.104   0.149  13.854 -1.6861 -0.0108  3.4899
  779MPD2    N111553   1.839   4.502  14.041  0.1283 -0.2270  0.4103
  779MPD2    H711554   1.932   4.475  14.072  0.3126 -1.3064 -1.0715
  780MPD2     C11555   1.791   4.204   0.939 -0.3744  0.7773  0.2473
  780MPD2    C111556   1.689   4.298   0.955 -0.0267 -0.7272  0.3400
  780MPD2    C211557   1.586   4.313   0.853 -0.1892 -0.4726 -0.5059
  780MPD2    C311558   1.588   4.227   0.746  0.6824 -0.0641 -0.4515
  780MPD2    C411559   1.695   4.134   0.733  0.5083  0.1472  0.3457
  780MPD2    C511560   1.800   4.129   0.824  0.3557 -0.1810  1.1631
  780MPD2     H11561   1.511   4.391   0.862 -1.2768 -1.2824 -2.6768
  780MPD2    H111562   1.692   4.066   0.648 -1.3880  0.9069 -0.2000
  780MPD2    H211563   1.871   4.185   1.010 -1.5288  0.8575  1.5515
  780MPD2    H311564   1.883   4.061   0.805 -1.0278 -3.0425  5.4383
  780MPD2     N11565   1.484   4.242   0.657  0.0261 -0.1924 -0.2785
  780MPD2    H511566   1.408   4.306   0.678 -0.0891 -1.4477  3.2502
  780MPD2    N111567   1.697   4.372   1.072 -0.2663 -0.3587  0.3119
  780MPD2    H711568   1.784   4.366   1.125  2.0016 -0.0686 -3.3881
  781MPD2     C11569   3.115   1.794  12.007 -0.5386 -0.1867  0.4538
  781MPD2    C111570   3.159   1.675  11.954 -0.0000 -0.9617 -0.2993
  781MPD2    C211571   3.224   1.677  11.833  0.0520  0.5618 -0.0860
  781MPD2    C311572   3.238   1.795  11.763  0.8037 -0.2411  0.1657
  781MPD2    C411573   3.201   1.909  11.827 -0.2102  0.5095  0.6289
  781MPD2    C511574   3.148   1.910  11.949 -0.2128  0.6385  0.1009
  781MPD2     H11575   3.270   1.588  11.792 -1.0963  0.8239 -1.9192
  781MPD2    H111576   3.221   2.004  11.778 -1.3055  1.6968  2.4994
  781MPD2    H211577   3.069   1.794  12.105 -1.6451 -0.5493 -0.0577
  781MPD2    H311578   3.127   2.004  11.999 -0.4923  2.7263 -3.9140
  781MPD2     N11579   3.294   1.798  11.629 -0.6754 -0.0304 -0.1305
  781MPD2    H511580   3.322   1.888  11.592 -1.7263  1.4592  2.7156
  781MPD2    N111581   3.129   1.549  12.017 -0.0927 -0.8172  0.0070
  781MPD2    H711582   3.181   1.469  11.983  1.1929 -0.4563  1.0871
  782MPD2     C11583   0.761   2.480  10.356 -0.5881  0.4489  0.3621
  782MPD2    C111584   0.879   2.492  10.291 -0.4589  0.0806  0.0891
  782MPD2    C211585   0.984   2.521  10.372 -0.1182 -0.5209  0.0322
  782MPD2    C311586   0.971   2.523  10.513  0.2559  0.1984  0.2118
  782MPD2    C411587   0.853   2.523  10.579  0.6292  0.0761  0.2394
  782MPD2    C511588   0.748   2.500  10.493 -0.2409  0.3993  0.1532
  782MPD2     H11589   1.084   2.513  10.331 -0.1746 -3.7908  0.6033
  782MPD2    H111590   0.838   2.545  10.684 -0.2117  3.1305 -0.5063
  782MPD2    H211591   0.668   2.452  10.307  1.2705 -1.9038 -1.8855
  782MPD2    H311592   0.650   2.508  10.538 -0.8912  0.4771 -1.2839
  782MPD2     N11593   1.092   2.533  10.587  0.3503 -0.5571  0.3103
  782MPD2    H511594   1.172   2.569  10.536 -0.3246 -1.1699 -1.1627
  782MPD2    N111595   0.900   2.441  10.161 -0.1351 -0.4748  0.0290
  782MPD2    H711596   0.814   2.407  10.120  1.7610 -2.7299 -2.0677
  783MPD2     C11597   0.435   1.946  10.484  0.5222 -0.6270 -0.8840
  783MPD2    C111598   0.516   2.040  10.538  1.2268 -0.1368  0.1177
  783MPD2    C211599   0.630   2.081  10.467  0.6209  0.6432  0.7566
  783MPD2    C311600   0.652   2.038  10.337  0.9059  0.2619  0.9804
  783MPD2    C411601   0.559   1.955  10.280  0.3396  0.2785  0.2127
  783MPD2    C511602   0.451   1.917  10.353 -0.1028  0.7015 -0.0736
  783MPD2     H11603   0.707   2.140  10.516 -0.0240  2.2185 -0.1200
  783MPD2    H111604   0.565   1.913  10.180 -1.1871  0.1911  0.1498
  783MPD2    H211605   0.343   1.914  10.533  1.0427 -0.8440 -0.0500
  783MPD2    H311606   0.373   1.856  10.308 -0.3380 -0.1452  1.4813
  783MPD2     N11607   0.771   2.063  10.272  0.6411  0.6378  0.1179
  783MPD2    H511608   0.838   2.115  10.328  0.0262  0.0751  1.3712
  783MPD2    N111609   0.494   2.097  10.659  0.7424 -0.3483  0.3504
  783MPD2    H711610   0.411   2.064  10.709  1.2527  1.2118  2.2491
  784MPD2     C11611   3.132   2.327   1.075  0.8577 -0.3141 -0.0198
  784MPD2    C111612   3.212   2.420   1.022  0.6568 -0.0678 -0.3979
  784MPD2    C211613   3.166   2.507   0.921 -0.6895 -0.5069 -0.7098
  784MPD2    C311614   3.042   2.484   0.867 -0.7771 -0.4234  0.3419
  784MPD2    C411615   2.957   2.388   0.920  0.0843  0.0752 -0.1944
  784MPD2    C511616   3.007   2.313   1.028 -0.0632 -0.2487 -0.5467
  784MPD2     H11617   3.225   2.595   0.899 -1.4994  0.1932 -0.1054
  784MPD2    H111618   2.853   2.375   0.893 -0.4859  0.0574  2.0085
  784MPD2    H211619   3.175   2.264   1.152  1.1063  0.0037  0.0964
  784MPD2    H311620   2.941   2.238   1.070  0.2787  0.9559  2.0872
  784MPD2     N11621   2.996   2.575   0.770 -0.1495  0.1563  0.0524
  784MPD2    H511622   3.054   2.656   0.751 -1.2534  1.2135  1.1758
  784MPD2    N111623   3.337   2.420   1.075  0.1364  0.4953 -0.3409
  784MPD2    H711624   3.351   2.377   1.165  0.7670 -2.1648 -1.7273
  785MPD2     C11625   3.833   0.261  10.868  0.0728 -0.1100  0.0066
  785MPD2    C111626   3.777   0.369  10.797 -0.4789 -0.3624  0.2293
  785MPD2    C211627   3.669   0.348  10.715 -0.8847 -0.9008  0.6623
  785MPD2    C311628   3.599   0.226  10.714  0.1911 -0.2335  0.7512
  785MPD2    C411629   3.652   0.122  10.783  0.0898 -0.2862  0.0643
  785MPD2    C511630   3.768   0.141  10.860  0.1867  0.7292 -0.2441
  785MPD2     H11631   3.628   0.432  10.661  1.9909  1.1659  1.6741
  785MPD2    H111632   3.618   0.019  10.775  0.2901 -0.4033  0.7358
  785MPD2    H211633   3.917   0.276  10.935 -0.0835 -2.2500  0.6733
  785MPD2    H311634   3.790   0.054  10.922 -0.4469 -0.1038 -1.1887
  785MPD2     N11635   3.474   0.216  10.648 -0.3069  0.2913  0.2956
  785MPD2    H511636   3.439   0.308  10.624  0.1416  0.2324 -0.5875
  785MPD2    N111637   3.829   0.500  10.809  0.6635  0.3016 -0.7242
  785MPD2    H711638   3.904   0.505  10.877  1.6701 -3.0362 -1.5777
  786MPD2     C11639   2.848   4.163  14.418  0.0135  0.2479  0.0582
  786MPD2    C111640   2.774   4.084  14.510  0.2157  0.1975 -0.6097
  786MPD2    C211641   2.811   4.086  14.642 -0.6376  0.2227 -0.2344
  786MPD2    C311642   2.900   4.179  14.687  0.0409  0.7631 -0.4381
  786MPD2    C411643   2.959   4.267  14.600 -0.3065  0.4686 -0.4746
  786MPD2    C511644   2.934   4.259  14.465  0.3014 -0.1183 -0.2746
  786MPD2     H11645   2.766   4.016  14.712  1.7912 -1.3900 -0.2932
  786MPD2    H111646   3.021   4.341  14.649 -0.2759 -0.4825  0.9322
  786MPD2    H211647   2.837   4.161  14.310 -1.1166  0.2767  0.1796
  786MPD2    H311648   2.982   4.326  14.395 -1.0850  3.3196  2.0406
  786MPD2     N11649   2.924   4.193  14.825  0.4306  0.4304  0.2102
  786MPD2    H511650   2.984   4.268  14.857 -0.9077  1.2473  0.7712
  786MPD2    N111651   2.674   4.000  14.461  0.0734 -0.0256 -0.5706
  786MPD2    H711652   2.631   3.930  14.521  0.0162  0.8165  0.3706
  787MPD2     C11653   2.073   3.467  14.668 -0.1383  0.4658  0.7107
  787MPD2    C111654   2.206   3.473  14.631 -0.4821  0.4313  0.1036
  787MPD2    C211655   2.296   3.382  14.687  0.0455  0.3294  0.7125
  787MPD2    C311656   2.258   3.295  14.788 -0.0646  0.1754 -0.0978
  787MPD2    C411657   2.125   3.298  14.824 -0.1052 -0.2065  0.0641
  787MPD2    C511658   2.031   3.381  14.759 -0.8841 -0.5322 -0.2532
  787MPD2     H11659   2.400   3.373  14.660 -0.0661 -0.7237  0.6475
  787MPD2    H111660   2.080   3.233  14.897 -1.3919  1.3857  0.6793
  787MPD2    H211661   2.003   3.541  14.630 -1.0933 -0.7515  0.1309
  787MPD2    H311662   1.930   3.371  14.795 -0.9969 -1.2379 -0.7647
  787MPD2     N11663   2.346   3.204  14.852  0.4018  0.5319 -0.4402
  787MPD2    H511664   2.442   3.200  14.819  0.4999 -1.3590  0.0804
  787MPD2    N111665   2.250   3.565  14.528  0.5411 -0.1727  0.3412
  787MPD2    H711666   2.179   3.610  14.471  0.1491  1.9330  2.5043
  788MPD2     C11667   4.618   2.079   0.935 -0.0314  0.1790 -0.8353
  788MPD2    C111668   4.483   2.061   0.917 -0.1150  0.1985 -0.1427
  788MPD2    C211669   4.422   2.140   0.820 -0.2892 -0.7638  0.4484
  788MPD2    C311670   4.492   2.237   0.750 -0.1515  0.3310  0.1298
  788MPD2    C411671   4.621   2.261   0.771  0.3000  0.3079  0.1053
  788MPD2    C511672   4.685   2.177   0.863 -0.0231 -0.4315 -0.1060
  788MPD2     H11673   4.315   2.125   0.812 -0.4858  0.9189 -0.0613
  788MPD2    H111674   4.678   2.331   0.712  0.8305  0.5586  0.9116
  788MPD2    H211675   4.677   2.025   1.009 -1.4584 -3.4621 -2.3683
  788MPD2    H311676   0.057   2.199   0.872 -0.2198 -0.3903  2.2799
  788MPD2     N11677   4.431   2.332   0.667 -0.4105 -0.6778 -0.6124
  788MPD2    H511678   4.492   2.408   0.639  0.2420 -1.2150 -0.6674
  788MPD2    N111679   4.407   1.968   0.987 -0.0534 -0.2515  0.3537
  788MPD2    H711680   4.308   1.969   0.965  0.0075 -0.8856  0.0650
  789MPD2     C11681   4.010   1.316  17.216 -0.4946  0.3012 -0.4361
  789MPD2    C111682   3.914   1.282  17.129  0.6261 -0.1139  0.4191
  789MPD2    C211683   3.838   1.382  17.062  0.0337 -0.1237 -0.0758
  789MPD2    C311684   3.864   1.516  17.092  0.1643  0.8663  0.1615
  789MPD2    C411685   3.970   1.544  17.174  0.7076 -0.4425 -0.1717
  789MPD2    C511686   4.040   1.445  17.234 -0.4113 -0.8796 -0.1603
  789MPD2     H11687   3.761   1.350  16.993  2.6523 -0.6164 -2.7354
  789MPD2    H111688   4.002   1.644  17.201 -0.3108 -0.7246  2.0518
  789MPD2    H211689   4.055   1.243  17.282 -1.7032 -0.9318 -0.9823
  789MPD2    H311690   4.112   1.458  17.314  1.2045 -0.0156 -1.7441
  789MPD2     N11691   3.778   1.611  17.044 -0.5270  0.5201  0.3076
  789MPD2    H511692   3.708   1.578  16.978  0.2125  0.4351 -0.4481
  789MPD2    N111693   3.895   1.144  17.083 -0.3395 -0.5554  0.5150
  789MPD2    H711694   3.817   1.118  17.023  1.4354 -2.4055 -0.9791
  790MPD2     C11695   0.979   3.315  13.503 -0.2484  0.4285 -0.5711
  790MPD2    C111696   0.940   3.193  13.449 -0.2160  0.0338  0.2943
  790MPD2    C211697   0.882   3.188  13.326  0.0832  0.6001  0.5399
  790MPD2    C311698   0.881   3.301  13.246 -0.5011 -1.0118  0.1134
  790MPD2    C411699   0.937   3.414  13.301 -0.0325  0.9368  0.7647
  790MPD2    C511700   0.980   3.427  13.429  0.2047 -0.0300  0.4634
  790MPD2     H11701   0.824   3.107  13.284  0.8122  0.0346  0.6342
  790MPD2    H111702   0.932   3.509  13.250  1.6722  0.4082 -0.4142
  790MPD2    H211703   1.018   3.315  13.604 -1.0923  0.5113 -0.2475
  790MPD2    H311704   1.001   3.524  13.474 -1.3779  1.1276 -1.3162
  790MPD2     N11705   0.822   3.293  13.120  0.0788  0.2493  0.0047
  790MPD2    H511706   0.785   3.201  13.096  2.8723 -1.0396  0.6654
  790MPD2    N111707   0.935   3.080  13.535  0.2972  0.1676 -0.2119
  790MPD2    H711708   0.969   3.089  13.630  0.9861  1.5872 -0.5924
  791MPD2     C11709   0.172   3.343  12.587 -0.4532  0.0925  0.8894
  791MPD2    C111710   0.222   3.271  12.690  0.4256 -0.3173 -0.7151
  791MPD2    C211711   0.149   3.167  12.746  0.3526 -0.2578 -0.5221
  791MPD2    C311712   0.027   3.132  12.703  0.4469  0.7932  0.5227
  791MPD2    C411713   4.715   3.208  12.595  0.0125 -0.0102 -1.5197
  791MPD2    C511714   0.050   3.316  12.537 -0.3036 -1.0293 -1.0795
  791MPD2     H11715   0.195   3.099  12.817 -0.2431  3.0092  3.0598
  791MPD2    H111716   4.620   3.188  12.547 -2.0570  1.3558  1.9675
  791MPD2    H211717   0.225   3.422  12.536 -1.0932 -0.3400 -0.4513
  791MPD2    H311718   0.006   3.369  12.453  1.1882 -0.7846 -1.7224
  791MPD2     N11719   4.691   3.027  12.761 -0.6437  0.3557  0.2629
  791MPD2    H511720   0.009   2.983  12.837  0.7230 -1.9603 -2.0185
  791MPD2    N111721   0.350   3.297  12.728  0.1075 -0.2277 -0.3978
  791MPD2    H711722   0.385   3.375  12.673 -0.4611  0.0126 -0.4113
  792MPD2     C11723   1.021   3.157  11.040 -0.3859 -0.6043 -0.1482
  792MPD2    C111724   0.937   3.199  10.936  0.1965  0.1050 -0.3021
  792MPD2    C211725   0.806   3.236  10.972  0.6155 -0.5848  0.1455
  792MPD2    C311726   0.753   3.186  11.098 -0.7055 -0.5667 -0.7886
  792MPD2    C411727   0.838   3.118  11.183 -0.0948  0.1819  0.1599
  792MPD2    C511728   0.975   3.113  11.161 -0.2116 -0.2475 -0.1466
  792MPD2     H11729   0.740   3.282  10.900  0.6659 -0.0386  0.4492
  792MPD2    H111730   0.798   3.084  11.278  3.0957 -2.1993  0.6289
  792MPD2    H211731   1.128   3.149  11.020  0.1251  2.4690  1.3852
  792MPD2    H311732   1.043   3.066  11.232 -0.6847  1.0185  1.1354
  792MPD2     N11733   0.622   3.214  11.144  0.7444 -0.2685 -0.9510
  792MPD2    H511734   0.607   3.185  11.240  1.4016  2.0604 -0.1252
  792MPD2    N111735   0.987   3.215  10.805 -1.0590 -0.0368  0.0084
  792MPD2    H711736   1.081   3.179  10.790 -1.4126 -1.4462  1.0854
  793MPD2     C11737   0.070   3.060  10.458  0.2175  0.5761  0.1742
  793MPD2    C111738   0.201   3.069  10.507 -0.1351  0.5185 -0.4898
  793MPD2    C211739   0.225   3.106  10.632 -0.7708  0.4604  0.3284
  793MPD2    C311740   0.120   3.142  10.719 -0.8796 -0.4192  0.1715
  793MPD2    C411741   4.728   3.153  10.670 -0.1846 -0.1239  1.2638
  793MPD2    C511742   4.706   3.103  10.539  0.3536  0.0760  0.2370
  793MPD2     H11743   0.326   3.085  10.667 -2.6014 -2.8456  3.6218
  793MPD2    H111744   4.646   3.184  10.734 -0.0106  1.0622  0.8940
  793MPD2    H211745   0.041   3.042  10.355  0.0894  0.0508  0.3024
  793MPD2    H311746   4.601   3.101  10.512  0.2439 -0.6440  0.7121
  793MPD2     N11747   0.162   3.162  10.854 -0.5673  0.1338 -0.3121
  793MPD2    H511748   0.258   3.132  10.869 -1.2414 -0.6977  2.3440
  793MPD2    N111749   0.308   3.029  10.433 -0.3053  0.1209  0.1087
  793MPD2    H711750   0.401   3.038  10.474 -0.4705 -2.7245  1.0967
  794MPD2     C11751   0.273   2.471  17.673 -0.8699 -0.5881  0.1264
  794MPD2    C111752   0.223   2.349  17.621  0.0653 -0.9360 -0.4998
  794MPD2    C211753   0.162   2.347  17.496 -0.5173 -0.0135 -0.0450
  794MPD2    C311754   0.158   2.463  17.421 -0.4202 -0.3677  0.2734
  794MPD2    C411755   0.202   2.580  17.476 -0.2156 -0.4385 -0.3623
  794MPD2    C511756   0.264   2.583  17.595  0.2561 -0.6001  0.1308
  794MPD2     H11757   0.114   2.256  17.461 -0.6498  0.0847 -0.1203
  794MPD2    H111758   0.195   2.676  17.425  0.3950  0.6710  1.6334
  794MPD2    H211759   0.328   2.484   0.030  0.1630 -2.5637 -0.2098
  794MPD2    H311760   0.310   2.673  17.636 -1.1616  0.8210 -1.3924
  794MPD2     N11761   0.087   2.476  17.299 -0.3667 -0.4323 -0.3962
  794MPD2    H511762   0.078   2.567  17.255 -0.6621  0.5048  1.5936
  794MPD2    N111763   0.226   2.228  17.692 -0.2854 -0.4513  0.1280
  794MPD2    H711764   0.175   2.147  17.658 -0.4675  0.4966 -1.8485
  795MPD2     C11765   3.194   0.009  13.687  0.8199 -0.0482 -0.1163
  795MPD2    C111766   3.123   4.650  13.613 -0.7985 -0.1727  0.0426
  795MPD2    C211767   3.165   4.523  13.581 -0.6383  0.9625  0.2706
  795MPD2    C311768   3.298   4.491  13.619 -0.0388  0.1165  0.2206
  795MPD2    C411769   3.377   4.585  13.679 -0.8742  0.9428 -0.1100
  795MPD2    C511770   3.322   4.710  13.714  0.5402 -0.2534 -0.8537
  795MPD2     H11771   3.098   4.460  13.525 -0.4639  0.3674  0.7253
  795MPD2    H111772   3.474   4.554  13.717 -1.7677 -1.3057  0.3326
  795MPD2    H211773   3.151   0.106  13.710 -0.9245 -1.1092  1.0873
  795MPD2    H311774   3.391   0.042  13.766  1.1020 -0.0719 -1.8296
  795MPD2     N11775   3.354   4.366  13.586 -0.0051  0.4205  0.2658
  795MPD2    H511776   3.452   4.357  13.608 -0.2395 -2.3204  0.2232
  795MPD2    N111777   2.984   4.668  13.579  0.2970  0.7098 -0.0607
  795MPD2    H711778   2.941   4.591  13.529  0.2711  1.1878 -0.7831
  796MPD2     C11779   2.690   1.356  15.561  0.0046  0.0900 -0.4320
  796MPD2    C111780   2.719   1.364  15.698 -0.1623 -0.3760  0.8382
  796MPD2    C211781   2.648   1.463  15.763 -0.0957  0.5284 -0.6482
  796MPD2    C311782   2.570   1.558  15.699  0.3337  0.4826 -0.1931
  796MPD2    C411783   2.557   1.554  15.566 -0.1667  0.4387  0.1822
  796MPD2    C511784   2.616   1.452  15.497 -0.2894  0.6680  0.5463
  796MPD2     H11785   2.652   1.454  15.871 -1.9045  1.6845 -0.4811
  796MPD2    H111786   2.485   1.621  15.520  1.2532  2.0255  0.2481
  796MPD2    H211787   2.746   1.284  15.502  0.4920  0.4005 -0.3472
  796MPD2    H311788   2.595   1.435  15.393 -3.0150 -1.1379  1.4007
  796MPD2     N11789   2.503   1.645  15.782  0.1085  0.3647  0.3633
  796MPD2    H511790   2.523   1.633  15.881 -2.1441 -0.4283  0.7289
  796MPD2    N111791   2.818   1.273  15.746 -0.3595  0.6819 -0.4656
  796MPD2    H711792   2.852   1.199  15.686  2.3900  0.5595  1.2950
  797MPD2     C11793   3.112   1.139  17.324 -0.2877 -0.1756 -0.9679
  797MPD2    C111794   3.062   1.265  17.356 -0.1236 -0.6851  0.3129
  797MPD2    C211795   2.966   1.319  17.281 -0.5439  0.0749 -0.0439
  797MPD2    C311796   2.917   1.262  17.167  0.4622  0.3912  0.1200
  797MPD2    C411797   2.954   1.134  17.147  0.3731 -0.0445  1.0148
  797MPD2    C511798   3.047   1.069  17.224 -0.2170 -0.9158  0.2204
  797MPD2     H11799   2.925   1.414  17.315  0.7623  0.8907 -0.7319
  797MPD2    H111800   2.924   1.083  17.057 -1.6546  2.0459  0.5207
  797MPD2    H211801   3.190   1.091  17.383 -1.7666 -2.2328 -0.6962
  797MPD2    H311802   3.091   0.973  17.199  1.9834 -0.4498  2.2600
  797MPD2     N11803   2.823   1.315  17.080 -0.3596 -0.2931 -0.5416
  797MPD2    H511804   2.820   1.280  16.985 -2.4267  1.2154 -1.0465
  797MPD2    N111805   3.106   1.355  17.459  0.0832 -0.2355  0.0214
  797MPD2    H711806   3.072   1.450  17.447  2.0634  0.4959  0.2542
  798MPD2     C11807   2.742   1.980  17.378  0.3830 -0.2694 -0.5663
  798MPD2    C111808   2.825   1.915  17.288 -0.6337  0.8260 -0.0043
  798MPD2    C211809   2.943   1.869  17.341  0.3161  0.1623  0.4846
  798MPD2    C311810   2.978   1.884  17.475  0.1154 -0.2610 -0.1848
  798MPD2    C411811   2.886   1.942  17.564 -0.0015  0.0727 -0.4362
  798MPD2    C511812   2.765   1.988  17.511  0.4243 -0.4257  0.6866
  798MPD2     H11813   3.005   1.799  17.285 -0.2886 -0.9688  1.2251
  798MPD2    H111814   2.919   1.971  17.664 -0.7110 -1.5880  0.2863
  798MPD2    H211815   2.658   2.034  17.335  0.7412  0.0651 -0.8418
  798MPD2    H311816   2.701   2.044  17.578  2.4119  2.3869  0.2029
  798MPD2     N11817   3.093   1.808  17.516  0.2570  0.4974  0.6728
  798MPD2    H511818   3.130   1.744  17.446 -1.4374  1.4765 -1.1116
  798MPD2    N111819   2.775   1.894  17.158  0.0381  0.0310  0.1821
  798MPD2    H711820   2.677   1.910  17.140  0.4601  2.6358  0.1909
  799MPD2     C11821   2.218   2.743  14.958 -0.2964  0.1922 -0.6117
  799MPD2    C111822   2.250   2.667  14.844 -0.2288 -0.9436  0.3047
  799MPD2    C211823   2.206   2.704  14.717 -0.1816 -0.3722 -0.4444
  799MPD2    C311824   2.144   2.826  14.696 -0.2252  0.2952 -0.5368
  799MPD2    C411825   2.115   2.902  14.804 -0.1526 -0.0582 -0.6392
  799MPD2    C511826   2.144   2.853  14.932  0.1614  1.0538  0.4886
  799MPD2     H11827   2.213   2.626  14.642 -0.2922  0.6294 -1.4910
  799MPD2    H111828   2.065   2.998  14.802  1.6877  0.9557  0.6807
  799MPD2    H211829   2.249   2.711  15.057 -2.4363  0.3228  0.0976
  799MPD2    H311830   2.113   2.902  15.024 -1.7805 -2.3781  1.6692
  799MPD2     N11831   2.115   2.878  14.568 -0.3307 -0.2450  0.3174
  799MPD2    H511832   2.092   2.976  14.557 -3.0607 -0.8209  0.7458
  799MPD2    N111833   2.329   2.553  14.847 -0.0827 -0.1728 -0.0514
  799MPD2    H711834   2.336   2.499  14.761 -2.5101 -2.5455  1.2596
  800MPD2     C11835   2.687   3.672  13.865  0.0236  0.1961  0.1623
  800MPD2    C111836   2.818   3.621  13.856 -0.6428 -0.0042 -0.1559
  800MPD2    C211837   2.851   3.527  13.762 -0.2866 -0.0815 -0.4032
  800MPD2    C311838   2.748   3.486  13.673 -0.5266 -0.3968  0.3925
  800MPD2    C411839   2.615   3.531  13.693  0.4585 -0.9292  0.1900
  800MPD2    C511840   2.585   3.622  13.789 -0.4920 -0.1787 -0.1722
  800MPD2     H11841   2.953   3.492  13.750  1.3666  3.7842  2.1057
  800MPD2    H111842   2.535   3.500  13.626  0.0588  0.6040 -0.0390
  800MPD2    H211843   2.658   3.745  13.940 -0.5397 -0.4699  0.5814
  800MPD2    H311844   2.487   3.667  13.796 -0.0874  0.3152  2.1563
  800MPD2     N11845   2.786   3.411  13.564 -0.4450 -0.2554 -0.3361
  800MPD2    H511846   2.883   3.382  13.566  0.0467  1.1732 -2.3218
  800MPD2    N111847   2.907   3.680  13.938  0.1712 -0.1397 -0.5614
  800MPD2    H711848   2.872   3.748  14.003  2.3779  0.8835 -0.4396
  801MPD2     C11849   3.092   4.421  13.960 -0.2682  0.4835 -1.0025
  801MPD2    C111850   3.140   4.363  14.079  0.1610 -0.0368 -0.4929
  801MPD2    C211851   3.151   4.445  14.189  0.3368 -0.0070 -0.3429
  801MPD2    C311852   3.118   4.572  14.184 -0.0141  0.5175  0.5633
  801MPD2    C411853   3.079   4.630  14.066 -0.0693 -0.5999  0.0294
  801MPD2    C511854   3.065   4.554  13.954  0.5084  0.3383 -0.8068
  801MPD2     H11855   3.172   4.387  14.279  1.3663 -0.7405 -1.0591
  801MPD2    H111856   3.068   0.003  14.050 -1.5784 -0.6290  0.8716
  801MPD2    H211857   3.087   4.367  13.866  2.0516  0.8485 -1.3342
  801MPD2    H311858   3.030   4.590  13.858  0.3767  0.7270 -0.6116
  801MPD2     N11859   3.102   4.653  14.295  0.2147  0.1778  0.0144
  801MPD2    H511860   3.048   0.005  14.284 -2.1054 -1.4640 -1.4691
  801MPD2    N111861   3.164   4.222  14.087  0.1207 -0.3286  0.3290
  801MPD2    H711862   3.203   4.179  14.170  1.1979  1.9511  1.0112
  802MPD2     C11863   2.318   0.472   0.480  0.0527  0.5394 -0.1137
  802MPD2    C111864   2.202   0.403   0.460  0.4226 -0.6413  0.1340
  802MPD2    C211865   2.181   0.319   0.353  0.4405 -0.2402  0.1293
  802MPD2    C311866   2.288   0.296   0.273  0.2964 -0.3656  0.3002
  802MPD2    C411867   2.418   0.347   0.294  0.4448 -0.2543  0.1196
  802MPD2    C511868   2.432   0.439   0.403 -0.2488 -0.2268 -0.2184
  802MPD2     H11869   2.083   0.276   0.336 -0.2959  1.5156 -0.0774
  802MPD2    H111870   2.501   0.304   0.240 -1.5514 -0.9090 -2.4404
  802MPD2    H211871   2.338   0.517   0.577  0.8051 -1.9388  0.8740
  802MPD2    H311872   2.529   0.466   0.441 -0.4724  0.9772 -0.4890
  802MPD2     N11873   2.265   0.210   0.166 -0.2605  0.1603 -0.7273
  802MPD2    H511874   2.171   0.177   0.149 -0.1358 -0.5712  0.0083
  802MPD2    N111875   2.096   0.400   0.557  0.2231 -0.0865 -0.8389
  802MPD2    H711876   2.026   0.327   0.546  0.1501  0.0217 -1.0730
  803MPD2     C11877   3.044   2.743  12.110 -0.0780  0.7574  0.1488
  803MPD2    C111878   3.178   2.770  12.125  0.0354  0.4924 -0.2295
  803MPD2    C211879   3.222   2.743  12.254  0.2985  0.1104 -0.0171
  803MPD2    C311880   3.144   2.701  12.355  0.0352  0.8650  0.0292
  803MPD2    C411881   3.011   2.672  12.333 -0.6658 -0.7344  0.4848
  803MPD2    C511882   2.967   2.686  12.210  0.2609 -0.5778 -0.8882
  803MPD2     H11883   3.330   2.751  12.264  0.2562 -0.2213  0.7259
  803MPD2    H111884   2.951   2.626  12.411 -1.6981  1.1142  0.8033
  803MPD2    H211885   2.998   2.746  12.012  1.6563  3.6539 -0.5981
  803MPD2    H311886   2.866   2.658  12.181  0.3320 -0.5797 -1.1361
  803MPD2     N11887   3.197   2.667  12.483 -0.3027  0.5212 -0.0260
  803MPD2    H511888   3.131   2.636  12.553 -2.0954  2.1754 -0.9803
  803MPD2    N111889   3.270   2.822  12.022  0.0107 -0.1153 -1.0234
  803MPD2    H711890   3.368   2.816  12.045 -0.5862  1.0664  1.7817
  804MPD2     C11891   2.868   4.290  16.651 -0.3433  0.0491  0.2738
  804MPD2    C111892   2.891   4.287  16.782 -0.0213  0.2594  0.3222
  804MPD2    C211893   2.960   4.390  16.841 -0.1739 -0.2338  0.2800
  804MPD2    C311894   3.011   4.489  16.761  0.3962  0.4969 -0.5382
  804MPD2    C411895   2.986   4.493  16.627  0.7913  0.1279 -0.1938
  804MPD2    C511896   2.915   4.387  16.571 -0.6207 -0.0748  0.1146
  804MPD2     H11897   2.974   4.386  16.948  1.2147 -0.5238  0.0953
  804MPD2    H111898   3.023   4.579  16.572 -3.1763  1.9589 -0.0729
  804MPD2    H211899   2.808   4.213  16.602  3.0718 -2.0620 -0.5568
  804MPD2    H311900   2.893   4.388  16.465  1.2028 -0.7565 -0.2891
  804MPD2     N11901   3.078   4.598  16.822 -0.6972  0.4035 -0.1743
  804MPD2    H511902   3.093   4.589  16.922  1.2640  0.1574 -0.4849
  804MPD2    N111903   2.839   4.185  16.872  0.8324  0.3230  0.1132
  804MPD2    H711904   2.851   4.199  16.972  0.4042  0.0295  0.2048
  805MPD2     C11905   1.737   2.320  15.296 -0.1816  0.2353  0.2834
  805MPD2    C111906   1.680   2.431  15.353  0.2869 -0.3940  0.2470
  805MPD2    C211907   1.736   2.489  15.464  0.1484 -0.1959 -0.7092
  805MPD2    C311908   1.850   2.437  15.522 -0.1296 -0.4209 -0.7184
  805MPD2    C411909   1.898   2.313  15.474 -0.6749 -0.4116 -0.1510
  805MPD2    C511910   1.837   2.259  15.365  0.5013 -0.1545 -0.1810
  805MPD2     H11911   1.700   2.584  15.503  0.7534 -0.6518  0.9801
  805MPD2    H111912   1.980   2.256  15.516 -0.7732 -0.8956 -0.6267
  805MPD2    H211913   1.695   2.264  15.214 -1.6969 -0.5022  1.5597
  805MPD2    H311914   1.875   2.169  15.318  2.4358  2.4360 -3.6015
  805MPD2     N11915   1.903   2.504  15.628 -0.1118 -0.0902 -0.1851
  805MPD2    H511916   1.849   2.582  15.663  0.0012 -0.0534 -0.0913
  805MPD2    N111917   1.565   2.502  15.300  0.2688 -0.2326  0.8103
  805MPD2    H711918   1.535   2.588  15.345 -0.2088 -0.2447  0.5089
  806MPD2     C11919   2.052   1.837   0.893 -0.1039  0.4792 -0.1086
  806MPD2    C111920   2.153   1.752   0.845  0.0392  0.1133  0.3001
  806MPD2    C211921   2.260   1.802   0.769 -0.4880 -0.1675  0.1820
  806MPD2    C311922   2.276   1.939   0.759 -1.1017  0.3994 -0.1176
  806MPD2    C411923   2.163   2.017   0.789 -0.9429 -0.1981  0.4865
  806MPD2    C511924   2.056   1.962   0.857  0.2208 -0.1247 -0.6184
  806MPD2     H11925   2.337   1.733   0.736  1.3754  1.2583  1.5641
  806MPD2    H111926   2.171   2.123   0.765 -0.6911 -0.8980 -2.5282
  806MPD2    H211927   1.967   1.802   0.950  1.8985 -2.2879  1.1556
  806MPD2    H311928   1.968   2.020   0.883  1.0157 -0.7416  3.4199
  806MPD2     N11929   2.401   2.005   0.718 -0.6018 -0.4873  0.7884
  806MPD2    H511930   2.396   2.101   0.685 -2.2769 -0.9403 -0.3113
  806MPD2    N111931   2.146   1.610   0.880 -0.3832 -0.8193  0.0276
  806MPD2    H711932   2.094   1.576   0.959 -1.5629 -0.6611 -0.6834
  807MPD2     C11933   1.874   1.117   1.390  0.5350 -0.4088 -0.5095
  807MPD2    C111934   1.995   1.064   1.350  0.0817  0.1685 -0.2650
  807MPD2    C211935   2.043   0.941   1.405 -0.1032 -0.2307 -0.3635
  807MPD2    C311936   1.973   0.889   1.507  0.0557  1.1627  1.0598
  807MPD2    C411937   1.850   0.935   1.537 -0.1073 -0.4809  0.0900
  807MPD2    C511938   1.796   1.047   1.478  0.4225 -0.2942  0.4251
  807MPD2     H11939   2.138   0.904   1.368 -0.2885  0.4881 -1.5476
  807MPD2    H111940   1.786   0.898   1.617 -0.9906 -0.2183 -0.4918
  807MPD2    H211941   1.823   1.202   1.346 -2.7741 -2.1671 -0.1019
  807MPD2    H311942   1.694   1.072   1.505  0.5624 -1.3684  1.9676
  807MPD2     N11943   2.035   0.781   1.571 -0.3109 -0.2073 -0.3703
  807MPD2    H511944   2.125   0.750   1.535 -0.0124 -2.8304  2.5399
  807MPD2    N111945   2.075   1.121   1.249 -0.9389 -0.2165  0.5396
  807MPD2    H711946   2.163   1.073   1.232 -1.1082  0.3885 -2.1266
  808MPD2     C11947   2.693   3.500   9.935 -0.1540 -0.1467 -0.5588
  808MPD2    C111948   2.681   3.488   9.800  0.3178 -0.4554  0.5007
  808MPD2    C211949   2.706   3.597   9.722  0.1743  1.0334  0.5993
  808MPD2    C311950   2.760   3.716   9.770  0.1106 -0.1421  0.5444
  808MPD2    C411951   2.793   3.716   9.905  0.1029 -0.5450  0.0613
  808MPD2    C511952   2.752   3.611   9.979  0.7693  0.2301  0.1467
  808MPD2     H11953   2.672   3.587   9.619  1.6660  0.2867  0.1791
  808MPD2    H111954   2.823   3.811   9.949 -0.5901 -0.9651  1.4081
  808MPD2    H211955   2.662   3.426  10.007 -0.7003 -0.9256 -1.5969
  808MPD2    H311956   2.756   3.602  10.087  0.2903  0.7593  0.2135
  808MPD2     N11957   2.785   3.831   9.694  0.5026 -0.8533 -0.4596
  808MPD2    H511958   2.854   3.896   9.731 -0.9951  0.3906  0.1396
  808MPD2    N111959   2.639   3.366   9.745  0.3677 -0.2659  0.0806
  808MPD2    H711960   2.624   3.367   9.645 -0.1783  0.6749  0.1787
  809MPD2     C11961   3.047   3.757   8.760  0.9528 -0.1523  0.2403
  809MPD2    C111962   3.131   3.792   8.859  0.1261  0.5461 -0.1066
  809MPD2    C211963   3.081   3.871   8.962 -0.0191 -0.0214 -0.4581
  809MPD2    C311964   2.949   3.894   8.980  0.5469  0.1054  0.1952
  809MPD2    C411965   2.864   3.845   8.887  0.0760 -0.6384  0.7854
  809MPD2    C511966   2.914   3.781   8.776 -0.1987  0.4994  0.0400
  809MPD2     H11967   3.149   3.911   9.036 -0.5156  2.6891 -1.4859
  809MPD2    H111968   2.757   3.860   8.893  0.2631  0.6562  0.8160
  809MPD2    H211969   3.068   3.700   8.670 -0.4386 -3.1207  1.8106
  809MPD2    H311970   2.853   3.746   8.693  0.4624 -0.3217 -0.0949
  809MPD2     N11971   2.890   3.961   9.093 -0.8917  0.0305 -0.0657
  809MPD2    H511972   2.801   3.924   9.125 -2.1247  0.9383 -2.3843
  809MPD2    N111973   3.271   3.760   8.870  0.1186  1.0722  0.0020
  809MPD2    H711974   3.316   3.785   8.957  0.7451 -0.1343  0.0222
  810MPD2     C11975   2.633   3.250  10.404  0.4242 -0.2073  0.3690
  810MPD2    C111976   2.595   3.231  10.274 -0.5317 -0.6067  0.5351
  810MPD2    C211977   2.537   3.337  10.214 -0.3857  0.3556 -0.8163
  810MPD2    C311978   2.520   3.466  10.274  0.3523  0.5797  0.2235
  810MPD2    C411979   2.563   3.481  10.401 -0.4298  0.6883  0.2658
  810MPD2    C511980   2.606   3.368  10.466  0.3320 -0.7858 -0.2598
  810MPD2     H11981   2.502   3.324  10.113  2.6042 -0.8570 -1.6730
  810MPD2    H111982   2.542   3.567  10.465  1.8012  1.3992  0.0401
  810MPD2    H211983   2.675   3.176  10.470 -0.7463  0.3652  1.7428
  810MPD2    H311984   2.625   3.384  10.571 -0.7529  0.4934 -0.2555
  810MPD2     N11985   2.442   3.570  10.213  0.0876  0.6920 -0.1438
  810MPD2    H511986   2.430   3.654  10.268  0.1477  1.4302 -1.2629
  810MPD2    N111987   2.603   3.108  10.204  0.4014  0.2991  0.3738
  810MPD2    H711988   2.589   3.112  10.104  0.7944 -1.0105  0.2746
  811MPD2     C11989   2.078   2.760   9.660  0.4549  0.5816 -0.1228
  811MPD2    C111990   2.152   2.854   9.731  0.1219  0.1151 -0.6635
  811MPD2    C211991   2.122   2.978   9.701  0.1270 -0.8485 -0.9500
  811MPD2    C311992   2.029   3.022   9.611  0.4290 -0.3359  0.1317
  811MPD2    C411993   1.957   2.926   9.548  0.4988  0.0624 -0.5386
  811MPD2    C511994   1.981   2.789   9.564 -0.6457 -0.0604 -0.4115
  811MPD2     H11995   2.174   3.062   9.746 -0.1690 -0.3698 -1.4917
  811MPD2    H111996   1.888   2.957   9.470 -0.0763  0.3349  0.0800
  811MPD2    H211997   2.089   2.653   9.672  1.2395  0.7949  1.0791
  811MPD2    H311998   1.915   2.717   9.517 -0.2052 -0.0600 -1.0201
  811MPD2     N11999   2.010   3.165   9.596  0.1712  0.0571  0.6230
  811MPD2    H512000   2.076   3.226   9.644  0.0018  0.0380  0.8798
  811MPD2    N112001   2.243   2.812   9.835 -0.0163  0.5559  0.5611
  811MPD2    H712002   2.248   2.711   9.844 -1.4971  0.4710  0.3865
  812MPD2     C12003   1.425   2.817  12.036  0.1541  0.0512  0.3429
  812MPD2    C112004   1.344   2.924  12.066 -0.3976 -0.5058 -0.6448
  812MPD2    C212005   1.317   2.947  12.201 -0.1860 -0.1158  0.5388
  812MPD2    C312006   1.365   2.863  12.300  0.2754  0.6591  1.1740
  812MPD2    C412007   1.439   2.748  12.265  0.1808  0.0580  0.4489
  812MPD2    C512008   1.462   2.728  12.133 -0.4929  0.3289  0.1167
  812MPD2     H12009   1.243   3.020  12.232 -0.1691 -0.7999  2.1892
  812MPD2    H112010   1.476   2.667  12.327  1.7482 -0.3778 -1.0677
  812MPD2    H212011   1.447   2.791  11.933  0.1385 -3.6090  1.2475
  812MPD2    H312012   1.520   2.645  12.094 -1.1193 -0.5198  1.0357
  812MPD2     N12013   1.354   2.904  12.434 -0.3490  0.2091  0.0126
  812MPD2    H512014   1.307   2.993  12.446 -0.5885  0.0060  0.5914
  812MPD2    N112015   1.302   3.008  11.959  0.8387 -0.2151 -0.9855
  812MPD2    H712016   1.347   2.994  11.869  0.3072 -1.7440 -1.0141
  813MPD2     C12017   0.644   4.578  12.629 -0.1392  0.2805  0.0147
  813MPD2    C112018   0.575   4.686  12.662 -0.0235  0.4237 -0.1902
  813MPD2    C212019   0.453   4.676  12.728 -0.2235  1.1341 -0.6560
  813MPD2    C312020   0.403   4.558  12.761  0.8234 -1.2191  0.5581
  813MPD2    C412021   0.472   4.446  12.723 -0.1285  0.0817 -0.2953
  813MPD2    C512022   0.592   4.457  12.656  0.1978 -0.3363 -0.3500
  813MPD2     H12023   0.403   0.035  12.752  0.7654  1.0995  1.6197
  813MPD2    H112024   0.439   4.344  12.737  2.6268 -0.7268  0.3773
  813MPD2    H212025   0.738   4.587  12.575 -0.5543  3.0817 -0.2595
  813MPD2    H312026   0.655   4.371  12.635  0.7442 -0.5020  1.9507
  813MPD2     N12027   0.290   4.556  12.840 -0.3955 -0.3446 -0.0801
  813MPD2    H512028   0.253   4.647  12.866  1.8085 -0.3029  2.9284
  813MPD2    N112029   0.637   0.078  12.627 -0.1777  0.0887  0.5263
  813MPD2    H712030   0.737   0.082  12.607 -0.1990 -2.5730 -0.1338
  814MPD2     C12031   0.601   1.553  12.440 -0.2391 -0.2943 -0.8669
  814MPD2    C112032   0.698   1.539  12.338 -0.0211  0.0492 -0.7424
  814MPD2    C212033   0.813   1.616  12.349 -0.3868  0.3809  0.2358
  814MPD2    C312034   0.832   1.694  12.469 -0.7372  0.6157  0.3816
  814MPD2    C412035   0.741   1.695  12.568 -0.3691  0.2303  0.4286
  814MPD2    C512036   0.623   1.629  12.548  0.4158  0.6003  0.2642
  814MPD2     H12037   0.886   1.615  12.269 -0.4116 -0.9432  0.2151
  814MPD2    H112038   0.744   1.759  12.656 -0.2059  1.4967 -0.4930
  814MPD2    H212039   0.500   1.514  12.434 -0.8091  1.4413 -2.8705
  814MPD2    H312040   0.550   1.631  12.629  0.2497 -0.9290  0.1502
  814MPD2     N12041   0.945   1.772  12.490  0.7738  0.3119  0.6022
  814MPD2    H512042   0.952   1.816  12.582 -1.6050 -0.9804  1.4025
  814MPD2    N112043   0.676   1.466  12.220  0.0245  0.7634 -0.3150
  814MPD2    H712044   0.753   1.475  12.154  1.4840 -0.0511  1.2906
  815MPD2     C12045   1.614   4.305  11.570  0.1408  0.8180 -0.4231
  815MPD2    C112046   1.511   4.264  11.487 -0.6144 -0.1596 -0.2454
  815MPD2    C212047   1.381   4.276  11.532 -0.4215 -0.6443 -0.4939
  815MPD2    C312048   1.355   4.336  11.661 -0.1661 -0.0072 -0.0961
  815MPD2    C412049   1.464   4.372  11.744 -0.5327 -0.5580 -0.3801
  815MPD2    C512050   1.592   4.360  11.697  0.2244 -0.4945 -0.0039
  815MPD2     H12051   1.297   4.249  11.470 -1.5015  1.3244  0.1206
  815MPD2    H112052   1.449   4.426  11.837 -0.3858 -0.2361 -0.5444
  815MPD2    H212053   1.721   4.293  11.555  0.2369 -0.0164  1.0183
  815MPD2    H312054   1.680   4.400  11.747  1.2778 -1.8182 -0.7992
  815MPD2     N12055   1.222   4.354  11.702  0.4879  0.5548 -0.1829
  815MPD2    H512056   1.148   4.332  11.637 -0.7194 -2.1436  2.0928
  815MPD2    N112057   1.547   4.202  11.365  0.2351 -0.4324  0.2281
  815MPD2    H712058   1.647   4.187  11.352  0.3840 -0.4809  1.3748
  816MPD2     C12059   0.753   3.686  17.065  0.5016 -0.3288  0.0924
  816MPD2    C112060   0.860   3.770  17.071 -0.2730 -1.4316 -0.0120
  816MPD2    C212061   0.986   3.733  17.026  0.5468 -0.5177  0.4075
  816MPD2    C312062   1.001   3.603  16.996 -0.5115  0.4777 -0.0484
  816MPD2    C412063   0.891   3.519  16.992  0.0482 -0.1083  0.4936
  816MPD2    C512064   0.768   3.557  17.029  0.1828 -0.3911  0.7006
  816MPD2     H12065   1.078   3.790  17.033 -0.0785  0.3430  1.7667
  816MPD2    H112066   0.901   3.414  16.965 -3.6157 -1.0998  2.9632
  816MPD2    H212067   0.654   3.715  17.096  0.1243 -2.4011  0.8620
  816MPD2    H312068   0.691   3.482  17.044  0.8531 -1.7758 -2.8560
  816MPD2     N12069   1.131   3.557  16.951  0.3425  0.3978 -0.1462
  816MPD2    H512070   1.203   3.627  16.936  1.5687 -0.5377  1.3551
  816MPD2    N112071   0.841   3.904  17.118 -0.1710 -0.5217  0.0283
  816MPD2    H712072   0.746   3.937  17.129  0.1818  0.7416 -0.7208
  817MPD2     C12073   0.921   0.725   9.696 -0.4333 -0.1737  0.6269
  817MPD2    C112074   0.873   0.658   9.585 -0.3069 -0.7017  0.4712
  817MPD2    C212075   0.762   0.713   9.519  0.6799 -0.1600  0.4186
  817MPD2    C312076   0.722   0.841   9.532 -0.2672 -0.3051 -0.3937
  817MPD2    C412077   0.790   0.922   9.623  0.5112 -0.3276 -0.0556
  817MPD2    C512078   0.876   0.855   9.712 -0.2998  0.9738 -0.2980
  817MPD2     H12079   0.719   0.660   9.435 -3.5559  0.7044  2.0624
  817MPD2    H112080   0.773   1.029   9.625 -1.0625 -0.6037  1.3821
  817MPD2    H212081   0.983   0.674   9.768 -0.6345  0.0639  0.9645
  817MPD2    H312082   0.922   0.913   9.792  1.0526  0.6014 -0.8023
  817MPD2     N12083   0.623   0.893   9.440  0.1058 -0.1566  0.6517
  817MPD2    H512084   0.589   0.826   9.372  0.1065  1.5401 -1.0132
  817MPD2    N112085   0.923   0.538   9.542  0.5961 -0.6447  0.1076
  817MPD2    H712086   0.874   0.499   9.463 -0.3951  1.6224 -0.4141
  818MPD2     C12087   4.521   0.860   9.589 -0.2280 -0.0708  0.0557
  818MPD2    C112088   4.478   0.785   9.696  0.2813  0.3266  0.1994
  818MPD2    C212089   4.524   0.650   9.705 -0.5824  0.2479  0.2606
  818MPD2    C312090   4.603   0.588   9.601  0.9072 -0.3853 -0.2014
  818MPD2    C412091   4.648   0.673   9.500  1.3204  0.3017 -0.4904
  818MPD2    C512092   4.597   0.797   9.490 -0.3093  0.7749 -0.2488
  818MPD2     H12093   4.497   0.594   9.794 -2.1176 -0.4463 -0.6583
  818MPD2    H112094   4.721   0.638   9.428 -0.0841  0.6762 -2.1010
  818MPD2    H212095   4.497   0.965   9.574 -1.1194 -0.4666 -1.2757
  818MPD2    H312096   4.627   0.857   9.405  1.3174  1.0277  0.5081
  818MPD2     N12097   4.644   0.454   9.608 -0.4633 -0.5575  0.2999
  818MPD2    H512098   4.682   0.413   9.524  1.7383  1.6439  0.2227
  818MPD2    N112099   4.403   0.837   9.802  0.4748  0.1658 -0.2889
  818MPD2    H712100   4.386   0.777   9.882  1.5055 -1.2722 -1.1500
  819MPD2     C12101   2.307   2.280  15.921  0.1853  0.2250 -0.3057
  819MPD2    C112102   2.405   2.336  15.835  0.4247  1.0355 -0.2462
  819MPD2    C212103   2.535   2.324  15.865  0.7682  0.3226  0.3412
  819MPD2    C312104   2.575   2.257  15.981  0.8677 -0.1498  0.6257
  819MPD2    C412105   2.482   2.215  16.070 -0.4715  0.6223 -0.5251
  819MPD2    C512106   2.351   2.222  16.036 -0.4122 -0.8687  0.4177
  819MPD2     H12107   2.618   2.355  15.803  1.4128 -1.8741  0.0942
  819MPD2    H112108   2.502   2.158  16.159 -1.2630 -0.6832 -1.1852
  819MPD2    H212109   2.201   2.278  15.899  0.0909  0.0839  0.1634
  819MPD2    H312110   2.282   2.178  16.108 -0.6685  0.8061  1.2024
  819MPD2     N12111   2.714   2.241  16.000 -0.2130  0.1402  0.4657
  819MPD2    H512112   2.773   2.287  15.932 -0.0298 -1.4406 -0.4431
  819MPD2    N112113   2.368   2.391  15.709  0.1665 -0.0231  0.3092
  819MPD2    H712114   2.270   2.382  15.681 -0.1404  0.6621  1.1680
  820MPD2     C12115   1.832   2.963  15.187  0.1134  1.1900 -0.2434
  820MPD2    C112116   1.794   2.830  15.183 -0.4341 -0.4193  0.1545
  820MPD2    C212117   1.875   2.722  15.222  0.4798  0.8800 -0.1843
  820MPD2    C312118   1.995   2.757  15.283 -0.5922 -0.1771 -0.3706
  820MPD2    C412119   2.030   2.895  15.285 -0.8329 -0.0325  0.0218
  820MPD2    C512120   1.953   2.993  15.232 -0.1563  0.8064 -0.3476
  820MPD2     H12121   1.842   2.623  15.193  1.5226  0.2191  0.9219
  820MPD2    H112122   2.130   2.923  15.315 -0.5157 -0.8116 -0.2964
  820MPD2    H212123   1.767   3.047  15.166  0.0159  1.2085  0.1318
  820MPD2    H312124   1.985   3.096  15.233  0.4596  0.6028  0.9035
  820MPD2     N12125   2.084   2.662  15.332 -0.6326  0.0942 -0.7097
  820MPD2    H512126   2.163   2.692  15.388  0.3511 -1.4948 -1.2514
  820MPD2    N112127   1.665   2.790  15.137 -0.3722 -0.0910 -0.1927
  820MPD2    H712128   1.651   2.689  15.140  1.7644 -0.3690  1.1357
  821MPD2     C12129   2.869   3.421  12.782 -0.1496 -0.4889 -0.2846
  821MPD2    C112130   2.864   3.475  12.909  0.3915 -0.4153  0.3209
  821MPD2    C212131   2.915   3.600  12.929  0.3309 -0.4755 -0.2996
  821MPD2    C312132   2.963   3.681  12.826  0.0879  0.3998  0.1710
  821MPD2    C412133   2.948   3.631  12.698 -0.0352  0.0731 -0.6765
  821MPD2    C512134   2.907   3.505  12.683 -0.0864  0.7583 -0.2245
  821MPD2     H12135   2.908   3.638  13.030 -1.3057 -0.3315 -0.4666
  821MPD2    H112136   2.970   3.691  12.610 -0.1685 -0.1728 -0.8764
  821MPD2    H212137   2.832   3.324  12.752  0.1732 -0.4447 -0.8273
  821MPD2    H312138   2.879   3.464  12.587 -1.4851  0.0765  0.4717
  821MPD2     N12139   3.016   3.809  12.843 -0.4543 -0.5689 -0.0326
  821MPD2    H512140   3.073   3.850  12.769 -0.6042 -0.8369 -0.2966
  821MPD2    N112141   2.827   3.398  13.024 -0.4563  0.4166  0.0923
  821MPD2    H712142   2.815   3.441  13.115  1.7123  1.3247 -0.0380
  822MPD2     C12143   3.559   3.462  15.672 -0.4845 -0.4496 -0.0609
  822MPD2    C112144   3.552   3.435  15.805  0.6720 -0.1158  0.1861
  822MPD2    C212145   3.504   3.535  15.881 -0.1135 -0.0265 -0.2807
  822MPD2    C312146   3.458   3.656  15.831 -0.0557  0.3034 -0.3377
  822MPD2    C412147   3.471   3.680  15.700  0.0477  0.2004 -0.6221
  822MPD2    C512148   3.522   3.581  15.617 -0.5082  0.2334 -0.2172
  822MPD2     H12149   3.492   3.520  15.988  0.1206  2.1913  0.0694
  822MPD2    H112150   3.435   3.775  15.661  2.1493  1.1688 -0.1873
  822MPD2    H212151   3.619   3.388  15.620  0.3259  1.7401 -2.2377
  822MPD2    H312152   3.535   3.609  15.513 -0.3515  3.6891  0.7381
  822MPD2     N12153   3.401   3.748  15.919  0.8451 -0.1672 -0.3205
  822MPD2    H512154   3.373   3.718  16.012  0.3502  2.3949  0.3473
  822MPD2    N112155   3.593   3.316  15.868 -0.4830 -0.2324 -0.0987
  822MPD2    H712156   3.590   3.313  15.970 -0.5762 -1.9291 -0.1641
  823MPD2     C12157   3.073   3.946  16.643  0.2179 -0.2533  0.0397
  823MPD2    C112158   3.074   3.854  16.539  0.0065  0.5340  0.5646
  823MPD2    C212159   3.095   3.724  16.578 -0.3400  0.3318  0.3753
  823MPD2    C312160   3.093   3.690  16.713 -0.2807  0.2848 -0.1625
  823MPD2    C412161   3.091   3.781  16.816  0.0361  0.3884 -0.0037
  823MPD2    C512162   3.066   3.913  16.774  0.8045  0.1968  0.4815
  823MPD2     H12163   3.083   3.651  16.498  2.9758 -1.5772  1.6519
  823MPD2    H112164   3.094   3.754  16.921 -1.5391 -2.0585 -0.5812
  823MPD2    H212165   3.069   4.050  16.611  0.0472 -0.4122 -0.4584
  823MPD2    H312166   3.057   3.991  16.849  2.6907  0.8475  0.0575
  823MPD2     N12167   3.118   3.560  16.758  0.3900  0.2885 -0.2364
  823MPD2    H512168   3.123   3.548  16.859  0.0599 -0.9552 -0.3597
  823MPD2    N112169   3.099   3.909  16.407 -1.1641 -0.3625 -0.0362
  823MPD2    H712170   3.096   4.011  16.405 -0.8896 -0.3260  1.4079
  824MPD2     C12171   3.900   2.556  15.674  0.6842  0.1052  0.5045
  824MPD2    C112172   3.979   2.660  15.729 -0.4566  0.7338 -0.4144
  824MPD2    C212173   4.107   2.676  15.689 -0.0916  0.3040 -0.4231
  824MPD2    C312174   4.172   2.593  15.596 -0.2123 -0.4888 -0.0874
  824MPD2    C412175   4.101   2.476  15.563  0.1498 -0.1701 -0.1170
  824MPD2    C512176   3.970   2.461  15.603 -0.3374  0.1873 -0.9186
  824MPD2     H12177   4.159   2.762  15.731 -0.4692  0.2497  0.1606
  824MPD2    H112178   4.142   2.399  15.499 -0.1065  0.3106 -0.8572
  824MPD2    H212179   3.793   2.542  15.689  0.7585 -0.4909  0.5028
  824MPD2    H312180   3.912   2.378  15.565  0.4414 -1.3349  1.2613
  824MPD2     N12181   4.307   2.616  15.556  0.8193 -0.3490  0.5365
  824MPD2    H512182   4.350   2.698  15.598 -3.2458  2.0881 -0.0810
  824MPD2    N112183   3.922   2.743  15.832 -0.4826  0.6640 -0.3223
  824MPD2    H712184   3.983   2.819  15.861 -1.0539  0.6536  0.9169
  825MPD2     C12185   0.044   2.990  15.042 -0.3891  0.3039 -0.4668
  825MPD2    C112186   0.045   2.997  15.182 -0.1610 -0.1545 -0.0187
  825MPD2    C212187   0.053   3.118  15.240  0.1338 -0.3547  0.4882
  825MPD2    C312188   0.078   3.238  15.170 -0.8116 -0.4909 -0.2168
  825MPD2    C412189   0.082   3.228  15.034 -0.1206  0.9498 -0.5082
  825MPD2    C512190   0.064   3.106  14.977  0.2051  1.0810 -0.0827
  825MPD2     H12191   0.045   3.121  15.349 -0.4635 -0.8544  0.4605
  825MPD2    H112192   0.085   3.324  14.983 -0.2561  0.7905 -0.8148
  825MPD2    H212193   0.026   2.899  14.986  0.2468  0.6047 -1.1540
  825MPD2    H312194   0.059   3.105  14.868 -0.5079 -0.7343 -0.0296
  825MPD2     N12195   0.093   3.369  15.230 -0.4930 -0.1727 -0.3377
  825MPD2    H512196   0.114   3.448  15.169 -0.9178  1.4441  1.6293
  825MPD2    N112197   0.021   2.881  15.251  0.5868  0.5176 -0.1260
  825MPD2    H712198   0.013   2.794  15.199 -1.8282  1.0052 -0.5762
  826MPD2     C12199   4.141   2.584  13.644 -0.0334  0.1477 -0.1859
  826MPD2    C112200   4.245   2.674  13.623 -0.2412  0.3204 -0.3546
  826MPD2    C212201   4.214   2.794  13.570 -0.4833  0.5373 -0.0238
  826MPD2    C312202   4.088   2.828  13.532  0.6657  0.4237  0.6315
  826MPD2    C412203   3.992   2.732  13.533  0.5522  0.2046 -0.0432
  826MPD2    C512204   4.020   2.613  13.591 -0.7262  0.3879 -0.3818
  826MPD2     H12205   4.284   2.875  13.560 -0.2530  0.5284  1.6474
  826MPD2    H112206   3.896   2.741  13.483  1.0854  3.1286 -0.5553
  826MPD2    H212207   4.162   2.486  13.686 -0.5446  0.6592  1.2566
  826MPD2    H312208   3.945   2.535  13.586 -1.3932  0.9112  1.6897
  826MPD2     N12209   4.050   2.957  13.484 -0.0786  0.1111  0.8158
  826MPD2    H512210   3.953   2.987  13.473 -0.3324 -0.7436  0.7637
  826MPD2    N112211   4.368   2.636  13.680  0.3371 -0.2875  0.1546
  826MPD2    H712212   4.380   2.541  13.714  1.0442 -0.2162  0.1092
  827MPD2     C12213   0.239   4.380   9.662 -0.4025  0.8235  0.6247
  827MPD2    C112214   0.247   4.248   9.707  0.2136  0.7929 -0.7038
  827MPD2    C212215   0.166   4.153   9.651 -0.7990  0.4005  0.1868
  827MPD2    C312216   0.072   4.193   9.548  0.0394  0.0692 -0.7989
  827MPD2    C412217   0.068   4.323   9.507 -0.2430  0.1754 -0.6725
  827MPD2    C512218   0.153   4.415   9.564  0.3122 -0.1461  0.3233
  827MPD2     H12219   0.158   4.049   9.680  1.6946  0.2866  0.4392
  827MPD2    H112220   0.001   4.362   9.432  1.2807 -0.1958 -2.2366
  827MPD2    H212221   0.296   4.461   9.706  1.4091 -1.5783  2.7754
  827MPD2    H312222   0.145   4.517   9.529  0.6463 -0.0150  0.6195
  827MPD2     N12223   4.733   4.095   9.484 -0.4224  0.4987 -0.6432
  827MPD2    H512224   4.725   4.010   9.540  2.5128 -0.8114 -2.2114
  827MPD2    N112225   0.346   4.228   9.803 -0.3860 -0.0841  0.4049
  827MPD2    H712226   0.413   4.302   9.823  1.5599 -1.5337 -0.8009
  828MPD2     C12227   3.906   3.961  12.185  0.1399 -0.5341  1.1994
  828MPD2    C112228   3.853   3.904  12.071  0.3079 -0.7527  0.1792
  828MPD2    C212229   3.942   3.846  11.985  0.3388  0.3590  0.1170
  828MPD2    C312230   4.077   3.833  12.013  0.2272 -0.7346 -0.1238
  828MPD2    C412231   4.121   3.891  12.127  0.0951  0.1673 -0.4649
  828MPD2    C512232   4.037   3.954  12.219  0.1124  0.5340  0.3985
  828MPD2     H12233   3.899   3.807  11.894 -1.6400  0.4158  1.0239
  828MPD2    H112234   4.224   3.876  12.156 -0.4878 -2.8467  0.0648
  828MPD2    H212235   3.842   4.023  12.246  2.5151  0.7365  2.4177
  828MPD2    H312236   4.084   4.001  12.305 -0.2010 -0.8409  1.3229
  828MPD2     N12237   4.167   3.781  11.920  0.7605 -0.3772  0.1449
  828MPD2    H512238   4.265   3.792  11.943  1.3278  0.9694 -2.8362
  828MPD2    N112239   3.718   3.905  12.035 -0.1925 -0.8902  0.1875
  828MPD2    H712240   3.696   3.857  11.948  1.1914  1.5697 -1.5344
  829MPD2     C12241   3.527   4.052  11.248  0.3067  0.6672 -0.3310
  829MPD2    C112242   3.396   4.008  11.284  0.4618 -0.1627  0.6527
  829MPD2    C212243   3.371   3.991  11.419 -0.4014 -0.0762  0.2592
  829MPD2    C312244   3.470   4.001  11.519 -0.8205 -0.2803  0.5685
  829MPD2    C412245   3.592   4.060  11.480  0.7288  0.2017 -0.2808
  829MPD2    C512246   3.623   4.075  11.346  0.7910 -0.1158 -0.3740
  829MPD2     H12247   3.279   3.940  11.445 -0.4196 -0.1226  0.1073
  829MPD2    H112248   3.669   4.081  11.554  0.9987 -1.7111 -0.0067
  829MPD2    H212249   3.556   4.069  11.145  1.8222 -3.3283 -0.5717
  829MPD2    H312250   3.720   4.114  11.319  1.4272 -0.6889  1.0779
  829MPD2     N12251   3.453   3.991  11.656  0.0941  0.4075  0.3361
  829MPD2    H512252   3.536   3.987  11.714 -1.3398 -1.6774  2.2621
  829MPD2    N112253   3.295   3.981  11.189 -0.0525  0.8975  0.0196
  829MPD2    H712254   3.320   3.989  11.090  1.6822  1.2437  0.4760
  830MPD2     C12255   3.092   2.402  15.553  0.1138 -0.7210  0.1426
  830MPD2    C112256   3.163   2.301  15.608 -0.2828  0.5779 -0.3340
  830MPD2    C212257   3.287   2.273  15.562  0.2712 -0.3604  0.8168
  830MPD2    C312258   3.333   2.340  15.449  0.4783 -0.2544 -0.2692
  830MPD2    C412259   3.258   2.443  15.395 -0.1676 -0.0613 -0.0295
  830MPD2    C512260   3.137   2.472  15.445  0.9158  0.1949 -0.4599
  830MPD2     H12261   3.344   2.194  15.610 -1.2914 -2.4756 -0.8355
  830MPD2    H112262   3.278   2.487  15.298  0.0226  1.4236  0.6842
  830MPD2    H212263   3.003   2.435  15.605  0.9688  0.9256  0.5525
  830MPD2    H312264   3.073   2.544  15.394 -1.1159 -2.0067 -1.0443
  830MPD2     N12265   3.452   2.301  15.377 -0.5463  0.2289  0.3464
  830MPD2    H512266   3.453   2.339  15.283 -0.2146 -0.0945  0.2171
  830MPD2    N112267   3.102   2.246  15.727 -0.2861 -0.0729  0.5919
  830MPD2    H712268   3.016   2.286  15.761 -1.2099 -1.9498  0.4582
  831MPD2     C12269   3.626   3.811  16.231 -0.3281  0.4321 -0.1307
  831MPD2    C112270   3.671   3.696  16.167 -0.2197 -0.6727  0.0586
  831MPD2    C212271   3.601   3.574  16.199  0.9745 -0.0003  0.2540
  831MPD2    C312272   3.476   3.581  16.268  0.1653  0.8356 -0.2619
  831MPD2    C412273   3.451   3.696  16.337 -0.4243  0.4138  0.3924
  831MPD2    C512274   3.524   3.812  16.317 -0.1292  0.3762 -0.0371
  831MPD2     H12275   3.621   3.481  16.147  0.2841 -0.1205  0.1983
  831MPD2    H112276   3.364   3.698  16.401  2.3348  2.9285  4.0468
  831MPD2    H212277   3.670   3.907  16.206 -1.9849  0.6417 -2.1585
  831MPD2    H312278   3.496   3.910  16.353 -0.1188  0.3085  0.1554
  831MPD2     N12279   3.380   3.472  16.268  0.1596 -0.0078  0.0876
  831MPD2    H512280   3.297   3.489  16.323  0.9497  0.8629  1.0115
  831MPD2    N112281   3.775   3.699  16.070 -0.9039 -0.2739  0.2821
  831MPD2    H712282   3.789   3.788  16.022  0.1825 -0.0293  1.0501
  832MPD2     C12283   1.798   4.683  17.124 -0.5874 -0.0659  0.5555
  832MPD2    C112284   1.819   0.081  17.086  0.4795  0.1794  0.3298
  832MPD2    C212285   1.720   0.139  17.006 -0.1503 -0.4630  0.2047
  832MPD2    C312286   1.614   0.065  16.957  0.4221 -0.8927 -0.7627
  832MPD2    C412287   1.604   4.668  16.990  0.7887 -0.2744  0.7040
  832MPD2    C512288   1.690   4.617  17.081 -0.3838  0.5879  0.3783
  832MPD2     H12289   1.741   0.243  16.982  1.0661 -0.8073 -0.2129
  832MPD2    H112290   1.519   4.616  16.948  1.1771 -1.0015  0.8115
  832MPD2    H212291   1.859   4.644  17.205  1.2705  2.1851  0.2772
  832MPD2    H312292   1.669   4.517  17.118  1.2223  0.0334 -0.1672
  832MPD2     N12293   1.509   0.120  16.885 -0.4303  0.4750  0.4481
  832MPD2    H512294   1.427   0.062  16.872  0.3615 -0.4852 -0.2922
  832MPD2    N112295   1.929   0.149  17.139 -0.0746  0.1454 -0.2421
  832MPD2    H712296   1.969   0.103  17.220 -1.4705  1.0541  0.9736
  833MPD2     C12297   4.049   1.675  12.724 -0.2209  0.3611 -0.9061
  833MPD2    C112298   4.014   1.761  12.617  0.2983  0.3025  0.4499
  833MPD2    C212299   4.039   1.725  12.487  1.4108  0.1020 -0.2898
  833MPD2    C312300   4.100   1.605  12.460 -0.4222  0.0436 -0.4550
  833MPD2    C412301   4.143   1.525  12.569  0.3302  0.8912 -0.8961
  833MPD2    C512302   4.124   1.563  12.698 -0.0408  0.0254  0.8707
  833MPD2     H12303   4.001   1.781  12.402 -0.7279 -1.1614 -0.1487
  833MPD2    H112304   4.206   1.439  12.552  1.2298  0.9908  2.0251
  833MPD2    H212305   4.037   1.699  12.829  1.0468 -1.4836 -0.3388
  833MPD2    H312306   4.162   1.501  12.779 -1.8934  0.1798  1.8685
  833MPD2     N12307   4.130   1.559  12.334  0.4924  0.0739  0.0253
  833MPD2    H512308   4.151   1.460  12.331 -0.8965 -0.2240  0.4914
  833MPD2    N112309   3.940   1.874  12.655 -0.4011  0.6001 -0.0511
  833MPD2    H712310   3.909   1.888  12.750 -3.5571 -1.8610 -0.6967
  834MPD2     C12311   3.898   0.941  11.611  0.0053  0.4712  0.0301
  834MPD2    C112312   3.960   1.039  11.540 -0.5638  0.3647  0.0081
  834MPD2    C212313   3.987   1.165  11.591  0.1326 -0.6128 -0.3776
  834MPD2    C312314   3.926   1.199  11.716  0.3100  0.3298  0.3959
  834MPD2    C412315   3.865   1.100  11.790 -0.0312  0.3222 -0.2406
  834MPD2    C512316   3.857   0.969  11.739  0.0875  0.1664 -0.3103
  834MPD2     H12317   4.039   1.232  11.524 -1.3818 -0.3403 -1.2792
  834MPD2    H112318   3.823   1.121  11.887 -0.5284 -2.5473  0.1697
  834MPD2    H212319   3.871   0.842  11.575 -0.6424 -0.2278  2.4453
  834MPD2    H312320   3.811   0.886  11.791 -1.1142 -0.0482 -1.7046
  834MPD2     N12321   3.969   1.320  11.766  0.1989  0.0351 -0.1838
  834MPD2    H512322   4.035   1.370  11.707  1.2688 -1.3466 -0.1781
  834MPD2    N112323   4.009   0.994  11.413 -0.8131 -0.6642  0.1239
  834MPD2    H712324   3.974   0.903  11.387 -0.0963 -0.4151 -1.7142
  835MPD2     C12325   4.215   4.039  10.653 -0.4257 -0.3994 -0.4110
  835MPD2    C112326   4.123   4.034  10.761  0.3545  0.4000  0.1574
  835MPD2    C212327   4.177   4.032  10.887 -0.2345  0.3175  0.0639
  835MPD2    C312328   4.312   4.047  10.906 -0.2308  0.0218 -0.6572
  835MPD2    C412329   4.400   4.045  10.798 -0.1145  0.1598  0.5937
  835MPD2    C512330   4.351   4.034  10.666 -0.0610  0.9116 -0.4453
  835MPD2     H12331   4.102   4.040  10.965 -0.8899 -0.4543 -0.4962
  835MPD2    H112332   4.508   4.043  10.810 -0.4684 -0.8528  3.5363
  835MPD2    H212333   4.179   4.044  10.551 -0.0201 -1.6278 -0.6132
  835MPD2    H312334   4.408   4.023  10.575  1.7856 -1.5051  0.9896
  835MPD2     N12335   4.369   4.061  11.034 -0.0833 -0.1911 -0.6591
  835MPD2    H512336   4.469   4.077  11.032 -0.2921  0.9178 -2.1902
  835MPD2    N112337   3.984   4.041  10.748 -0.5386 -0.7596  0.5528
  835MPD2    H712338   3.928   4.053  10.831 -1.1434 -2.8764  0.4591
  836MPD2     C12339   4.299   4.171  11.896  0.2800 -0.2783 -0.5262
  836MPD2    C112340   4.216   4.118  11.794 -0.2284  0.2930  0.4323
  836MPD2    C212341   4.078   4.148  11.797  0.2332 -0.6183  0.3197
  836MPD2    C312342   4.024   4.216  11.905  0.2493  0.1289  0.7021
  836MPD2    C412343   4.106   4.280  11.995  0.2873 -0.2438  0.2106
  836MPD2    C512344   4.241   4.261  11.978  0.7790 -0.2940 -0.1219
  836MPD2     H12345   4.016   4.116  11.714  0.3277  2.8436 -1.0984
  836MPD2    H112346   4.085   4.349  12.077 -0.5409 -0.2149 -0.0351
  836MPD2    H212347   4.407   4.178  11.889  0.2862 -0.0728 -0.1699
  836MPD2    H312348   4.307   4.319  12.041  0.8211  0.4896 -0.8852
  836MPD2     N12349   3.889   4.240  11.920 -0.7372 -0.7462 -0.2264
  836MPD2    H512350   3.863   4.307  11.992  0.5513  2.1425 -2.4670
  836MPD2    N112351   4.270   4.064  11.681 -0.1359 -0.2511  0.0826
  836MPD2    H712352   4.199   4.040  11.612 -1.4350 -2.1605  2.0645
  837MPD2     C12353   2.373   3.797   9.721  0.3173 -0.3283  0.0737
  837MPD2    C112354   2.266   3.834   9.640 -0.6819 -0.3055  1.0799
  837MPD2    C212355   2.217   3.964   9.658  0.3560  0.0238  0.7457
  837MPD2    C312356   2.275   4.046   9.757  0.0788 -0.1108  0.2114
  837MPD2    C412357   2.387   4.019   9.833 -0.9036 -0.2418 -0.1052
  837MPD2    C512358   2.435   3.890   9.811 -0.5467 -0.0057  0.8538
  837MPD2     H12359   2.136   4.005   9.599  0.7739  1.7402  1.3751
  837MPD2    H112360   2.446   4.075   9.905 -1.4561  1.6366 -1.1094
  837MPD2    H212361   2.409   3.695   9.720 -1.3769 -0.9526  3.2978
  837MPD2    H312362   2.521   3.856   9.867 -0.3759 -0.5760  0.2528
  837MPD2     N12363   2.213   4.171   9.764 -0.3789 -0.3104  0.6384
  837MPD2    H512364   2.148   4.182   9.687  2.2735 -3.0447 -2.0002
  837MPD2    N112365   2.193   3.738   9.566 -0.1981 -0.4288  0.3578
  837MPD2    H712366   2.118   3.771   9.506 -0.0138  0.3283  0.5399
  838MPD2     C12367   1.148   2.411  12.290 -0.8251  0.3683 -0.9691
  838MPD2    C112368   1.067   2.317  12.243  0.1068  0.3730 -0.1132
  838MPD2    C212369   0.954   2.286  12.314 -0.6822  0.1050  0.2149
  838MPD2    C312370   0.909   2.354  12.427 -0.1132 -0.0466 -0.1516
  838MPD2    C412371   0.998   2.453  12.473 -0.1054 -0.7993  0.4460
  838MPD2    C512372   1.117   2.485  12.404  0.9081 -0.3564  0.0987
  838MPD2     H12373   0.900   2.201  12.274  0.2047  0.4870 -1.7891
  838MPD2    H112374   0.990   2.503  12.568  2.6820  2.1857 -0.8908
  838MPD2    H212375   1.244   2.423  12.242 -0.7140  0.4791 -0.7193
  838MPD2    H312376   1.190   2.557  12.438  1.3631 -0.6316 -0.2874
  838MPD2     N12377   0.789   2.320  12.493  0.1208 -0.3595  0.2987
  838MPD2    H512378   0.741   2.247  12.441  0.0836  0.7665 -1.2610
  838MPD2    N112379   1.078   2.248  12.120 -0.4115  0.2800 -0.0804
  838MPD2    H712380   1.006   2.177  12.106  0.8737 -0.3740 -3.1393
  839MPD2     C12381   0.507   1.731  11.943  0.5287  0.0285  0.1965
  839MPD2    C112382   0.573   1.717  11.823 -0.3238  0.3993  0.2565
  839MPD2    C212383   0.696   1.771  11.804 -0.6006 -0.2157 -0.3885
  839MPD2    C312384   0.747   1.853  11.904  0.8765  0.5313 -0.1321
  839MPD2    C412385   0.678   1.878  12.018 -0.0923  0.2650  0.1101
  839MPD2    C512386   0.556   1.819  12.037 -0.3304  0.0103 -0.1593
  839MPD2     H12387   0.736   1.755  11.704  2.1124 -2.1834  0.9980
  839MPD2    H112388   0.731   1.924  12.101  2.7422 -1.5094 -0.7365
  839MPD2    H212389   0.407   1.695  11.961  0.2363  0.1448 -1.2108
  839MPD2    H312390   0.509   1.841  12.132  0.9880 -0.3981  0.5758
  839MPD2     N12391   0.875   1.918  11.890 -0.0065  0.4720  0.7874
  839MPD2    H512392   0.900   1.975  11.970  0.9968  3.1946 -1.4885
  839MPD2    N112393   0.523   1.639  11.711 -0.1309 -0.5473 -0.4326
  839MPD2    H712394   0.588   1.608  11.640 -0.8952  0.4753 -1.5855
  840MPD2     C12395   0.901   4.433   9.812 -0.2925  0.7406  0.2614
  840MPD2    C112396   0.897   4.388   9.944 -0.1567  0.4992  0.1818
  840MPD2    C212397   0.979   4.443  10.038  0.1395 -0.5999  0.0511
  840MPD2    C312398   1.074   4.542  10.004  0.6851  0.4333 -0.0952
  840MPD2    C412399   1.077   4.587   9.879 -0.5676 -0.3073  0.1366
  840MPD2    C512400   0.997   4.527   9.782 -0.1600  0.2795  0.4238
  840MPD2     H12401   0.966   4.413  10.142 -1.7357  2.8095  0.8040
  840MPD2    H112402   1.137   4.669   9.841  1.0973 -1.0151  1.2502
  840MPD2    H212403   0.854   4.374   9.734 -0.8111 -0.1263  1.2327
  840MPD2    H312404   1.020   4.571   9.686 -0.6870 -0.7423 -0.1769
  840MPD2     N12405   1.161   4.594  10.104  0.1756 -0.1528 -0.2143
  840MPD2    H512406   1.226   4.657  10.058  2.0058 -1.4101  0.6624
  840MPD2    N112407   0.796   4.301   9.978 -0.2837  0.6047 -0.1289
  840MPD2    H712408   0.749   4.268   9.895 -0.4387  1.7618 -0.5085
  841MPD2     C12409   0.376   4.600  14.619 -0.2745 -0.1679 -0.4992
  841MPD2    C112410   0.423   4.520  14.717  0.0124  0.6024  0.4741
  841MPD2    C212411   0.549   4.533  14.766 -0.3652 -0.1256 -0.9908
  841MPD2    C312412   0.627   4.640  14.719  0.0852  0.4748  0.1045
  841MPD2    C412413   0.571   4.727  14.625  0.0470 -0.4540 -0.2451
  841MPD2    C512414   0.446   4.709  14.577 -0.1623 -0.1781 -0.2761
  841MPD2     H12415   0.579   4.468  14.847 -1.3936  0.8425  0.1687
  841MPD2    H112416   0.622   0.082  14.591 -0.7736 -0.0666 -0.4729
  841MPD2    H212417   0.272   4.594  14.588 -0.1768  2.0620 -1.2341
  841MPD2    H312418   0.416   0.044  14.499 -0.3311  0.0081 -0.0483
  841MPD2     N12419   0.765   4.644  14.759  0.5810  0.2015 -0.2972
  841MPD2    H512420   0.810   4.573  14.815  0.6197 -0.0438 -0.6385
  841MPD2    N112421   0.347   4.403  14.747  0.4657  0.2867  0.1852
  841MPD2    H712422   0.375   4.352  14.830 -0.1250 -0.0167  0.2004
  842MPD2     C12423   0.963   0.600  16.935  0.2726 -0.1113  0.3804
  842MPD2    C112424   0.854   0.580  16.852  0.1883  0.5341 -0.5083
  842MPD2    C212425   0.774   0.469  16.870 -0.1087  0.4435  0.0238
  842MPD2    C312426   0.794   0.392  16.982 -0.1014 -0.0235 -0.0681
  842MPD2    C412427   0.897   0.412  17.065 -0.5743  0.2725 -0.3701
  842MPD2    C512428   0.991   0.511  17.041  0.6334  0.3175  0.3018
  842MPD2     H12429   0.680   0.459  16.816  0.1528 -1.4151 -0.0676
  842MPD2    H112430   0.919   0.346  17.148  1.3229  1.4959  0.1146
  842MPD2    H212431   1.035   0.682  16.935  0.9094 -0.6816 -2.3609
  842MPD2    H312432   1.074   0.521  17.110  0.5721 -0.0277  0.4244
  842MPD2     N12433   0.691   0.300  17.012  0.0204 -0.1175 -0.3750
  842MPD2    H512434   0.620   0.288  16.940  1.2911 -2.9180 -1.1350
  842MPD2    N112435   0.828   0.678  16.747  0.6597 -0.0337  0.1043
  842MPD2    H712436   0.889   0.760  16.751  3.7321 -2.3049 -0.2479
  843MPD2     C12437   2.803   1.513   0.029 -0.2660  0.6032 -0.6127
  843MPD2    C112438   2.908   1.422   0.057 -0.9228  0.6241 -0.1976
  843MPD2    C212439   3.015   1.455   0.137 -1.2962  0.5659  0.0820
  843MPD2    C312440   3.030   1.590   0.178  0.2988 -0.0505 -0.2067
  843MPD2    C412441   2.935   1.677   0.145  0.0035  0.1867 -0.6089
  843MPD2    C512442   2.820   1.643   0.072 -0.0927 -0.0309  0.5549
  843MPD2     H12443   3.085   1.374   0.153 -1.0588  0.6641 -0.4689
  843MPD2    H112444   2.948   1.781   0.173  2.7657 -1.3126  3.5385
  843MPD2    H212445   2.712   1.488  17.711 -2.1810  0.0513  2.8802
  843MPD2    H312446   2.736   1.712   0.062  0.2290  0.2880  0.0271
  843MPD2     N12447   3.147   1.637   0.240 -0.3354  0.4755  0.2438
  843MPD2    H512448   3.148   1.737   0.255 -2.2151  0.5141  0.0812
  843MPD2    N112449   2.917   1.294   0.001  0.3692  0.2293 -0.3614
  843MPD2    H712450   2.991   1.234   0.037 -0.0270  1.4007  2.4122
  844MPD2     C12451   1.343   4.350  16.541 -0.4887 -0.2566 -0.4602
  844MPD2    C112452   1.391   4.419  16.439 -0.7776 -0.3244 -0.2532
  844MPD2    C212453   1.491   4.511  16.469 -0.0719  0.6890  0.2532
  844MPD2    C312454   1.539   4.537  16.595 -0.4650 -0.7748  0.0032
  844MPD2    C412455   1.489   4.459  16.694 -0.2893 -0.1451  0.0069
  844MPD2    C512456   1.394   4.359  16.665  0.0565  0.0984 -0.1367
  844MPD2     H12457   1.529   4.574  16.390 -2.0407  1.1087 -0.3495
  844MPD2    H112458   1.509   4.470  16.800 -1.1024  1.6946 -0.0375
  844MPD2    H212459   1.274   4.266  16.540  0.0245 -0.6766 -0.5800
  844MPD2    H312460   1.343   4.301  16.741 -0.5147 -0.4459 -0.9441
  844MPD2     N12461   1.643   4.629  16.633 -0.0544  0.0090 -0.2382
  844MPD2    H512462   1.681   4.621  16.726  0.4722  1.2680 -0.3550
  844MPD2    N112463   1.334   4.410  16.310  0.0143  0.4462  0.2126
  844MPD2    H712464   1.403   4.437  16.241  0.6906 -1.2705  0.2210
  845MPD2     C12465   2.019   0.897  16.793  0.0918 -0.4359  0.4607
  845MPD2    C112466   2.038   0.807  16.901  0.2587 -0.0642  0.7697
  845MPD2    C212467   2.014   0.671  16.879  0.1783  0.3153  0.1970
  845MPD2    C312468   1.970   0.621  16.755 -0.5925  0.3192  0.6949
  845MPD2    C412469   1.962   0.708  16.653  0.4717 -0.3210  0.1111
  845MPD2    C512470   1.980   0.845  16.674 -0.2825 -0.2755  0.0818
  845MPD2     H12471   2.023   0.600  16.961  0.0474  0.9156  0.7289
  845MPD2    H112472   1.941   0.679  16.551  0.5854 -0.1594  0.0425
  845MPD2    H212473   2.038   1.002  16.811  1.8022 -0.3390 -1.9763
  845MPD2    H312474   1.961   0.913  16.592 -1.0775  0.9649  1.2778
  845MPD2     N12475   1.945   0.480  16.758 -0.2557  0.2699 -0.2807
  845MPD2    H512476   1.956   0.430  16.846 -2.6292  1.6296  0.7826
  845MPD2    N112477   2.071   0.867  17.026 -0.3567 -0.0430 -0.5466
  845MPD2    H712478   2.095   0.965  17.021 -1.1848  0.1392 -0.9761
  846MPD2     C12479   3.652   1.243  13.778  0.2227  0.1547 -0.7260
  846MPD2    C112480   3.517   1.265  13.784  0.1346 -0.2244  0.3052
  846MPD2    C212481   3.456   1.303  13.898  0.1897  0.6864  1.3196
  846MPD2    C312482   3.539   1.339  14.004 -0.0786  0.4679 -0.3846
  846MPD2    C412483   3.677   1.327  14.001 -0.2086  0.1716  0.5016
  846MPD2    C512484   3.728   1.264  13.886 -0.0330  0.4054 -0.2360
  846MPD2     H12485   3.348   1.308  13.901  0.2882  3.4437  0.3690
  846MPD2    H112486   3.743   1.351  14.084  2.0464 -1.1163 -0.9063
  846MPD2    H212487   3.693   1.184  13.697  0.8196 -1.0398  0.4618
  846MPD2    H312488   3.832   1.236  13.873  0.4463  2.3134 -0.4056
  846MPD2     N12489   3.468   1.397  14.109 -0.5137 -0.0970 -0.8203
  846MPD2    H512490   3.367   1.403  14.099 -0.6385  2.7017  1.9023
  846MPD2    N112491   3.431   1.259  13.669 -0.2854  0.0513 -0.2236
  846MPD2    H712492   3.333   1.277  13.686 -0.4184 -0.3484 -0.5801
  847MPD2     C12493   3.366   2.053  14.916  0.2603  0.4464  0.0957
  847MPD2    C112494   3.417   2.064  14.783 -0.5949  0.4344  0.4556
  847MPD2    C212495   3.540   1.998  14.757  0.1840  0.0202  0.5476
  847MPD2    C312496   3.609   1.938  14.861 -0.5518 -0.0374  0.2335
  847MPD2    C412497   3.565   1.932  14.991 -0.0275 -0.5570 -0.3220
  847MPD2    C512498   3.435   1.976  15.009  0.5844  0.1874 -0.0506
  847MPD2     H12499   3.583   2.001  14.657 -2.2269  2.6648 -0.4003
  847MPD2    H112500   3.619   1.882  15.071  0.8809 -0.5915 -0.9484
  847MPD2    H212501   3.271   2.102  14.937 -0.8600 -1.2194 -1.0578
  847MPD2    H312502   3.392   1.966  15.108  0.7475 -1.0560 -0.1063
  847MPD2     N12503   3.739   1.899  14.828  0.2638 -0.2971 -0.0917
  847MPD2    H512504   3.768   1.909  14.731  2.1065  1.5937  0.6391
  847MPD2    N112505   3.347   2.121  14.674  0.2655 -0.4649 -0.0780
  847MPD2    H712506   3.390   2.096  14.585  1.3859 -0.3929  0.4388
  848MPD2     C12507   1.175   0.712  16.385  0.0405 -0.3144 -0.4074
  848MPD2    C112508   1.282   0.682  16.466  0.4718 -0.8271 -0.6075
  848MPD2    C212509   1.395   0.765  16.451  1.0339  0.5135  0.2650
  848MPD2    C312510   1.408   0.861  16.347  0.3386 -0.0399 -0.3726
  848MPD2    C412511   1.310   0.867  16.253  0.0741 -0.3124  0.2168
  848MPD2    C512512   1.199   0.796  16.279 -0.4759  0.0189  0.0900
  848MPD2     H12513   1.471   0.736  16.522  0.8771  0.8689  0.5788
  848MPD2    H112514   1.313   0.930  16.164  0.4564  0.0980  0.5188
  848MPD2    H212515   1.081   0.658  16.388 -0.4407  0.5196 -0.5917
  848MPD2    H312516   1.114   0.813  16.213  0.3415  0.0227 -0.9717
  848MPD2     N12517   1.515   0.948  16.333 -0.0031 -0.5447 -0.0857
  848MPD2    H512518   1.528   1.002  16.248  0.7676 -0.8841 -0.1840
  848MPD2    N112519   1.277   0.579  16.560 -0.4647 -0.7259 -0.1112
  848MPD2    H712520   1.364   0.553  16.605 -0.7723  0.7854  1.3783
  849MPD2     C12521   0.842   0.274  14.253  0.1033 -0.5735 -0.0775
  849MPD2    C112522   0.956   0.250  14.171  0.8542 -0.2475 -0.1737
  849MPD2    C212523   1.079   0.277  14.221 -0.9489  0.4950 -0.1443
  849MPD2    C312524   1.106   0.327  14.350 -0.6254 -0.5749 -0.0802
  849MPD2    C412525   0.994   0.372  14.418  1.0415 -0.0695 -0.2220
  849MPD2    C512526   0.869   0.334  14.378 -0.4625  0.6295 -0.1824
  849MPD2     H12527   1.169   0.262  14.162 -1.9789 -1.6343 -1.1611
  849MPD2    H112528   1.001   0.427  14.511  0.3804 -1.5114  0.6886
  849MPD2    H212529   0.743   0.272  14.209 -0.4270  3.0470  0.9360
  849MPD2    H312530   0.784   0.363  14.439  2.3443  1.9645  3.1095
  849MPD2     N12531   1.231   0.352  14.402 -0.3746  0.0151  0.0864
  849MPD2    H512532   1.238   0.396  14.493  0.5603 -0.8042  0.4143
  849MPD2    N112533   0.936   0.188  14.044  0.1007 -0.3128  0.0897
  849MPD2    H712534   0.845   0.160  14.009  0.8570 -1.5049 -0.9461
  850MPD2     C12535   3.547   2.905  14.455 -0.0179 -0.2368 -0.4988
  850MPD2    C112536   3.566   2.993  14.562  0.2009 -0.0690 -0.8352
  850MPD2    C212537   3.686   3.009  14.620 -0.8624 -0.8132  0.1591
  850MPD2    C312538   3.790   2.915  14.593  0.9093  0.0362  0.2289
  850MPD2    C412539   3.769   2.817  14.499  0.0268  0.5754 -0.1441
  850MPD2    C512540   3.650   2.812  14.425 -0.4094 -0.1591 -0.1563
  850MPD2     H12541   3.706   3.101  14.675  1.9497  0.3386 -2.8321
  850MPD2    H112542   3.844   2.744  14.473  1.6455  1.9879  0.6008
  850MPD2    H212543   3.451   2.893  14.405  0.5238 -0.0120 -1.5711
  850MPD2    H312544   3.639   2.744  14.342  0.7621  0.3217 -0.6973
  850MPD2     N12545   3.914   2.923  14.656 -0.1975  0.2097  0.4567
  850MPD2    H512546   3.979   2.849  14.632 -0.2252  0.6927 -1.1312
  850MPD2    N112547   3.455   3.075  14.587  0.3042  0.4102  0.1718
  850MPD2    H712548   3.389   3.074  14.510 -0.2493  0.8180  0.6394
  851MPD2     C12549   3.994   2.871  15.223 -0.5038 -0.1788 -0.1791
  851MPD2    C112550   3.873   2.843  15.159  0.4555  0.3728  0.1442
  851MPD2    C212551   3.825   2.708  15.165  0.0654  0.1222  0.2325
  851MPD2    C312552   3.906   2.604  15.205 -0.0329 -0.2080  0.0667
  851MPD2    C412553   4.035   2.631  15.245  0.4917  0.1234 -0.2603
  851MPD2    C512554   4.077   2.764  15.251  0.3935 -1.0487 -0.1098
  851MPD2     H12555   3.721   2.683  15.145 -0.7465  3.4536  0.2532
  851MPD2    H112556   4.098   2.550  15.278 -0.1162 -0.5734 -0.8123
  851MPD2    H212557   4.030   2.970  15.246 -0.5861 -0.6809  2.0344
  851MPD2    H312558   4.173   2.784  15.297 -0.5101  0.7007  1.0105
  851MPD2     N12559   3.849   2.473  15.205 -0.0725 -0.1145 -0.3210
  851MPD2    H512560   3.757   2.475  15.163  0.5866 -2.3006 -1.8753
  851MPD2    N112561   3.795   2.952  15.108  0.1899  0.4975 -0.5671
  851MPD2    H712562   3.827   3.048  15.105  1.1392  0.2166  0.5385
  852MPD2     C12563   3.193   0.316   9.988 -0.4147  0.2640  0.6809
  852MPD2    C112564   3.253   0.394  10.080  0.3876  0.4239  0.2550
  852MPD2    C212565   3.340   0.482  10.027 -0.5039 -0.3207  0.7245
  852MPD2    C312566   3.360   0.506   9.897  0.2716  0.2649 -0.4688
  852MPD2    C412567   3.293   0.429   9.808  0.1262 -0.0843 -0.2838
  852MPD2    C512568   3.213   0.336   9.856 -0.7011 -0.1850 -0.1435
  852MPD2     H12569   3.403   0.537  10.094 -1.1034 -1.1239  1.9419
  852MPD2    H112570   3.295   0.444   9.700  2.5122 -0.1758 -0.2458
  852MPD2    H212571   3.130   0.235  10.023 -1.7046  1.2878  0.7060
  852MPD2    H312572   3.158   0.282   9.779 -0.8055  0.6301 -0.6364
  852MPD2     N12573   3.440   0.615   9.863  0.5271  0.4716 -0.6190
  852MPD2    H512574   3.489   0.656   9.942 -0.9314  1.8323 -0.4246
  852MPD2    N112575   3.238   0.388  10.221  0.3843  0.6648  0.2431
  852MPD2    H712576   3.290   0.459  10.272 -1.5743  0.9950  1.7654
  853MPD2     C12577   0.370   0.462  12.242 -0.0694 -0.7268 -0.8899
  853MPD2    C112578   0.315   0.589  12.233  0.2098  0.9104  0.2717
  853MPD2    C212579   0.334   0.658  12.115  0.6558 -0.2339 -0.5391
  853MPD2    C312580   0.408   0.610  12.000  0.2670  0.8775  0.5286
  853MPD2    C412581   0.466   0.488  12.024 -0.3963 -0.2972  0.6819
  853MPD2    C512582   0.445   0.416  12.137  0.5216 -0.5710  0.2735
  853MPD2     H12583   0.307   0.763  12.116 -2.4238 -1.0471  1.0225
  853MPD2    H112584   0.534   0.441  11.955  1.1686  0.9270  1.3838
  853MPD2    H212585   0.358   0.401  12.331  0.7809 -0.0303 -0.2956
  853MPD2    H312586   0.507   0.328  12.152 -0.4860 -1.6433 -1.8749
  853MPD2     N12587   0.451   0.690  11.889 -0.6360  0.5174  0.0999
  853MPD2    H512588   0.508   0.644  11.818  0.5880  1.5355  0.4283
  853MPD2    N112589   0.263   0.639  12.349 -0.5161 -0.3695  0.2112
  853MPD2    H712590   0.251   0.573  12.424  1.2116 -1.0821 -0.1242
  854MPD2     C12591   2.624   1.479  12.511 -0.2174 -0.5394  0.0642
  854MPD2    C112592   2.504   1.427  12.550  0.7383 -0.0323  0.1831
  854MPD2    C212593   2.496   1.296  12.601  0.3369  1.3139  0.1671
  854MPD2    C312594   2.612   1.223  12.600  0.2556 -0.1390 -0.0787
  854MPD2    C412595   2.730   1.278  12.560 -0.1602  0.2420 -0.4732
  854MPD2    C512596   2.740   1.406  12.526 -0.2068  0.0081 -0.4370
  854MPD2     H12597   2.404   1.243  12.622  0.9228 -0.1259 -0.8627
  854MPD2    H112598   2.822   1.222  12.571 -0.1921  0.3664  0.4204
  854MPD2    H212599   2.632   1.586  12.493 -1.1246 -0.6962 -1.2467
  854MPD2    H312600   2.837   1.452  12.520  0.3090 -0.9266  0.6797
  854MPD2     N12601   2.609   1.089  12.645  0.0186 -0.0640  0.6132
  854MPD2    H512602   2.523   1.056  12.687 -0.9684 -0.2921 -1.5587
  854MPD2    N112603   2.390   1.515  12.540  0.3391 -0.0478 -0.0935
  854MPD2    H712604   2.398   1.604  12.491  2.4982 -0.5284 -0.6185
  855MPD2     C12605   3.053   0.546  13.267  0.2771 -0.3705  0.4311
  855MPD2    C112606   2.917   0.562  13.285 -0.6122  0.2577 -0.5566
  855MPD2    C212607   2.836   0.588  13.174  0.0424  0.5418  0.6407
  855MPD2    C312608   2.887   0.595  13.050 -0.8856 -0.5013  0.3670
  855MPD2    C412609   3.015   0.564  13.042 -0.1525 -0.1253 -0.2751
  855MPD2    C512610   3.104   0.541  13.143  0.3485  0.1530 -0.5611
  855MPD2     H12611   2.728   0.588  13.185 -0.0462 -0.9869 -0.2829
  855MPD2    H112612   3.059   0.560  12.942 -2.4540  0.1961 -1.3004
  855MPD2    H212613   3.122   0.512  13.343 -2.8732 -0.7914  3.1049
  855MPD2    H312614   3.210   0.522  13.134  0.3543 -0.4523  0.7496
  855MPD2     N12615   2.810   0.631  12.939 -0.5281  0.3836 -0.0974
  855MPD2    H512616   2.854   0.618  12.848  1.2979  1.0208  0.6918
  855MPD2    N112617   2.859   0.552  13.414 -0.5561  0.1179 -0.4671
  855MPD2    H712618   2.758   0.544  13.410 -0.5697 -0.4419  1.1169
  856MPD2     C12619   3.970   1.383  13.630  0.2457 -0.3168  0.3510
  856MPD2    C112620   4.026   1.497  13.666 -0.8275  0.2369 -0.9261
  856MPD2    C212621   3.959   1.616  13.649 -1.0692 -0.3665 -0.3019
  856MPD2    C312622   3.829   1.623  13.606 -0.0733  0.6936  0.7802
  856MPD2    C412623   3.770   1.506  13.562  0.0016  0.1933 -0.3993
  856MPD2    C512624   3.845   1.384  13.577 -0.6525  0.3028  0.1887
  856MPD2     H12625   4.004   1.707  13.688 -3.0711 -0.7115  2.7999
  856MPD2    H112626   3.666   1.504  13.531  0.1479 -0.9243 -0.8139
  856MPD2    H212627   4.014   1.286  13.650 -1.8774 -1.5389 -0.8282
  856MPD2    H312628   3.802   1.291  13.542 -0.1172 -0.8786  2.6495
  856MPD2     N12629   3.769   1.748  13.578  0.1863  0.0471  0.2575
  856MPD2    H512630   3.687   1.748  13.518 -0.3770 -1.4077  1.0195
  856MPD2    N112631   4.160   1.508  13.716  0.6535 -0.3595  0.1080
  856MPD2    H712632   4.193   1.602  13.736  0.6553 -0.7210  1.7929
  857MPD2     C12633   1.940   3.810  12.291 -0.3687  0.3194  0.2698
  857MPD2    C112634   1.878   3.783  12.413 -0.6511  0.5362  0.1037
  857MPD2    C212635   1.838   3.892  12.491  0.3484 -0.2083  0.2180
  857MPD2    C312636   1.866   4.018  12.450 -0.1667  0.0634  0.1033
  857MPD2    C412637   1.900   4.043  12.321  0.5724 -1.0930 -0.5178
  857MPD2    C512638   1.942   3.935  12.237 -0.3724 -0.1486 -0.1445
  857MPD2     H12639   1.788   3.871  12.585  1.3217  1.7419  1.1804
  857MPD2    H112640   1.913   4.141  12.277  0.8715 -1.8914 -2.2071
  857MPD2    H212641   1.984   3.725  12.239  0.5484 -0.0811  1.6915
  857MPD2    H312642   1.988   3.953  12.140 -1.3439  1.3455 -0.3266
  857MPD2     N12643   1.847   4.111  12.552 -0.4888 -0.3120 -0.1554
  857MPD2    H512644   1.811   4.084  12.643 -0.8909  2.1405  0.4248
  857MPD2    N112645   1.843   3.649  12.450 -0.0699  0.3339  0.4647
  857MPD2    H712646   1.878   3.573  12.393  0.2479  0.9690 -0.1984
  858MPD2     C12647   1.433   2.236  16.999  0.5082  0.2049 -0.2658
  858MPD2    C112648   1.566   2.229  16.959  0.4314 -0.3630  0.6347
  858MPD2    C212649   1.640   2.346  16.973 -0.5734  0.0318  0.5096
  858MPD2    C312650   1.584   2.464  17.019  0.2747 -0.2874 -0.8229
  858MPD2    C412651   1.453   2.464  17.061 -0.6665  0.6832  0.0336
  858MPD2    C512652   1.387   2.348  17.057 -0.2709 -0.1628 -0.2512
  858MPD2     H12653   1.744   2.345  16.944 -0.8711 -0.5814 -0.5429
  858MPD2    H112654   1.407   2.552  17.105 -0.5335  0.4780  0.5775
  858MPD2    H212655   1.380   2.142  17.003  1.0001 -0.0330  0.5930
  858MPD2    H312656   1.286   2.343  17.097  0.1450 -1.2476  0.6904
  858MPD2     N12657   1.657   2.581  17.048  0.0271 -0.3479 -0.7191
  858MPD2    H512658   1.599   2.658  17.083 -1.4579 -1.9921  0.4355
  858MPD2    N112659   1.617   2.108  16.921 -0.1315 -0.3543 -0.3546
  858MPD2    H712660   1.553   2.029  16.927  1.2352 -1.3145  1.8124
  859MPD2     C12661   0.919   0.760  15.857  0.7461 -0.3863  0.2688
  859MPD2    C112662   0.885   0.681  15.744 -0.1496  0.0102  0.7362
  859MPD2    C212663   0.846   0.556  15.772 -0.2825 -0.0424  0.3722
  859MPD2    C312664   0.857   0.502  15.901  0.3001 -0.6362 -0.8738
  859MPD2    C412665   0.902   0.580  16.000  0.6831 -0.0384 -0.2115
  859MPD2    C512666   0.928   0.706  15.984 -0.1133 -1.0077 -0.5672
  859MPD2     H12667   0.818   0.499  15.684  0.9895 -0.7160  0.4130
  859MPD2    H112668   0.920   0.544  16.101 -1.5017  1.2403  0.6247
  859MPD2    H212669   0.954   0.859  15.829 -1.4592  0.3609  0.1218
  859MPD2    H312670   0.958   0.765  16.071  1.4980  0.0871 -1.8535
  859MPD2     N12671   0.830   0.367  15.927 -0.3182 -0.1700  0.1265
  859MPD2    H512672   0.840   0.339  16.024 -2.8966 -1.6399 -0.0252
  859MPD2    N112673   0.892   0.739  15.616  0.3314 -0.1525 -0.6967
  859MPD2    H712674   0.930   0.833  15.611  0.3698 -0.2342 -2.0167
  860MPD2     C12675   3.432   0.051  11.421  0.0164 -0.6756  0.0879
  860MPD2    C112676   3.450   0.109  11.541 -0.2190  0.5805 -0.1176
  860MPD2    C212677   3.332   0.167  11.589  0.4191 -0.5862  0.6750
  860MPD2    C312678   3.206   0.153  11.536  0.9118  0.3756  0.3960
  860MPD2    C412679   3.196   0.075  11.425 -0.0177 -0.1994  0.2692
  860MPD2    C512680   3.307   0.030  11.366 -0.4454 -0.4847 -0.5350
  860MPD2     H12681   3.347   0.240  11.668  0.4365  0.6444 -0.4769
  860MPD2    H112682   3.104   0.055  11.372  1.7346 -1.6179 -2.2385
  860MPD2    H212683   3.511   4.733  11.367  1.1723 -0.6573  1.7506
  860MPD2    H312684   3.299   4.715  11.270  1.5746  0.5673 -1.2408
  860MPD2     N12685   3.094   0.212  11.599  0.3059  0.1508 -0.6527
  860MPD2    H512686   3.105   0.266  11.684 -0.4624  0.0966 -0.5153
  860MPD2    N112687   3.572   0.126  11.613  0.5879 -0.4252  0.1179
  860MPD2    H712688   3.562   0.192  11.690  1.3620 -1.4714  1.1253
  861MPD2     C12689   2.345   3.081  10.491 -0.4016  0.6290  0.0784
  861MPD2    C112690   2.294   3.198  10.534  0.4116  0.1043  0.4966
  861MPD2    C212691   2.206   3.267  10.454 -0.6681  0.2430  0.1080
  861MPD2    C312692   2.179   3.230  10.323 -0.7911 -0.1622 -0.6630
  861MPD2    C412693   2.210   3.102  10.291 -0.2898 -0.1964  0.4755
  861MPD2    C512694   2.297   3.032  10.375 -0.3598  0.3143 -0.5306
  861MPD2     H12695   2.163   3.358  10.493  0.9794  1.1172 -0.1554
  861MPD2    H112696   2.167   3.057  10.201 -0.2884  1.8853 -0.5660
  861MPD2    H212697   2.404   3.017  10.556 -1.0537 -0.0779 -0.0219
  861MPD2    H312698   2.315   2.927  10.352 -0.0662  0.6519 -1.8353
  861MPD2     N12699   2.087   3.310  10.241 -0.4218 -0.0193 -0.0617
  861MPD2    H512700   2.047   3.275  10.155  2.3136  2.4797 -2.3223
  861MPD2    N112701   2.310   3.245  10.663 -0.1000  0.3715  0.3902
  861MPD2    H712702   2.247   3.321  10.690  0.8807  1.8645 -1.5168
  862MPD2     C12703   1.409   3.136  10.082  0.3280 -0.2819  0.0782
  862MPD2    C112704   1.541   3.123  10.121 -0.3240  0.1023  0.1737
  862MPD2    C212705   1.591   3.003  10.168  0.4485 -0.6643 -0.1916
  862MPD2    C312706   1.506   2.895  10.184 -0.0188 -0.4512  0.3305
  862MPD2    C412707   1.373   2.907  10.145  0.6227  0.8241  0.0489
  862MPD2    C512708   1.326   3.029  10.094  1.0212  0.0730  0.1693
  862MPD2     H12709   1.694   3.010  10.202  0.6604 -0.0321 -0.9552
  862MPD2    H112710   1.300   2.827  10.151  0.9402  0.4700 -0.7995
  862MPD2    H212711   1.371   3.222  10.027 -1.1248  0.4147  2.1924
  862MPD2    H312712   1.221   3.030  10.068  1.1997  0.2013 -0.5258
  862MPD2     N12713   1.535   2.798  10.273  0.2081  0.6325 -0.2654
  862MPD2    H512714   1.458   2.738  10.304 -0.5130  1.5861 -0.2012
  862MPD2    N112715   1.634   3.227  10.126 -0.3141 -0.6281  0.0635
  862MPD2    H712716   1.726   3.194  10.149  0.5236  1.7924  0.2115
  863MPD2     C12717   0.352   1.592  16.682  0.1278 -0.5675 -0.4256
  863MPD2    C112718   0.238   1.643  16.747  0.5220 -0.2602 -0.0444
  863MPD2    C212719   0.236   1.633  16.886  0.3575 -0.0127  0.1705
  863MPD2    C312720   0.343   1.580  16.960 -0.0367  0.5124  0.1449
  863MPD2    C412721   0.451   1.534  16.891  0.4686  0.0036 -0.2113
  863MPD2    C512722   0.452   1.536  16.753  0.1337  0.4864  0.3025
  863MPD2     H12723   0.150   1.667  16.943  2.5127  3.0502  1.6224
  863MPD2    H112724   0.539   1.486  16.932 -0.2116 -1.0773 -0.0248
  863MPD2    H212725   0.362   1.582  16.575  0.5774  0.3610 -0.4705
  863MPD2    H312726   0.536   1.499  16.695 -0.1167 -0.4143  0.5170
  863MPD2     N12727   0.354   1.571  17.102  0.2262  0.3336 -0.0666
  863MPD2    H512728   0.433   1.522  17.143 -0.1247  0.3796  0.6542
  863MPD2    N112729   0.139   1.692  16.668  0.3923 -0.5421 -0.9094
  863MPD2    H712730   0.163   1.689  16.569  1.0879 -0.2381 -0.7534
  864MPD2     C12731   0.714   2.970  16.878  0.3844  0.2956  0.4922
  864MPD2    C112732   0.753   2.905  16.763 -0.4905 -0.2415  0.1446
  864MPD2    C212733   0.848   2.971  16.685  0.0208 -0.2328 -0.0336
  864MPD2    C312734   0.903   3.091  16.720  0.2175  0.0353 -0.2200
  864MPD2    C412735   0.854   3.157  16.833 -0.2482  0.2833 -0.7123
  864MPD2    C512736   0.758   3.097  16.906  0.2293  0.4773  0.1632
  864MPD2     H12737   0.886   2.926  16.594  1.0379 -0.4378  0.4924
  864MPD2    H112738   0.906   3.246  16.865  0.2407 -0.1809 -0.2027
  864MPD2    H212739   0.636   2.928  16.941  0.5523  2.5374  2.1908
  864MPD2    H312740   0.734   3.140  17.002 -2.6285 -2.8713  0.9300
  864MPD2     N12741   1.016   3.141  16.645 -0.1275 -0.3419  0.7686
  864MPD2    H512742   1.064   3.078  16.582 -0.2006 -0.2042  0.5740
  864MPD2    N112743   0.681   2.785  16.723  0.0504  0.0408  0.1562
  864MPD2    H712744   0.606   2.748  16.781  0.4180 -1.4580 -0.3469
  865MPD2     C12745   0.710   3.627  15.975  0.5110 -0.4710 -0.4450
  865MPD2    C112746   0.752   3.496  15.974 -0.3969 -0.4248  0.1155
  865MPD2    C212747   0.852   3.459  16.062 -0.5546  0.0442  1.0461
  865MPD2    C312748   0.900   3.556  16.153 -0.1548 -0.4574  0.7656
  865MPD2    C412749   0.842   3.687  16.163 -0.3843 -0.3806  0.0646
  865MPD2    C512750   0.754   3.723  16.068  0.0537 -0.0036  1.0107
  865MPD2     H12751   0.893   3.359  16.054  0.0691  0.2559  1.5126
  865MPD2    H112752   0.867   3.761  16.238  2.9085 -1.6519  0.1978
  865MPD2    H212753   0.636   3.660  15.902  1.1414  2.7912  0.3849
  865MPD2    H312754   0.722   3.827  16.066  1.0393  0.2499 -1.7227
  865MPD2     N12755   1.016   3.526  16.231  0.0552 -0.3952  0.7492
  865MPD2    H512756   1.042   3.587  16.309  2.5273  1.2132 -1.3109
  865MPD2    N112757   0.703   3.408  15.879  0.0552  0.1386  0.2657
  865MPD2    H712758   0.648   3.447  15.803 -0.8328  2.1554  1.9322
  866MPD2     C12759   2.721   3.651  11.113 -0.5812  0.2540  0.2409
  866MPD2    C112760   2.702   3.620  10.982  0.4160 -0.2036 -0.1082
  866MPD2    C212761   2.590   3.662  10.911 -0.8452 -0.5781  0.1565
  866MPD2    C312762   2.491   3.736  10.975  0.0100 -0.1101  0.3673
  866MPD2    C412763   2.518   3.774  11.104 -0.0125  0.2754 -0.0273
  866MPD2    C512764   2.626   3.735  11.169  0.7766 -0.2230  0.9990
  866MPD2     H12765   2.584   3.633  10.807 -3.2345 -0.3748  0.2377
  866MPD2    H112766   2.436   3.825  11.153  0.9827  2.1215 -0.2829
  866MPD2    H212767   2.814   3.623  11.160 -0.4248 -1.6252 -1.1921
  866MPD2    H312768   2.642   3.771  11.270  0.0690 -0.8190  1.3269
  866MPD2     N12769   2.363   3.764  10.918 -0.1594  0.0424 -0.7672
  866MPD2    H512770   2.300   3.817  10.978 -0.9375 -1.1122 -0.5772
  866MPD2    N112771   2.790   3.532  10.921 -0.2587  0.1565 -0.3225
  866MPD2    H712772   2.857   3.475  10.971 -0.9530  0.7646  1.3223
  867MPD2     C12773   4.194   2.859  16.898  0.4492  1.0902  0.1071
  867MPD2    C112774   4.289   2.850  16.992 -0.0477  0.1621 -0.1216
  867MPD2    C212775   4.326   2.965  17.064  0.0058 -0.0303 -0.4989
  867MPD2    C312776   4.262   3.084  17.028  0.6460  0.4898 -0.0797
  867MPD2    C412777   4.163   3.091  16.934 -0.3021 -0.6816 -0.6131
  867MPD2    C512778   4.132   2.975  16.866 -0.3522 -0.5830  0.3687
  867MPD2     H12779   4.412   2.959  17.129 -2.0362 -0.8256  2.1108
  867MPD2    H112780   4.103   3.180  16.916 -2.2691 -2.0571 -0.7895
  867MPD2    H212781   4.167   2.777  16.833  0.5373  0.5204  0.7898
  867MPD2    H312782   4.053   2.976  16.793 -0.7001  2.1857  0.7982
  867MPD2     N12783   4.293   3.205  17.089 -0.5198 -0.4708  0.0890
  867MPD2    H512784   4.259   3.289  17.043  2.3436  0.1451 -0.9357
  867MPD2    N112785   4.353   2.724  17.009 -0.5095 -0.0052 -0.0549
  867MPD2    H712786   4.316   2.653  16.946 -1.6503 -0.5263  1.1942
  868MPD2     C12787   1.736   2.319  13.361 -0.2355  0.8605 -0.5042
  868MPD2    C112788   1.742   2.182  13.356  0.3371 -1.2848  0.7195
  868MPD2    C212789   1.635   2.109  13.392  0.4444  1.0632 -0.2711
  868MPD2    C312790   1.524   2.169  13.448  0.4940  0.1418 -0.0759
  868MPD2    C412791   1.523   2.297  13.477  0.4092 -0.4848 -0.0578
  868MPD2    C512792   1.625   2.373  13.430  0.6704  0.0008 -0.2546
  868MPD2     H12793   1.624   2.003  13.370 -1.4009  0.9322  1.2994
  868MPD2    H112794   1.435   2.341  13.522 -0.3288 -0.6623 -1.3261
  868MPD2    H212795   1.822   2.381  13.337 -0.3832  0.3179 -2.4173
  868MPD2    H312796   1.636   2.480  13.449  0.2579  0.1122 -0.6476
  868MPD2     N12797   1.408   2.091  13.470 -0.1071  0.2670 -0.5016
  868MPD2    H512798   1.409   1.989  13.464  0.9322  0.2966 -0.7534
  868MPD2    N112799   1.862   2.125  13.314  0.5084  0.1456  0.1102
  868MPD2    H712800   1.938   2.190  13.292 -0.4283  1.3762  0.5003
  869MPD2     C12801   2.358   0.162   0.672  0.1164  0.9877  0.7786
  869MPD2    C112802   2.415   0.066   0.595  0.3528 -0.4971  0.4600
  869MPD2    C212803   2.553   0.050   0.609  0.5197  0.9712 -0.4608
  869MPD2    C312804   2.626   0.137   0.692  0.3202  0.1365 -0.0523
  869MPD2    C412805   2.554   0.226   0.770 -0.3932  0.6306  0.1922
  869MPD2    C512806   2.420   0.242   0.763  0.1844 -0.2757  0.8166
  869MPD2     H12807   2.602   4.709   0.547 -1.0704 -1.5154  1.2953
  869MPD2    H112808   2.607   0.289   0.840  0.2821  1.0559 -0.7106
  869MPD2    H212809   2.250   0.166   0.660 -0.0608  1.2576  2.4453
  869MPD2    H312810   2.369   0.318   0.822  0.7099 -0.3563  1.3717
  869MPD2     N12811   2.769   0.155   0.699  0.1292  0.4665  0.0703
  869MPD2    H512812   2.803   0.218   0.771 -0.5576 -0.4208  1.1584
  869MPD2    N112813   2.335   4.714   0.512 -0.4941  0.3718  0.3285
  869MPD2    H712814   2.237   0.004   0.516 -0.9194 -1.1712 -1.0162
  870MPD2     C12815   3.312   3.933   1.073 -0.3376 -0.4815  0.0926
  870MPD2    C112816   3.200   3.865   1.044 -0.0102 -0.7234 -0.2143
  870MPD2    C212817   3.079   3.929   1.056  0.5459 -0.2488  0.1998
  870MPD2    C312818   3.074   4.059   1.089  0.7126  0.6844 -0.2872
  870MPD2    C412819   3.188   4.132   1.112  0.6651 -0.7779  0.9635
  870MPD2    C512820   3.305   4.059   1.120  0.4075  0.0303 -0.6307
  870MPD2     H12821   2.985   3.885   1.023  0.9440 -0.6398 -0.4161
  870MPD2    H112822   3.182   4.237   1.138 -0.2118 -0.5551 -0.1543
  870MPD2    H212823   3.412   3.891   1.074 -1.3315 -2.8459  0.3932
  870MPD2    H312824   3.400   4.111   1.128 -0.3184  1.2379  0.1490
  870MPD2     N12825   2.945   4.113   1.103 -0.1685 -0.6743  0.7743
  870MPD2    H512826   2.864   4.054   1.085 -0.5591  0.0618  0.1081
  870MPD2    N112827   3.212   3.730   1.000 -0.2659 -0.0398 -0.0336
  870MPD2    H712828   3.305   3.693   0.988 -0.2143 -0.0560  0.4475
  871MPD2     C12829   3.524   3.065  16.359  0.8928  0.0667 -0.0104
  871MPD2    C112830   3.447   2.998  16.448  1.0634 -0.4038 -0.0783
  871MPD2    C212831   3.428   2.861  16.437 -0.1455 -0.1874 -0.4218
  871MPD2    C312832   3.481   2.792  16.325  0.0156 -0.4092 -0.0476
  871MPD2    C412833   3.550   2.865  16.227  0.2864 -0.0498  1.6809
  871MPD2    C512834   3.568   2.998  16.246  0.3858  0.6382 -0.0347
  871MPD2     H12835   3.393   2.793  16.514 -1.3588 -0.2713 -1.0623
  871MPD2    H112836   3.589   2.822  16.135 -3.1645  0.4346 -0.0127
  871MPD2    H212837   3.539   3.172  16.361  1.0857  0.0238  0.7377
  871MPD2    H312838   3.615   3.070  16.181  1.7499 -1.1962 -1.0599
  871MPD2     N12839   3.450   2.652  16.316 -0.5213  0.7497 -0.2179
  871MPD2    H512840   3.393   2.614  16.392 -2.9318  4.1071 -0.3206
  871MPD2    N112841   3.406   3.074  16.562  0.2020  0.1451 -0.4175
  871MPD2    H712842   3.432   3.172  16.571  0.5979 -0.0263  0.3174
  872MPD2     C12843   0.006   0.452  13.658  0.1868 -0.6386 -0.6975
  872MPD2    C112844   0.024   0.583  13.693  0.5325 -0.6400 -0.4828
  872MPD2    C212845   4.647   0.646  13.743  0.1778  0.1512 -0.3625
  872MPD2    C312846   4.530   0.582  13.777  0.3065 -0.0187  0.4074
  872MPD2    C412847   4.516   0.449  13.748  0.2592 -1.1917 -0.0729
  872MPD2    C512848   4.617   0.389  13.673  0.4374 -0.3162  0.5214
  872MPD2     H12849   4.664   0.749  13.772  1.0461  0.3657 -1.6552
  872MPD2    H112850   4.436   0.381  13.774 -1.4478  0.4879 -1.0077
  872MPD2    H212851   0.079   0.390  13.607 -1.3535 -1.8036 -1.4719
  872MPD2    H312852   4.609   0.285  13.643  2.8405 -0.2078 -0.4481
  872MPD2     N12853   4.434   0.633  13.867  0.0804  0.4683 -0.0888
  872MPD2    H512854   4.361   0.572  13.903  2.6713 -1.5478  1.7765
  872MPD2    N112855   0.147   0.655  13.686 -0.2302  0.0884 -0.0166
  872MPD2    H712856   0.148   0.753  13.714  0.6211 -0.2675  1.2132
  873MPD2     C12857   1.057   0.632   1.174  0.2075 -0.4478 -0.9160
  873MPD2    C112858   1.121   0.519   1.202  0.5115 -0.2318 -0.2393
  873MPD2    C212859   1.121   0.413   1.117  0.1094  0.3452 -0.2676
  873MPD2    C312860   1.076   0.432   0.985 -0.2480  0.1356  0.1064
  873MPD2    C412861   1.010   0.548   0.956  0.2144 -0.7799 -0.5158
  873MPD2    C512862   1.002   0.646   1.049  0.5427  0.4990  0.2639
  873MPD2     H12863   1.155   0.314   1.145 -0.7336  0.0129 -0.4430
  873MPD2    H112864   0.974   0.569   0.856 -0.4452 -0.9954 -0.3247
  873MPD2    H212865   1.047   0.720   1.237  1.8833 -0.5668 -0.4818
  873MPD2    H312866   0.950   0.737   1.021 -0.3366 -0.0090  0.2161
  873MPD2     N12867   1.078   0.330   0.883 -0.4222 -0.4018 -0.3640
  873MPD2    H512868   1.036   0.350   0.793  0.7439 -0.0792 -0.8389
  873MPD2    N112869   1.179   0.514   1.333  0.3439  0.1733 -0.4543
  873MPD2    H712870   1.161   0.589   1.399 -1.1011 -0.5033 -0.0963
  874MPD2     C12871   1.011   1.115  16.039  0.3471 -0.3461 -1.0163
  874MPD2    C112872   1.020   1.121  16.177  0.6527 -0.0862 -0.9537
  874MPD2    C212873   1.137   1.174  16.237 -0.0530  0.6484 -0.2803
  874MPD2    C312874   1.253   1.202  16.166 -0.2581  0.6273 -0.4452
  874MPD2    C412875   1.241   1.210  16.031  0.6766 -0.8930 -0.3442
  874MPD2    C512876   1.126   1.166  15.971 -0.8311  0.1420  0.3126
  874MPD2     H12877   1.143   1.178  16.345  0.9942  1.5466 -0.3657
  874MPD2    H112878   1.322   1.233  15.963  2.8424 -1.5116  2.0310
  874MPD2    H212879   0.919   1.097  15.986  0.6553  0.5249 -1.8572
  874MPD2    H312880   1.114   1.176  15.864  3.3472  0.3102 -0.1364
  874MPD2     N12881   1.370   1.239  16.236 -0.5894  0.1787 -0.5364
  874MPD2    H512882   1.354   1.244  16.336  0.3882  0.9254 -0.4149
  874MPD2    N112883   0.906   1.068  16.247  0.5404 -0.3540 -0.0590
  874MPD2    H712884   0.831   1.038  16.186  0.0443 -1.2025  0.9791
  875MPD2     C12885   2.387   4.245  14.416 -0.0023  0.4397 -0.6980
  875MPD2    C112886   2.254   4.261  14.449  0.0272  0.1083  0.3924
  875MPD2    C212887   2.210   4.315  14.571  0.4781  0.5605  0.3142
  875MPD2    C312888   2.302   4.325  14.672  0.0538 -0.0624  0.1861
  875MPD2    C412889   2.435   4.307  14.639 -0.4901 -0.2216 -1.2685
  875MPD2    C512890   2.480   4.259  14.518  0.7919  0.2805  0.2136
  875MPD2     H12891   2.107   4.342  14.592 -0.6054 -2.5231 -1.0780
  875MPD2    H112892   2.509   4.348  14.707 -2.5803  1.2053  0.1069
  875MPD2    H212893   2.421   4.228  14.315  1.0200  0.3062 -0.3271
  875MPD2    H312894   2.584   4.273  14.492  1.0479 -0.4894  0.8624
  875MPD2     N12895   2.278   4.373  14.804 -0.0788 -0.0533  0.7341
  875MPD2    H512896   2.358   4.372  14.865  0.8462 -0.2630 -0.4695
  875MPD2    N112897   2.150   4.249  14.352  0.4486 -0.4401 -0.0439
  875MPD2    H712898   2.060   4.278  14.389  0.8970 -0.7080  1.2374
  876MPD2     C12899   1.704   0.770  16.126 -0.8130  0.1461  0.0627
  876MPD2    C112900   1.585   0.763  16.054 -0.3433 -0.0550 -1.0816
  876MPD2    C212901   1.505   0.653  16.085 -0.2706  0.1576 -0.6688
  876MPD2    C312902   1.526   0.577  16.199  0.0815  0.8411 -0.3219
  876MPD2    C412903   1.642   0.599  16.274 -0.2005  0.5815 -0.1123
  876MPD2    C512904   1.730   0.676  16.222  0.0911  0.1256  0.3840
  876MPD2     H12905   1.416   0.629  16.027  0.0894 -0.7522 -0.8489
  876MPD2    H112906   1.672   0.535  16.356  1.6054  2.2537  0.5626
  876MPD2    H212907   1.783   0.839  16.098 -0.7902  0.3398  0.5970
  876MPD2    H312908   1.830   0.680  16.263  0.2020  1.2317  0.0215
  876MPD2     N12909   1.446   0.466  16.222  0.1834  0.8518  0.4158
  876MPD2    H512910   1.362   0.463  16.167 -0.3798 -0.6009  1.3493
  876MPD2    N112911   1.556   0.863  15.952 -0.0535  0.2757  0.4128
  876MPD2    H712912   1.635   0.923  15.932  0.8518 -0.0728  2.9190
  877MPD2     C12913   0.935   1.062  15.348 -0.2950  0.7561 -0.3582
  877MPD2    C112914   1.059   1.110  15.341  0.0549  0.3105  0.3071
  877MPD2    C212915   1.094   1.176  15.228 -0.4111  0.8224  0.1145
  877MPD2    C312916   1.014   1.184  15.114  0.5827  0.5743  1.0484
  877MPD2    C412917   0.888   1.138  15.121 -0.3879 -0.3175  0.4204
  877MPD2    C512918   0.853   1.082  15.241 -0.0552  0.5266 -0.0237
  877MPD2     H12919   1.193   1.218  15.214  0.6157 -1.4797  0.5997
  877MPD2    H112920   0.811   1.140  15.045 -0.4991 -1.3366  0.5088
  877MPD2    H212921   0.905   1.011  15.438  1.7524 -0.2405 -0.2289
  877MPD2    H312922   0.749   1.055  15.256 -0.2763  1.2261 -0.2771
  877MPD2     N12923   1.052   1.249  14.997 -0.0196 -0.0391  0.4199
  877MPD2    H512924   0.987   1.231  14.921 -1.5075  1.2565  1.3896
  877MPD2    N112925   1.156   1.119  15.438  1.0071 -0.2678  0.4924
  877MPD2    H712926   1.235   1.180  15.414  0.0845  0.4525 -0.7255
  878MPD2     C12927   0.453   0.421  13.256  0.0308  0.1383  0.1291
  878MPD2    C112928   0.577   0.374  13.214 -0.2543  0.1122 -0.0473
  878MPD2    C212929   0.671   0.329  13.305  0.6498 -0.6017  0.2526
  878MPD2    C312930   0.640   0.325  13.434 -0.9091  0.6148 -0.1737
  878MPD2    C412931   0.516   0.359  13.480 -0.0694 -0.3651 -0.1361
  878MPD2    C512932   0.420   0.392  13.385 -0.6400  0.2757 -0.1502
  878MPD2     H12933   0.767   0.299  13.265 -0.4020 -2.6976 -0.7477
  878MPD2    H112934   0.487   0.357  13.584  0.4001  1.3157  0.0234
  878MPD2    H212935   0.387   0.452  13.176  0.9182 -0.0389 -0.6760
  878MPD2    H312936   0.321   0.416  13.421 -0.5239  0.7078 -0.1255
  878MPD2     N12937   0.746   0.285  13.515 -0.5801 -0.2354 -0.1831
  878MPD2    H512938   0.834   0.270  13.468 -0.2716 -0.5458  0.4983
  878MPD2    N112939   0.607   0.404  13.078 -0.1364  0.2899 -0.0924
  878MPD2    H712940   0.543   0.462  13.025  1.1302 -0.5087 -2.4602
  879MPD2     C12941   0.739   0.799  17.460  0.0568 -0.1306  0.0622
  879MPD2    C112942   0.747   0.930  17.421 -0.5689 -0.4084 -0.1861
  879MPD2    C212943   0.738   0.958  17.286 -0.2090 -0.1979 -0.1564
  879MPD2    C312944   0.699   0.865  17.194  0.0928 -0.0548  0.0044
  879MPD2    C412945   0.697   0.733  17.239 -0.4600  0.4051 -0.4914
  879MPD2    C512946   0.715   0.704  17.370  0.1067  0.1105 -0.3483
  879MPD2     H12947   0.745   1.059  17.248 -1.8450  0.7252  1.9895
  879MPD2    H112948   0.664   0.651  17.177 -0.1043 -0.4173  0.3968
  879MPD2    H212949   0.762   0.775  17.563 -1.1340 -0.5846  0.2145
  879MPD2    H312950   0.714   0.600  17.402 -2.3227  0.3126  0.2647
  879MPD2     N12951   0.666   0.889  17.050 -0.3153 -0.2356 -0.3068
  879MPD2    H512952   0.630   0.808  17.000 -0.2992 -0.4235 -0.0155
  879MPD2    N112953   0.779   1.028  17.513 -0.6844  0.4308 -0.1128
  879MPD2    H712954   0.777   1.006  17.612 -1.7400 -0.7459 -0.3933
  880MPD2     C12955   2.199   3.239   0.523 -0.1514 -0.4004  0.0231
  880MPD2    C112956   2.305   3.269   0.436  0.2116 -1.0177  0.0681
  880MPD2    C212957   2.397   3.174   0.395  0.6319  0.3564  0.1714
  880MPD2    C312958   2.387   3.047   0.449 -0.4666  0.0323  0.1575
  880MPD2    C412959   2.277   3.012   0.521 -0.1201  0.3755  0.2351
  880MPD2    C512960   2.184   3.111   0.560  0.3543  0.5369 -0.6265
  880MPD2     H12961   2.489   3.186   0.340  1.1627  2.7536  1.5487
  880MPD2    H112962   2.252   2.911   0.552  1.6112  0.5084  2.0172
  880MPD2    H212963   2.138   3.319   0.562  0.4547  2.1631 -4.2875
  880MPD2    H312964   2.101   3.082   0.623  0.7548  1.1571  0.1750
  880MPD2     N12965   2.504   2.968   0.445  1.0736  0.7322 -0.3578
  880MPD2    H512966   2.576   3.000   0.381 -1.9520  2.3835 -2.9510
  880MPD2    N112967   2.317   3.406   0.402  0.1074 -0.4991  0.3328
  880MPD2    H712968   2.252   3.474   0.438  1.6110  0.2654  1.5828
  881MPD2     C12969   2.648   4.217  17.472  0.0030 -0.5759  0.8357
  881MPD2    C112970   2.599   4.094  17.436  1.5085  0.2699 -0.6423
  881MPD2    C212971   2.563   4.008  17.542 -0.6454 -0.2722 -0.0018
  881MPD2    C312972   2.549   4.053  17.671 -0.7964  0.1017 -0.1546
  881MPD2    C412973   2.592   4.180  17.700  0.4353 -0.3347  0.0080
  881MPD2    C512974   2.639   4.264  17.602  0.2179 -0.4828  0.2674
  881MPD2     H12975   2.551   3.902  17.520  2.2596 -0.7133  0.6452
  881MPD2    H112976   2.581   4.222   0.064  1.8813 -2.1861  0.9374
  881MPD2    H212977   2.672   4.290  17.396 -0.0203  0.7312  2.0781
  881MPD2    H312978   2.661   4.367  17.627 -0.3454 -0.4260  0.5153
  881MPD2     N12979   2.506   3.972   0.046 -0.2230  0.3406 -0.1083
  881MPD2    H512980   2.518   4.018   0.136 -0.7411  0.5829 -0.1639
  881MPD2    N112981   2.625   4.053  17.309  0.2261 -0.1094 -0.3369
  881MPD2    H712982   2.685   4.112  17.251 -0.7081 -1.7891 -3.0109
  882MPD2     C12983   0.972   1.122  14.209 -0.4725 -0.7616 -0.2440
  882MPD2    C112984   0.980   1.111  14.346  0.0315  0.0657 -0.5173
  882MPD2    C212985   0.936   0.996  14.413  0.8591 -0.2237  0.0984
  882MPD2    C312986   0.885   0.893  14.336 -0.3658 -0.0788 -0.2686
  882MPD2    C412987   0.882   0.902  14.201  0.4918  0.2157 -0.2119
  882MPD2    C512988   0.923   1.012  14.137  0.2926 -0.2589  0.2679
  882MPD2     H12989   0.939   0.979  14.519  1.0449 -0.1193  0.1112
  882MPD2    H112990   0.846   0.818  14.143 -2.0401  0.7414  0.6203
  882MPD2    H212991   1.012   1.213  14.166 -0.5657  0.0557  1.4327
  882MPD2    H312992   0.919   1.030  14.031 -0.9948 -1.8969  0.0434
  882MPD2     N12993   0.830   0.774  14.398  0.1834 -0.0333 -0.4224
  882MPD2    H512994   0.760   0.731  14.338  0.0598  0.6879 -0.7897
  882MPD2    N112995   1.036   1.223  14.417  0.2003 -0.0600 -0.6313
  882MPD2    H712996   1.066   1.304  14.365  0.5844  0.9937  1.2591
  883MPD2     C12997   3.091   0.561  16.121 -0.0132 -0.2720  0.2997
  883MPD2    C112998   3.125   0.598  15.992  1.0402  0.4183  0.0658
  883MPD2    C212999   3.215   0.704  15.973 -0.4073 -0.0143  0.6642
  883MPD2    C313000   3.258   0.791  16.078 -0.0572 -0.5544 -0.7926
  883MPD2    C413001   3.220   0.752  16.204  0.9177  0.0754  0.0422
  883MPD2    C513002   3.143   0.639  16.219  0.8477  0.5380  0.8716
  883MPD2     H13003   3.245   0.736  15.873  0.5897  1.0576  1.3067
  883MPD2    H113004   3.240   0.812  16.292 -1.1886 -0.0949  0.6173
  883MPD2    H213005   3.036   0.476  16.158  0.0877 -1.0619 -1.3650
  883MPD2    H313006   3.115   0.618  16.322  1.8197 -2.4041  0.5370
  883MPD2     N13007   3.325   0.904  16.036  0.1746  0.0827  0.0034
  883MPD2    H513008   3.341   0.913  15.937 -1.6525  2.5117 -0.0695
  883MPD2    N113009   3.072   0.540  15.875  0.0658  0.3974 -0.2077
  883MPD2    H713010   3.105   0.568  15.783  0.6251 -0.1339 -0.1655
  884MPD2     C13011   0.467   1.532  15.108 -0.2959  0.5934 -0.0881
  884MPD2    C113012   0.432   1.661  15.071 -0.4415  0.4340 -0.2753
  884MPD2    C213013   0.300   1.693  15.073 -0.2282  0.0929 -0.3515
  884MPD2    C313014   0.201   1.599  15.107  0.7254 -0.2800  0.0801
  884MPD2    C413015   0.245   1.474  15.142  0.7460  0.0834  0.6723
  884MPD2    C513016   0.375   1.446  15.144  0.4515  0.3722 -0.4612
  884MPD2     H13017   0.269   1.796  15.063  0.2942  0.2865  0.0207
  884MPD2    H113018   0.180   1.392  15.170  1.0379  0.2193  1.7665
  884MPD2    H213019   0.571   1.511  15.130 -0.1445 -1.2989 -2.7168
  884MPD2    H313020   0.412   1.350  15.180  0.2522 -0.2682 -1.9639
  884MPD2     N13021   0.068   1.641  15.121  0.1034 -0.8095 -0.1022
  884MPD2    H513022   0.039   1.734  15.090 -0.5328 -1.3273 -1.0453
  884MPD2    N113023   0.522   1.754  15.022 -0.7136 -0.4546  0.6694
  884MPD2    H713024   0.484   1.847  15.006  1.3401  0.2059 -0.3848
  885MPD2     C13025   2.674   1.738   0.437  0.1621 -0.8350 -0.0501
  885MPD2    C113026   2.794   1.798   0.451 -0.0113 -0.0686  0.0716
  885MPD2    C213027   2.812   1.906   0.369  0.5998  1.0088  0.1384
  885MPD2    C313028   2.720   1.950   0.275  0.2523 -0.3616  0.4079
  885MPD2    C413029   2.594   1.884   0.265  0.3123  0.3715  0.1788
  885MPD2    C513030   2.577   1.776   0.349 -0.0925 -0.0431  0.3286
  885MPD2     H13031   2.902   1.966   0.374  0.9109  0.5908 -0.4998
  885MPD2    H113032   2.519   1.919   0.195  2.1504  2.2025 -0.8784
  885MPD2    H213033   2.640   1.658   0.503 -1.1563  2.0874  2.8286
  885MPD2    H313034   2.481   1.725   0.346 -0.5333  0.8715 -0.9799
  885MPD2     N13035   2.757   2.058   0.194 -0.5362 -0.0909  0.2370
  885MPD2    H513036   2.854   2.088   0.197 -1.5196  3.1995 -0.2519
  885MPD2    N113037   2.892   1.743   0.538 -0.8768 -0.4387 -0.6508
  885MPD2    H713038   2.861   1.669   0.600  0.2104 -0.9736 -0.7462
  886MPD2     C13039   4.529   0.376  15.601  1.3070  0.0299  0.3947
  886MPD2    C113040   4.652   0.338  15.535 -0.1001 -0.2383  0.8222
  886MPD2    C213041   4.679   0.398  15.417  0.1086  0.2416  0.4481
  886MPD2    C313042   4.600   0.489  15.350  0.4710  0.3412  0.3463
  886MPD2    C413043   4.492   0.533  15.426 -0.9434  0.7389 -0.3678
  886MPD2    C513044   4.462   0.479  15.551 -0.8281  0.2780 -0.1811
  886MPD2     H13045   0.036   0.371  15.366  0.1608 -0.1661  0.7624
  886MPD2    H113046   4.426   0.615  15.400  0.6798  2.3847  0.6818
  886MPD2    H213047   4.510   0.328  15.695 -0.8648 -1.3762 -0.7614
  886MPD2    H313048   4.381   0.527  15.604  1.0616  2.5965  0.6166
  886MPD2     N13049   4.636   0.550  15.232  0.1012 -0.5227 -0.1072
  886MPD2    H513050   4.726   0.518  15.195  0.8795  0.9809  0.5184
  886MPD2    N113051   0.020   0.249  15.580  0.4721 -0.4451 -0.1351
  886MPD2    H713052   0.100   0.237  15.519  1.1220 -2.0379  1.0438
  887MPD2     C13053   0.532   0.448  16.123  0.2714  0.7651  0.0401
  887MPD2    C113054   0.460   0.462  16.005 -0.1758  0.4318  1.8600
  887MPD2    C213055   0.475   0.577  15.930 -1.6790  0.1633  0.2298
  887MPD2    C313056   0.550   0.683  15.982  0.0460 -0.7252 -0.3384
  887MPD2    C413057   0.605   0.676  16.103 -0.4670  1.1725  0.1830
  887MPD2    C513058   0.591   0.561  16.172  0.3848 -0.0488 -0.8486
  887MPD2     H13059   0.417   0.584  15.839 -2.0526  1.2152  0.5512
  887MPD2    H113060   0.665   0.755  16.146 -0.7647  1.3930  0.1924
  887MPD2    H213061   0.540   0.350  16.169 -0.5264  1.8073  2.3746
  887MPD2    H313062   0.640   0.560  16.268 -4.5636  1.3935  1.7102
  887MPD2     N13063   0.565   0.800  15.897 -0.2438 -0.8191  0.0529
  887MPD2    H513064   0.528   0.786  15.803 -0.6559 -0.1246  0.1107
  887MPD2    N113065   0.393   0.354  15.943 -0.2349  0.2809 -0.0034
  887MPD2    H713066   0.349   0.378  15.855 -0.8503  2.0614  0.8065
  888MPD2     C13067   2.184   0.552  14.982  0.4368 -0.5108 -0.3150
  888MPD2    C113068   2.162   0.611  15.108  0.3576  0.3261 -0.2115
  888MPD2    C213069   2.194   0.743  15.128  0.2081 -0.3573  0.0277
  888MPD2    C313070   2.273   0.805  15.031  0.2996 -0.1069 -0.1252
  888MPD2    C413071   2.291   0.747  14.905 -0.5237  0.9398 -0.0860
  888MPD2    C513072   2.239   0.626  14.879 -0.1498 -0.4689  0.2187
  888MPD2     H13073   2.171   0.786  15.224  0.6100 -2.1452  0.9342
  888MPD2    H113074   2.343   0.790  14.821 -2.2643  3.4232  0.0880
  888MPD2    H213075   2.156   0.450  14.960 -0.6219  0.0813 -1.6805
  888MPD2    H313076   2.243   0.578  14.782  2.5837 -1.4580  0.8184
  888MPD2     N13077   2.329   0.935  15.061  0.1397  0.1591 -0.0181
  888MPD2    H513078   2.280   0.986  15.134 -1.6624 -3.9448  1.6392
  888MPD2    N113079   2.102   0.531  15.205  0.0739  0.1175  1.1116
  888MPD2    H713080   2.075   0.569  15.295  2.7197 -0.2841  2.0555
  889MPD2     C13081   1.492   0.025  12.772 -0.1260 -0.5703 -0.1412
  889MPD2    C113082   1.620   0.018  12.832  0.1890 -0.1065  0.0854
  889MPD2    C213083   1.670   0.140  12.882  0.0135 -0.1188  0.0996
  889MPD2    C313084   1.592   0.253  12.896  0.6121 -0.2082 -0.4014
  889MPD2    C413085   1.467   0.251  12.835  0.5146 -0.7814 -0.3376
  889MPD2    C513086   1.416   0.138  12.777  0.4920 -0.3007 -0.5356
  889MPD2     H13087   1.764   0.126  12.934  1.2446  0.0817 -2.0307
  889MPD2    H113088   1.401   0.338  12.835  0.7185 -0.6158  1.0262
  889MPD2    H213089   1.446   4.668  12.737 -0.4928  0.5509 -2.6173
  889MPD2    H313090   1.320   0.145  12.729 -1.4318 -2.7098  2.9909
  889MPD2     N13091   1.649   0.360  12.971 -0.0668 -0.3005 -0.3861
  889MPD2    H513092   1.743   0.345  13.008 -0.2873 -0.1959  0.2071
  889MPD2    N113093   1.706   4.645  12.800  0.4331 -0.2228  0.5729
  889MPD2    H713094   1.666   4.572  12.741 -0.5794 -1.8803  3.3095
  890MPD2     C13095   0.883   1.772  14.519 -0.1081  0.1121 -0.2158
  890MPD2    C113096   1.012   1.811  14.497  0.6644  0.1787  0.2666
  890MPD2    C213097   1.110   1.781  14.593 -0.8421 -0.3852  0.1281
  890MPD2    C313098   1.076   1.718  14.712 -0.1621  0.3103  0.9248
  890MPD2    C413099   0.948   1.681  14.736  0.6830  0.5904  1.0558
  890MPD2    C513100   0.852   1.718  14.648 -0.4187  0.3903 -0.3742
  890MPD2     H13101   1.211   1.817  14.582 -0.8168 -0.0429  1.4871
  890MPD2    H113102   0.917   1.622  14.822 -0.7681  0.6873  0.5919
  890MPD2    H213103   0.814   1.790  14.437 -1.1725 -1.8401  0.2526
  890MPD2    H313104   0.749   1.700  14.676 -0.4263 -1.4857 -1.6307
  890MPD2     N13105   1.180   1.696  14.803 -0.3983  0.6141  0.3384
  890MPD2    H513106   1.270   1.731  14.774  0.4831 -2.4045 -0.5546
  890MPD2    N113107   1.043   1.883  14.372 -0.3327 -0.1816  0.0132
  890MPD2    H713108   0.968   1.888  14.304 -0.2233  0.8504 -0.0193
  891MPD2     C13109   4.161   0.084  16.300 -0.0468 -0.2348  0.1374
  891MPD2    C113110   4.082   0.139  16.401 -0.1335 -0.0031  0.6302
  891MPD2    C213111   4.129   0.148  16.532  0.2620 -0.2225  0.3883
  891MPD2    C313112   4.250   0.091  16.566  0.0524 -0.0581  0.0574
  891MPD2    C413113   4.319   0.021  16.469  0.0891 -0.2615 -0.5437
  891MPD2    C513114   4.269   0.014  16.343 -1.0320  0.7212 -0.4655
  891MPD2     H13115   4.070   0.204  16.604 -0.3091 -0.0161 -0.2412
  891MPD2    H113116   4.418   4.713  16.481 -0.3411 -0.3424  2.9451
  891MPD2    H213117   4.123   0.075  16.199  1.9803  1.2303 -0.7480
  891MPD2    H313118   4.325   4.684  16.276 -0.1329  2.7098 -1.6302
  891MPD2     N13119   4.276   0.103  16.701  0.2422 -0.2515  0.2719
  891MPD2    H513120   4.210   0.147  16.765 -2.0387  0.9599 -2.8805
  891MPD2    N113121   3.954   0.183  16.359  0.5441  0.1501 -0.1666
  891MPD2    H713122   3.945   0.181  16.258 -1.2875 -2.0424  0.0306
  892MPD2     C13123   0.122   1.073  14.228 -0.6122 -0.5615 -0.2614
  892MPD2    C113124   0.120   1.060  14.361  0.4940 -0.4103  0.3580
  892MPD2    C213125   0.196   0.961  14.412 -0.2818 -0.8972  0.3100
  892MPD2    C313126   0.286   0.887  14.338  0.2436 -0.0016 -0.3945
  892MPD2    C413127   0.294   0.909  14.206 -0.3822 -0.7945 -0.2787
  892MPD2    C513128   0.212   1.004  14.150  0.5927  0.4916  0.2388
  892MPD2     H13129   0.190   0.935  14.517  0.7817  2.1284  1.1208
  892MPD2    H113130   0.360   0.846  14.148 -0.5443  0.3825 -1.7322
  892MPD2    H213131   0.067   1.147  14.171  1.1510  0.6165 -0.4333
  892MPD2    H313132   0.228   1.022  14.045  0.2768 -1.4024 -0.1393
  892MPD2     N13133   0.365   0.785  14.387  0.4337 -0.0910 -0.1371
  892MPD2    H513134   0.437   0.751  14.324 -0.4545 -0.7587 -0.7970
  892MPD2    N113135   0.040   1.146  14.432  0.1660 -0.4379  0.7374
  892MPD2    H713136   4.718   1.209  14.376  1.0753  1.5925  2.1010
  893MPD2     C13137   2.351   4.545   1.824 -0.2789  0.1079  0.7334
  893MPD2    C113138   2.271   4.624   1.745 -0.0945  0.3856  0.9282
  893MPD2    C213139   2.143   4.661   1.806  0.1662  0.1874 -0.3043
  893MPD2    C313140   2.100   4.594   1.916 -0.0228  0.0377  0.2016
  893MPD2    C413141   2.186   4.513   1.981  0.1523 -0.0895  0.0462
  893MPD2    C513142   2.307   4.490   1.934 -0.0626 -0.6181 -0.9517
  893MPD2     H13143   2.080   4.727   1.748 -0.9652  0.3499  1.1191
  893MPD2    H113144   2.157   4.452   2.066 -0.8789  0.0156 -0.2301
  893MPD2    H213145   2.447   4.507   1.790  0.2794  0.3029  2.1081
  893MPD2    H313146   2.365   4.419   1.992  1.1680 -0.3724 -1.8780
  893MPD2     N13147   1.975   4.622   1.976 -0.0664  0.7676 -0.1766
  893MPD2    H513148   1.952   4.571   2.061 -0.9952  0.7653 -0.4269
  893MPD2    N113149   2.318   4.666   1.621  0.5104 -0.4548 -0.3032
  893MPD2    H713150   2.412   4.636   1.598  0.1552 -1.6623 -0.1842
  894MPD2     C13151   4.491   1.889   1.655  0.3878  0.1083 -0.1395
  894MPD2    C113152   4.358   1.902   1.609  0.3042 -0.0424  0.0377
  894MPD2    C213153   4.336   2.013   1.535  0.0543  0.0029 -0.4313
  894MPD2    C313154   4.441   2.099   1.503  0.5460  1.0095  0.4694
  894MPD2    C413155   4.564   2.087   1.559 -0.4223  0.2938 -0.6454
  894MPD2    C513156   4.595   1.979   1.631  0.4098 -0.3941  0.5327
  894MPD2     H13157   4.240   2.044   1.494  0.5226  2.3961  0.3085
  894MPD2    H113158   4.644   2.159   1.544 -0.4792  0.4226 -0.3075
  894MPD2    H213159   4.522   1.801   1.710 -1.7096 -0.8772 -0.5229
  894MPD2    H313160   4.691   1.964   1.679  0.6496 -1.4193 -0.2664
  894MPD2     N13161   4.413   2.194   1.406  0.3996  0.0699  0.2086
  894MPD2    H513162   4.316   2.208   1.379  1.1526  2.1135 -1.4546
  894MPD2    N113163   4.248   1.818   1.635 -0.2642  0.1786 -1.0612
  894MPD2    H713164   4.167   1.828   1.574 -0.2116 -1.3991 -1.3925
  895MPD2     C13165   4.416   0.754  13.480 -0.4378  0.4734  0.8843
  895MPD2    C113166   4.284   0.742  13.514  0.0289 -0.4735  0.0755
  895MPD2    C213167   4.239   0.613  13.515 -0.2171  0.5094 -0.5380
  895MPD2    C313168   4.316   0.501  13.476 -0.1465 -0.0169 -0.0051
  895MPD2    C413169   4.447   0.520  13.450 -0.4909 -0.1332 -0.0623
  895MPD2    C513170   4.492   0.645  13.442  1.1570 -0.0622 -0.4718
  895MPD2     H13171   4.132   0.602  13.528  0.0309 -1.5449 -0.2148
  895MPD2    H113172   4.515   0.441  13.419 -0.3678 -0.2481  0.5074
  895MPD2    H213173   4.472   0.846  13.491  0.4670  0.0463 -0.1350
  895MPD2    H313174   4.599   0.661  13.431  1.4235 -1.5591 -0.0495
  895MPD2     N13175   4.259   0.374  13.458  0.3667  0.4318  0.5382
  895MPD2    H513176   4.158   0.367  13.471  0.1990 -1.9615 -2.1433
  895MPD2    N113177   4.194   0.850  13.544  0.3167  0.0191  0.9515
  895MPD2    H713178   4.105   0.823  13.584  0.8318 -1.4100  1.1435
  896MPD2     C13179   1.860   2.825   1.111  0.4357 -0.4796 -0.1200
  896MPD2    C113180   1.813   2.914   1.017  0.3000  0.4416  0.8857
  896MPD2    C213181   1.704   2.871   0.942 -0.7053  0.3363  0.0732
  896MPD2    C313182   1.649   2.745   0.954  0.5736  0.0788  0.4186
  896MPD2    C413183   1.705   2.659   1.038  0.7284 -0.2540  0.0341
  896MPD2    C513184   1.802   2.702   1.124 -0.0318 -0.2551  0.3482
  896MPD2     H13185   1.665   2.938   0.865 -0.5236  1.3856  0.8962
  896MPD2    H113186   1.676   2.554   1.038 -1.5046  0.3807 -1.8774
  896MPD2    H213187   1.942   2.859   1.174  2.2720 -1.1005 -2.1832
  896MPD2    H313188   1.837   2.624   1.191 -0.8170 -0.8622  0.0523
  896MPD2     N13189   1.546   2.715   0.863  0.6337  0.7871 -0.4275
  896MPD2    H513190   1.499   2.793   0.818 -1.4336 -1.8486 -2.8246
  896MPD2    N113191   1.888   3.031   0.996 -0.2564  0.2368 -0.4943
  896MPD2    H713192   1.984   3.033   1.030 -0.1767 -0.3724 -0.6776
  897MPD2     C13193   2.876   4.261   9.996  0.6023 -0.8814 -0.4228
  897MPD2    C113194   2.821   4.371  10.057  0.0945  0.0467  0.7791
  897MPD2    C213195   2.711   4.356  10.142 -0.1396 -0.0342  0.3055
  897MPD2    C313196   2.658   4.231  10.162  0.1016 -0.2821  0.5546
  897MPD2    C413197   2.731   4.118  10.118  0.4130 -0.0304 -0.1936
  897MPD2    C513198   2.824   4.136  10.025  1.1692  0.7148 -0.2053
  897MPD2     H13199   2.668   4.447  10.181  0.2641  1.0182 -1.7080
  897MPD2    H113200   2.695   4.016  10.121 -0.4597  0.3807  2.7505
  897MPD2    H213201   2.963   4.276   9.933 -0.4381  0.5358 -1.5284
  897MPD2    H313202   2.881   4.049   9.997 -0.8008 -0.7021  0.1702
  897MPD2     N13203   2.536   4.233  10.228  0.0118 -0.2594  0.2164
  897MPD2    H513204   2.495   4.318  10.265  2.1403  1.2047 -0.7839
  897MPD2    N113205   2.868   4.499  10.022 -0.2059  0.1283  1.0486
  897MPD2    H713206   2.941   4.495   9.952 -0.4415  1.2988  0.7391
  898MPD2     C13207   4.026   0.452  17.557  0.3618 -0.3506  0.5523
  898MPD2    C113208   4.128   0.541  17.567  0.5625 -0.4941  0.6107
  898MPD2    C213209   4.100   0.675  17.537 -1.0951  0.3105 -0.2026
  898MPD2    C313210   3.975   0.716  17.514 -0.3113 -1.1834  0.5811
  898MPD2    C413211   3.869   0.622  17.510 -0.4026 -0.0551 -0.8654
  898MPD2    C513212   3.896   0.487  17.526 -0.5811 -0.1180  0.5677
  898MPD2     H13213   4.182   0.746  17.534 -1.2958  0.5815  0.7702
  898MPD2    H113214   3.763   0.642  17.496 -0.4019  0.0699 -0.6849
  898MPD2    H213215   4.044   0.352  17.595  2.9146 -0.3642 -0.6906
  898MPD2    H313216   3.823   0.407  17.528  1.1314 -1.6833  0.0297
  898MPD2     N13217   3.957   0.860  17.500  0.2294  0.7001 -0.7659
  898MPD2    H513218   4.042   0.915  17.491 -0.0988  1.2527 -0.4901
  898MPD2    N113219   4.258   0.514  17.609  0.0073 -0.1160 -0.2680
  898MPD2    H713220   4.328   0.583  17.585  0.1684  0.1007  0.7954
  899MPD2     C13221   0.405   1.023  17.429  0.0779  0.4422 -0.0948
  899MPD2    C113222   0.395   1.116  17.526 -0.2735  1.2203 -0.1933
  899MPD2    C213223   0.389   1.082  17.660  0.1741  0.5419 -0.1320
  899MPD2    C313224   0.375   0.948  17.692  1.0649  0.3129 -0.3845
  899MPD2    C413225   0.368   0.856  17.585 -0.2500  0.1406 -0.3289
  899MPD2    C513226   0.393   0.896  17.458 -0.4405 -0.4338 -0.5332
  899MPD2     H13227   0.374   1.159  17.735 -2.2017  0.4649 -0.5218
  899MPD2    H113228   0.354   0.749  17.603 -1.3470  0.2116 -0.7108
  899MPD2    H213229   0.413   1.054  17.326 -0.7903 -0.5475 -0.4638
  899MPD2    H313230   0.423   0.819  17.388  1.1726 -0.1331 -0.1690
  899MPD2     N13231   0.352   0.900   0.086 -0.8116  0.0679  0.2194
  899MPD2    H513232   0.303   0.811   0.088  0.5888 -0.7309 -1.7638
  899MPD2    N113233   0.395   1.252  17.494 -0.1289  0.3057 -0.1283
  899MPD2    H713234   0.379   1.268  17.395  0.2506 -1.7388 -0.5050
  900MPD2     C13235   0.455   2.843  12.683  1.0835  0.5894  0.5406
  900MPD2    C113236   0.336   2.770  12.687 -0.5130  0.1770 -0.1503
  900MPD2    C213237   0.233   2.800  12.598 -0.2222  0.1752  0.2786
  900MPD2    C313238   0.251   2.906  12.508 -0.0339 -0.6201  0.6131
  900MPD2    C413239   0.365   2.980  12.510 -0.5987 -0.2911  0.5946
  900MPD2    C513240   0.473   2.948  12.591  0.9195 -0.5926  0.8377
  900MPD2     H13241   0.140   2.745  12.585  0.1576 -0.8790  1.9035
  900MPD2    H113242   0.386   3.071  12.456 -0.3949 -0.7604 -0.1166
  900MPD2    H213243   0.531   2.819  12.757  1.0740  0.0670  0.3799
  900MPD2    H313244   0.556   3.016  12.601  1.7101 -1.3477 -0.6929
  900MPD2     N13245   0.138   2.931  12.421  0.4077  0.3516 -0.0519
  900MPD2    H513246   0.058   2.869  12.422  0.0068  0.8673 -0.3750
  900MPD2    N113247   0.329   2.667  12.784 -0.1717 -0.3951  0.0083
  900MPD2    H713248   0.401   2.662  12.855 -0.1606 -0.2514  0.0079
  901MPD2     C13249   4.552   1.716  12.850  0.4979  0.0553  0.2686
  901MPD2    C113250   4.686   1.705  12.810  0.0369  0.0074 -0.1902
  901MPD2    C213251   0.033   1.818  12.827 -0.5583  0.4904  0.1709
  901MPD2    C313252   4.724   1.936  12.885 -0.0689 -0.4753 -0.9802
  901MPD2    C413253   4.595   1.941  12.929  0.2583 -0.3495 -0.1756
  901MPD2    C513254   4.512   1.833  12.904  0.1149  0.1221 -0.4696
  901MPD2     H13255   0.131   1.819  12.781 -0.9722  3.8009 -0.6157
  901MPD2    H113256   4.552   2.020  12.989 -0.5889  0.4666 -1.8686
  901MPD2    H213257   4.485   1.639  12.814  1.9197 -1.3759  0.7130
  901MPD2    H313258   4.410   1.839  12.941  1.0395 -0.4990  2.1882
  901MPD2     N13259   0.083   2.040  12.889 -0.4407 -0.2026  0.4278
  901MPD2    H513260   0.170   2.021  12.839 -0.0207  1.8261  0.4037
  901MPD2    N113261   4.730   1.583  12.755  0.0679  0.4686  0.7684
  901MPD2    H713262   4.663   1.512  12.729  2.6077 -2.3014  1.7655
  902MPD2     C13263   4.447   0.656  12.867  0.2770 -0.1544  0.1689
  902MPD2    C113264   4.406   0.733  12.766 -1.1324 -0.1617  0.5474
  902MPD2    C213265   4.455   0.707  12.640  0.6624 -0.1940  0.3576
  902MPD2    C313266   4.556   0.619  12.617  0.5218 -0.7022 -0.1090
  902MPD2    C413267   4.594   0.535  12.726 -0.7941 -0.2937  0.3696
  902MPD2    C513268   4.540   0.548  12.853 -0.1553 -0.3355 -0.3990
  902MPD2     H13269   4.425   0.767  12.555  1.3657  0.3093  0.4629
  902MPD2    H113270   4.654   0.447  12.710 -0.2325  0.3583 -1.1305
  902MPD2    H213271   4.396   0.670  12.961 -0.2100 -1.7251  0.1352
  902MPD2    H313272   4.567   0.475  12.929 -2.6136 -0.3791  0.4493
  902MPD2     N13273   4.607   0.581  12.492 -0.0242 -0.2057 -0.5503
  902MPD2    H513274   4.674   0.504  12.493 -0.9111 -0.9462  1.9908
  902MPD2    N113275   4.320   0.840  12.800 -0.1202  0.7308  0.2606
  902MPD2    H713276   4.299   0.848  12.899  0.0906  0.4789  0.3271
  903MPD2     C13277   4.372   0.809  11.743 -0.2845  0.1218  0.0894
  903MPD2    C113278   4.398   0.693  11.819 -0.1576  0.0675 -0.5719
  903MPD2    C213279   4.314   0.584  11.798 -0.4672  0.4259 -0.4657
  903MPD2    C313280   4.209   0.588  11.705 -0.1590  0.4880  0.2290
  903MPD2    C413281   4.175   0.704  11.640 -0.2973  0.1787 -0.3670
  903MPD2    C513282   4.260   0.812  11.664 -0.1879  0.0868  0.0947
  903MPD2     H13283   4.329   0.498  11.863  0.4640  1.1469  0.2773
  903MPD2    H113284   4.085   0.714  11.581 -2.2392 -0.1524  2.4899
  903MPD2    H213285   4.425   0.903  11.754  0.4860 -0.5388  2.0992
  903MPD2    H313286   4.231   0.913  11.636 -1.4408 -0.0720  0.8536
  903MPD2     N13287   4.125   0.470  11.701 -0.4289 -0.6238 -0.0418
  903MPD2    H513288   4.154   0.396  11.764  0.0531  0.7164  1.3438
  903MPD2    N113289   4.517   0.690  11.888 -0.3544 -0.0472  0.1721
  903MPD2    H713290   4.565   0.776  11.911 -0.7190  0.0998  0.3779
  904MPD2     C13291   4.284   3.992  13.896 -0.5135 -1.0837  0.3786
  904MPD2    C113292   4.337   4.117  13.922  0.3454  0.1699  0.1376
  904MPD2    C213293   4.473   4.132  13.939  0.9218 -0.2451 -0.3138
  904MPD2    C313294   4.555   4.022  13.939 -0.2158 -0.4324  0.2910
  904MPD2    C413295   4.502   3.897  13.935 -0.0191  0.1694  0.2977
  904MPD2    C513296   4.370   3.884  13.902 -0.2348  0.1837 -0.3487
  904MPD2     H13297   4.509   4.233  13.953  1.3113 -0.6541  1.5564
  904MPD2    H113298   4.562   3.807  13.935 -0.3895 -0.0829 -1.4120
  904MPD2    H213299   4.186   3.984  13.850 -1.3091  1.1741  1.6531
  904MPD2    H313300   4.325   3.786  13.890 -0.7440  0.6099 -1.9097
  904MPD2     N13301   4.692   4.055  13.957  0.3884 -0.2421 -0.1035
  904MPD2    H513302   4.718   4.152  13.945  2.3891 -0.9022 -0.9959
  904MPD2    N113303   4.261   4.237  13.911  0.0815 -0.0998  0.9154
  904MPD2    H713304   4.306   4.325  13.932 -0.2156  0.1662  0.4247
  905MPD2     C13305   3.649   4.506  13.450 -0.3532  0.5657  0.0692
  905MPD2    C113306   3.766   4.567  13.483  0.0633  0.7178  0.0340
  905MPD2    C213307   3.836   4.650  13.397  0.0569  0.4244  0.1072
  905MPD2    C313308   3.801   4.655  13.260  0.0397 -0.2994 -0.2082
  905MPD2    C413309   3.684   4.589  13.229  0.5095  0.6416 -0.9965
  905MPD2    C513310   3.606   4.533  13.323  0.5278  0.2888 -0.4433
  905MPD2     H13311   3.930   4.699  13.423  0.3830 -0.0720 -0.1462
  905MPD2    H113312   3.644   4.602  13.129  0.6150 -0.6708 -1.2087
  905MPD2    H213313   3.588   4.443  13.513  1.8315 -0.3076  1.3148
  905MPD2    H313314   3.510   4.493  13.294  1.1469 -1.2111 -0.4403
  905MPD2     N13315   3.860   0.007  13.163  0.2760  0.3372 -0.2980
  905MPD2    H513316   3.801   0.029  13.083  1.2693 -0.1638 -1.1697
  905MPD2    N113317   3.810   4.548  13.614  0.1552  0.1176  0.0980
  905MPD2    H713318   3.765   4.467  13.656 -0.2915  0.1434 -0.3278
  906MPD2     C13319   1.329   0.105  10.908  0.4603 -0.2270 -0.6721
  906MPD2    C113320   1.254   0.016  10.838 -0.3103 -0.1287  0.4077
  906MPD2    C213321   1.183   4.662  10.911 -0.9200 -0.0469  0.0108
  906MPD2    C313322   1.160   4.661  11.046 -0.1597 -0.1058  0.0811
  906MPD2    C413323   1.238   0.018  11.117 -0.3282 -0.0555 -0.0785
  906MPD2    C513324   1.313   0.117  11.047 -0.3336 -0.3994  0.2873
  906MPD2     H13325   1.119   4.603  10.846  0.6993 -2.2617  0.4301
  906MPD2    H113326   1.238   0.021  11.225 -2.3463 -2.5265 -0.0026
  906MPD2    H213327   1.405   0.173  10.871  0.4453 -0.1982 -0.6503
  906MPD2    H313328   1.372   0.188  11.103  1.0427 -2.5366  1.5356
  906MPD2     N13329   1.083   4.557  11.109  0.5213  0.2587 -0.0549
  906MPD2    H513330   1.086   4.556  11.210  2.6196  1.6252 -0.1133
  906MPD2    N113331   1.262   0.006  10.697  0.4156  0.0145  0.5834
  906MPD2    H713332   1.216   4.659  10.658  1.0569 -0.9460  1.8281
  907MPD2     C13333   0.234   3.777  15.976 -0.0884 -0.0443 -0.3606
  907MPD2    C113334   0.286   3.677  15.900  0.1989  0.4766  0.5959
  907MPD2    C213335   0.363   3.578  15.962 -0.5648 -0.8071  0.2363
  907MPD2    C313336   0.383   3.580  16.099  0.5829 -0.5105 -0.6686
  907MPD2    C413337   0.333   3.691  16.172  0.2395 -0.1850 -0.2300
  907MPD2    C513338   0.262   3.787  16.105 -0.1214 -0.7925 -0.2622
  907MPD2     H13339   0.405   3.499  15.901  0.2189 -1.1014  1.1453
  907MPD2    H113340   0.338   3.704  16.280 -1.2999  0.7318 -0.2768
  907MPD2    H213341   0.178   3.860  15.934  3.0717  1.2431 -1.9902
  907MPD2    H313342   0.211   3.863  16.164  1.7145 -0.1491  0.4902
  907MPD2     N13343   0.467   3.477  16.155  0.4746 -0.9282  0.8705
  907MPD2    H513344   0.472   3.390  16.102  1.5609 -1.4546  1.8255
  907MPD2    N113345   0.267   3.665  15.756 -0.4533  0.2253  0.1858
  907MPD2    H713346   0.322   3.594  15.709  0.6018 -0.2026  2.0576
  908MPD2     C13347   2.759   4.548   9.183 -0.3228  0.0089 -0.0449
  908MPD2    C113348   2.702   4.482   9.290  0.2526  0.2455 -0.1440
  908MPD2    C213349   2.732   4.537   9.415  0.9570 -1.1319  0.2216
  908MPD2    C313350   2.806   4.650   9.442  0.7019 -0.5062  0.3933
  908MPD2    C413351   2.860   4.720   9.331 -0.1998 -0.3782 -0.3735
  908MPD2    C513352   2.839   4.657   9.207 -0.1839 -0.1170  0.7371
  908MPD2     H13353   2.676   4.500   9.500 -0.9993 -1.4017 -1.1686
  908MPD2    H113354   2.919   0.076   9.345 -0.4900 -0.2451  0.0282
  908MPD2    H213355   2.749   4.508   9.083  0.5704 -0.4271  0.0390
  908MPD2    H313356   2.894   4.702   9.126 -1.2867 -0.9323 -0.4524
  908MPD2     N13357   2.820   4.692   9.577  0.3245  0.2157  0.1156
  908MPD2    H513358   2.792   4.621   9.644  1.4496  1.7398  2.1963
  908MPD2    N113359   2.602   4.392   9.259 -0.2090 -0.2114 -0.3119
  908MPD2    H713360   2.581   4.386   9.160  0.7911  2.7649 -0.6914
  909MPD2     C13361   3.025   2.399  11.740 -0.1662 -0.3889 -0.3821
  909MPD2    C113362   3.029   2.521  11.674  0.2560 -0.0702  0.2124
  909MPD2    C213363   2.936   2.614  11.722 -0.3810 -0.3199  0.0980
  909MPD2    C313364   2.855   2.592  11.830  0.7783 -0.0077  0.9225
  909MPD2    C413365   2.873   2.473  11.905 -0.1335 -0.5550 -0.1048
  909MPD2    C513366   2.955   2.378  11.853  0.5593 -0.1155 -0.3863
  909MPD2     H13367   2.928   2.711  11.673 -1.0805  0.6321  2.1159
  909MPD2    H113368   2.815   2.449  11.993  1.3408 -2.1646  0.4287
  909MPD2    H213369   3.089   2.319  11.701  0.0145 -0.1069 -0.6655
  909MPD2    H313370   2.962   2.282  11.903 -0.8772 -0.0091  0.0202
  909MPD2     N13371   2.762   2.691  11.875 -0.2372  0.0789 -0.2147
  909MPD2    H513372   2.771   2.788  11.845  1.2942 -0.0360 -0.1075
  909MPD2    N113373   3.107   2.552  11.561 -0.0786  0.0148  0.2743
  909MPD2    H713374   3.078   2.638  11.516  1.5051  0.6596  0.4906
  910MPD2     C13375   4.693   4.072  16.309  0.6191 -1.0241 -0.1170
  910MPD2    C113376   4.614   3.961  16.287 -0.0905 -0.3003  0.0975
  910MPD2    C213377   4.594   3.919  16.155  0.0813 -0.1407  0.3765
  910MPD2    C313378   4.664   3.975  16.053 -0.8217 -0.6833 -0.4993
  910MPD2    C413379   0.014   4.078  16.078  0.4287  0.1421  0.1757
  910MPD2    C513380   0.024   4.130  16.207 -0.5883  0.0347 -0.3395
  910MPD2     H13381   4.510   3.852  16.138 -0.2863  0.6712 -1.0380
  910MPD2    H113382   0.078   4.125  16.004  2.1686 -0.2391  1.4258
  910MPD2    H213383   4.704   4.119  16.406  1.2513 -3.2098  0.8754
  910MPD2    H313384   0.088   4.217  16.224  0.5018 -0.6693 -0.8067
  910MPD2     N13385   4.662   3.931  15.917 -0.6529  0.4247 -0.4270
  910MPD2    H513386   4.712   3.991  15.853 -2.8287  2.1424 -0.5357
  910MPD2    N113387   4.545   3.899  16.389 -0.0321  0.7300 -0.4621
  910MPD2    H713388   4.509   3.808  16.361 -2.2399  1.5658 -0.3005
  911MPD2     C13389   2.177   4.580  16.484  0.2358  0.0363  0.7041
  911MPD2    C113390   2.225   4.712  16.482 -0.3257  0.1106  0.6672
  911MPD2    C213391   2.153   0.087  16.432 -0.0367 -0.3361 -0.2100
  911MPD2    C313392   2.032   0.065  16.367  0.0161  0.3826 -0.0876
  911MPD2    C413393   1.982   4.672  16.377 -0.1523  0.4546  0.5855
  911MPD2    C513394   2.046   4.567  16.439 -0.5844 -0.1193  0.7261
  911MPD2     H13395   2.198   0.184  16.417 -0.5940 -0.0088  0.2332
  911MPD2    H113396   1.887   4.641  16.334  1.3295  0.1810 -2.4701
  911MPD2    H213397   2.224   4.491  16.523 -1.9211 -1.7497 -0.7080
  911MPD2    H313398   2.002   4.468  16.437 -0.0753 -0.3392  0.3385
  911MPD2     N13399   1.956   0.162  16.305 -0.2627 -0.1759  0.2797
  911MPD2    H513400   1.867   0.125  16.274 -0.2770  0.6404 -0.6367
  911MPD2    N113401   2.364   4.730  16.520  0.4002 -0.4856 -0.2990
  911MPD2    H713402   2.419   4.645  16.524 -0.6181 -1.1157  0.2882
  912MPD2     C13403   1.677   0.024  15.663  0.3579 -0.4530  0.2307
  912MPD2    C113404   1.631   0.041  15.793 -0.2817  0.0841  0.7445
  912MPD2    C213405   1.550   4.676  15.850  0.1501 -0.1298 -0.3527
  912MPD2    C313406   1.508   4.564  15.781  0.4871 -0.4351 -0.0032
  912MPD2    C413407   1.543   4.548  15.653  0.3104 -0.1276 -0.2581
  912MPD2    C513408   1.630   4.644  15.594  0.1739  0.3787  0.5655
  912MPD2     H13409   1.506   4.686  15.948 -0.7065  2.3102 -0.9862
  912MPD2    H113410   1.517   4.463  15.591  0.9461 -1.9720  1.9990
  912MPD2    H213411   1.750   0.088  15.615  0.1343  1.6627  2.7045
  912MPD2    H313412   1.675   4.634  15.496  0.3593  1.1490  0.5689
  912MPD2     N13413   1.438   4.466  15.848 -0.9064  0.2457  0.2049
  912MPD2    H513414   1.433   4.480  15.949 -1.7095  0.3853  0.1415
  912MPD2    N113415   1.678   0.143  15.865 -0.6253 -0.4166 -0.1038
  912MPD2    H713416   1.747   0.204  15.822 -0.5821 -0.7800 -0.5475
  913MPD2     C13417   2.554   1.792  11.037 -0.5024  0.0734 -0.2210
  913MPD2    C113418   2.579   1.662  11.010 -0.4532  0.3998  1.2489
  913MPD2    C213419   2.629   1.622  10.885 -0.1782 -0.8075  0.2103
  913MPD2    C313420   2.645   1.717  10.789  0.2858  0.0954  0.0045
  913MPD2    C413421   2.613   1.849  10.823  0.5643 -0.1080  0.6078
  913MPD2    C513422   2.565   1.889  10.942 -0.7057  0.9202 -0.1876
  913MPD2     H13423   2.656   1.519  10.868 -0.5946 -0.9271  0.2846
  913MPD2    H113424   2.619   1.922  10.743  1.2302 -0.1974  0.5791
  913MPD2    H213425   2.520   1.813  11.138 -1.3626  4.8724 -1.5393
  913MPD2    H313426   2.517   1.984  10.962 -0.6079  0.7830  0.6988
  913MPD2     N13427   2.689   1.686  10.652 -0.6431 -0.3866  0.0660
  913MPD2    H513428   2.682   1.764  10.588 -2.1479  2.0826  3.2712
  913MPD2    N113429   2.570   1.576  11.122  0.6315  0.0883  0.5499
  913MPD2    H713430   2.529   1.610  11.208  0.0915  0.4385  0.1553
  914MPD2     C13431   0.229   1.974  12.111 -0.2808  0.3485 -0.8191
  914MPD2    C113432   0.276   1.976  12.241  0.7953 -0.5795 -0.6014
  914MPD2    C213433   0.257   1.865  12.317  0.0611 -0.4138 -0.9759
  914MPD2    C313434   0.202   1.750  12.259  0.4225  0.1331 -0.4679
  914MPD2    C413435   0.165   1.758  12.127  0.6078 -0.2129  0.1822
  914MPD2    C513436   0.171   1.869  12.053 -0.1547 -0.2276  0.5194
  914MPD2     H13437   0.277   1.861  12.423 -0.0610 -1.2513 -0.9827
  914MPD2    H113438   0.112   1.680  12.073  2.0029 -0.6568 -0.5475
  914MPD2    H213439   0.244   2.061  12.049  2.0446 -0.1599 -0.9695
  914MPD2    H313440   0.148   1.876  11.947 -0.3506  1.7575  0.6961
  914MPD2     N13441   0.182   1.632  12.331 -0.2981  0.7623  0.2606
  914MPD2    H513442   0.189   1.636  12.432 -0.7984 -1.2932  0.3865
  914MPD2    N113443   0.333   2.093  12.295  0.8681  0.0167  0.6939
  914MPD2    H713444   0.331   2.175  12.234  0.9184  0.0055  0.6766
  915MPD2     C13445   3.084   1.686  16.104 -0.1154 -0.2991  0.2042
  915MPD2    C113446   2.979   1.746  16.042  0.0738 -0.5301  0.3442
  915MPD2    C213447   2.872   1.791  16.116  0.5747  0.4674 -0.0229
  915MPD2    C313448   2.879   1.792  16.258 -0.0191  0.3007  0.3793
  915MPD2    C413449   2.986   1.729  16.318  0.5880 -0.4189  0.5236
  915MPD2    C513450   3.080   1.673  16.239 -0.5145 -0.3100 -0.0144
  915MPD2     H13451   2.786   1.843  16.077 -0.3831 -0.3740  0.9436
  915MPD2    H113452   3.012   1.735  16.423 -1.4996  0.5728  0.9809
  915MPD2    H213453   3.172   1.657  16.048  0.6608  1.6809  0.3643
  915MPD2    H313454   3.168   1.635  16.288 -0.6652  0.9755  1.2353
  915MPD2     N13455   2.774   1.844  16.336  0.7532 -0.3576 -0.0740
  915MPD2    H513456   2.700   1.894  16.288  1.7145  0.2592 -0.9026
  915MPD2    N113457   2.990   1.755  15.905 -0.5286 -1.0771  0.0715
  915MPD2    H713458   3.072   1.716  15.859  1.0788  1.0723  1.1534
  916MPD2     C13459   1.143   0.267  15.756  0.4406  0.1877  0.0364
  916MPD2    C113460   1.184   0.156  15.826 -0.3738  0.3448  0.0718
  916MPD2    C213461   1.232   0.048  15.750 -0.4776 -0.0276 -0.0032
  916MPD2    C313462   1.239   0.061  15.616 -0.4799  0.3060  0.5859
  916MPD2    C413463   1.190   0.171  15.553  0.4355 -0.4061  0.3868
  916MPD2    C513464   1.144   0.279  15.619  0.3496 -0.6722  0.6494
  916MPD2     H13465   1.269   4.694  15.801 -0.9984  0.0779  0.5532
  916MPD2    H113466   1.200   0.175  15.445  2.5090 -1.7886  0.5201
  916MPD2    H213467   1.104   0.349  15.814 -1.2112  0.6206 -1.6794
  916MPD2    H313468   1.098   0.360  15.563 -0.8347 -0.1857  2.3256
  916MPD2     N13469   1.298   4.697  15.539  0.5270  0.6325 -0.3674
  916MPD2    H513470   1.321   4.609  15.584  0.0083  1.6957  1.9525
  916MPD2    N113471   1.207   0.164  15.961  0.3275 -0.1779  0.3604
  916MPD2    H713472   1.199   0.258  15.998  0.6740  0.4670 -1.1994
  917MPD2     C13473   1.653   1.896  11.380 -0.3149 -0.2827 -0.0240
  917MPD2    C113474   1.698   1.936  11.506  0.2596  0.1809 -0.2033
  917MPD2    C213475   1.803   2.026  11.505  0.0625 -0.0190  0.0805
  917MPD2    C313476   1.837   2.087  11.385  0.3076  1.0522 -0.1499
  917MPD2    C413477   1.781   2.053  11.265 -0.4103  0.2438  0.3710
  917MPD2    C513478   1.693   1.950  11.265 -0.6139  0.1339  0.4285
  917MPD2     H13479   1.854   2.060  11.594  1.0879  0.8788 -0.8472
  917MPD2    H113480   1.821   2.097  11.174 -0.2764 -0.5627  0.0428
  917MPD2    H213481   1.582   1.814  11.373  0.4891 -0.6811 -3.3921
  917MPD2    H313482   1.659   1.910  11.170  1.3743 -0.7543  0.0851
  917MPD2     N13483   1.948   2.181  11.380 -0.3369 -0.2962 -0.1326
  917MPD2    H513484   1.962   2.217  11.287  0.3645 -5.3195 -1.9578
  917MPD2    N113485   1.637   1.875  11.618 -0.1277 -0.1030 -0.3670
  917MPD2    H713486   1.552   1.821  11.603  0.1613 -0.3808 -0.9943
  918MPD2     C13487   1.565   2.417  12.434  0.0220 -0.6690 -0.4547
  918MPD2    C113488   1.666   2.376  12.346 -0.4880 -0.4525 -0.6679
  918MPD2    C213489   1.633   2.290  12.239 -0.3949  0.1808 -0.5018
  918MPD2    C313490   1.511   2.223  12.242  0.3927 -0.0065 -0.7144
  918MPD2    C413491   1.427   2.238  12.348  0.0004 -0.2258 -0.1281
  918MPD2    C513492   1.449   2.341  12.438  0.4810 -0.1715  0.4437
  918MPD2     H13493   1.703   2.278  12.158  0.4626 -0.0146  0.2635
  918MPD2    H113494   1.333   2.183  12.352 -1.8885  2.8254 -3.0485
  918MPD2    H213495   1.579   2.493  12.509 -1.7610 -0.2864 -0.5025
  918MPD2    H313496   1.364   2.366  12.500  0.4377  0.4737  0.1294
  918MPD2     N13497   1.483   2.134  12.139  0.6245 -0.7082 -0.0278
  918MPD2    H513498   1.558   2.131  12.071 -0.8943 -2.5771 -1.6125
  918MPD2    N113499   1.789   2.437  12.330 -0.5277 -0.8609 -0.1639
  918MPD2    H713500   1.857   2.389  12.271 -0.2383  0.7495 -1.1578
  919MPD2     C13501   2.202   1.266  11.397 -0.0239 -0.3431  0.2809
  919MPD2    C113502   2.211   1.131  11.359 -0.2993  0.0521  0.0919
  919MPD2    C213503   2.211   1.099  11.226 -0.4204 -0.1028  0.2784
  919MPD2    C313504   2.214   1.198  11.131 -0.1409 -0.2023 -0.0772
  919MPD2    C413505   2.210   1.332  11.165 -0.1394  0.0289 -0.6953
  919MPD2    C513506   2.211   1.370  11.304 -0.5216 -0.4384  0.9215
  919MPD2     H13507   2.215   0.993  11.202 -1.7383  0.0635 -0.6826
  919MPD2    H113508   2.230   1.410  11.093 -0.8750 -1.3455 -2.3829
  919MPD2    H213509   2.196   1.292  11.502 -3.3614 -0.2539  0.0829
  919MPD2    H313510   2.205   1.473  11.337  2.8847 -0.0764  0.3961
  919MPD2     N13511   2.216   1.165  10.990  0.1422 -0.2087  0.0971
  919MPD2    H513512   2.223   1.240  10.921 -1.9175 -0.6353 -0.5655
  919MPD2    N113513   2.213   1.023  11.445 -0.5554 -0.5998  0.5551
  919MPD2    H713514   2.209   0.931  11.404 -1.4611 -0.8403  1.1994
  920MPD2     C13515   1.734   1.620  10.534 -0.5437  0.4831 -0.2004
  920MPD2    C113516   1.735   1.549  10.653 -0.2049 -0.3001  0.5842
  920MPD2    C213517   1.815   1.440  10.668  0.3986 -0.1659  0.4000
  920MPD2    C313518   1.894   1.399  10.562 -0.3470 -0.1756  0.3116
  920MPD2    C413519   1.891   1.464  10.435 -0.1707 -0.0403  0.1348
  920MPD2    C513520   1.809   1.573  10.429 -0.8302 -0.5479  0.0273
  920MPD2     H13521   1.821   1.392  10.765  1.7714 -3.3062 -1.2470
  920MPD2    H113522   1.953   1.431  10.353 -0.4329  1.1285 -0.5324
  920MPD2    H213523   1.674   1.707  10.509  0.5935  1.1772 -0.5248
  920MPD2    H313524   1.792   1.624  10.334 -0.2693 -0.8189 -0.2181
  920MPD2     N13525   1.978   1.300  10.589 -0.2432  0.1784  0.6020
  920MPD2    H513526   1.979   1.278  10.688  1.2857  1.0362  0.7925
  920MPD2    N113527   1.646   1.586  10.761 -0.3277  0.3180  0.0274
  920MPD2    H713528   1.614   1.516  10.827 -1.3557 -1.1499 -2.0352
  921MPD2     C13529   3.308   0.502  16.829  0.4267 -0.4764  0.0577
  921MPD2    C113530   3.313   0.442  16.705 -0.4608  0.4129 -0.1976
  921MPD2    C213531   3.194   0.383  16.668 -0.3758 -0.7124  0.0963
  921MPD2    C313532   3.080   0.378  16.736 -0.4810  0.4820  0.1231
  921MPD2    C413533   3.078   0.439  16.859 -0.2865  0.0204  0.4211
  921MPD2    C513534   3.198   0.488  16.902  0.4483 -0.2653  0.1744
  921MPD2     H13535   3.192   0.325  16.576  1.1231  0.1998 -0.5006
  921MPD2    H113536   2.983   0.439  16.912 -0.8279  3.6759 -0.5721
  921MPD2    H213537   3.393   0.556  16.869  1.0755 -0.6292 -1.1273
  921MPD2    H313538   3.187   0.543  16.995 -2.1535 -0.3763 -0.0646
  921MPD2     N13539   2.974   0.314  16.671 -0.2918  0.2890  0.2837
  921MPD2    H513540   2.988   0.282  16.576  1.2347  0.8912  0.3042
  921MPD2    N113541   3.431   0.448  16.621  0.4194  0.0148  0.4571
  921MPD2    H713542   3.515   0.487  16.662  0.4832 -0.1748  0.5062
  922MPD2     C13543   3.295   2.816  17.133 -0.0071 -0.0903 -0.3872
  922MPD2    C113544   3.180   2.834  17.207  0.3810  0.1581  0.1241
  922MPD2    C213545   3.099   2.727  17.220 -0.1241 -0.2315 -0.0176
  922MPD2    C313546   3.137   2.598  17.167 -0.0732 -0.1767 -0.8013
  922MPD2    C413547   3.257   2.578  17.114 -0.0652 -1.1304 -0.2211
  922MPD2    C513548   3.327   2.689  17.098  0.2644  0.2023  0.0181
  922MPD2     H13549   3.002   2.734  17.268 -0.9049 -1.3820 -1.4404
  922MPD2    H113550   3.297   2.482  17.083 -3.1263 -3.3834  2.8130
  922MPD2    H213551   3.367   2.895  17.112  0.4069 -0.3786 -0.0472
  922MPD2    H313552   3.420   2.685  17.041  0.9032  0.7958  1.0199
  922MPD2     N13553   3.047   2.493  17.181  0.2517 -0.1106 -0.5510
  922MPD2    H513554   2.954   2.520  17.211 -0.2404 -1.0345 -1.2247
  922MPD2    N113555   3.140   2.955  17.263  0.3019 -0.3098  0.2861
  922MPD2    H713556   3.057   2.947  17.321 -0.0885 -0.4354 -0.2956
  923MPD2     C13557   0.498   0.208   8.641  0.5667  0.0936  0.2965
  923MPD2    C113558   0.434   0.232   8.761  0.8989 -1.1005 -0.6046
  923MPD2    C213559   0.482   0.176   8.881 -1.1048 -0.0395 -0.4059
  923MPD2    C313560   0.594   0.089   8.868 -0.0671 -0.2072 -0.1084
  923MPD2    C413561   0.648   0.050   8.748  0.2205  0.3565  0.2970
  923MPD2    C513562   0.606   0.110   8.632 -0.2351 -0.3055 -0.4312
  923MPD2     H13563   0.441   0.208   8.976 -0.7353  1.3727 -0.7236
  923MPD2    H113564   0.730   4.714   8.743 -1.5937 -1.5012 -2.8936
  923MPD2    H213565   0.471   0.262   8.550 -0.1581  0.5019  0.7510
  923MPD2    H313566   0.657   0.106   8.536  2.4917  1.6111  0.9642
  923MPD2     N13567   0.650   0.030   8.987 -0.4843  0.4869 -0.8657
  923MPD2    H513568   0.713   4.685   8.978 -0.2174  0.6505 -0.4643
  923MPD2    N113569   0.327   0.320   8.758  0.2100 -0.1655 -0.6929
  923MPD2    H713570   0.337   0.384   8.680 -0.9401  0.7099 -0.1299
  924MPD2     C13571   0.246   2.679  16.392  0.1150  0.4823 -0.1772
  924MPD2    C113572   0.292   2.749  16.507  0.2225  0.4017 -0.2398
  924MPD2    C213573   0.395   2.837  16.500 -0.6779 -0.2028  0.4718
  924MPD2    C313574   0.453   2.862  16.376  0.0393 -0.0784  0.5012
  924MPD2    C413575   0.416   2.794  16.265 -0.4337 -0.5660 -0.1067
  924MPD2    C513576   0.309   2.705  16.274  0.1374  0.7557 -0.2892
  924MPD2     H13577   0.420   2.903  16.582  0.3118 -0.4887  0.3987
  924MPD2    H113578   0.452   2.806  16.164 -1.1912  1.1240 -0.1638
  924MPD2    H213579   0.154   2.622  16.385  0.6713 -0.4925  0.4344
  924MPD2    H313580   0.268   2.653  16.189  2.7178 -2.6390  0.5124
  924MPD2     N13581   0.552   2.961  16.365 -0.0157  0.5873  0.0429
  924MPD2    H513582   0.576   3.018  16.445  0.6161  1.9484 -1.1012
  924MPD2    N113583   0.223   2.728  16.632  0.4061 -0.2305  0.5469
  924MPD2    H713584   0.135   2.676  16.633  0.2300  0.0577  0.3596
  925MPD2     C13585   4.448   0.501  14.606  0.2487 -0.3779 -0.3871
  925MPD2    C113586   4.310   0.516  14.571 -0.6316  0.4490  0.8620
  925MPD2    C213587   4.212   0.498  14.664  0.6250 -0.0750  0.1764
  925MPD2    C313588   4.253   0.473  14.797 -0.1658 -0.4204 -0.4890
  925MPD2    C413589   4.385   0.464  14.826 -0.0613 -0.5134  0.2921
  925MPD2    C513590   4.483   0.473  14.732 -0.7687 -0.1280 -0.0868
  925MPD2     H13591   4.111   0.516  14.627  0.9268 -0.6275 -0.9137
  925MPD2    H113592   4.412   0.435  14.927 -0.2671 -0.3609  0.3887
  925MPD2    H213593   4.532   0.518  14.540  0.9305 -0.2997  0.5131
  925MPD2    H313594   4.583   0.477  14.773 -0.4349 -0.2205 -0.8963
  925MPD2     N13595   4.167   0.457  14.907  0.4416 -0.2792 -0.0530
  925MPD2    H513596   4.202   0.434  15.000 -0.5270 -0.9925  0.1369
  925MPD2    N113597   4.271   0.564  14.445  0.3689  0.4286  0.3322
  925MPD2    H713598   4.178   0.592  14.417  0.6583  0.0458 -0.9963
  926MPD2     C13599   2.660   3.961  13.629 -0.2887  0.4937 -0.2359
  926MPD2    C113600   2.645   4.090  13.583  0.4618  0.1603  0.7098
  926MPD2    C213601   2.711   4.123  13.469  0.8032  0.3606 -1.1420
  926MPD2    C313602   2.777   4.033  13.389 -0.1730 -0.2345 -0.2738
  926MPD2    C413603   2.762   3.899  13.412 -0.3271 -0.4101  0.1515
  926MPD2    C513604   2.712   3.871  13.537  0.3964  0.0447  0.2761
  926MPD2     H13605   2.722   4.227  13.440 -1.0202  0.6962 -0.6015
  926MPD2    H113606   2.806   3.821  13.351  0.2484 -0.5961  0.8022
  926MPD2    H213607   2.622   3.933  13.726  0.5997 -2.2971 -0.6968
  926MPD2    H313608   2.719   3.765  13.556 -2.6595 -0.4624 -1.5376
  926MPD2     N13609   2.862   4.075  13.282 -0.3362 -0.2391 -0.8885
  926MPD2    H513610   2.902   4.003  13.222  1.8369 -1.4638  2.0006
  926MPD2    N113611   2.568   4.186  13.639 -0.6283 -0.0660 -0.4593
  926MPD2    H713612   2.564   4.275  13.589 -0.7714  0.4432  0.4590
  927MPD2     C13613   2.012   1.000   0.108 -0.1101  0.1622 -0.7616
  927MPD2    C113614   2.014   1.140   0.119 -0.1748  0.9508 -0.1029
  927MPD2    C213615   2.093   1.215   0.025  0.6428 -0.0133  0.0834
  927MPD2    C313616   2.170   1.141  17.672 -0.5711  0.6358  0.4568
  927MPD2    C413617   2.147   1.001  17.657  0.1221  0.3304 -0.2495
  927MPD2    C513618   2.072   0.930   0.014  0.5060  0.7219  0.6508
  927MPD2     H13619   2.099   1.323   0.021 -0.4379  0.0640  0.5105
  927MPD2    H113620   2.201   0.937  17.587  0.0274 -1.2157  1.0974
  927MPD2    H213621   1.934   0.958   0.170  0.7808  1.2002  1.0454
  927MPD2    H313622   2.053   0.824   0.002  2.6103  0.4914 -0.6009
  927MPD2     N13623   2.248   1.211  17.582 -0.5071 -0.0045 -0.4837
  927MPD2    H513624   2.259   1.310  17.604 -1.3470  0.3435 -1.6362
  927MPD2    N113625   1.933   1.203   0.216 -0.4476  0.1509 -0.4224
  927MPD2    H713626   1.879   1.139   0.273 -0.6240 -0.9526 -1.8352
  928MPD2     C13627   0.051   4.339   1.100 -0.6622  0.0632 -0.7011
  928MPD2    C113628   0.073   4.476   1.084 -0.2072 -0.4436  0.1047
  928MPD2    C213629   0.121   4.525   0.964 -0.9206 -0.7595 -0.2240
  928MPD2    C313630   0.135   4.442   0.857  0.3493 -0.2443 -0.4530
  928MPD2    C413631   0.101   4.312   0.872 -0.3364  0.3904 -0.1753
  928MPD2    C513632   0.062   4.257   0.992 -0.1782  0.2767  0.4512
  928MPD2     H13633   0.146   4.629   0.947  0.9024 -0.9607  1.1896
  928MPD2    H113634   0.110   4.247   0.786  4.1060  0.3316  0.3538
  928MPD2    H213635   0.020   4.306   1.198 -1.7770  2.7682 -0.1377
  928MPD2    H313636   0.048   4.149   0.985 -0.1879  0.2604  0.7668
  928MPD2     N13637   0.194   4.490   0.742 -0.3737  0.0481 -0.1353
  928MPD2    H513638   0.194   4.428   0.662 -0.6717 -0.9527  0.6453
  928MPD2    N113639   0.051   4.559   1.196 -0.1112 -0.1400  0.0350
  928MPD2    H713640   0.034   4.513   1.286 -3.2174 -0.7296 -0.8624
  929MPD2     C13641   0.595   4.687  10.087 -0.1072  0.2040 -0.5348
  929MPD2    C113642   0.489   4.611  10.110  0.7391 -0.6103 -0.2043
  929MPD2    C213643   0.377   4.626  10.026  0.0319  0.3313  0.0482
  929MPD2    C313644   0.364   4.725   9.934 -0.4946 -0.5823  0.4035
  929MPD2    C413645   0.472   0.070   9.919 -0.4509 -0.0057 -0.4381
  929MPD2    C513646   0.586   0.051   9.993 -0.6141  0.1049 -0.7985
  929MPD2     H13647   0.290   4.566  10.049  1.1926 -1.2143  0.4677
  929MPD2    H113648   0.458   0.163   9.866 -1.7783  0.3851  0.5907
  929MPD2    H213649   0.685   4.679  10.147  1.3006  0.6433 -2.5829
  929MPD2    H313650   0.672   0.116   9.975 -0.6093  0.2899 -0.1130
  929MPD2     N13651   0.246   0.031   9.867 -0.9041 -0.1033 -0.1181
  929MPD2    H513652   0.247   0.124   9.825 -2.1572  0.6013  1.4221
  929MPD2    N113653   0.495   4.522  10.221 -0.1355  0.2410  0.3515
  929MPD2    H713654   0.570   4.529  10.290 -0.6658  1.1941  0.8330
  930MPD2     C13655   2.149   2.274  14.340  0.2937 -0.3487  0.9207
  930MPD2    C113656   2.229   2.335  14.247  1.0354  0.2388 -0.0222
  930MPD2    C213657   2.223   2.294  14.117  0.2275 -0.2879 -0.2488
  930MPD2    C313658   2.146   2.186  14.076 -0.0954 -0.0038 -0.1101
  930MPD2    C413659   2.057   2.139  14.171 -0.6286  0.1235 -0.4699
  930MPD2    C513660   2.064   2.175  14.300 -0.8354 -0.4890 -0.0163
  930MPD2     H13661   2.283   2.351  14.047 -0.6905  0.0126 -0.7989
  930MPD2    H113662   1.979   2.067  14.147  0.6615 -0.5355 -2.6764
  930MPD2    H213663   2.141   2.307  14.443  3.2121 -1.0099  1.3732
  930MPD2    H313664   2.003   2.124  14.374 -0.0214  0.2482  1.1664
  930MPD2     N13665   2.149   2.132  13.950 -0.7091 -0.0228 -0.1649
  930MPD2    H513666   2.077   2.064  13.929  1.0070 -1.3292 -1.8022
  930MPD2    N113667   2.321   2.440  14.281 -0.6985 -0.3236 -0.7097
  930MPD2    H713668   2.350   2.500  14.204  0.2554  0.7093  0.4631
  931MPD2     C13669   1.681   1.118   0.985  0.1462 -0.4654 -0.1918
  931MPD2    C113670   1.784   1.118   0.887  0.0638 -0.4763  0.7263
  931MPD2    C213671   1.880   1.018   0.903 -0.3077  0.9595  0.6779
  931MPD2    C313672   1.880   0.926   1.009  0.3108  0.3256 -1.0647
  931MPD2    C413673   1.779   0.930   1.095 -0.1267  0.2857 -0.1258
  931MPD2    C513674   1.678   1.022   1.082  0.1932 -0.5664  0.0987
  931MPD2     H13675   1.971   1.038   0.847  0.0211 -1.0967  0.4980
  931MPD2    H113676   1.783   0.865   1.181 -0.9558  0.6339  0.1771
  931MPD2    H213677   1.595   1.182   0.969 -1.0384 -2.4463 -1.8105
  931MPD2    H313678   1.601   1.026   1.158  0.2861 -0.8265  0.2064
  931MPD2     N13679   1.986   0.842   1.045 -0.1949  0.3098  0.0009
  931MPD2    H513680   1.973   0.778   1.122 -0.2909  2.7598  2.0193
  931MPD2    N113681   1.791   1.213   0.787 -0.5861  0.3215 -0.4700
  931MPD2    H713682   1.729   1.294   0.793  0.3462  0.7825  2.6971
  932MPD2     C13683   3.960   0.343  11.203 -0.4242 -0.5784 -0.4464
  932MPD2    C113684   4.072   0.404  11.248  0.8570  0.2899  0.5229
  932MPD2    C213685   4.164   0.321  11.313 -0.0523  0.1763 -0.0860
  932MPD2    C313686   4.147   0.188  11.330 -0.2255  0.0495  0.3446
  932MPD2    C413687   4.021   0.137  11.305  0.2610 -0.3409  0.3244
  932MPD2    C513688   3.931   0.219  11.240 -0.1854 -0.1532  0.7388
  932MPD2     H13689   4.266   0.348  11.340  0.2678 -0.2062 -0.9207
  932MPD2    H113690   3.996   0.032  11.315 -1.4117  0.0447  0.2400
  932MPD2    H213691   3.873   0.397  11.168 -0.2208  0.2537  0.3250
  932MPD2    H313692   3.837   0.176  11.206  0.9059 -0.9630 -1.2652
  932MPD2     N13693   4.248   0.104  11.375  0.0489 -0.2560 -0.6436
  932MPD2    H513694   4.336   0.150  11.395  0.0679  0.4918 -2.4864
  932MPD2    N113695   4.108   0.536  11.231  0.0027  0.2072  0.1731
  932MPD2    H713696   4.192   0.564  11.281 -1.1922  0.2926  2.1529
  933MPD2     C13697   4.555   0.358   1.895  0.3816  0.2052  0.1524
  933MPD2    C113698   4.563   0.371   1.757 -0.6787 -0.8429  0.1667
  933MPD2    C213699   4.503   0.478   1.693 -0.2928  0.1537  0.0054
  933MPD2    C313700   4.447   0.581   1.774 -0.0938 -0.2021 -0.1665
  933MPD2    C413701   4.435   0.565   1.912 -0.2770  0.5499 -0.8578
  933MPD2    C513702   4.486   0.452   1.969  0.2198  0.1282  0.4101
  933MPD2     H13703   4.494   0.494   1.586  1.8607 -0.8663 -0.3354
  933MPD2    H113704   4.378   0.634   1.974 -0.4301 -0.9346  0.6625
  933MPD2    H213705   4.597   0.272   1.945  0.9708  1.0483  1.1184
  933MPD2    H313706   4.466   0.423   2.072  0.2291  1.8328  0.8879
  933MPD2     N13707   4.401   0.695   1.706  0.7600 -0.4627 -0.2968
  933MPD2    H513708   4.388   0.690   1.605  0.9174 -0.5216 -0.3155
  933MPD2    N113709   4.634   0.275   1.683  0.7873 -0.2589  0.6425
  933MPD2    H713710   4.670   0.192   1.729  1.5747 -1.0220 -1.3566
  934MPD2     C13711   1.183   2.986   0.895  0.3815 -0.4233  0.6337
  934MPD2    C113712   1.231   2.877   0.975  0.0368 -0.2694 -0.1768
  934MPD2    C213713   1.170   2.749   0.958  0.1144  0.0326  0.7635
  934MPD2    C313714   1.066   2.739   0.872 -0.1304  0.5085 -0.5417
  934MPD2    C413715   1.029   2.837   0.786 -0.2815  0.2864 -0.5723
  934MPD2    C513716   1.094   2.955   0.794  0.1244  0.1074 -0.2783
  934MPD2     H13717   1.214   2.670   1.019  2.4118  1.7299  1.3095
  934MPD2    H113718   0.954   2.827   0.709 -0.4611  0.5943 -0.4365
  934MPD2    H213719   1.222   3.087   0.887 -1.3509  0.0950 -1.0924
  934MPD2    H313720   1.062   3.042   0.738 -0.3232  0.8953  1.2255
  934MPD2     N13721   0.982   2.627   0.878 -0.4004  0.4608 -0.6858
  934MPD2    H513722   0.898   2.630   0.821 -0.8550  2.0701  0.0676
  934MPD2    N113723   1.345   2.892   1.065  0.4902 -0.0721 -0.3626
  934MPD2    H713724   1.384   2.809   1.108  0.6157 -0.3213 -0.9590
  935MPD2     C13725   1.259   1.701   0.877 -0.0512 -0.0908  0.1787
  935MPD2    C113726   1.148   1.704   0.952  0.4695  0.0311 -0.3014
  935MPD2    C213727   1.058   1.807   0.944 -0.3613 -0.2676 -0.1208
  935MPD2    C313728   1.101   1.920   0.883  0.1644 -0.8716 -0.5962
  935MPD2    C413729   1.219   1.929   0.811  0.2047 -0.2139 -0.0899
  935MPD2    C513730   1.299   1.820   0.812 -0.1508 -0.1774  0.1149
  935MPD2     H13731   0.961   1.800   0.993 -0.1397  3.7372  0.8878
  935MPD2    H113732   1.244   2.016   0.750 -0.5922  1.8929  2.5862
  935MPD2    H213733   1.330   1.622   0.859  0.9919  1.0569 -0.7438
  935MPD2    H313734   1.388   1.810   0.751 -0.0511 -1.2394  0.4397
  935MPD2     N13735   1.016   2.039   0.874 -0.0027  0.5069 -0.1708
  935MPD2    H513736   1.059   2.122   0.834  0.5511  0.8704  1.1531
  935MPD2    N113737   1.103   1.592   1.028 -0.0954 -0.5741  0.4254
  935MPD2    H713738   1.019   1.603   1.084 -1.5050 -0.5238 -1.7229
  936MPD2     C13739   4.366   3.261  12.370  0.1365 -0.2771  0.2816
  936MPD2    C113740   4.436   3.374  12.396  0.0122 -0.2172 -0.9967
  936MPD2    C213741   4.528   3.413  12.301 -0.6439  0.5262 -0.1323
  936MPD2    C313742   4.542   3.354  12.175  0.7012 -0.7732  0.5216
  936MPD2    C413743   4.456   3.242  12.146 -0.4990  0.1225 -0.2228
  936MPD2    C513744   4.379   3.196  12.251 -0.0102 -0.1400  0.0810
  936MPD2     H13745   4.572   3.506  12.334 -0.3314  0.0754  0.7523
  936MPD2    H113746   4.463   3.188  12.052  0.2870 -0.0419 -0.0675
  936MPD2    H213747   4.288   3.232  12.439  0.8472 -0.3887  1.0422
  936MPD2    H313748   4.313   3.111  12.235 -0.9605  0.8566 -1.3272
  936MPD2     N13749   4.610   3.419  12.074 -0.1175 -0.1424 -0.4527
  936MPD2    H513750   4.573   3.417  11.979 -1.1185 -2.0722 -0.0358
  936MPD2    N113751   4.404   3.456  12.500 -0.2412  0.7940  0.1787
  936MPD2    H713752   4.468   3.535  12.501  1.4647 -0.5742 -1.3834
  937MPD2     C13753   2.601   0.436  11.444 -0.1842  0.1231 -0.8928
  937MPD2    C113754   2.616   0.569  11.462 -0.0398 -0.3282 -0.3843
  937MPD2    C213755   2.686   0.635  11.360  0.0454  0.2053  0.0775
  937MPD2    C313756   2.747   0.572  11.255 -0.1246  0.5720 -0.0555
  937MPD2    C413757   2.757   0.434  11.264  0.3607 -0.2739  0.2168
  937MPD2    C513758   2.676   0.370  11.351  0.5590  0.0082 -0.7452
  937MPD2     H13759   2.669   0.742  11.362  0.8635  0.3553 -0.9487
  937MPD2    H113760   2.814   0.375  11.193 -0.7789 -0.2499 -0.7346
  937MPD2    H213761   2.519   0.384  11.492 -0.7944 -0.0627 -2.1491
  937MPD2    H313762   2.655   0.263  11.345  0.9344  0.0449 -2.7187
  937MPD2     N13763   2.808   0.647  11.158 -0.7155  0.2354 -0.4729
  937MPD2    H513764   2.815   0.747  11.167 -0.8369  0.1205  0.8549
  937MPD2    N113765   2.515   0.640  11.531  0.3251 -0.0882  0.7165
  937MPD2    H713766   2.506   0.740  11.516 -0.2107  0.2033  2.9652
  938MPD2     C13767   4.653   1.898   0.576  0.1788  0.4417 -0.2109
  938MPD2    C113768   0.039   1.940   0.636  0.4810 -0.0428  0.0200
  938MPD2    C213769   0.088   1.867   0.747  0.3259  0.0930 -0.0698
  938MPD2    C313770   0.023   1.763   0.809 -0.8579 -0.2341 -0.3251
  938MPD2    C413771   4.643   1.726   0.745  0.6994  0.1897  0.0720
  938MPD2    C513772   4.597   1.784   0.629 -0.1533 -0.1621 -0.0955
  938MPD2     H13773   0.178   1.911   0.787  2.5483 -2.4219 -2.3063
  938MPD2    H113774   4.577   1.646   0.778  0.0214  0.4748 -0.5928
  938MPD2    H213775   4.600   1.947   0.496  0.9099  0.2703 -0.7981
  938MPD2    H313776   4.513   1.736   0.579  1.3658 -1.5774 -1.2567
  938MPD2     N13777   0.070   1.694   0.917 -0.1172  0.7108  0.1733
  938MPD2    H513778   0.023   1.607   0.941  0.1500  0.7235  0.7560
  938MPD2    N113779   0.107   2.054   0.598  0.4865 -0.0722 -0.2409
  938MPD2    H713780   0.183   2.093   0.653  0.2908  1.1094 -0.8089
  939MPD2     C13781   1.688   3.775   0.797  0.5007 -0.0997  0.7728
  939MPD2    C113782   1.808   3.800   0.732  0.6219  0.4874  0.1745
  939MPD2    C213783   1.801   3.819   0.594 -0.5026  0.2205 -0.0192
  939MPD2    C313784   1.682   3.816   0.521 -0.0868 -0.0208 -0.0286
  939MPD2    C413785   1.563   3.777   0.587 -0.5370 -0.4331  0.4228
  939MPD2    C513786   1.569   3.750   0.725 -0.1993  0.3628  0.1756
  939MPD2     H13787   1.895   3.835   0.543 -0.0741 -1.2346  0.3301
  939MPD2    H113788   1.473   3.762   0.528  0.9752 -0.0688 -1.9987
  939MPD2    H213789   1.689   3.760   0.905 -2.0918 -1.6984  0.5633
  939MPD2    H313790   1.481   3.731   0.785 -0.6952 -1.5373 -1.1738
  939MPD2     N13791   1.687   3.822   0.380  0.2140 -0.1364  0.6095
  939MPD2    H513792   1.781   3.852   0.353 -0.5460  0.2492 -1.6179
  939MPD2    N113793   1.922   3.809   0.807  0.2219 -0.2598 -0.3577
  939MPD2    H713794   1.919   3.795   0.908  1.8052 -2.2779 -0.5967
  940MPD2     C13795   0.049   3.766  13.324  0.1011 -0.2325  0.2275
  940MPD2    C113796   0.157   3.730  13.394  0.0446 -0.0674 -0.4470
  940MPD2    C213797   0.286   3.755  13.336 -0.1201 -0.0354  0.3566
  940MPD2    C313798   0.295   3.827  13.223  0.0939 -0.3674 -0.0602
  940MPD2    C413799   0.187   3.873  13.155 -0.3923  0.7080  0.1725
  940MPD2    C513800   0.065   3.837  13.201  0.3861  0.1716  0.5941
  940MPD2     H13801   0.379   3.728  13.386 -1.7501 -1.0754  2.8409
  940MPD2    H113802   0.190   3.928  13.062 -1.6371  2.1888  1.0002
  940MPD2    H213803   4.681   3.750  13.359 -1.3637  1.8516 -3.0661
  940MPD2    H313804   4.721   3.879  13.139  0.8597 -1.7150 -1.2917
  940MPD2     N13805   0.425   3.864  13.167  0.0474  0.3038 -0.2912
  940MPD2    H513806   0.422   3.913  13.078  1.1919  0.8268 -0.0388
  940MPD2    N113807   0.166   3.663  13.517  0.2409  0.0895  0.3357
  940MPD2    H713808   0.261   3.646  13.548 -0.8601 -0.3744  3.4809
  941MPD2     C13809   4.557   2.924   9.791  0.5769 -0.7434  0.7616
  941MPD2    C113810   4.446   2.995   9.746  0.2590 -0.1010 -0.0530
  941MPD2    C213811   4.322   2.939   9.759 -0.5263 -0.0304 -0.3100
  941MPD2    C313812   4.305   2.810   9.804 -0.2315 -0.1956 -0.3175
  941MPD2    C413813   4.419   2.737   9.849 -0.3057 -0.3429 -0.1733
  941MPD2    C513814   4.545   2.795   9.833  0.2413  0.2586 -0.4003
  941MPD2     H13815   4.233   3.000   9.745  0.1151  1.2554  1.1363
  941MPD2    H113816   4.419   2.633   9.879 -2.1326 -0.2717  0.0953
  941MPD2    H213817   4.659   2.959   9.774 -0.2946  1.8501  0.9015
  941MPD2    H313818   4.625   2.727   9.861  0.1429 -0.4918 -1.9425
  941MPD2     N13819   4.179   2.746   9.814  0.2033 -0.6774 -0.3118
  941MPD2    H513820   4.179   2.652   9.852  0.5784 -0.3763  0.4407
  941MPD2    N113821   4.451   3.121   9.686 -0.0584 -0.5208  0.3121
  941MPD2    H713822   4.362   3.169   9.676  0.9686  1.0795 -1.0741
  942MPD2     C13823   3.832   0.481   9.353  0.5067 -0.3423 -0.3528
  942MPD2    C113824   3.900   0.563   9.269  0.7504  0.1143 -0.4162
  942MPD2    C213825   4.025   0.529   9.219  0.6377  0.3407 -0.0681
  942MPD2    C313826   4.094   0.418   9.268  0.2153 -0.1444  0.0255
  942MPD2    C413827   4.030   0.340   9.359  0.3965 -0.2650 -0.2105
  942MPD2    C513828   3.900   0.371   9.397  0.8062 -0.7913 -0.1082
  942MPD2     H13829   4.069   0.600   9.150  0.5976  0.3928 -0.0404
  942MPD2    H113830   4.088   0.261   9.406  2.0761  1.6019  0.8343
  942MPD2    H213831   3.731   0.500   9.386  0.7056  2.2747 -1.3073
  942MPD2    H313832   3.844   0.312   9.469 -1.8132 -0.0923 -1.5970
  942MPD2     N13833   4.220   0.369   9.217  0.0139 -0.3892  0.3276
  942MPD2    H513834   4.256   0.281   9.252  0.3879 -0.9212 -1.3806
  942MPD2    N113835   3.835   0.677   9.205  0.2919  0.1914  0.8950
  942MPD2    H713836   3.889   0.711   9.126 -3.0469 -0.9122 -1.8994
  943MPD2     C13837   2.816   2.926   9.405 -0.0986 -0.3486 -0.0285
  943MPD2    C113838   2.863   2.836   9.496  0.1508 -0.7582  0.4940
  943MPD2    C213839   2.908   2.888   9.611 -0.1479  0.5286  0.5641
  943MPD2    C313840   2.918   3.024   9.633  0.4228 -0.1639  0.1963
  943MPD2    C413841   2.876   3.110   9.542  0.1016 -0.7534  0.6706
  943MPD2    C513842   2.825   3.061   9.428  0.0345  0.1671  0.0139
  943MPD2     H13843   2.939   2.833   9.699 -0.3804 -1.8736 -0.8655
  943MPD2    H113844   2.869   3.215   9.563 -0.8101 -0.8306  0.7477
  943MPD2    H213845   2.780   2.892   9.309 -1.6432  0.2644  0.3340
  943MPD2    H313846   2.785   3.134   9.358 -1.6288 -0.5460  0.2106
  943MPD2     N13847   2.963   3.078   9.753 -0.8398  0.0465  0.1768
  943MPD2    H513848   2.965   3.178   9.766 -2.2667  0.5057 -3.0852
  943MPD2    N113849   2.846   2.696   9.486 -0.5561 -0.5441 -0.1384
  943MPD2    H713850   2.807   2.681   9.394  2.0594 -1.4543 -1.0745
  944MPD2     C13851   2.935   1.480  11.459  0.1761 -0.1706  0.7388
  944MPD2    C113852   2.937   1.565  11.355  0.0122 -0.1758  0.7141
  944MPD2    C213853   2.917   1.700  11.386 -0.2196 -0.8153  0.7202
  944MPD2    C313854   2.908   1.744  11.511 -0.4581  0.4097  0.3262
  944MPD2    C413855   2.906   1.658  11.618 -0.4670  0.5441 -0.5377
  944MPD2    C513856   2.923   1.526  11.587 -0.6237 -0.2242 -0.1600
  944MPD2     H13857   2.934   1.772  11.307 -1.3852  0.7300  1.8863
  944MPD2    H113858   2.894   1.679  11.724  2.4635 -0.4564 -0.0076
  944MPD2    H213859   2.955   1.375  11.439 -1.4277 -0.6605  1.7324
  944MPD2    H313860   2.919   1.452  11.666  3.3323  0.2356  0.4759
  944MPD2     N13861   2.905   1.884  11.533  0.0676  0.2275 -0.2927
  944MPD2    H513862   2.895   1.941  11.450  1.4589  1.9042  0.7043
  944MPD2    N113863   2.945   1.509  11.221 -0.0882 -0.1773  0.1201
  944MPD2    H713864   2.940   1.408  11.211  1.2646  0.0056 -2.3218
    1TMC1    C113865   1.427   3.409  13.890  0.8216  0.0893  0.6571
    1TMC1    C213866   1.369   3.291  13.942 -0.3380  0.2650 -0.4958
    1TMC1    C313867   1.414   3.254  14.065 -0.5196 -0.3031 -0.3896
    1TMC1    C413868   1.526   3.479  13.951  0.6516  0.0309  0.0610
    1TMC1    C513869   1.559   3.432  14.076  0.4636 -0.7198 -0.2507
    1TMC1    C613870   1.510   3.324  14.136  0.6593 -0.0294  0.0286
    1TMC1     C13871   1.376   3.462  13.769 -0.4793  0.0068  0.7390
    1TMC1     O13872   1.295   3.398  13.706 -0.2535  0.4019 -0.0490
    1TMC1     H13873   1.311   3.226  13.878  0.2868 -1.8818  1.1513
    1TMC1    H113874   1.582   3.560  13.906  2.2650  0.6934  3.1972
    1TMC1    H213875   1.553   3.297  14.232  2.7345 -0.3023 -0.9813
    1TMC1    C713876   1.670   3.497  14.145 -0.0880  0.8320  0.0338
    1TMC1    C813877   1.374   3.125  14.099  0.4413  0.3508 -0.1283
    1TMC1    O113878   1.771   3.447  14.185 -0.6824  0.4074  0.6732
    1TMC1    O213879   1.429   3.043  14.179  0.0517  0.3338 -0.4769
    1TMC1    O313880   1.612   3.605  14.203  0.0334  0.6404  0.4549
    1TMC1    H313881   1.515   3.613  14.191 -0.2139 -3.5456 -0.3755
    1TMC1    O513882   1.241   3.121  14.072 -0.0021  0.1485  0.3052
    1TMC1    H513883   1.207   3.207  14.039  1.9312  0.5257 -0.7027
    2MPD2     C13884   1.319   3.831  13.430 -0.8054  0.7082 -0.7927
    2MPD2    C113885   1.393   3.882  13.535  0.5093 -0.1230  0.5951
    2MPD2    C213886   1.423   3.803  13.642 -0.2862 -0.7762 -0.1047
    2MPD2    C313887   1.380   3.678  13.639 -0.9890  0.8120  0.1698
    2MPD2    C413888   1.292   3.630  13.541  0.1787  0.4175  0.3642
    2MPD2    C513889   1.267   3.707  13.433 -0.2850  0.4958  0.0919
    2MPD2     H13890   1.488   3.837  13.722  0.0161  2.9868 -1.9385
    2MPD2    H113891   1.250   3.530  13.543  1.9439 -0.2838  2.3532
    2MPD2    H213892   1.288   3.894  13.348  0.4876  2.1347 -0.1970
    2MPD2    H313893   1.199   3.670  13.357  0.8496 -0.6610 -0.3670
    2MPD2     N13894   1.413   3.592  13.748  0.1781  0.6824  0.0926
    2MPD2    H513895   1.458   3.639  13.826 -0.2541 -3.3257  2.7907
    2MPD2    N113896   1.439   4.019  13.521 -0.1614  0.2575 -0.4714
    2MPD2    H713897   1.389   4.075  13.453  1.8534  1.1672 -1.2193
    3TMC2    C113898   1.594   4.190  13.578  0.0144 -0.2026 -0.7415
    3TMC2    C213899   1.708   4.232  13.643 -0.1831  0.0496 -0.1324
    3TMC2    C313900   1.738   4.368  13.644  0.7416  0.4104 -0.6644
    3TMC2    C413901   1.496   4.283  13.548 -0.0097  0.1369 -1.1265
    3TMC2    C513902   1.527   4.416  13.553 -0.3899  0.5652 -1.0954
    3TMC2    C613903   1.654   4.468  13.589 -0.5929  0.2632 -0.0756
    3TMC2     C13904   1.564   4.052  13.575  0.2709  0.0518 -0.6178
    3TMC2     O13905   1.652   3.973  13.603 -0.5495 -0.5589  0.1737
    3TMC2     H13906   1.790   4.167  13.671  1.6597  2.5837  0.3983
    3TMC2    H113907   1.403   4.242  13.512 -0.3893 -2.5827  2.9289
    3TMC2    H213908   1.669   4.572  13.615  0.5474  0.1746 -0.3931
    3TMC2    C713909   1.429   4.514  13.535 -0.0050  0.1093 -0.8835
    3TMC2    C813910   1.873   4.407  13.690 -0.8904 -0.8005  0.0843
    3TMC2    O113911   1.462   4.628  13.512  1.2000  0.0807 -0.8459
    3TMC2    O213912   1.950   4.333  13.747  0.5811  0.0186 -0.5999
    3TMC2    O513913   1.911   4.522  13.640 -0.2504 -0.0117 -0.3438
    3TMC2    H513914   1.836   4.572  13.601 -0.4596 -0.1720 -0.1475
    4TMC2    C113915   0.524   4.122  13.495 -0.0986  0.1874  0.4304
    4TMC2    C213916   0.504   4.158  13.361 -0.5883  0.4232  1.0877
    4TMC2    C313917   0.574   4.263  13.313 -0.0508 -0.1697  0.5976
    4TMC2    C413918   0.620   4.190  13.574 -0.3806 -0.8512 -0.6388
    4TMC2    C513919   0.697   4.289  13.516  0.2004  0.2438  0.3263
    4TMC2    C613920   0.672   4.325  13.386 -0.1748 -1.0687  0.0421
    4TMC2     C13921   0.412   4.080  13.566 -0.5050 -0.0651 -0.0179
    4TMC2     O13922   0.425   4.028  13.675 -0.4042  0.0673 -0.4834
    4TMC2     H13923   0.444   4.098  13.293 -0.4043 -0.1820  1.4587
    4TMC2    H113924   0.635   4.159  13.677 -1.3694 -3.6241 -1.3047
    4TMC2    H213925   0.739   4.390  13.330 -1.1189  1.0071  1.3277
    4TMC2    C713926   0.791   4.367  13.601  0.2242  0.0420  0.5816
    4TMC2    C813927   0.541   4.302  13.171 -0.1728 -0.9281 -0.0333
    4TMC2    O113928   0.846   4.304  13.692  1.1441  0.1084  0.4844
    4TMC2    O213929   0.499   4.221  13.088 -0.4398 -0.5634 -0.2906
    4TMC2    O513930   0.583   4.432  13.151 -0.5342 -0.1564 -0.0411
    4TMC2    H513931   0.630   4.482  13.221  1.8392 -1.9060 -0.3688
    5MPD2     C13932   4.631   4.026  13.548  0.0952 -1.0921  0.2669
    5MPD2    C113933   4.672   4.104  13.443  0.8413  0.4033 -0.5436
    5MPD2    C213934   0.069   4.145  13.441  0.9237 -0.3208  0.2636
    5MPD2    C313935   0.161   4.091  13.532 -0.1557 -0.0011  0.4432
    5MPD2    C413936   0.120   4.009  13.637  0.1418 -0.9140  0.3887
    5MPD2    C513937   4.722   3.982  13.640  0.4431 -0.3120  0.1883
    5MPD2     H13938   0.104   4.208  13.361 -0.2109  1.9890  1.5907
    5MPD2    H113939   0.183   3.966  13.713  1.8294  0.7654 -0.0728
    5MPD2    H213940   4.527   3.999  13.560  0.1843  0.1393  3.7139
    5MPD2    H313941   4.678   3.920  13.717 -0.6929 -0.0132 -0.2062
    5MPD2     N13942   0.296   4.110  13.500 -0.0376  0.0390  0.2331
    5MPD2    H513943   0.316   4.169  13.420  0.7790 -1.4056 -0.6176
    5MPD2    N113944   4.579   4.141  13.343  0.1682 -0.1680 -0.0786
    5MPD2    H713945   4.486   4.100  13.351 -0.0624  0.7636  1.9848
    6MPD1     C13946   4.455   4.719  11.918  0.1374  0.2957 -0.1462
    6MPD1    C113947   4.468   0.119  11.940 -0.4168  0.0106 -0.0158
    6MPD1    C213948   4.445   0.166  12.069  0.1642 -0.5057  0.4021
    6MPD1    C313949   4.448   0.086  12.182  0.7255 -0.5489  0.7380
    6MPD1    C413950   4.451   4.687  12.158 -0.1090  0.4242 -0.2433
    6MPD1    C513951   4.447   4.640  12.025 -0.1187 -0.2743  0.0892
    6MPD1     H13952   4.451   0.272  12.089 -2.0347 -0.3427  0.1338
    6MPD1    H113953   4.457   4.610  12.234  1.3269 -0.5130 -1.3082
    6MPD1    H213954   4.470   4.679  11.818  1.7592  0.8469 -0.1325
    6MPD1    H313955   4.452   4.533  12.009 -0.1867 -0.1005 -1.0543
    6MPD1     N13956   4.476   0.130  12.317  0.1621 -0.4414 -0.2788
    6MPD1    H513957   4.488   0.056  12.385 -1.5781 -0.5224 -0.0518
    6MPD1    N113958   4.492   0.207  11.836  0.6868 -0.4805 -0.0523
    6MPD1    H613959   4.539   0.293  11.866 -0.5536  0.1618  0.0697
    6MPD1    H713960   4.553   0.161  11.770  4.0751  3.1342  0.5617
    7MPD2     C13961   4.012   0.028  12.814 -0.4855  0.9588  0.1317
    7MPD2    C113962   4.143   0.020  12.849  0.2153  0.3082 -0.6962
    7MPD2    C213963   4.184   4.641  12.918  0.0089 -0.3038 -0.8259
    7MPD2    C313964   4.095   4.545  12.963 -0.3916 -0.2859  0.0979
    7MPD2    C413965   3.965   4.556  12.922 -0.4646  0.1484  0.4677
    7MPD2    C513966   3.922   4.659  12.850 -0.3262  0.2272 -0.2504
    7MPD2     H13967   4.289   4.634  12.944 -0.4865 -0.2606  1.2131
    7MPD2    H113968   3.894   4.489  12.969  0.7845 -0.2645  1.7786
    7MPD2    H213969   3.978   0.122  12.772 -1.6775  0.5202  0.1077
    7MPD2    H313970   3.819   4.679  12.824 -0.8118 -0.4444  1.2175
    7MPD2     N13971   4.131   4.431  13.031  0.3962  0.1157  0.2537
    7MPD2    H513972   4.054   4.365  13.035  0.8556 -0.4509 -0.2234
    7MPD2    N113973   4.250   0.104  12.806  0.3187  0.0540  0.2029
    7MPD2    H713974   4.345   0.076  12.824 -0.1272 -1.4982  0.1535
    8TMC3    C113975   4.276   4.272  13.104  0.6573 -0.7923  0.6242
    8TMC3    C213976   4.380   4.256  13.188 -0.1803  0.4950 -0.0681
    8TMC3    C313977   4.485   4.182  13.135  0.0528  0.0365 -0.8422
    8TMC3    C413978   4.281   4.222  12.974  0.5701 -0.0162  0.0703
    8TMC3    C513979   4.387   4.164  12.919 -0.3898  0.5495 -0.8164
    8TMC3    C613980   4.491   4.138  12.999  0.2292 -0.0566 -0.4265
    8TMC3     C13981   4.248   4.409  13.090  0.8741 -0.3368  0.8616
    8TMC3     O13982   4.339   4.487  13.123 -0.5915 -0.1042 -0.2180
    8TMC3     H13983   4.390   4.305  13.284  0.2161 -0.2875  0.2889
    8TMC3    H113984   4.192   4.225  12.912  0.9276 -2.4898 -0.5751
    8TMC3    H213985   4.584   4.104  12.956  0.8260 -1.3980  1.9000
    8TMC3    C713986   4.443   4.271  12.835  0.2551  0.5683  0.9841
    8TMC3    C813987   4.612   4.181  13.217  0.2113  0.1156 -0.0825
    8TMC3    O113988   4.374   4.369  12.845  0.4536  0.1990  0.3417
    8TMC3    O213989   4.719   4.204  13.159 -0.3402  0.2983 -0.0015
    9TMC3    C113990   4.481   0.266  12.503 -0.0777  0.5414  0.3919
    9TMC3    C213991   4.575   0.182  12.564  0.4668  0.5701 -0.2583
    9TMC3    C313992   4.563   0.156  12.701 -0.8602 -0.2845  0.5866
    9TMC3    C413993   4.372   0.317  12.574 -0.3332  0.3005  0.6081
    9TMC3    C513994   4.355   0.270  12.699 -0.6470 -0.0658  0.0892
    9TMC3    C613995   4.462   0.222  12.777  0.7521  0.0614  1.2308
    9TMC3     C13996   4.458   0.253  12.358 -0.2189  0.2500  0.5499
    9TMC3     O13997   4.419   0.352  12.294 -0.3186  0.2640  0.3262
    9TMC3     H13998   4.651   0.137  12.500 -0.2455 -0.4355 -0.3917
    9TMC3    H113999   4.298   0.369  12.514 -1.5747 -1.9923  0.1293
    9TMC3    H214000   4.457   0.209  12.885  0.9952 -0.0001  1.2330
    9TMC3    C714001   4.229   0.210  12.726  0.2514  0.1417  0.0753
    9TMC3    C814002   4.606   0.031  12.752  0.5120  0.2098 -0.2294
    9TMC3    O114003   4.134   0.256  12.664 -0.4541  0.0183  0.1043
    9TMC3    O214004   4.530   4.725  12.839 -0.0930  0.7650  0.6529
   10MPD2     C14005   4.719   4.287  12.609 -0.7784 -0.2278  0.5617
   10MPD2    C114006   4.626   4.335  12.700  0.5239 -0.0967  1.0857
   10MPD2    C214007   4.616   4.472  12.719 -0.4391  0.4818 -0.0898
   10MPD2    C314008   4.707   4.559  12.657  0.7789  0.1543 -0.1269
   10MPD2    C414009   0.065   4.507  12.571 -0.0366 -0.4851  0.1970
   10MPD2    C514010   0.075   4.373  12.547  0.0262 -0.4203  0.2439
   10MPD2     H14011   4.533   4.508  12.779 -1.9006 -0.7181 -1.3834
   10MPD2    H114012   0.126   4.568  12.505  0.4645 -0.3708  0.7726
   10MPD2    H214013   4.719   4.183  12.581 -1.1930  0.6860 -2.7472
   10MPD2    H314014   0.138   4.333  12.468  0.1818 -0.6805  0.5005
   10MPD2     N14015   4.693   4.701  12.669 -0.2926  0.4819  0.2340
   10MPD2    H514016   0.009   0.026  12.604  0.5501  1.7484  2.0340
   10MPD2    N114017   4.548   4.236  12.759  0.0860  0.6747 -0.1261
   10MPD2    H714018   4.566   4.137  12.748 -2.3325  0.4727 -2.1915
   11MPD2     C14019   1.185   4.658  13.457  0.0417  0.2688 -0.5991
   11MPD2    C114020   1.184   4.541  13.524 -0.0492 -0.6207 -0.5374
   11MPD2    C214021   1.065   4.485  13.567  0.1376  0.1676 -0.2194
   11MPD2    C314022   0.944   4.547  13.532 -0.7130  0.0301 -0.0805
   11MPD2    C414023   0.951   4.660  13.463  0.3594  0.1435 -0.3446
   11MPD2    C514024   1.070   4.719  13.431  0.3399 -0.4899 -0.2120
   11MPD2     H14025   1.075   4.390  13.618 -2.1574 -0.0919 -0.2845
   11MPD2    H114026   0.865   4.715  13.428  1.9872  2.1080 -1.2600
   11MPD2    H214027   1.280   4.703  13.429  0.2396 -0.1786 -0.6429
   11MPD2    H314028   1.071   0.083  13.383 -1.8656  0.3600  1.5163
   11MPD2     N14029   0.816   4.489  13.546 -0.5353 -0.2772  0.1800
   11MPD2    H514030   0.753   4.531  13.479  0.8652  2.7399  0.7457
   11MPD2    N114031   1.299   4.469  13.555  0.8558  0.4063  0.1076
   11MPD2    H714032   1.284   4.383  13.606  1.5875  1.5150  2.1708
    1MPD1     C14033   3.879   0.482  16.854 -0.0056 -0.0363  0.5894
    1MPD1    C114034   3.782   0.577  16.821 -0.5913 -0.5976 -0.1699
    1MPD1    C214035   3.770   0.629  16.691 -0.2688  0.0418  0.3126
    1MPD1    C314036   3.862   0.596  16.595 -0.0864 -0.3303  0.3914
    1MPD1    C414037   3.967   0.517  16.631 -0.1527 -0.3779  0.1786
    1MPD1    C514038   3.973   0.463  16.757 -0.2850 -0.8453 -0.1487
    1MPD1     H14039   3.681   0.685  16.665  0.2452  0.0437 -1.4463
    1MPD1    H114040   4.045   0.493  16.559 -1.2643  0.0453 -1.1715
    1MPD1    H214041   3.875   0.421  16.943 -2.4029 -1.9526 -0.8245
    1MPD1    H314042   4.046   0.386  16.778 -0.2067 -0.8544 -0.4496
    1MPD1     N14043   3.860   0.650  16.462  0.0909 -0.0001 -0.8673
    1MPD1    H514044   3.942   0.627  16.406 -1.0536 -1.2505 -2.0636
    1MPD1    N114045   3.677   0.607  16.908  1.2138  0.2538  0.1000
    1MPD1    H614046   3.637   0.700  16.908  1.5785  0.4123 -0.2689
    1MPD1    H714047   3.690   0.577  17.004  0.4033 -1.5991 -0.3502
    2MPD1     C14048   4.567   0.901  16.130  0.0336  0.2384  0.9254
    2MPD1    C114049   4.509   0.848  16.243  0.0039  0.4761  0.1520
    2MPD1    C214050   4.370   0.810  16.225 -0.3339 -0.5870 -0.1233
    2MPD1    C314051   4.300   0.837  16.112 -1.5883 -0.3660  0.4743
    2MPD1    C414052   4.360   0.907  16.010 -0.3962 -0.0932  0.1907
    2MPD1    C514053   4.496   0.943  16.030 -0.4947 -0.5140 -0.4896
    2MPD1     H14054   4.316   0.751  16.297  0.0453 -0.1525  0.5171
    2MPD1    H114055   4.321   0.921  15.910  0.3480 -0.7817 -0.1975
    2MPD1    H214056   4.675   0.906  16.131  0.0868 -0.6907  0.2709
    2MPD1    H314057   4.542   0.972  15.936  1.0139  1.4570  0.8540
    2MPD1     N14058   4.170   0.786  16.110  0.3430 -0.0428 -0.1372
    2MPD1    H514059   4.142   0.737  16.195 -0.5882 -1.8903 -1.5109
    2MPD1    N114060   4.586   0.800  16.349  0.3815  0.1278  0.2112
    2MPD1    H614061   4.546   0.794  16.442  4.2037 -0.0597  1.8213
    2MPD1    H714062   4.663   0.863  16.369  2.3113 -1.8897 -0.7734
    3TMC3    C114063   3.938   0.775  16.075 -0.2865  0.8948  0.3901
    3TMC3    C214064   3.833   0.783  15.991 -0.1458  0.1273  0.1506
    3TMC3    C314065   3.708   0.759  16.034 -0.6033  0.0962 -0.1641
    3TMC3    C414066   3.918   0.758  16.212 -0.3449  0.2046  0.0631
    3TMC3    C514067   3.786   0.744  16.256 -0.2473  0.7617 -0.5228
    3TMC3    C614068   3.683   0.729  16.166 -0.1103 -0.0570 -0.1654
    3TMC3     C14069   4.070   0.815  16.022 -0.2967  0.7813  0.3036
    3TMC3     O14070   4.085   0.879  15.922 -0.4453 -0.3737  0.0222
    3TMC3     H14071   3.847   0.816  15.889  1.0037  0.9649  0.5824
    3TMC3    H114072   4.002   0.765  16.280 -1.4917 -0.0210  1.4843
    3TMC3    H214073   3.586   0.702  16.206 -0.0975 -1.4501 -1.0827
    3TMC3    C714074   3.757   0.715  16.396  0.5421 -0.6757 -0.7234
    3TMC3    C814075   3.623   0.673  15.951 -0.3830  0.1642  0.7557
    3TMC3    O114076   3.642   0.731  16.438 -0.0984 -0.0925 -0.4125
    3TMC3    O214077   3.541   0.605  16.001  0.7701 -0.1574 -0.2279
    4MPD1     C14078   3.467   0.486  15.514  0.2323 -0.8060 -0.0480
    4MPD1    C114079   3.521   0.607  15.489 -0.5550 -0.3481 -0.3933
    4MPD1    C214080   3.582   0.669  15.592 -0.4337  0.0381 -0.4501
    4MPD1    C314081   3.573   0.621  15.718 -0.2260 -0.3077  0.2062
    4MPD1    C414082   3.502   0.506  15.749 -0.3419  0.2422 -0.1572
    4MPD1    C514083   3.461   0.436  15.641  0.0310  0.3150  0.3656
    4MPD1     H14084   3.629   0.759  15.553  0.0065 -0.6497 -1.4808
    4MPD1    H114085   3.491   0.464  15.848 -1.1728  1.3581  0.2320
    4MPD1    H214086   3.428   0.428  15.431 -0.9284 -2.2265  1.4820
    4MPD1    H314087   3.419   0.337  15.657  1.5688 -0.2639  0.8278
    4MPD1     N14088   3.639   0.707  15.821 -0.1692 -0.6529 -0.3193
    4MPD1    H514089   3.686   0.792  15.792  0.8279 -0.4976  1.7347
    4MPD1    N114090   3.546   0.650  15.357  0.9542 -0.4219  0.4368
    4MPD1    H614091   3.484   0.631  15.279  2.6805  1.4863 -1.4031
    4MPD1    H714092   3.589   0.742  15.347  0.8113 -0.2447  1.3890
    1TCq1    O114093   4.157   0.151  10.711 -0.5798  0.0711  0.0526
    1TCq1    C114094   4.176   0.039  10.786 -0.9898  0.0217 -0.2849
    1TCq1    O214095   4.156   4.662  10.741 -0.2614 -0.7779  0.1829
    1TCq1    C214096   4.253   0.059  10.903 -0.5511  0.5654 -0.5586
    1TCq1    C314097   4.324   4.687  10.952 -0.0485 -0.4130 -0.0677
    1TCq1    C414098   4.427   4.711  11.036  0.4262 -0.2515  0.2669
    1TCq1    C514099   4.467   0.101  11.067  0.0905 -0.6416 -0.0401
    1TCq1    C614100   4.385   0.206  11.022 -0.2997  0.4462 -0.1918
    1TCq1    C714101   4.275   0.191  10.943  0.5946  0.3060  0.0861
    1TCq1    C814102   4.437   0.343  11.025 -0.1951  0.1990  0.2874
    1TCq1    O414103   4.384   0.416  10.942  0.5508  0.3670  0.6033
    1TCq1    C914104   4.513   4.608  11.056 -0.1144 -0.1647  0.1853
    1TCq1    O514105   4.476   4.488  11.046  0.0807  0.4090  0.2650
    1TCq1    O614106   4.636   4.636  11.078  0.4821 -0.4504 -0.1299
    1TCq1    H114107   4.175   0.243  10.740  0.9356 -0.6788  1.5108
    1TCq1    H214108   4.315   4.594  10.898 -2.4981  0.2116 -0.7516
    1TCq1    H314109   4.561   0.128  11.112  0.5846  0.5746 -1.8145
    1TCq1    H414110   4.199   0.267  10.930  0.7286  0.1236 -1.7357
    2MPD1     C14111   0.076   0.672  11.107  0.1485  0.2742 -0.2089
    2MPD1    C114112   0.089   0.566  11.201  0.3091  0.6183 -0.0530
    2MPD1    C214113   4.718   0.466  11.203  0.6853  0.3968 -0.7177
    2MPD1    C314114   4.618   0.472  11.115 -0.4763  0.2617  0.2536
    2MPD1    C414115   4.604   0.577  11.029 -0.3203 -0.3972  0.4814
    2MPD1    C514116   4.696   0.680  11.026  0.3697  0.1457 -0.2079
    2MPD1     H14117   4.723   0.378  11.266  1.7084 -0.7051 -2.3251
    2MPD1    H114118   4.520   0.593  10.963 -0.0043 -3.7359 -0.7237
    2MPD1    H214119   0.144   0.755  11.093  0.1887 -0.0599 -1.9852
    2MPD1    H314120   4.684   0.765  10.960  0.8519  0.0340 -0.4412
    2MPD1     N14121   4.528   0.366  11.120  0.7794 -0.0251  0.1670
    2MPD1    H514122   4.535   0.297  11.195 -0.2533  0.9578  1.1650
    2MPD1    N114123   0.181   0.585  11.304 -0.1176 -0.0834  0.7832
    2MPD1    H614124   0.204   0.496  11.347  0.4557 -0.8597 -1.1026
    2MPD1    H714125   0.270   0.610  11.262 -0.7050 -0.5040 -0.7044
    1TMC1    C114126   1.172   1.821   0.367 -0.4658  0.7180 -0.2600
    1TMC1    C214127   1.047   1.795   0.316  0.5000  0.2876  0.0702
    1TMC1    C314128   1.003   1.668   0.331  0.1726  0.6151  0.0259
    1TMC1    C414129   1.253   1.728   0.420  0.2807  0.3600 -0.9059
    1TMC1    C514130   1.211   1.598   0.417  0.1911  0.2218 -0.6420
    1TMC1    C614131   1.082   1.570   0.377 -0.1397  0.1598 -0.9053
    1TMC1     C14132   1.222   1.959   0.353  0.2307  0.3197 -0.3632
    1TMC1     O14133   1.144   2.044   0.312  0.5116  0.1969  0.2733
    1TMC1     H14134   0.994   1.879   0.272  0.6067 -0.1928 -0.9803
    1TMC1    H114135   1.357   1.744   0.447  0.6410 -0.4867 -1.7878
    1TMC1    H214136   1.044   1.471   0.398  1.1920 -0.4077 -1.1597
    1TMC1    C714137   1.290   1.497   0.485 -0.1913  0.2396  0.1800
    1TMC1    C814138   0.859   1.649   0.344 -0.1388 -0.2438 -0.2819
    1TMC1    O114139   1.375   1.525   0.567  0.0770  0.5833  0.2903
    1TMC1    O214140   0.794   1.601   0.253  0.0680  0.0163  0.2804
    1TMC1    O314141   1.264   1.383   0.417  0.2536  0.4720  0.1074
    1TMC1    H314142   1.209   1.397   0.337 -0.3525  2.1203  0.7970
    1TMC1    O514143   0.814   1.755   0.415  0.1439 -0.3116  0.2406
    1TMC1    H514144   0.877   1.764   0.489  2.9404 -0.8087 -2.0625
    2MPD1     C14145   1.564   2.342   0.388  0.3763  0.1276  0.0260
    2MPD1    C114146   1.633   2.220   0.404 -0.6873  0.4597 -0.2115
    2MPD1    C214147   1.561   2.103   0.414 -0.2847 -0.7675 -0.6476
    2MPD1    C314148   1.425   2.102   0.385 -0.6231  0.7732 -1.1115
    2MPD1    C414149   1.365   2.222   0.373  0.1320  0.3402 -0.2141
    2MPD1    C514150   1.424   2.348   0.371 -0.3979 -0.1104 -0.9635
    2MPD1     H14151   1.607   2.013   0.453  0.1959 -0.5257 -0.6617
    2MPD1    H114152   1.259   2.236   0.355  0.2127  1.7952  0.4266
    2MPD1    H214153   1.618   2.436   0.386 -0.2605  0.5402  2.2366
    2MPD1    H314154   1.379   2.447   0.371 -3.1499 -1.3617  1.9672
    2MPD1     N14155   1.357   1.977   0.389  0.0388 -0.4651  0.3327
    2MPD1    H514156   1.413   1.893   0.393  0.2922 -0.3423 -0.7912
    2MPD1    N114157   1.766   2.228   0.451  0.3428 -0.4170 -0.0358
    2MPD1    H614158   1.815   2.303   0.402 -1.9763  2.0465  1.4313
    2MPD1    H714159   1.819   2.142   0.446 -0.2441 -0.9730  3.2780
    1MPD1     C14160   2.050   0.087  12.650  0.2431  0.3721 -0.1203
    1MPD1    C114161   2.007   0.198  12.720 -0.5507 -0.3209  0.5981
    1MPD1    C214162   1.894   0.270  12.676 -0.6424 -0.6989  0.7800
    1MPD1    C314163   1.817   0.218  12.578 -0.0034  0.0025  0.3544
    1MPD1    C414164   1.861   0.106  12.511  0.5481  0.6712  0.6610
    1MPD1    C514165   1.980   0.050  12.543  0.2991 -0.4008  0.4048
    1MPD1     H14166   1.867   0.363  12.723 -1.2996 -0.4498 -0.1028
    1MPD1    H114167   1.819   0.069  12.419  0.6899  1.1627  0.3974
    1MPD1    H214168   2.141   0.034  12.677 -0.7122 -0.1833  2.0336
    1MPD1    H314169   2.020   4.712  12.474 -0.4074 -0.6083  0.2066
    1MPD1     N14170   1.699   0.286  12.548 -0.4558  0.2354 -0.2569
    1MPD1    H514171   1.667   0.364  12.603 -2.6756 -0.7162 -0.1924
    1MPD1    N114172   2.081   0.234  12.837 -0.6195  0.4401  0.3910
    1MPD1    H614173   2.177   0.204  12.822 -0.8121  0.7578 -1.4352
    1MPD1    H714174   2.073   0.335  12.834  0.3709  0.4999 -0.1367
    2MPD1     C14175   1.987   0.644  10.801  0.0789 -0.8404 -0.5667
    2MPD1    C114176   1.946   0.584  10.682 -0.4167 -0.0876 -0.2888
    2MPD1    C214177   1.810   0.571  10.661  0.5185 -0.0036  0.0196
    2MPD1    C314178   1.718   0.642  10.741  0.4541  0.0240 -0.4062
    2MPD1    C414179   1.764   0.717  10.853  0.2063 -0.3189  0.2356
    2MPD1    C514180   1.900   0.715  10.882 -0.2440  0.0076 -0.1462
    2MPD1     H14181   1.780   0.513  10.574  1.0577  1.4019 -1.0886
    2MPD1    H114182   1.689   0.767  10.914  1.5719  1.0299  0.8006
    2MPD1    H214183   2.089   0.631  10.835 -0.3579 -2.5846  0.1168
    2MPD1    H314184   1.939   0.771  10.967 -0.0705 -0.1984 -0.0889
    2MPD1     N14185   1.579   0.623  10.722  0.5047 -0.2335  0.4615
    2MPD1    H514186   1.520   0.683  10.779  0.3785  0.6763 -0.6380
    2MPD1    N114187   2.028   0.492  10.614 -0.9425  0.8450 -0.0062
    2MPD1    H614188   2.118   0.537  10.596  0.6037 -1.2591  2.4820
    2MPD1    H714189   1.989   0.469  10.523 -0.1329  0.8737 -0.3592
    3MPD1     C14190   0.996   0.137  10.050  0.7073 -0.2036  0.5244
    3MPD1    C114191   1.117   0.206  10.045  0.7076 -0.1727 -0.1097
    3MPD1    C214192   1.155   0.264  10.166 -0.0103 -0.4466 -0.3980
    3MPD1    C314193   1.080   0.274  10.275  0.0168  0.3736  0.4729
    3MPD1    C414194   0.950   0.224  10.266 -0.9523 -0.4983 -0.0513
    3MPD1    C514195   0.912   0.156  10.157 -0.3552  0.5724 -0.3458
    3MPD1     H14196   1.258   0.295  10.180  0.2953 -1.9319  0.5638
    3MPD1    H114197   0.864   0.237  10.330 -0.3943 -2.8442  1.1746
    3MPD1    H214198   0.959   0.082   9.964  3.3389  1.6498 -1.8109
    3MPD1    H314199   0.804   0.150  10.152 -0.1967 -1.5347 -1.3741
    3MPD1     N14200   1.131   0.340  10.384  0.6032 -0.1246  0.3065
    3MPD1    H514201   1.223   0.378  10.362  0.7631  0.0637  1.3230
    3MPD1    N114202   1.219   0.182   9.951  0.1399  0.1909  0.1152
    3MPD1    H614203   1.287   0.258   9.952 -1.4295  1.5983  0.0944
    3MPD1    H714204   1.179   0.170   9.858  0.2513 -1.1032  0.2350
    4MPD2     C14205   0.922   0.297  12.194 -0.7700 -0.0167  0.2655
    4MPD2    C114206   0.997   0.409  12.208 -0.3568  0.6754 -0.1185
    4MPD2    C214207   0.988   0.511  12.118  0.3979 -0.3015  0.2383
    4MPD2    C314208   0.892   0.505  12.016  0.1029 -0.2902  0.1239
    4MPD2    C414209   0.807   0.389  12.014 -0.4476  0.5240 -0.8306
    4MPD2    C514210   0.828   0.284  12.096 -0.1915 -0.3797 -0.5587
    4MPD2     H14211   1.071   0.580  12.126 -0.6144  0.7843  1.4680
    4MPD2    H114212   0.738   0.380  11.930 -0.7528 -1.6475 -0.3440
    4MPD2    H214213   0.936   0.215  12.264 -1.5263 -1.7277 -1.6027
    4MPD2    H314214   0.772   0.192  12.081 -0.9843 -0.3174  2.0552
    4MPD2     N14215   0.887   0.607  11.917  0.2334 -0.1039 -0.0744
    4MPD2    H514216   0.816   0.591  11.846 -0.5168 -0.6677  0.8033
    4MPD2    N114217   1.102   0.411  12.305  0.3233 -0.0391 -0.4529
    4MPD2    H714218   1.157   0.496  12.304  1.0035 -0.4733  0.3452
    5TMC3    C114219   1.270   0.358  12.462  0.4762  0.5563 -0.2034
    5TMC3    C214220   1.375   0.277  12.461 -0.5265 -0.1769  0.4513
    5TMC3    C314221   1.499   0.335  12.449  0.4422 -0.3302  0.1294
    5TMC3    C414222   1.284   0.495  12.451 -0.2917  0.7393 -1.3953
    5TMC3    C514223   1.409   0.542  12.412  0.3976 -0.3354 -0.2255
    5TMC3    C614224   1.519   0.468  12.427  0.4792 -0.2073  0.4497
    5TMC3     C14225   1.153   0.310  12.385  0.4522  0.0279 -0.2530
    5TMC3     O14226   1.134   0.191  12.397 -0.3509  0.2166 -0.4841
    5TMC3     H14227   1.365   0.170  12.472  0.5845 -0.1738  1.4296
    5TMC3    H114228   1.202   0.561  12.474 -1.4200 -0.9453 -0.5488
    5TMC3    H214229   1.618   0.512  12.418  0.2353  0.6468  1.9894
    5TMC3    C714230   1.396   0.629  12.299 -0.4708  1.0280  0.5341
    5TMC3    C814231   1.611   0.244  12.456 -1.0454  0.7704  0.8047
    5TMC3    O114232   1.293   0.604  12.231  0.0385 -0.0232 -0.1006
    5TMC3    O214233   1.591   0.143  12.387 -0.4247  0.4432 -0.0586
    6TMC3    C114234   1.368   0.525  10.674 -0.7816  0.1097 -0.0940
    6TMC3    C214235   1.287   0.460  10.575 -0.2962 -0.1862  0.1965
    6TMC3    C314236   1.162   0.416  10.612 -1.3346  0.2601 -0.0742
    6TMC3    C414237   1.342   0.540  10.808  0.3300  0.5144 -0.3678
    6TMC3    C514238   1.216   0.485  10.834 -0.6180  0.2027  0.2647
    6TMC3    C614239   1.123   0.431  10.741 -0.3998  0.0654  0.3251
    6TMC3     C14240   1.508   0.535  10.641  0.2566  0.3203 -0.5758
    6TMC3     O14241   1.544   0.479  10.539  1.1555 -0.3127 -0.3521
    6TMC3     H14242   1.327   0.441  10.476 -1.5361  0.9004 -0.5122
    6TMC3    H114243   1.404   0.575  10.890 -0.4901  2.7453 -0.7194
    6TMC3    H214244   1.021   0.402  10.766 -0.4249 -1.4464 -1.5612
    6TMC3    C714245   1.184   0.518  10.961 -0.1082 -0.2154  0.4716
    6TMC3    C814246   1.084   0.333  10.516 -0.4292 -0.9707  0.5932
    6TMC3    O114247   1.215   0.627  11.009  0.1083  0.4638 -0.4390
    6TMC3    O214248   0.985   0.270  10.560  0.5091 -0.2230 -0.4689
    7MPD2     C14249   1.497   0.975  11.948 -0.3169  0.9625 -0.4370
    7MPD2    C114250   1.379   0.909  11.976 -0.3795 -0.7739 -0.3654
    7MPD2    C214251   1.373   0.826  12.087  0.5595 -0.7974 -0.7225
    7MPD2    C314252   1.486   0.815  12.166  0.1801  0.0221 -0.2385
    7MPD2    C414253   1.595   0.901  12.150 -0.8849  0.2659  0.2945
    7MPD2    C514254   1.602   0.966  12.034  0.1294 -0.5104  1.2412
    7MPD2     H14255   1.281   0.772  12.107 -0.0942  0.7601  0.4594
    7MPD2    H114256   1.685   0.877  12.206 -0.3906 -1.1550 -1.0759
    7MPD2    H214257   1.511   1.032  11.857 -1.4482  0.5961 -0.8379
    7MPD2    H314258   1.695   1.013  12.003  0.3218 -1.6843  0.0104
    7MPD2     N14259   1.496   0.720  12.272 -0.2669  0.4580  0.6154
    7MPD2    H514260   1.575   0.738  12.333 -0.1689 -1.1655  0.9673
    7MPD2    N114261   1.260   0.934  11.901 -0.3503  0.0003  0.2063
    7MPD2    H714262   1.178   0.885  11.935 -0.0141 -0.6350  0.0897
    8TMC3    C114263   1.108   0.955  11.721 -0.0307  0.4994 -0.5315
    8TMC3    C214264   1.130   0.879  11.608 -0.7463 -0.2181  0.2587
    8TMC3    C314265   1.051   0.770  11.586 -0.4413 -0.3777  0.1338
    8TMC3    C414266   1.017   0.915  11.818  0.5474 -0.3438 -0.8280
    8TMC3    C514267   0.946   0.801  11.798 -0.6947  0.0467  0.3533
    8TMC3    C614268   0.957   0.732  11.684  0.0823 -0.1114 -0.6205
    8TMC3     C14269   1.241   0.987  11.776 -0.3340 -0.1784 -0.7886
    8TMC3     O14270   1.323   1.024  11.699 -0.2476 -0.0213 -0.0142
    8TMC3     H14271   1.208   0.905  11.538  0.4577 -0.2340  1.5931
    8TMC3    H114272   1.015   0.971  11.911  0.7985 -0.6994 -0.6065
    8TMC3    H214273   0.901   0.640  11.667  1.5280 -1.1065 -0.0054
    8TMC3    C714274   0.961   0.727  11.915  1.0486  0.1441  0.4006
    8TMC3    C814275   1.072   0.691  11.467 -1.2793 -0.1313 -1.2164
    8TMC3    O114276   1.061   0.762  11.975  0.3073 -0.5665 -0.4098
    8TMC3    O214277   1.115   0.758  11.373 -1.4316  0.0934  0.1128
    9MPD2     C14278   0.968   0.344  11.391 -0.5087 -0.6316 -0.6848
    9MPD2    C114279   1.017   0.471  11.366 -0.2313  0.2323 -0.8058
    9MPD2    C214280   1.060   0.496  11.241  0.3091 -0.6951  0.4921
    9MPD2    C314281   1.062   0.402  11.139  0.0886 -0.0006 -0.2025
    9MPD2    C414282   1.009   0.273  11.162  0.1314  0.2433  0.0999
    9MPD2    C514283   0.966   0.246  11.289  0.0624 -0.4291 -0.1098
    9MPD2     H14284   1.103   0.592  11.215  1.7232 -1.3949  0.2735
    9MPD2    H114285   1.019   0.185  11.099  1.4923  1.1287 -0.9153
    9MPD2    H214286   0.931   0.321  11.491 -1.6721  0.4386 -0.8788
    9MPD2    H314287   0.911   0.157  11.318  1.9085 -1.4949  0.0893
    9MPD2     N14288   1.118   0.414  11.015  0.2535 -0.2451 -0.2569
    9MPD2    H514289   1.117   0.339  10.947  0.2175 -0.9865  0.5746
    9MPD2    N114290   1.008   0.566  11.465  0.1173 -0.4365  0.5448
    9MPD2    H714291   0.970   0.530  11.552 -1.9568 -0.1984 -0.2428
    1MPD1     C14292   2.411   3.720  16.654 -0.0986 -0.1168  0.1787
    1MPD1    C114293   2.466   3.839  16.688 -0.4816  0.6087  0.0776
    1MPD1    C214294   2.434   3.919  16.796 -0.1328 -0.5493 -0.1491
    1MPD1    C314295   2.334   3.861  16.878  0.3365 -0.3254 -0.4238
    1MPD1    C414296   2.279   3.739  16.847 -0.1684  0.2115  0.1686
    1MPD1    C514297   2.305   3.676  16.731 -0.3303 -0.3966  0.0092
    1MPD1     H14298   2.477   4.018  16.805  0.3942 -0.7391 -0.5664
    1MPD1    H114299   2.197   3.686  16.895 -0.1206 -0.3321 -0.3418
    1MPD1    H214300   2.447   3.662  16.569  1.0593 -0.2408  0.7490
    1MPD1    H314301   2.262   3.584  16.695  1.0377 -0.6208 -1.0650
    1MPD1     N14302   2.272   3.925  16.991  0.0737  0.1036  0.2848
    1MPD1    H514303   2.193   3.883  17.038  1.3673 -0.2572  2.1560
    1MPD1    N114304   2.557   3.892  16.593 -0.5583 -0.0021  0.1373
    1MPD1    H614305   2.601   3.821  16.535 -2.0089  0.0106 -1.0028
    1MPD1    H714306   2.634   3.940  16.639 -0.2351 -1.6556  1.2945
    2TMC2    C114307   2.044   4.100  17.280 -0.1173 -0.0628  0.5643
    2TMC2    C214308   2.094   4.193  17.368  0.1513  0.8259 -0.1535
    2TMC2    C314309   2.226   4.238  17.340  0.1151  0.0530  0.2492
    2TMC2    C414310   2.104   4.057  17.161 -0.7530 -0.3733  0.6665
    2TMC2    C514311   2.235   4.111  17.142  0.0046 -0.4132 -0.4170
    2TMC2    C614312   2.292   4.200  17.224  0.1339  0.4177 -0.1868
    2TMC2     C14313   1.929   4.024  17.327 -0.3518 -0.3058 -0.5859
    2TMC2     O14314   1.859   4.083  17.410 -0.3555 -0.5816  0.2233
    2TMC2     H14315   2.043   4.209  17.462 -0.9931 -0.1408 -0.6106
    2TMC2    H114316   2.051   3.987  17.097  2.0179 -2.3908  0.5825
    2TMC2    H214317   2.392   4.242  17.219  0.8967 -1.0981  2.3135
    2TMC2    C714318   2.320   4.042  17.046 -0.3933  0.1359  0.1092
    2TMC2    C814319   2.289   4.330  17.427  0.2906 -0.3755 -1.1500
    2TMC2    O114320   2.420   4.106  17.010 -0.0357 -0.4936  0.5825
    2TMC2    O214321   2.346   4.429  17.383  0.5052  0.0940  0.4748
    2TMC2    O514322   2.227   4.313  17.543  0.9038 -0.0118 -0.0834
    2TMC2    H514323   2.214   4.217  17.558  2.4912 -0.5518 -2.1842
    3MPD1     C14324   1.685   3.588  17.399  0.3968  0.6067  0.4806
    3MPD1    C114325   1.803   3.562  17.334 -0.3843  0.4855 -0.8054
    3MPD1    C214326   1.883   3.667  17.307 -0.1071 -0.2623 -0.0658
    3MPD1    C314327   1.844   3.795  17.338  0.3969 -0.2244  0.2121
    3MPD1    C414328   1.726   3.820  17.407 -0.2784  0.0038 -0.2884
    3MPD1    C514329   1.647   3.712  17.444  0.4234 -0.5407 -0.3502
    3MPD1     H14330   1.987   3.653  17.280 -0.2442  1.6684 -1.5719
    3MPD1    H114331   1.696   3.919  17.440 -1.3015 -0.7686  1.1119
    3MPD1    H214332   1.615   3.509  17.425  0.1947  0.2505 -1.1278
    3MPD1    H314333   1.556   3.729  17.501 -0.4099 -2.3993 -1.1139
    3MPD1     N14334   1.926   3.896  17.288  0.6773  1.1487  0.7972
    3MPD1    H514335   2.005   3.856  17.238 -0.9222 -0.0012 -0.8143
    3MPD1    N114336   1.859   3.436  17.349 -0.4520  0.4292 -0.2791
    3MPD1    H614337   1.788   3.366  17.329 -0.3318 -0.1489  1.2743
    3MPD1    H714338   1.945   3.414  17.299 -2.5536 -0.8152 -3.3219
    1TMC1    C114339   3.935   3.172  13.020  0.1941  0.1831  0.2306
    1TMC1    C214340   3.874   3.139  13.139  0.5054  0.2693 -0.4100
    1TMC1    C314341   3.781   3.037  13.146 -0.5581  0.3765  0.0783
    1TMC1    C414342   3.897   3.100  12.911 -0.3180 -0.1203  0.4407
    1TMC1    C514343   3.804   2.998  12.924 -0.0149 -0.6380  0.4472
    1TMC1    C614344   3.741   2.967  13.036 -0.0821 -0.5707 -0.3753
    1TMC1     C14345   4.058   3.238  13.011 -0.3406 -0.3056 -0.7918
    1TMC1     O14346   4.059   3.347  12.953  0.3021 -0.1836 -0.1323
    1TMC1     H14347   3.899   3.177  13.237 -0.1440  1.0273 -0.5398
    1TMC1    H114348   3.957   3.126  12.824 -2.0313  1.4888 -0.2547
    1TMC1    H214349   3.669   2.886  13.029  0.8904 -1.1968 -3.3540
    1TMC1    C714350   3.793   2.910  12.809 -0.3472 -0.3321  0.4569
    1TMC1    C814351   3.741   2.993  13.277 -0.4818 -0.4582  0.7256
    1TMC1    O114352   3.756   2.794  12.821 -0.2521 -0.4062  0.4901
    1TMC1    O214353   3.795   3.017  13.388 -0.1646  0.0834  0.1014
    1TMC1    O314354   3.757   2.991  12.708 -0.0504 -0.2779 -0.5298
    1TMC1    H314355   3.777   3.085  12.726  1.2906 -0.7918  0.6741
    1TMC1    O514356   3.620   2.934  13.255  0.1194 -0.0514 -0.2800
    1TMC1    H514357   3.592   2.925  13.162 -1.3998 -2.3977  0.4305
    2MPD2     C14358   4.339   3.269  12.943  0.5672 -0.6074 -0.0265
    2MPD2    C114359   4.296   3.180  13.042 -0.4083 -0.2216 -0.2441
    2MPD2    C214360   4.389   3.105  13.113 -0.3947  0.5140 -0.0719
    2MPD2    C314361   4.527   3.120  13.087 -0.0351 -0.5846  0.6755
    2MPD2    C414362   4.563   3.215  12.993  0.1651 -0.8005 -0.1390
    2MPD2    C514363   4.475   3.280  12.924 -0.1869  0.1251 -0.5175
    2MPD2     H14364   4.354   3.034  13.186 -0.8724  1.4708  0.6396
    2MPD2    H114365   4.665   3.229  12.961  0.1358 -0.2457  0.0153
    2MPD2    H214366   4.276   3.336  12.886  1.9937  0.0898 -0.7754
    2MPD2    H314367   4.506   3.353  12.851 -1.6009  0.4977 -0.7512
    2MPD2     N14368   4.622   3.051  13.170  0.0536 -0.1348  0.6027
    2MPD2    H514369   4.583   3.001  13.249 -0.8891  0.1514  0.3154
    2MPD2    N114370   4.155   3.160  13.063  0.4010 -0.4545  0.2621
    2MPD2    H714371   4.118   3.075  13.103 -1.5413 -0.6341 -1.9493
    3TCq1    O114372   0.497   3.019  13.266 -0.6926 -0.3504  0.7838
    3TCq1    C114373   0.447   2.967  13.384 -0.1042  0.6031  0.0920
    3TCq1    O214374   0.516   2.918  13.471 -0.0521 -0.5140 -0.2982
    3TCq1    C214375   0.305   2.943  13.373  0.1782 -0.1601  0.3122
    3TCq1    C314376   0.254   2.840  13.450  0.3410 -0.5711 -0.0982
    3TCq1    C414377   0.119   2.821  13.430  0.3632 -0.3023 -1.1655
    3TCq1    C514378   0.042   2.883  13.333 -0.2180  0.0978 -0.0013
    3TCq1    C614379   0.098   2.990  13.271 -0.1884  0.1748  0.4067
    3TCq1    C714380   0.229   3.015  13.287  1.2919 -0.6392 -0.5581
    3TCq1    C814381   0.027   3.049  13.157 -0.0652  0.4186  0.6306
    3TCq1    O414382   0.090   3.093  13.063 -0.5282  0.1278 -0.8019
    3TCq1    C914383   0.070   2.701  13.490 -0.0427  0.1947 -0.0291
    3TCq1    O514384   0.011   2.626  13.403  0.4573 -0.0478  0.2464
    3TCq1    O614385   0.117   2.661  13.603  0.1242 -0.8765 -0.0929
    3TCq1    H114386   0.420   3.022  13.205  1.1460 -0.4980 -1.5702
    3TCq1    H214387   0.313   2.772  13.510  0.6829 -0.6038 -0.4707
    3TCq1    H314388   4.673   2.850  13.328 -0.1267  0.1273 -1.9569
    3TCq1    H414389   0.270   3.086  13.217  2.5808  1.9648  2.8511
    1MPD2     C14390   3.783   3.932  14.904 -0.3041 -0.3229 -0.4741
    1MPD2    C114391   3.696   3.865  14.823  0.3311 -0.5665  0.5482
    1MPD2    C214392   3.732   3.744  14.761  0.4344  0.0812 -0.4643
    1MPD2    C314393   3.845   3.687  14.785 -0.2987 -0.0188 -0.0223
    1MPD2    C414394   3.935   3.752  14.866  0.1222 -0.6041 -0.0012
    1MPD2    C514395   3.896   3.869  14.931 -0.2763 -0.4613  0.5995
    1MPD2     H14396   3.672   3.689  14.690 -1.9003  1.3883  0.5015
    1MPD2    H114397   4.027   3.707  14.901 -0.1391 -1.3272 -0.2428
    1MPD2    H214398   3.756   4.027  14.949 -1.7515 -1.0441  0.1927
    1MPD2    H314399   3.970   3.905  15.002 -1.8052 -0.2202  2.0729
    1MPD2     N14400   3.882   3.562  14.728 -0.9605 -0.7790  0.3477
    1MPD2    H514401   3.805   3.519  14.678 -0.4885  0.4212 -1.4166
    1MPD2    N114402   3.572   3.929  14.800 -0.7944  0.5524 -0.4054
    1MPD2    H714403   3.576   4.025  14.832 -0.6500  0.6007 -0.5731
    2TMC3    C114404   3.340   3.940  14.740  0.9112 -0.1712  0.4572
    2TMC3    C214405   3.247   3.850  14.694  0.2899  0.1207  0.2205
    2TMC3    C314406   3.169   3.879  14.585  0.7493  0.0355  0.1501
    2TMC3    C414407   3.361   4.062  14.677 -1.5307  0.1787 -0.8362
    2TMC3    C514408   3.276   4.091  14.568  0.0140 -0.3840  0.0764
    2TMC3    C614409   3.175   4.001  14.524 -0.8456  0.4468  0.2984
    2TMC3     C14410   3.455   3.856  14.775  0.0096 -0.4283  0.2829
    2TMC3     O14411   3.447   3.736  14.750 -0.7777 -0.0144 -0.1366
    2TMC3     H14412   3.226   3.757  14.744  1.1076 -0.6127 -0.8080
    2TMC3    H114413   3.450   4.121  14.697 -0.5880 -0.4522 -3.1913
    2TMC3    H214414   3.122   4.014  14.431  0.4228 -1.8698 -0.7448
    2TMC3    C714415   3.330   4.178  14.460  0.1731 -0.4255 -1.0761
    2TMC3    C814416   3.161   3.761  14.498 -0.1802  0.2831 -0.6629
    2TMC3    O114417   3.264   4.181  14.356 -0.2968  0.3978  0.3301
    2TMC3    O214418   3.070   3.757  14.418 -0.2316 -0.8502  0.3509
    3TCq1    O114419   3.951   0.234  14.571 -0.7925  0.0182 -0.6033
    3TCq1    C114420   4.004   0.158  14.666  0.4401 -0.5334  0.6671
    3TCq1    O214421   3.957   0.146  14.775  0.1546 -0.2659  0.2536
    3TCq1    C214422   4.074   0.047  14.599  0.3105 -0.7240 -0.5191
    3TCq1    C314423   4.120   4.691  14.690 -0.9002 -0.0799  0.4906
    3TCq1    C414424   4.127   4.562  14.660 -0.2424  0.2284 -0.1566
    3TCq1    C514425   4.067   4.513  14.546  0.5416 -0.0901  0.4661
    3TCq1    C614426   4.033   4.599  14.449  0.2889  0.2743 -0.5946
    3TCq1    C714427   4.039   0.003  14.469  0.6935 -0.5313 -0.2853
    3TCq1    C814428   3.946   4.548  14.347  0.0281  0.4832  0.4935
    3TCq1    O414429   3.936   4.607  14.239 -0.0673  0.3119 -0.1005
    3TCq1    C914430   4.191   4.473  14.760 -1.2607 -0.4824  0.1626
    3TCq1    O514431   4.199   4.350  14.726 -0.2545  0.6794  1.0207
    3TCq1    O614432   4.228   4.519  14.871  0.0074  0.6361  0.1273
    3TCq1    H114433   4.014   0.241  14.496  0.8984 -3.6034  0.4524
    3TCq1    H214434   4.171   4.732  14.777  0.8003 -0.0745 -0.4919
    3TCq1    H314435   4.065   4.408  14.519 -1.7401 -0.2357  1.2433
    3TCq1    H414436   4.003   0.077  14.398 -1.2029 -1.0531  0.1320
    4MPD2     C14437   3.735   4.393  14.214  0.2238  0.0250 -0.5506
    4MPD2    C114438   3.747   4.399  14.356  0.4362 -0.0221 -0.4514
    4MPD2    C214439   3.655   4.343  14.447  0.7558  0.0212 -0.5409
    4MPD2    C314440   3.547   4.276  14.392  0.0249 -0.2103 -0.1937
    4MPD2    C414441   3.536   4.262  14.255 -0.5026 -0.8130 -0.4120
    4MPD2    C514442   3.626   4.318  14.172  0.5594  0.2946  0.3867
    4MPD2     H14443   3.664   4.351  14.554 -2.1469 -0.8233 -0.2172
    4MPD2    H114444   3.454   4.216  14.200  0.3811 -1.1318 -1.4726
    4MPD2    H214445   3.795   4.433  14.133 -0.7419 -1.0340 -1.8020
    4MPD2    H314446   3.613   4.319  14.064 -0.8730  0.0653  0.5544
    4MPD2     N14447   3.459   4.221  14.484  0.2401 -0.5481 -0.2470
    4MPD2    H514448   3.490   4.200  14.579  2.0270  1.6402 -0.3536
    4MPD2    N114449   3.854   4.472  14.413 -0.6388  0.0666  1.3091
    4MPD2    H714450   3.865   4.473  14.513  1.4198  0.1928  1.0724
    5TMC2    C114451   3.806   3.304  14.528 -0.4155 -0.3504 -0.3569
    5TMC2    C214452   3.879   3.299  14.407  1.5729 -0.0459 -0.7248
    5TMC2    C314453   4.009   3.345  14.425  0.1863  0.3493 -0.1898
    5TMC2    C414454   3.857   3.341  14.646  0.3309  0.4013 -0.1368
    5TMC2    C514455   3.988   3.379  14.659  0.6895 -0.1576 -0.1287
    5TMC2    C614456   4.068   3.370  14.548  0.0530  0.0024 -0.2744
    5TMC2     C14457   3.674   3.367  14.514 -0.2954  0.5803 -0.9078
    5TMC2     O14458   3.653   3.441  14.612 -0.0765 -0.8147 -0.6960
    5TMC2     H14459   3.835   3.274  14.311 -2.4012 -2.3539  1.7081
    5TMC2    H114460   3.803   3.343  14.740  0.0478 -0.2150 -0.2825
    5TMC2    H214461   4.174   3.393  14.558  0.4852 -1.9187 -0.5434
    5TMC2    C714462   4.005   3.495  14.734 -0.4983  0.4345  0.5985
    5TMC2    C814463   4.101   3.316  14.313 -0.3548 -0.4345  0.4989
    5TMC2    O114464   4.116   3.537  14.754  0.2810 -0.5567 -0.0299
    5TMC2    O214465   4.087   3.212  14.247 -0.1081 -0.3284  0.0266
    5TMC2    O514466   4.202   3.407  14.332 -0.0040 -0.4644  0.2908
    5TMC2    H514467   4.173   3.493  14.368 -0.0057 -0.3681  0.0582
    6MPD2     C14468   3.224   3.520  14.326  0.7997  0.1563  0.2489
    6MPD2    C114469   3.298   3.562  14.431  0.3432 -0.2557 -0.3442
    6MPD2    C214470   3.421   3.500  14.447 -0.0714 -0.4994 -0.4354
    6MPD2    C314471   3.471   3.395  14.376 -0.0776  0.1712 -0.0530
    6MPD2    C414472   3.386   3.352  14.270 -0.5270 -0.6339 -0.0359
    6MPD2    C514473   3.264   3.416  14.251 -0.2970 -1.0352  0.6538
    6MPD2     H14474   3.483   3.548  14.522  0.1643  0.3252 -1.1548
    6MPD2    H114475   3.406   3.265  14.209  0.0096  0.0045 -0.7810
    6MPD2    H214476   3.121   3.549  14.307  1.5952  2.3070 -0.8008
    6MPD2    H314477   3.215   3.399  14.156  1.6537  0.0959 -0.5557
    6MPD2     N14478   3.586   3.322  14.417 -0.1414  0.3629  0.0533
    6MPD2    H514479   3.611   3.241  14.361 -2.4582 -0.4981  0.2659
    6MPD2    N114480   3.269   3.670  14.512 -0.0763  0.0708 -0.0133
    6MPD2    H714481   3.344   3.697  14.575  0.8803  0.4452 -1.3295
  945NH3     N114482   3.947   4.183   0.690  0.0246  0.0211  0.6655
  945NH3     H214483   3.932   4.116   0.615 -1.7851  0.2145  0.8468
  945NH3     H314484   4.039   4.217   0.668 -0.1181  0.7888  1.2381
  945NH3     H414485   3.957   4.126   0.774 -1.5553 -0.8861  0.2372
  946SOD     NA14486   4.175   2.151  15.203  0.5495 -0.0717  0.4084
  947SOD     NA14487   1.245   0.468  13.367  0.8398 -0.1604 -0.8453
  948SOD     NA14488   4.551   1.613  16.926  0.0334 -0.0358  0.2165
  949SOD     NA14489   4.089   1.953   7.662  0.0714 -0.3962 -0.3587
  950SOD     NA14490   3.305   4.028   9.909  0.1286  0.0364  0.0603
  951SOD     NA14491   3.222   1.121   7.765  0.0982 -0.0883  0.6918
  952SOD     NA14492   3.168   2.079  16.783  0.0151  0.2153  0.4682
  953SOD     NA14493   0.061   4.354  10.871  0.3350 -0.1112 -0.2272
  954SOL     OW14494   3.339   1.232   0.898  0.6639  0.2220 -0.1288
  954SOL    HW114495   3.274   1.165   0.879  0.0815  1.0003 -0.8542
  954SOL    HW214496   3.285   1.303   0.932 -0.8661 -1.4908  0.9848
  955SOL     OW14497   3.168   1.226   5.254 -0.2554 -0.4590  0.1287
  955SOL    HW114498   3.190   1.182   5.336 -2.8084 -2.0973 -0.0774
  955SOL    HW214499   3.119   1.156   5.211  0.7014 -0.6332 -0.6880
  956SOL     OW14500   4.501   4.101   9.801  0.0335  0.2464 -0.0707
  956SOL    HW114501   4.461   4.097   9.888 -1.9211  0.5826 -0.9344
  956SOL    HW214502   4.584   4.142   9.824  0.0455  0.0004  0.3312
  957SOL     OW14503   2.919   3.092  12.060 -0.1746  0.0175  0.3014
  957SOL    HW114504   2.958   3.027  12.001 -1.4421  1.1378 -1.7613
  957SOL    HW214505   2.856   3.048  12.117 -1.2103  1.2706  0.1149
  958SOL     OW14506   0.419   1.683   8.650 -0.6976 -0.0181 -0.2267
  958SOL    HW114507   0.448   1.772   8.629 -0.5922  0.2958  1.2064
  958SOL    HW214508   0.343   1.698   8.707  0.8084  0.1030  1.7733
  959SOL     OW14509   1.977   3.002   4.624  0.8750 -0.5210  0.5829
  959SOL    HW114510   2.025   2.934   4.577  0.0828 -0.3317 -0.4953
  959SOL    HW214511   1.908   3.026   4.562 -0.3803 -1.3990  1.6638
  960SOL     OW14512   2.491   4.266  14.964 -0.8045  0.0623  0.2066
  960SOL    HW114513   2.522   4.182  14.930 -0.6931  0.3967 -0.5246
  960SOL    HW214514   2.466   4.234  15.050 -0.7098  1.6249  0.8277
  961SOL     OW14515   3.796   3.053  17.156  0.4368  0.0008 -0.1605
  961SOL    HW114516   3.809   3.130  17.101 -1.3055  0.5687  0.2141
  961SOL    HW214517   3.779   3.095  17.241 -2.6465 -0.2463 -0.6405
  962SOL     OW14518   3.531   3.602   8.118  0.5427 -0.2859 -0.4050
  962SOL    HW114519   3.539   3.645   8.203 -0.9183  1.2871 -1.0572
  962SOL    HW214520   3.624   3.582   8.119  0.3025 -1.4317 -1.4116
  963SOL     OW14521   0.169   2.993   9.967  0.3224  0.3834  0.1060
  963SOL    HW114522   0.123   3.060   9.916 -0.5503  0.5233  1.0706
  963SOL    HW214523   0.111   2.976  10.041 -1.8138 -1.5950 -2.0097
  964SOL     OW14524   2.749   4.267   6.873  0.2057 -0.1209  0.1589
  964SOL    HW114525   2.662   4.277   6.911 -0.4480 -1.2772 -1.0476
  964SOL    HW214526   2.729   4.180   6.839 -0.0912  0.5376 -1.3501
  965SOL     OW14527   3.661   0.006   3.510  0.0002  0.0027  0.3924
  965SOL    HW114528   3.702   4.696   3.435 -0.1916  1.4413 -0.5733
  965SOL    HW214529   3.593   0.054   3.462  4.0535  3.2998 -2.0750
  966SOL     OW14530   4.629   1.799   2.914  0.2110  0.2512 -0.0266
  966SOL    HW114531   4.576   1.736   2.865 -2.0689  1.7719  0.4792
  966SOL    HW214532   4.715   1.759   2.926 -0.8808 -1.9936  0.3721
  967SOL     OW14533   0.269   3.617   0.232  0.3102 -0.5162  0.6517
  967SOL    HW114534   0.355   3.575   0.236  1.0476  0.8597 -0.8533
  967SOL    HW214535   0.256   3.645   0.322 -3.1881  1.4800 -0.4598
  968SOL     OW14536   0.621   3.885   3.289  0.2227 -0.1612 -0.3235
  968SOL    HW114537   0.596   3.854   3.202  0.9438  0.0775 -0.6197
  968SOL    HW214538   0.567   3.964   3.299 -0.2621 -0.5120 -0.1906
  969SOL     OW14539   1.013   2.124   9.718 -0.0395 -0.0230 -0.0016
  969SOL    HW114540   1.094   2.172   9.732  0.3880 -0.9152  0.5662
  969SOL    HW214541   0.951   2.196   9.706  1.0815  0.9087 -0.2116
  970SOL     OW14542   0.029   2.346  12.336 -0.4910 -0.2740  0.1743
  970SOL    HW114543   0.016   2.251  12.329  0.0337 -0.2702 -0.8134
  970SOL    HW214544   0.005   2.358  12.428  0.2581 -1.2174  0.4906
  971SOL     OW14545   1.642   0.636   4.082 -0.2119 -0.3419  0.1170
  971SOL    HW114546   1.548   0.625   4.067 -0.3466  1.9115 -0.5958
  971SOL    HW214547   1.648   0.579   4.159  3.2881 -0.0993  0.0037
  972SOL     OW14548   0.962   1.744   0.632 -0.3794  0.1566 -0.4465
  972SOL    HW114549   0.991   1.806   0.698  0.4061 -2.0036  1.2454
  972SOL    HW214550   0.958   1.672   0.695  0.0741 -0.3519 -0.9922
  973SOL     OW14551   0.807   2.364  15.652 -0.4865  0.5251  0.2612
  973SOL    HW114552   0.772   2.417  15.723  3.2443 -0.1573  2.5638
  973SOL    HW214553   0.810   2.276  15.690  0.1681  1.6727  2.8180
  974SOL     OW14554   4.538   1.924  17.184  0.5765  0.5979  0.7987
  974SOL    HW114555   4.499   2.006  17.214 -1.0551 -0.2090  0.8775
  974SOL    HW214556   4.632   1.942  17.194  1.1094 -2.0952  0.5443
  975SOL     OW14557   0.266   4.614  11.120  0.3990 -0.2274  0.1110
  975SOL    HW114558   0.264   4.703  11.156 -2.3487  0.8548 -2.6037
  975SOL    HW214559   0.353   4.593  11.152 -0.4562 -0.5350  2.1920
  976SOL     OW14560   3.151   4.193   4.572 -0.5006  0.0373  0.0272
  976SOL    HW114561   3.181   4.137   4.644 -2.6736  1.0591  1.7052
  976SOL    HW214562   3.179   4.136   4.500  1.0184 -0.2033  0.7976
  977SOL     OW14563   4.404   4.407  14.239  0.3410 -0.0361 -0.4770
  977SOL    HW114564   4.454   4.408  14.157  3.0333  0.3758  1.2051
  977SOL    HW214565   4.432   4.322  14.273  1.3172  0.2707 -0.5194
  978SOL     OW14566   1.894   0.412  10.339  0.0655 -0.4781 -0.1724
  978SOL    HW114567   1.865   0.499  10.310 -1.2147 -0.2339  1.8502
  978SOL    HW214568   1.956   0.401  10.267  0.6859 -1.3325  0.4992
  979SOL     OW14569   0.797   0.699   9.147 -0.1316  0.3924  0.4831
  979SOL    HW114570   0.884   0.730   9.172  0.3531  0.5415 -1.3767
  979SOL    HW214571   0.802   0.721   9.054 -1.3322 -1.5004 -0.0361
  980SOL     OW14572   3.583   4.584   3.727  0.5079 -0.2339  0.4129
  980SOL    HW114573   3.639   4.628   3.791 -0.7224  2.6481 -0.4881
  980SOL    HW214574   3.596   4.645   3.654  2.7140  0.6245  1.5212
  981SOL     OW14575   1.882   4.497  10.654 -0.4048  0.5138  0.3329
  981SOL    HW114576   1.816   4.458  10.597 -1.5887  1.4997  1.0288
  981SOL    HW214577   1.868   4.591  10.660 -1.0956  0.4564 -0.3191
  982SOL     OW14578   2.494   1.251   7.827 -0.0790  0.0381  0.1238
  982SOL    HW114579   2.565   1.187   7.830 -0.1617 -0.1692 -2.3797
  982SOL    HW214580   2.491   1.274   7.920  0.9460  0.0224  0.1614
  983SOL     OW14581   3.143   2.128   2.940  0.0937  0.2174 -1.0399
  983SOL    HW114582   3.109   2.184   2.871 -0.6758  0.3281 -0.5709
  983SOL    HW214583   3.114   2.044   2.906  0.8301 -0.0773 -0.9544
  984SOL     OW14584   1.233   3.962   9.459  0.4717  0.0638 -0.2385
  984SOL    HW114585   1.253   3.977   9.367 -2.2342 -1.7197 -1.0938
  984SOL    HW214586   1.255   4.050   9.491  0.9936 -0.2171  0.1829
  985SOL     OW14587   3.001   0.660  16.570 -0.2067 -0.3339 -0.2198
  985SOL    HW114588   3.016   0.658  16.665 -0.9602  1.0519 -0.0666
  985SOL    HW214589   2.960   0.747  16.569 -0.9245 -0.6500  1.3177
  986SOL     OW14590   1.642   2.990  13.078  0.3502  0.2703 -0.0401
  986SOL    HW114591   1.689   2.915  13.042 -0.2201  0.0553 -0.3420
  986SOL    HW214592   1.688   2.996  13.161  0.1268  0.9283  0.0392
  987SOL     OW14593   0.730   1.653   9.643  0.4381 -0.2050 -0.4370
  987SOL    HW114594   0.692   1.721   9.699 -1.0113 -0.5816 -0.9541
  987SOL    HW214595   0.740   1.695   9.557  0.2909  2.5379  0.9010
  988SOL     OW14596   3.217   2.584   8.711  0.9558 -0.2424 -0.1902
  988SOL    HW114597   3.146   2.632   8.755  0.2955 -0.3906 -1.0913
  988SOL    HW214598   3.293   2.596   8.767  0.8043 -0.7104  0.1237
  989SOL     OW14599   4.622   3.446   5.115  0.6898  0.1882  0.0058
  989SOL    HW114600   4.543   3.483   5.154 -0.2324  0.4829 -2.1163
  989SOL    HW214601   4.677   3.412   5.186  0.8621  0.1792 -0.1296
  990SOL     OW14602   3.256   0.773   2.358  0.1158 -0.0727 -0.1877
  990SOL    HW114603   3.301   0.727   2.287  0.4359 -0.4092  0.2322
  990SOL    HW214604   3.167   0.737   2.363  0.0040  0.2070 -0.1539
  991SOL     OW14605   2.370   4.518  11.073  0.2331  0.0491  0.1905
  991SOL    HW114606   2.334   4.552  10.991 -2.8618  0.1144  1.5757
  991SOL    HW214607   2.297   4.461  11.096  0.0826  0.2485  0.2132
  992SOL     OW14608   0.971   1.847   4.154 -0.0906 -0.3194 -0.0391
  992SOL    HW114609   0.980   1.762   4.111  0.8197  0.7191 -1.9090
  992SOL    HW214610   1.008   1.824   4.239 -0.9297  0.4237  0.5393
  993SOL     OW14611   0.480   3.504   7.075 -0.2040 -0.3947 -0.2659
  993SOL    HW114612   0.518   3.418   7.096 -0.8794 -1.1120 -2.0358
  993SOL    HW214613   0.472   3.517   6.981 -1.3782  0.9149  0.0120
  994SOL     OW14614   2.735   2.455   1.658 -0.8790  0.5597  0.3148
  994SOL    HW114615   2.654   2.468   1.608  0.0142  0.6978 -1.0926
  994SOL    HW214616   2.750   2.535   1.708 -0.0311 -0.5085  1.7745
  995SOL     OW14617   4.330   3.337   6.014  0.1775  0.4624 -0.1697
  995SOL    HW114618   4.402   3.275   6.007  0.6738  0.8900  1.2580
  995SOL    HW214619   4.362   3.382   6.092 -0.0570 -0.4127  0.4304
  996SOL     OW14620   4.561   0.241   4.892 -0.3152  0.3608 -0.1483
  996SOL    HW114621   4.611   0.322   4.893 -0.7365  0.6406 -1.6993
  996SOL    HW214622   4.573   0.202   4.805 -0.9991 -0.0147 -0.0731
  997SOL     OW14623   3.945   4.699   8.962  0.3918 -0.3403  0.0409
  997SOL    HW114624   3.969   4.707   8.870 -0.0924 -0.7450 -0.1255
  997SOL    HW214625   3.967   4.610   8.992 -0.7921 -0.6366  0.0290
  998SOL     OW14626   1.418   2.433   9.081 -0.2056 -0.4626  0.0723
  998SOL    HW114627   1.336   2.440   9.129 -0.7994  0.9703 -1.1253
  998SOL    HW214628   1.452   2.522   9.075 -1.0090 -0.0595  1.4591
  999SOL     OW14629   3.625   4.527  13.902 -0.1435 -0.1470  0.5486
  999SOL    HW114630   3.688   4.579  13.952  0.3821  1.0144 -1.3146
  999SOL    HW214631   3.549   4.569  13.943 -1.0114  1.3317 -2.5012
 1000SOL     OW14632   3.992   2.990   2.987  0.3293 -0.6074  0.7136
 1000SOL    HW114633   3.938   2.952   2.917 -0.1971  1.5010 -0.0160
 1000SOL    HW214634   4.062   2.926   2.977 -0.7174 -1.9553  1.9617
 1001SOL     OW14635   1.598   4.143   6.982 -0.2969 -0.0916 -0.3817
 1001SOL    HW114636   1.507   4.116   6.982 -0.6351  1.0625 -0.0267
 1001SOL    HW214637   1.592   4.237   6.967 -0.6784 -0.1930 -0.8617
 1002SOL     OW14638   3.605   2.298   6.216  0.6485  0.0068  0.1915
 1002SOL    HW114639   3.687   2.314   6.263  1.4283 -0.1233 -1.1147
 1002SOL    HW214640   3.612   2.374   6.158 -2.2712 -0.6594 -1.0129
 1003SOL     OW14641   0.331   2.532   3.400  0.3721  0.0457  0.1614
 1003SOL    HW114642   0.328   2.536   3.305  1.6807  3.4322  0.2655
 1003SOL    HW214643   0.404   2.471   3.401  0.0377 -0.3526  0.1461
 1004SOL     OW14644   4.067   4.055  17.685 -0.3250 -0.0162 -0.3208
 1004SOL    HW114645   4.001   4.069  17.617 -0.2807  2.8073  0.2082
 1004SOL    HW214646   4.056   4.135   0.001  3.2045  0.6408 -0.5973
 1005SOL     OW14647   3.137   0.130  11.097  0.3003 -0.1540  0.3099
 1005SOL    HW114648   3.116   0.050  11.048  1.6475 -0.8126  0.8149
 1005SOL    HW214649   3.054   0.139  11.145  0.6221 -0.9111  1.0138
 1006SOL     OW14650   4.077   1.951   1.871  0.2223 -0.2209 -0.9474
 1006SOL    HW114651   4.111   2.041   1.866 -0.8449  0.2042 -0.4428
 1006SOL    HW214652   4.135   1.911   1.936 -0.9884  0.6693  0.6783
 1007SOL     OW14653   0.028   1.831  14.920 -0.1174  0.4900 -0.5680
 1007SOL    HW114654   4.691   1.793  14.868  0.9477  0.0450 -1.6809
 1007SOL    HW214655   0.106   1.817  14.867  1.2738  2.6837  0.9243
 1008SOL     OW14656   1.505   0.112  17.325 -0.1919 -0.3675  0.1425
 1008SOL    HW114657   1.459   0.028  17.322 -0.7148 -0.0617 -0.2293
 1008SOL    HW214658   1.594   0.088  17.296  0.1849  1.6646 -0.3634
 1009SOL     OW14659   4.130   3.788   7.175  0.4070 -0.0104 -0.2257
 1009SOL    HW114660   4.221   3.773   7.203  0.2865  0.4038  0.3933
 1009SOL    HW214661   4.144   3.794   7.081  0.2506  2.9445 -0.0556
 1010SOL     OW14662   0.455   4.530   3.790  0.5200  0.2813  0.3863
 1010SOL    HW114663   0.475   4.612   3.745  0.2144 -0.6317 -1.4150
 1010SOL    HW214664   0.425   4.472   3.720  2.2096 -1.1784  0.8773
 1011SOL     OW14665   0.156   2.425   7.488 -0.1915  0.0688 -0.1984
 1011SOL    HW114666   0.137   2.332   7.497  1.3146 -0.3223 -0.9770
 1011SOL    HW214667   0.246   2.422   7.522 -0.5653 -1.6304  0.6559
 1012SOL     OW14668   0.183   3.255   3.825 -0.0953 -0.2579 -0.4390
 1012SOL    HW114669   0.237   3.203   3.766  0.9758 -1.7596  1.8349
 1012SOL    HW214670   0.201   3.221   3.913  1.0927  1.1989 -0.1307
 1013SOL     OW14671   1.104   0.020   5.788  0.4213  0.4306  0.8457
 1013SOL    HW114672   1.057   0.093   5.748 -0.8854  0.2152  1.9845
 1013SOL    HW214673   1.118   4.699   5.711 -0.2168 -0.4778  1.3778
 1014SOL     OW14674   2.609   2.974  12.793 -0.0642 -0.1127  0.3835
 1014SOL    HW114675   2.575   2.893  12.830 -0.7472  0.2271  0.5003
 1014SOL    HW214676   2.633   3.034  12.864  0.1216 -1.0452  1.1035
 1015SOL     OW14677   1.263   4.714   7.192 -0.0660 -0.2486  0.0941
 1015SOL    HW114678   1.288   0.039   7.121 -1.2883 -1.2378 -1.1414
 1015SOL    HW214679   1.272   0.046   7.261 -0.0117 -1.0011  0.8076
 1016SOL     OW14680   3.997   4.721   1.093 -0.5377  0.5039  0.5108
 1016SOL    HW114681   3.902   4.734   1.094 -0.6222 -0.0797  0.3065
 1016SOL    HW214682   4.038   0.041   1.160  1.7184  0.0994 -0.5146
 1017SOL     OW14683   3.978   0.363   1.481 -0.1875 -0.3539  0.6644
 1017SOL    HW114684   3.986   0.269   1.496  2.6069 -0.0623  1.0538
 1017SOL    HW214685   4.000   0.366   1.388 -1.0108  1.3366  0.5264
 1018SOL     OW14686   3.710   2.327   9.131 -0.0156 -0.3928 -0.2927
 1018SOL    HW114687   3.757   2.244   9.137 -1.5447 -1.2903 -0.5932
 1018SOL    HW214688   3.701   2.346   9.224 -0.8483  2.2317 -0.9021
 1019SOL     OW14689   1.868   4.330  16.699  0.1648 -0.5362  0.5541
 1019SOL    HW114690   1.926   4.349  16.772  0.0242 -0.5029  0.6561
 1019SOL    HW214691   1.810   4.272  16.747  0.1652 -2.0985 -1.2916
 1020SOL     OW14692   2.474   1.652   2.392 -0.0156 -0.6676 -0.0986
 1020SOL    HW114693   2.438   1.571   2.427 -0.2682 -0.4797  0.0745
 1020SOL    HW214694   2.554   1.643   2.443  0.0544 -1.1392 -0.2918
 1021SOL     OW14695   2.394   1.784   3.884  0.1162 -0.8161 -0.4988
 1021SOL    HW114696   2.420   1.706   3.835 -1.2052 -1.3878 -0.3054
 1021SOL    HW214697   2.305   1.788   3.850  0.5941  1.7295 -1.4474
 1022SOL     OW14698   0.264   2.951   4.862 -0.2011  0.2455  0.9584
 1022SOL    HW114699   0.185   2.971   4.810  0.7850  1.2103 -0.1765
 1022SOL    HW214700   0.333   2.932   4.798 -0.5879  0.4548  0.4697
 1023SOL     OW14701   1.249   3.313   8.765  0.0212 -0.7129 -0.7886
 1023SOL    HW114702   1.259   3.286   8.674  0.9306 -1.6110 -0.4231
 1023SOL    HW214703   1.286   3.237   8.809 -0.3868  0.8638  2.2997
 1024SOL     OW14704   1.238   0.155   2.844 -0.4333 -0.0238  0.2290
 1024SOL    HW114705   1.248   0.127   2.753 -1.9204 -2.0606  0.6964
 1024SOL    HW214706   1.220   0.249   2.843 -0.2375  0.0220  1.6521
 1025SOL     OW14707   3.625   3.142   7.512  0.0383  0.3651  0.5204
 1025SOL    HW114708   3.600   3.194   7.589  0.6100 -2.3379  2.5223
 1025SOL    HW214709   3.707   3.191   7.499  0.2818 -0.2599 -0.2771
 1026SOL     OW14710   3.085   2.533   4.688 -0.1722 -0.2556 -0.3474
 1026SOL    HW114711   3.071   2.554   4.780 -4.7868 -1.4082 -0.7585
 1026SOL    HW214712   3.018   2.467   4.665  0.9037 -1.0705 -1.1647
 1027SOL     OW14713   0.705   2.650   0.704 -0.2440  0.5445 -0.4030
 1027SOL    HW114714   0.677   2.596   0.630 -1.4374  0.6388 -0.0074
 1027SOL    HW214715   0.667   2.735   0.683 -0.1686 -0.0414 -2.8814
 1028SOL     OW14716   4.096   0.025   7.276  0.9920  0.2650  0.0817
 1028SOL    HW114717   4.052   0.098   7.232  0.6939 -0.2506 -0.4823
 1028SOL    HW214718   4.029   0.007   7.342  0.3646 -0.0005 -0.6157
 1029SOL     OW14719   2.114   2.853   6.968 -0.6688  0.2452 -0.1143
 1029SOL    HW114720   2.141   2.930   6.917  0.1665 -0.1012 -0.1819
 1029SOL    HW214721   2.037   2.833   6.913  1.1179 -1.7114 -1.9125
 1030SOL     OW14722   1.287   1.559  12.195 -0.5365  0.0683 -0.0349
 1030SOL    HW114723   1.226   1.628  12.221 -1.0802 -0.1100 -0.8286
 1030SOL    HW214724   1.265   1.540  12.104  0.0346  0.4164 -0.2418
 1031SOL     OW14725   4.318   0.816   4.690 -0.0461  0.3588  0.4194
 1031SOL    HW114726   4.359   0.751   4.634  1.3022  1.0843  0.5551
 1031SOL    HW214727   4.238   0.767   4.707 -0.0565  0.6407  1.1797
 1032SOL     OW14728   1.564   1.702   8.004  0.4866 -0.1028  0.2071
 1032SOL    HW114729   1.482   1.719   8.049  0.9015 -0.1618  0.9856
 1032SOL    HW214730   1.574   1.608   8.019 -0.6915 -0.3983 -0.9281
 1033SOL     OW14731   1.533   4.451   5.484 -0.0326  0.4697  0.2454
 1033SOL    HW114732   1.445   4.437   5.521  1.3477 -3.1421  2.2124
 1033SOL    HW214733   1.575   4.368   5.506  2.2956  1.4111 -0.7527
 1034SOL     OW14734   4.705   3.992   0.217 -0.3130 -0.0019  0.1184
 1034SOL    HW114735   4.628   3.997   0.161 -0.6444  1.3021  0.6722
 1034SOL    HW214736   0.029   4.050   0.168 -0.5306  0.7872  0.7896
 1035SOL     OW14737   0.115   1.387  16.438  0.0765 -0.6203  0.2020
 1035SOL    HW114738   0.184   1.321  16.431  0.8021  0.2592 -0.9298
 1035SOL    HW214739   0.149   1.469  16.402  0.6061  0.1089  2.3724
 1036SOL     OW14740   1.667   1.368  13.583  0.3959  0.0161 -0.7699
 1036SOL    HW114741   1.736   1.414  13.630 -1.6420  2.8701 -0.5539
 1036SOL    HW214742   1.692   1.363  13.491  1.1530 -3.5790 -0.3524
 1037SOL     OW14743   4.165   3.915   2.891  0.0612  0.2217 -0.9635
 1037SOL    HW114744   4.119   3.931   2.808 -0.4067 -2.6366 -1.2686
 1037SOL    HW214745   4.200   3.996   2.927  0.8019 -0.1175 -0.9105
 1038SOL     OW14746   0.918   4.107  14.440 -0.1286 -0.1481 -0.0357
 1038SOL    HW114747   0.987   4.064  14.391 -1.1059  2.7880 -4.0505
 1038SOL    HW214748   0.907   4.180  14.378 -2.9082 -1.3775 -0.9749
 1039SOL     OW14749   3.190   0.065   8.062  0.3797 -0.4463 -0.4091
 1039SOL    HW114750   3.169   0.034   7.973  0.1961  0.3113 -0.6293
 1039SOL    HW214751   3.154   4.730   8.118  1.0093  0.5055  1.1531
 1040SOL     OW14752   2.598   2.368   3.747 -0.2485  0.2974  0.6050
 1040SOL    HW114753   2.620   2.305   3.815  0.9909 -0.6358 -0.6549
 1040SOL    HW214754   2.673   2.428   3.738  1.5950 -2.2026 -0.6077
 1041SOL     OW14755   2.725   0.064   8.683  0.2186  0.1744  0.6552
 1041SOL    HW114756   2.676   0.125   8.628  0.7586 -1.7091 -1.9020
 1041SOL    HW214757   2.763   0.127   8.744 -0.0948  0.4188  0.5983
 1042SOL     OW14758   4.394   4.350  10.392 -0.0266  0.5005  0.1784
 1042SOL    HW114759   4.347   4.386  10.467 -1.6091  0.6585 -0.8900
 1042SOL    HW214760   4.474   4.343  10.445  0.5618  1.7332 -0.5290
 1043SOL     OW14761   1.602   3.490  11.592 -0.4848 -0.0396 -0.3557
 1043SOL    HW114762   1.676   3.524  11.541  1.3689 -2.4122  0.7653
 1043SOL    HW214763   1.599   3.536  11.676  1.0267 -0.0752 -0.2748
 1044SOL     OW14764   1.092   3.083   4.965 -0.5977 -0.1713 -0.5697
 1044SOL    HW114765   1.017   3.142   4.973 -0.9672 -0.8249  0.7052
 1044SOL    HW214766   1.114   3.092   4.872  0.6880 -2.3344 -0.4693
 1045SOL     OW14767   0.573   2.973  13.942 -0.1379 -0.5445  0.2433
 1045SOL    HW114768   0.645   2.973  14.006  2.0114  0.3328 -2.1796
 1045SOL    HW214769   0.589   2.891  13.896  1.1293 -1.4776  2.3555
 1046SOL     OW14770   3.433   3.543   7.556  0.0631 -0.0333  0.7763
 1046SOL    HW114771   3.513   3.509   7.516  1.0984  2.0046  1.1036
 1046SOL    HW214772   3.409   3.602   7.485 -0.9198 -1.0662  0.2405
 1047SOL     OW14773   0.574   4.365   3.024  0.5929  0.4470 -0.4534
 1047SOL    HW114774   0.578   4.279   2.981  2.0827  0.7514 -0.9017
 1047SOL    HW214775   0.514   4.398   2.956  2.1868 -0.2970 -2.2379
 1048SOL     OW14776   1.922   1.078  12.219  1.1912  0.3354 -0.1082
 1048SOL    HW114777   1.988   1.043  12.158 -1.7701 -1.3998 -2.3250
 1048SOL    HW214778   1.944   1.171  12.217  1.1045  0.3849  2.0893
 1049SOL     OW14779   2.238   2.001   6.823  0.7273  0.4135  0.1916
 1049SOL    HW114780   2.332   2.017   6.811  0.4730  0.9729 -1.0602
 1049SOL    HW214781   2.230   2.018   6.917 -0.4660 -2.3254  0.6005
 1050SOL     OW14782   4.219   1.745  16.649  0.7900 -0.7486 -0.1846
 1050SOL    HW114783   4.140   1.713  16.693  0.0124  1.7626  0.2136
 1050SOL    HW214784   4.288   1.736  16.715  0.7653  0.5507  0.0067
 1051SOL     OW14785   4.501   1.806   5.285  0.3215 -0.4212 -0.1698
 1051SOL    HW114786   4.434   1.756   5.237  0.2001 -1.7629  1.3983
 1051SOL    HW214787   4.541   1.739   5.340  0.9788 -0.1595 -0.3368
 1052SOL     OW14788   1.391   0.957  14.751 -0.0301 -0.3871 -0.4017
 1052SOL    HW114789   1.297   0.952  14.764 -0.0386 -2.6977 -1.3386
 1052SOL    HW214790   1.404   0.978  14.658 -1.6476  0.6107 -0.4103
 1053SOL     OW14791   0.506   3.004   7.627  0.1911  0.3961 -0.4209
 1053SOL    HW114792   0.587   2.973   7.588  0.2961 -0.4104  0.4332
 1053SOL    HW214793   0.536   3.052   7.704  0.4513 -0.4539  0.0085
 1054SOL     OW14794   1.701   4.321   3.510 -0.3225 -0.3118 -0.5565
 1054SOL    HW114795   1.698   4.364   3.424  0.1259  0.7706 -0.0241
 1054SOL    HW214796   1.636   4.382   3.544  2.5770  2.2179  0.4823
 1055SOL     OW14797   4.447   4.685   5.001  0.1233 -0.1587 -0.1498
 1055SOL    HW114798   4.380   4.690   5.070 -1.5955  1.1388 -1.9368
 1055SOL    HW214799   4.427   0.016   4.935  0.2377 -0.4852 -0.5055
 1056SOL     OW14800   1.405   2.184   5.032  0.0194 -0.1816 -0.1166
 1056SOL    HW114801   1.407   2.280   5.036  0.1321 -0.1581 -0.8009
 1056SOL    HW214802   1.399   2.167   5.126  0.5578 -0.4830 -0.1354
 1057SOL     OW14803   1.754   2.772   4.471  0.4064 -0.7729 -0.4005
 1057SOL    HW114804   1.769   2.866   4.468  0.2329 -0.8050 -2.3166
 1057SOL    HW214805   1.676   2.769   4.415 -0.8167  2.1895  1.1295
 1058SOL     OW14806   2.821   3.519  12.011 -0.2554 -0.5610 -0.7187
 1058SOL    HW114807   2.843   3.442  12.063 -2.9868 -0.9264 -0.0832
 1058SOL    HW214808   2.907   3.537  11.974 -0.2565 -0.8010 -0.8318
 1059SOL     OW14809   0.875   1.100   8.251  0.2386 -0.8496 -0.3916
 1059SOL    HW114810   0.896   1.116   8.343 -0.0672  1.8473 -0.8057
 1059SOL    HW214811   0.944   1.042   8.217  0.1321 -0.3306 -1.4783
 1060SOL     OW14812   1.071   0.370  12.979  0.0512 -0.1911 -0.2821
 1060SOL    HW114813   1.081   0.278  13.002  2.5412  0.0165 -0.5280
 1060SOL    HW214814   1.021   0.377  12.898 -1.4850  2.7773  0.9347
 1061SOL     OW14815   2.945   3.516  17.066 -0.0941 -0.1526 -0.0439
 1061SOL    HW114816   2.937   3.421  17.076 -0.3580 -0.2992 -1.6336
 1061SOL    HW214817   2.862   3.549  17.099 -0.0205  1.0248 -1.0269
 1062SOL     OW14818   1.874   2.164   9.956  0.3634  0.1468 -0.1793
 1062SOL    HW114819   1.838   2.244   9.919  0.0523 -0.1339 -0.4782
 1062SOL    HW214820   1.848   2.161  10.048  1.5013  0.9749  0.1712
 1063SOL     OW14821   4.376   2.500   4.887  0.0716  0.7199  0.1327
 1063SOL    HW114822   4.390   2.562   4.958  3.4894  0.4515 -0.2893
 1063SOL    HW214823   4.298   2.454   4.918  0.2199  0.2621 -0.1518
 1064SOL     OW14824   4.563   4.470  14.030  0.2838 -0.0541  1.2291
 1064SOL    HW114825   4.504   4.499  13.961  2.0118  0.7009  0.0515
 1064SOL    HW214826   4.634   4.440  13.973  0.5545  1.7438  0.5999
 1065SOL     OW14827   1.580   1.290  10.511  0.4339 -0.4696 -0.1719
 1065SOL    HW114828   1.547   1.313  10.597 -0.2826  0.5546 -0.7170
 1065SOL    HW214829   1.586   1.378  10.473 -2.5756 -1.1884 -2.3680
 1066SOL     OW14830   2.691   4.421   0.442  0.1579 -0.2691  0.1533
 1066SOL    HW114831   2.749   4.378   0.379 -0.9294  0.6545 -1.4965
 1066SOL    HW214832   2.632   4.474   0.389  1.3101  0.5419 -0.3280
 1067SOL     OW14833   4.559   0.947   4.293  0.1674 -0.7289 -0.9005
 1067SOL    HW114834   4.558   0.986   4.206 -2.9019  1.9755  0.3567
 1067SOL    HW214835   4.502   0.871   4.282  0.1165 -0.6258 -1.3295
 1068SOL     OW14836   0.498   0.735   4.430  0.5273 -0.1599 -0.3696
 1068SOL    HW114837   0.429   0.683   4.388 -1.5878  1.4919  1.1123
 1068SOL    HW214838   0.454   0.820   4.429 -1.0942 -0.9938 -0.5134
 1069SOL     OW14839   2.381   2.512   5.877 -0.0829  0.1026  0.0495
 1069SOL    HW114840   2.464   2.507   5.829  0.0231  1.2550  0.1085
 1069SOL    HW214841   2.343   2.446   5.818 -0.8366  1.4530 -0.9782
 1070SOL     OW14842   1.331   0.397   7.208  0.6190 -0.3589  0.2115
 1070SOL    HW114843   1.267   0.458   7.246  0.5619 -0.8613  0.9146
 1070SOL    HW214844   1.415   0.443   7.202  0.0290  0.5738 -1.0193
 1071SOL     OW14845   2.924   0.478   4.234 -0.2481  0.0069  0.1123
 1071SOL    HW114846   2.911   0.536   4.159 -0.3867  1.6253  1.3623
 1071SOL    HW214847   3.016   0.494   4.253 -0.3760 -1.0598  1.6232
 1072SOL     OW14848   2.654   2.685   5.987  0.4952  0.4919  0.2022
 1072SOL    HW114849   2.717   2.756   5.973  0.8340  0.2135  0.3318
 1072SOL    HW214850   2.697   2.620   5.933  0.4733  1.5712 -1.1146
 1073SOL     OW14851   2.334   0.144   4.392 -0.1936 -0.6597 -0.3514
 1073SOL    HW114852   2.300   0.227   4.358 -1.2670 -0.4214  1.2934
 1073SOL    HW214853   2.394   0.122   4.321  2.6250  0.3924  1.6708
 1074SOL     OW14854   1.153   2.962   6.448 -0.2301  0.1954 -0.7967
 1074SOL    HW114855   1.178   2.900   6.379 -2.7340 -0.4832 -1.0792
 1074SOL    HW214856   1.066   2.987   6.417 -1.2909 -1.2262  1.0339
 1075SOL     OW14857   0.223   1.603  16.320 -0.4251 -0.8568 -0.0609
 1075SOL    HW114858   0.189   1.688  16.292 -1.4749 -2.1130 -2.6346
 1075SOL    HW214859   0.294   1.586  16.259 -1.7556  0.1222 -1.8992
 1076SOL     OW14860   0.532   3.918   1.246  0.0358  0.2514 -0.3440
 1076SOL    HW114861   0.513   4.011   1.243 -1.2778  0.0291  1.0798
 1076SOL    HW214862   0.458   3.891   1.301  0.7341 -1.0216 -0.0070
 1077SOL     OW14863   3.175   1.727   5.063  0.7249 -0.4429 -0.2348
 1077SOL    HW114864   3.130   1.759   5.141  0.6754 -0.7474 -0.1400
 1077SOL    HW214865   3.148   1.796   5.002  2.5333  0.2821 -0.2235
 1078SOL     OW14866   1.057   4.084  10.278  0.8468  0.1239 -0.3247
 1078SOL    HW114867   1.029   4.121  10.195  3.0317 -0.5941 -1.3967
 1078SOL    HW214868   1.102   4.159  10.318  1.8531 -0.3328 -0.5835
 1079SOL     OW14869   2.658   1.177   9.647  0.5174  0.3565 -0.1139
 1079SOL    HW114870   2.657   1.249   9.711  0.0736 -0.7914  1.1709
 1079SOL    HW214871   2.751   1.157   9.637  0.5173 -0.1319  0.8775
 1080SOL     OW14872   2.959   3.893  11.777 -0.2242 -0.0815 -0.2815
 1080SOL    HW114873   3.031   3.904  11.714  1.7008  0.2138  1.9819
 1080SOL    HW214874   2.978   3.809  11.818 -0.1764  1.1515  2.2330
 1081SOL     OW14875   3.742   3.338  17.290  0.2065  0.3053 -0.4696
 1081SOL    HW114876   3.837   3.341  17.280  0.2156  0.3765 -0.3573
 1081SOL    HW214877   3.724   3.428  17.317  0.6094  0.4719 -0.7560
 1082SOL     OW14878   0.763   0.758   3.753  0.0515  0.2299 -0.3334
 1082SOL    HW114879   0.830   0.702   3.794 -0.4580 -0.4930 -0.4802
 1082SOL    HW214880   0.723   0.810   3.822 -0.3303 -0.7323  0.1664
 1083SOL     OW14881   3.683   0.589  11.247 -0.1457 -0.4036  0.1437
 1083SOL    HW114882   3.603   0.624  11.208  0.9098 -0.3172 -1.9962
 1083SOL    HW214883   3.680   0.500  11.211  0.2758 -0.5889  0.5650
 1084SOL     OW14884   2.077   4.533   7.814 -0.1703 -0.7237  0.0273
 1084SOL    HW114885   2.030   4.569   7.739 -1.3415  0.0692  1.1633
 1084SOL    HW214886   2.010   4.550   7.881  1.0145 -1.0967  1.3110
 1085SOL     OW14887   0.173   2.768   7.560 -0.1833  0.1101  0.2365
 1085SOL    HW114888   0.155   2.834   7.627  2.1729  0.9492  0.0230
 1085SOL    HW214889   0.230   2.717   7.618  1.3398  0.5120 -0.9191
 1086SOL     OW14890   1.829   3.493  10.933  0.2760 -0.5150  0.1125
 1086SOL    HW114891   1.924   3.495  10.931  0.2577  2.1945  0.7350
 1086SOL    HW214892   1.815   3.579  10.974 -0.1548 -0.8132  0.6021
 1087SOL     OW14893   3.980   2.200   4.931 -0.7641 -0.1035  0.4327
 1087SOL    HW114894   3.950   2.231   4.846 -1.1127  1.1984  1.0328
 1087SOL    HW214895   3.899   2.172   4.972 -1.0289  0.5931  0.3754
 1088SOL     OW14896   4.595   1.605   3.598  0.5621  0.1950  0.1822
 1088SOL    HW114897   4.592   1.523   3.646 -0.3069  1.1174  1.7245
 1088SOL    HW214898   4.513   1.638   3.635 -0.1449  0.9372 -2.0160
 1089SOL     OW14899   3.533   2.179   5.970  0.1906 -0.2459 -0.5463
 1089SOL    HW114900   3.495   2.092   5.980  0.2667 -0.0492  1.4083
 1089SOL    HW214901   3.562   2.211   6.056  0.2597 -3.8444  0.7800
 1090SOL     OW14902   1.765   0.876   3.661 -0.0468  0.1476  0.1714
 1090SOL    HW114903   1.790   0.802   3.716  2.8041  2.2118  1.6965
 1090SOL    HW214904   1.673   0.865   3.687 -0.5860  0.6045 -1.5421
 1091SOL     OW14905   0.420   3.868   7.653 -0.1358  0.0468  0.3644
 1091SOL    HW114906   0.354   3.913   7.601  0.3878  1.5328  0.9866
 1091SOL    HW214907   0.388   3.785   7.688 -0.0875  0.8828  2.3753
 1092SOL     OW14908   1.896   1.151   6.186  0.3606  0.1717 -0.0879
 1092SOL    HW114909   1.979   1.117   6.219 -0.3955 -1.9466 -0.3767
 1092SOL    HW214910   1.837   1.103   6.244  1.3590  2.1553  2.5451
 1093SOL     OW14911   0.530   3.006   1.024 -0.1579  0.0027  0.0159
 1093SOL    HW114912   0.616   2.983   0.989  0.2724 -1.6172  2.0875
 1093SOL    HW214913   0.552   3.046   1.108 -0.8745  0.0978  0.1603
 1094SOL     OW14914   3.962   2.386   7.154 -1.0500  0.5341 -0.5717
 1094SOL    HW114915   3.992   2.448   7.087 -0.5353 -0.5737 -1.3802
 1094SOL    HW214916   3.943   2.311   7.098 -3.2482  1.5341 -1.1723
 1095SOL     OW14917   2.867   2.937   5.689  0.0658  0.0725  0.2027
 1095SOL    HW114918   2.798   3.003   5.686 -0.4813 -0.4666  1.2430
 1095SOL    HW214919   2.947   2.986   5.671  1.0921 -1.6333  0.1144
 1096SOL     OW14920   2.937   2.373   2.896  0.2488  0.3954 -0.7093
 1096SOL    HW114921   2.848   2.343   2.877 -0.0561  1.0582 -0.2865
 1096SOL    HW214922   2.955   2.348   2.986 -0.9199 -0.4107 -0.6989
 1097SOL     OW14923   1.727   1.386   7.045 -0.2011  0.2125 -0.4839
 1097SOL    HW114924   1.777   1.348   7.117 -0.1794  0.6276 -0.2829
 1097SOL    HW214925   1.644   1.403   7.090  0.0153 -0.4369  0.1666
 1098SOL     OW14926   1.110   0.131   6.392  0.0332 -0.1949  0.3379
 1098SOL    HW114927   1.190   0.147   6.342  0.9245 -1.6419  1.3031
 1098SOL    HW214928   1.119   0.036   6.401 -0.2919 -0.4054 -1.6408
 1099SOL     OW14929   1.041   3.302   0.988  0.4227 -0.0718 -0.2973
 1099SOL    HW114930   1.091   3.284   0.908  0.2741  0.3252 -0.4763
 1099SOL    HW214931   1.048   3.218   1.034 -1.5068  0.5074  1.0314
 1100SOL     OW14932   0.296   1.268   9.854  0.7321 -0.0385 -0.3202
 1100SOL    HW114933   0.228   1.223   9.803  1.7680 -0.4877 -1.3005
 1100SOL    HW214934   0.349   1.200   9.895  0.5861 -1.4989 -2.5443
 1101SOL     OW14935   0.453   0.297   6.552  0.8570 -0.1895  0.3753
 1101SOL    HW114936   0.429   0.339   6.469  0.8250 -2.3613 -0.7009
 1101SOL    HW214937   0.547   0.291   6.537  0.9361  0.0159  0.8043
 1102SOL     OW14938   2.805   3.272  15.152 -0.0505  0.6080 -0.1265
 1102SOL    HW114939   2.714   3.301  15.161 -0.3023  0.3724 -1.8671
 1102SOL    HW214940   2.831   3.303  15.238 -1.0907  0.9857  0.0480
 1103SOL     OW14941   0.824   1.654   1.176 -0.2601  0.0674  0.0408
 1103SOL    HW114942   0.741   1.660   1.223 -1.1164  1.6143 -1.6716
 1103SOL    HW214943   0.882   1.678   1.248 -0.9259  0.6825  0.3766
 1104SOL     OW14944   2.761   1.384   5.972  0.5230  0.0137  0.0048
 1104SOL    HW114945   2.695   1.368   6.039 -2.0434 -0.8190 -2.7359
 1104SOL    HW214946   2.783   1.477   5.983  0.4872 -0.1916  1.8085
 1105SOL     OW14947   4.396   2.928   2.832 -0.2173 -0.3232  0.0668
 1105SOL    HW114948   4.476   2.878   2.848 -0.4419 -0.5146  0.5931
 1105SOL    HW214949   4.344   2.882   2.898 -1.5836 -0.0681 -0.8347
 1106SOL     OW14950   0.500   3.486   0.199 -0.0499  0.6545 -0.5908
 1106SOL    HW114951   0.584   3.458   0.162 -0.3775  0.6885 -1.3516
 1106SOL    HW214952   0.490   3.428   0.275  1.4644  2.1740  0.7637
 1107SOL     OW14953   2.458   3.621  15.594  0.0347  0.0078 -0.2983
 1107SOL    HW114954   2.370   3.655  15.582 -0.4679 -1.9140 -2.0365
 1107SOL    HW214955   2.459   3.587  15.684 -1.5830  1.3221  0.1976
 1108SOL     OW14956   3.043   3.086   7.947  0.4758  0.1520 -0.3599
 1108SOL    HW114957   2.987   3.035   7.887  0.5068 -1.5631  1.0611
 1108SOL    HW214958   3.100   3.128   7.882 -0.9263  0.0783 -1.6440
 1109SOL     OW14959   0.574   3.719   8.696 -0.6415 -0.6736 -0.1497
 1109SOL    HW114960   0.661   3.680   8.689 -0.4638 -0.4353  0.7586
 1109SOL    HW214961   0.583   3.800   8.647 -3.3344 -1.4302 -1.8876
 1110SOL     OW14962   1.561   2.697   4.307  0.3945  0.2285  0.3908
 1110SOL    HW114963   1.468   2.719   4.316  0.0740  0.0065 -2.1256
 1110SOL    HW214964   1.558   2.601   4.315 -0.6237  0.1874 -0.4698
 1111SOL     OW14965   1.522   1.219   0.447  0.1709  0.3486  0.9556
 1111SOL    HW114966   1.461   1.262   0.387 -0.8983 -0.6347  1.3378
 1111SOL    HW214967   1.528   1.277   0.523  0.0810  3.1772 -1.1767
 1112SOL     OW14968   4.471   3.332   8.029 -0.0573 -0.1901 -0.3323
 1112SOL    HW114969   4.447   3.371   8.114  1.3016  0.3205 -0.1886
 1112SOL    HW214970   4.484   3.240   8.051  0.0553 -0.7733 -2.8988
 1113SOL     OW14971   2.452   3.977  14.669 -0.3549 -0.1158 -0.2327
 1113SOL    HW114972   2.421   4.061  14.634  2.1489  2.1107  2.8173
 1113SOL    HW214973   2.506   4.017  14.738 -2.7874  0.8346  1.1387
 1114SOL     OW14974   1.926   4.513   8.555 -0.5478 -0.2701 -0.5180
 1114SOL    HW114975   1.911   4.503   8.649  0.1575  0.5570 -0.3161
 1114SOL    HW214976   1.963   4.601   8.555 -2.2808  0.4527  0.4496
 1115SOL     OW14977   4.497   2.472   3.636 -0.1676 -0.5302  0.1108
 1115SOL    HW114978   4.453   2.403   3.588 -0.1650 -1.8893  2.0287
 1115SOL    HW214979   4.535   2.527   3.567  0.8017 -2.5059 -0.9352
 1116SOL     OW14980   0.373   3.274   6.053  0.5105  0.3200 -0.1682
 1116SOL    HW114981   0.419   3.268   6.136 -0.6359  0.5749  0.4827
 1116SOL    HW214982   0.446   3.282   5.992  1.8424 -2.6051  1.0623
 1117SOL     OW14983   2.368   4.073  16.479  0.1921 -0.0585  0.1514
 1117SOL    HW114984   2.339   4.116  16.560 -2.3741 -1.6447  0.0600
 1117SOL    HW214985   2.435   4.010  16.507 -0.2086  0.3078  1.9383
 1118SOL     OW14986   4.491   1.461   4.116  0.2717 -0.9171 -0.5785
 1118SOL    HW114987   4.397   1.443   4.117  0.1501 -0.1910  0.4844
 1118SOL    HW214988   4.488   1.513   4.195 -1.3928  1.7621 -2.4241
 1119SOL     OW14989   0.486   1.921   5.901  0.3938 -0.1997 -0.3099
 1119SOL    HW114990   0.502   1.966   5.984 -0.2696 -1.1714  0.3428
 1119SOL    HW214991   0.391   1.913   5.902  0.3175  0.6039 -0.8054
 1120SOL     OW14992   1.427   0.534   2.423 -0.0726 -0.0754 -0.0645
 1120SOL    HW114993   1.439   0.626   2.398 -1.0713 -0.0163 -0.3076
 1120SOL    HW214994   1.489   0.535   2.495 -0.7860  2.2541  0.5143
 1121SOL     OW14995   0.037   1.153   5.203 -0.1690  0.1390  0.4217
 1121SOL    HW114996   0.074   1.080   5.254  1.9012  0.0741 -1.1896
 1121SOL    HW214997   0.014   1.105   5.124  1.8377  3.1125 -1.9524
 1122SOL     OW14998   2.347   1.054  16.198  0.2550 -0.2760 -0.0955
 1122SOL    HW114999   2.418   1.117  16.192  0.9567 -0.9278  1.4452
 1122SOL    HW215000   2.279   1.122  16.195  1.4962  0.9474 -0.3564
 1123SOL     OW15001   3.789   1.084  11.122  0.6592 -0.2035  0.0575
 1123SOL    HW115002   3.786   1.041  11.207  1.3519 -0.7129 -0.1795
 1123SOL    HW215003   3.707   1.134  11.122 -0.5022 -2.1322  0.4883
 1124SOL     OW15004   3.308   2.567   1.835 -0.1222  0.0615  0.0968
 1124SOL    HW115005   3.323   2.487   1.886 -0.3875  0.1313  0.2836
 1124SOL    HW215006   3.352   2.557   1.751  1.1416 -2.1681  1.0168
 1125SOL     OW15007   3.579   3.907  17.731 -0.2293  0.7396 -0.4095
 1125SOL    HW115008   3.523   3.846   0.044 -1.5367  0.9427 -1.6733
 1125SOL    HW215009   3.506   3.955  17.690  0.1909 -0.0659 -2.0829
 1126SOL     OW15010   0.171   4.231   7.472 -0.1003  0.0636  0.2175
 1126SOL    HW115011   0.211   4.267   7.552 -1.2061  1.8260 -0.0262
 1126SOL    HW215012   0.224   4.271   7.403 -0.8675  0.4530 -0.1458
 1127SOL     OW15013   1.856   3.134   3.753 -0.3544  0.3308  0.1924
 1127SOL    HW115014   1.785   3.169   3.698  1.9635  1.5494 -2.0329
 1127SOL    HW215015   1.804   3.081   3.813 -1.0390 -0.4552 -1.0925
 1128SOL     OW15016   1.868   1.060   3.854  0.4779  0.4518  0.2787
 1128SOL    HW115017   1.860   1.034   3.762 -0.3412 -1.6185  0.9334
 1128SOL    HW215018   1.842   1.152   3.854  0.1626  0.3623 -0.1340
 1129SOL     OW15019   4.640   3.699   6.547 -1.0163 -0.0238 -0.4627
 1129SOL    HW115020   4.616   3.785   6.581 -1.0253 -0.9908  1.9649
 1129SOL    HW215021   4.557   3.654   6.534  0.9686 -3.4560 -1.3778
 1130SOL     OW15022   4.723   1.347   3.439 -0.5121 -0.0902 -0.1401
 1130SOL    HW115023   4.641   1.327   3.485  0.5310 -2.4384  0.6589
 1130SOL    HW215024   0.044   1.269   3.438  0.5699  0.6731  0.8836
 1131SOL     OW15025   0.772   2.162  12.042  0.4441 -0.7835 -0.1864
 1131SOL    HW115026   0.700   2.210  12.084  0.1818 -2.2757  1.0979
 1131SOL    HW215027   0.795   2.230  11.979 -0.1221 -2.1424 -1.8651
 1132SOL     OW15028   1.864   3.821  14.760  0.1196 -0.0770 -0.3944
 1132SOL    HW115029   1.788   3.792  14.811 -0.3655  1.1300 -0.4224
 1132SOL    HW215030   1.938   3.824  14.820  0.5386 -1.7143 -0.8399
 1133SOL     OW15031   2.981   4.671   3.910  0.1900 -0.0782 -0.0226
 1133SOL    HW115032   2.967   0.007   3.847 -0.2980  0.4787  0.7101
 1133SOL    HW215033   2.918   4.604   3.881 -1.1334  1.8363 -1.5134
 1134SOL     OW15034   1.377   0.317   5.566 -0.1824 -0.3664  0.2770
 1134SOL    HW115035   1.325   0.394   5.590  2.5154  1.4484  0.3115
 1134SOL    HW215036   1.455   0.356   5.527 -0.6162 -1.5459 -1.7411
 1135SOL     OW15037   0.888   3.537   2.757 -0.0897  0.0984  0.7358
 1135SOL    HW115038   0.958   3.530   2.692 -0.6073  1.5662  0.0150
 1135SOL    HW215039   0.810   3.536   2.701  1.3459  5.0637 -1.3713
 1136SOL     OW15040   1.682   1.237   9.026  0.8231  0.2631 -0.6774
 1136SOL    HW115041   1.649   1.152   8.998  0.6343  0.1379 -0.0836
 1136SOL    HW215042   1.743   1.223   9.098  0.8519  0.3302 -0.6883
 1137SOL     OW15043   3.181   0.145  12.952 -0.0112  0.2732 -0.1989
 1137SOL    HW115044   3.262   0.165  12.904  1.3449 -2.5426  0.9117
 1137SOL    HW215045   3.210   0.132  13.042 -3.2537  0.4324  0.8576
 1138SOL     OW15046   2.798   3.171  15.479  0.0987 -0.3324  0.0814
 1138SOL    HW115047   2.817   3.262  15.455  0.9637  0.5369  4.1006
 1138SOL    HW215048   2.880   3.159  15.527 -0.1848  0.1870  0.6943
 1139SOL     OW15049   0.499   3.994   5.996  0.4221 -0.0516 -0.3026
 1139SOL    HW115050   0.516   3.936   6.071 -0.2572  0.8894  0.5769
 1139SOL    HW215051   0.583   4.040   5.996 -0.0618  0.8224  0.3432
 1140SOL     OW15052   1.100   4.397   2.647  0.3241 -0.4880 -0.0091
 1140SOL    HW115053   1.156   4.467   2.611 -0.2836  1.2994  2.4687
 1140SOL    HW215054   1.129   4.392   2.738 -0.2320 -0.3859  0.1745
 1141SOL     OW15055   1.069   0.057   6.041  0.2276  0.4459 -0.0433
 1141SOL    HW115056   1.099   0.036   5.952 -1.5727  0.5865 -0.6687
 1141SOL    HW215057   1.109   0.144   6.048 -0.0926  0.4808  1.3706
 1142SOL     OW15058   3.911   4.303   6.086 -0.1921 -0.3103  0.0458
 1142SOL    HW115059   3.951   4.369   6.029 -2.3620 -0.4135 -1.6115
 1142SOL    HW215060   3.821   4.336   6.091 -0.8108 -2.0140  0.3804
 1143SOL     OW15061   0.828   1.132   6.067 -0.2328 -0.6032 -0.4240
 1143SOL    HW115062   0.774   1.109   5.991 -0.2673 -0.2175 -0.5156
 1143SOL    HW215063   0.896   1.066   6.051 -0.1135 -1.3204  2.9651
 1144SOL     OW15064   2.313   0.421   8.257  0.1390 -0.4095 -0.0729
 1144SOL    HW115065   2.297   0.365   8.332  0.7339 -0.3679  0.0825
 1144SOL    HW215066   2.287   0.363   8.185 -0.9287  0.9166 -0.7768
 1145SOL     OW15067   3.609   0.039   0.692  0.0060  0.1004 -0.2171
 1145SOL    HW115068   3.554   0.061   0.617  0.1219  1.9161  0.2404
 1145SOL    HW215069   3.666   4.709   0.649 -0.8911 -0.9245  0.1031
 1146SOL     OW15070   3.764   3.782   0.521 -0.0030  0.9887  0.4450
 1146SOL    HW115071   3.846   3.820   0.552 -0.8904  2.0643  1.4826
 1146SOL    HW215072   3.769   3.792   0.426  1.5914  1.3118  0.5726
 1147SOL     OW15073   1.537   1.590  17.333  0.3072  0.0302 -0.3962
 1147SOL    HW115074   1.462   1.538  17.305 -1.7082  0.2738  4.4654
 1147SOL    HW215075   1.507   1.608  17.422 -0.7730  0.5299 -0.8675
 1148SOL     OW15076   0.823   2.612  13.263 -0.4903  0.0372 -0.7240
 1148SOL    HW115077   0.905   2.653  13.238  0.1236 -0.3565  0.6103
 1148SOL    HW215078   0.850   2.525  13.294  2.9483  1.6961  0.9194
 1149SOL     OW15079   3.468   1.307   2.137  0.3359  0.3810 -0.1062
 1149SOL    HW115080   3.485   1.395   2.102  0.1468 -0.4470 -2.2956
 1149SOL    HW215081   3.420   1.274   2.061 -1.0502 -0.5902  1.1934
 1150SOL     OW15082   0.041   1.475   4.082 -0.3777 -0.2534 -0.1536
 1150SOL    HW115083   0.055   1.569   4.067 -1.9436  0.0387  0.2580
 1150SOL    HW215084   4.680   1.470   4.074 -0.2156 -2.6808 -0.6675
 1151SOL     OW15085   3.716   4.346   5.653 -0.2876  0.5554  0.1173
 1151SOL    HW115086   3.680   4.421   5.606  0.5861  0.0148 -1.4055
 1151SOL    HW215087   3.633   4.304   5.674 -0.5552  1.7318  1.4644
 1152SOL     OW15088   2.255   3.205   8.310 -0.7198 -0.0256 -0.6043
 1152SOL    HW115089   2.222   3.257   8.383 -0.0866  1.8715 -1.6592
 1152SOL    HW215090   2.335   3.168   8.348 -1.7667  0.3976  2.0241
 1153SOL     OW15091   3.403   1.238   6.826  0.5244  0.0517 -0.2527
 1153SOL    HW115092   3.469   1.242   6.895  1.1523 -0.5582 -0.8183
 1153SOL    HW215093   3.325   1.279   6.863  1.0978 -0.3383  1.3833
 1154SOL     OW15094   3.935   1.967   3.775  0.2601 -0.4106 -0.1246
 1154SOL    HW115095   3.919   1.982   3.868 -4.2183  0.3075 -0.9735
 1154SOL    HW215096   3.877   1.891   3.762 -0.4611  0.2185 -0.5981
 1155SOL     OW15097   1.401   3.691  12.045  0.3846  0.6986 -0.6612
 1155SOL    HW115098   1.374   3.782  12.034 -0.1732  0.5093 -0.8571
 1155SOL    HW215099   1.312   3.659  12.031 -0.0304  1.9910 -0.9448
 1156SOL     OW15100   3.132   1.803   7.305  0.2434  0.0297 -0.3523
 1156SOL    HW115101   3.208   1.794   7.362 -1.1191  0.8241  1.5989
 1156SOL    HW215102   3.069   1.740   7.342  1.0244  0.0689  1.0288
 1157SOL     OW15103   1.115   1.735   6.491  0.3392 -0.0366 -0.4544
 1157SOL    HW115104   1.177   1.788   6.440 -0.3861  2.2019  0.9791
 1157SOL    HW215105   1.073   1.804   6.543 -0.1009 -0.2567 -0.5167
 1158SOL     OW15106   2.609   1.978   8.204 -0.4711 -0.6379  0.0681
 1158SOL    HW115107   2.535   2.010   8.153  0.1638  0.6402 -0.0515
 1158SOL    HW215108   2.601   2.017   8.292  3.1417 -0.2411  0.2180
 1159SOL     OW15109   0.665   2.671   0.360 -0.3487  0.3067  0.3438
 1159SOL    HW115110   0.585   2.634   0.397  0.0241 -0.0695  0.7679
 1159SOL    HW215111   0.631   2.747   0.312  1.4875  1.1756  0.4312
 1160SOL     OW15112   1.118   3.867   5.961  0.4408  0.0816  0.2052
 1160SOL    HW115113   1.098   3.946   6.011  0.2780  1.4652 -2.0647
 1160SOL    HW215114   1.206   3.893   5.935  0.8104  0.1311  1.5008
 1161SOL     OW15115   1.694   3.985   6.788 -0.1327 -0.2406 -0.3645
 1161SOL    HW115116   1.761   3.925   6.820 -0.8990 -0.3933  0.9425
 1161SOL    HW215117   1.666   4.037   6.863 -0.0682 -1.0123  0.1881
 1162SOL     OW15118   0.940   2.201  10.458 -0.2610 -0.1117 -0.1643
 1162SOL    HW115119   0.954   2.289  10.493 -0.7233 -0.8166  1.7884
 1162SOL    HW215120   0.917   2.166  10.544 -2.8535  3.7804  0.7471
 1163SOL     OW15121   1.370   2.612   4.840 -0.2582  0.3633 -0.1906
 1163SOL    HW115122   1.353   2.641   4.929 -1.8301 -0.5701 -0.1780
 1163SOL    HW215123   1.463   2.591   4.846 -0.3334  0.2775  0.7067
 1164SOL     OW15124   1.720   4.293   6.368 -0.0247 -0.7293 -0.6428
 1164SOL    HW115125   1.708   4.384   6.394  2.8693 -0.8208  1.0045
 1164SOL    HW215126   1.726   4.249   6.453  0.1247 -1.1243 -0.8558
 1165SOL     OW15127   4.124   0.624   3.528  0.1668 -0.0680  0.0787
 1165SOL    HW115128   4.104   0.554   3.466  0.1005 -1.4556  1.6717
 1165SOL    HW215129   4.044   0.635   3.579  0.9715  0.9158  1.1346
 1166SOL     OW15130   0.083   0.969  16.437  0.1339  0.2658 -0.0236
 1166SOL    HW115131   0.149   0.974  16.367 -2.0146 -0.5963 -2.1194
 1166SOL    HW215132   0.140   0.958  16.513  1.6215  2.8571 -0.7517
 1167SOL     OW15133   2.178   3.315   6.022 -0.2642 -0.6595 -0.0142
 1167SOL    HW115134   2.238   3.248   5.988  0.8458  1.0726 -1.4535
 1167SOL    HW215135   2.163   3.289   6.112  0.1379 -0.5754  0.0773
 1168SOL     OW15136   0.048   0.590  14.580  0.2341  0.3196 -0.2082
 1168SOL    HW115137   0.053   0.501  14.615 -3.2893  0.7895  1.5117
 1168SOL    HW215138   0.135   0.620  14.606  0.6534 -0.1340 -1.1086
 1169SOL     OW15139   2.569   0.984   9.188 -0.1769  0.6447 -0.0367
 1169SOL    HW115140   2.509   1.039   9.237  0.2464  0.0366  1.1550
 1169SOL    HW215141   2.651   1.033   9.190  0.0358  0.3057 -0.2960
 1170SOL     OW15142   0.284   0.319   9.861  0.0763 -0.1963 -0.0756
 1170SOL    HW115143   0.328   0.403   9.846  0.1390  0.0995  1.7522
 1170SOL    HW215144   0.272   0.337   9.954  2.8542 -0.3441  0.3161
 1171SOL     OW15145   0.505   3.244   7.197  0.4379 -0.6095 -0.0496
 1171SOL    HW115146   0.524   3.159   7.235  1.2207 -0.3126  0.2188
 1171SOL    HW215147   0.418   3.272   7.227 -0.0526 -1.8998 -0.2528
 1172SOL     OW15148   4.314   4.044   2.044 -0.0745  0.0369 -0.2780
 1172SOL    HW115149   4.381   4.000   1.991 -0.9207  0.3313 -1.5937
 1172SOL    HW215150   4.253   4.060   1.972 -1.3894 -1.5828  0.4740
 1173SOL     OW15151   2.705   4.043   2.263 -0.2489  0.5329 -0.4082
 1173SOL    HW115152   2.756   4.018   2.187  0.3755  2.2774 -0.5480
 1173SOL    HW215153   2.617   4.012   2.242  0.7158 -2.3489 -0.3056
 1174SOL     OW15154   0.703   2.026   8.964 -0.6306 -0.1127  0.1712
 1174SOL    HW115155   0.641   2.094   8.937  1.3796  1.0180 -1.6310
 1174SOL    HW215156   0.741   2.008   8.878 -0.2143 -0.3802  0.4097
 1175SOL     OW15157   4.590   4.311   1.962 -0.3029 -0.3694  0.5616
 1175SOL    HW115158   4.573   4.296   1.869  0.2009  0.1472  0.3889
 1175SOL    HW215159   4.584   4.406   1.964 -1.0527 -0.4254  0.9526
 1176SOL     OW15160   4.335   2.470   5.748  0.4711  0.6391  0.0944
 1176SOL    HW115161   4.300   2.399   5.696 -0.2455  0.5584  0.6891
 1176SOL    HW215162   4.314   2.545   5.692  1.1898  1.6892  1.2094
 1177SOL     OW15163   3.136   3.715   5.813 -0.1091 -0.5066 -0.2548
 1177SOL    HW115164   3.128   3.620   5.826  1.2590 -0.7900 -1.5021
 1177SOL    HW215165   3.228   3.741   5.806 -0.6713  0.8115 -2.5721
 1178SOL     OW15166   1.085   2.251  15.295  0.1882 -0.0514 -0.2439
 1178SOL    HW115167   1.055   2.309  15.225  1.5449  0.2443 -0.5874
 1178SOL    HW215168   1.115   2.180  15.239  1.6656  1.2333 -1.0966
 1179SOL     OW15169   3.338   2.356   5.861 -0.2136  0.3931 -0.2898
 1179SOL    HW115170   3.417   2.317   5.899 -1.2665 -1.4687 -0.0053
 1179SOL    HW215171   3.372   2.389   5.778 -0.1914 -0.6993 -0.7206
 1180SOL     OW15172   2.098   4.683  10.551  0.5608 -0.7998  0.2013
 1180SOL    HW115173   2.011   4.719  10.565  0.7487 -0.1820 -0.1823
 1180SOL    HW215174   2.080   4.589  10.558  1.4615 -1.0229 -0.4120
 1181SOL     OW15175   3.231   2.378   7.333 -0.2797 -0.0678 -0.2414
 1181SOL    HW115176   3.285   2.339   7.265  1.5365  1.3938  0.3742
 1181SOL    HW215177   3.148   2.376   7.284  0.4196  0.2359 -1.4414
 1182SOL     OW15178   0.658   1.576  17.211 -0.1150  0.1762 -0.2064
 1182SOL    HW115179   0.731   1.614  17.162 -0.2683 -1.3186 -1.5678
 1182SOL    HW215180   0.654   1.636  17.286  0.7309  1.1649 -0.9336
 1183SOL     OW15181   0.999   2.638   8.025  0.4734  0.4067  0.0763
 1183SOL    HW115182   1.089   2.606   8.037 -0.3764 -1.2650  2.0390
 1183SOL    HW215183   0.983   2.625   7.932 -1.3726  0.6808  0.3682
 1184SOL     OW15184   1.623   3.160   0.611  0.0876  0.1611  0.2912
 1184SOL    HW115185   1.701   3.212   0.632  0.1795 -0.5682  1.7233
 1184SOL    HW215186   1.602   3.203   0.528  0.0459  2.0229  1.2631
 1185SOL     OW15187   3.398   0.198   9.159 -0.4592  0.1387  0.3345
 1185SOL    HW115188   3.317   0.177   9.112 -0.6568 -0.2252  0.8409
 1185SOL    HW215189   3.365   0.215   9.247  0.9839  0.7585  0.7561
 1186SOL     OW15190   4.204   1.354  16.947  0.2990 -0.8684  0.0767
 1186SOL    HW115191   4.201   1.312  16.861  0.4097 -0.5064 -0.1058
 1186SOL    HW215192   4.159   1.289  17.002 -1.0468  2.0659  2.4197
 1187SOL     OW15193   0.343   4.099   0.751  0.4597  0.4083 -0.7543
 1187SOL    HW115194   0.344   4.014   0.707 -1.5718 -0.9907  1.8968
 1187SOL    HW215195   0.359   4.086   0.844  0.0044 -2.4692 -1.0997
 1188SOL     OW15196   0.278   2.364   4.180  0.0929  0.2262 -0.3924
 1188SOL    HW115197   0.328   2.445   4.179  0.7356 -0.1479  0.9772
 1188SOL    HW215198   0.320   2.317   4.108 -1.5483 -0.2737 -1.0222
 1189SOL     OW15199   3.748   2.513   3.777  0.3987 -0.5023  0.6716
 1189SOL    HW115200   3.749   2.421   3.803  1.6938 -0.7916 -0.4039
 1189SOL    HW215201   3.837   2.537   3.804  0.2634 -0.2664  0.9107
 1190SOL     OW15202   4.445   4.718   8.587 -0.4357  0.0189 -0.0120
 1190SOL    HW115203   4.401   0.019   8.664 -0.3063 -0.6971  0.3900
 1190SOL    HW215204   4.383   4.648   8.569  1.6164 -1.5760 -0.9342
 1191SOL     OW15205   1.364   1.513   2.565 -0.5280 -0.1485  0.0523
 1191SOL    HW115206   1.361   1.452   2.639 -0.8972 -0.5323 -0.2838
 1191SOL    HW215207   1.285   1.499   2.514 -0.4301  0.8409 -0.3661
 1192SOL     OW15208   1.894   3.630  15.876 -0.4751 -0.0297  1.0396
 1192SOL    HW115209   1.957   3.557  15.870 -1.2614 -0.5958 -0.2809
 1192SOL    HW215210   1.810   3.585  15.868 -0.7737  0.5853  0.7255
 1193SOL     OW15211   2.412   2.827  12.540  0.3218  0.3971  0.4014
 1193SOL    HW115212   2.362   2.842  12.460  0.4494 -3.1733 -0.3094
 1193SOL    HW215213   2.354   2.820  12.615  0.1860  1.9896  0.4439
 1194SOL     OW15214   3.604   0.776   7.027  0.4704 -0.0686 -0.4476
 1194SOL    HW115215   3.582   0.772   6.934  2.0333  0.5588 -0.8491
 1194SOL    HW215216   3.560   0.854   7.059 -0.1341 -0.1653 -1.0527
 1195SOL     OW15217   4.547   2.174   4.001  0.5552 -0.0486 -0.3399
 1195SOL    HW115218   4.462   2.146   3.967  0.1082  3.5431 -2.2075
 1195SOL    HW215219   4.515   2.190   4.089 -2.8406  1.2562 -1.8001
 1196SOL     OW15220   3.886   2.865   6.316 -0.1061 -0.0040 -0.0349
 1196SOL    HW115221   3.958   2.921   6.344 -0.7093 -0.0824  1.6800
 1196SOL    HW215222   3.885   2.899   6.226 -1.6942  0.2529  0.0777
 1197SOL     OW15223   4.686   3.912   4.008  0.4320  0.4260  0.0295
 1197SOL    HW115224   4.666   3.879   4.095  1.8727 -1.3529 -0.3210
 1197SOL    HW215225   4.667   4.004   4.029  1.0026 -0.0376  2.5191
 1198SOL     OW15226   2.405   2.808   1.641  0.5515  0.0198  0.1867
 1198SOL    HW115227   2.409   2.902   1.628  0.4319  0.0735  0.5251
 1198SOL    HW215228   2.384   2.809   1.735  0.8052  0.4326  0.2363
 1199SOL     OW15229   2.860   3.918  16.087  0.5014 -0.1163 -0.1671
 1199SOL    HW115230   2.910   3.996  16.064 -0.3953  0.4146 -0.3171
 1199SOL    HW215231   2.891   3.868  16.012 -0.6575 -0.3599 -0.4819
 1200SOL     OW15232   2.311   3.079   3.752 -0.3060  0.0922 -0.1848
 1200SOL    HW115233   2.338   3.171   3.746  0.0924  0.0425  0.8938
 1200SOL    HW215234   2.220   3.099   3.775 -0.4821 -2.4046  1.2377
 1201SOL     OW15235   1.560   1.127   4.198  0.4969  0.6873  0.3202
 1201SOL    HW115236   1.527   1.083   4.120 -0.6604 -0.4918  1.4770
 1201SOL    HW215237   1.602   1.207   4.167  0.2834  0.7400  0.1715
 1202SOL     OW15238   3.083   0.513   6.726  0.5532  0.2299  0.2807
 1202SOL    HW115239   3.065   0.435   6.779 -2.4545  0.8276  0.1353
 1202SOL    HW215240   3.158   0.476   6.681  0.0297 -0.8493  0.3046
 1203SOL     OW15241   0.524   3.138   3.163  0.2136 -0.2320  0.0474
 1203SOL    HW115242   0.537   3.075   3.092 -0.3923 -2.0045  1.5272
 1203SOL    HW215243   0.467   3.204   3.123 -0.7496 -0.4938  0.9721
 1204SOL     OW15244   3.802   3.388  17.601 -0.0939 -0.1839 -0.1897
 1204SOL    HW115245   3.738   3.458  17.616  0.0942 -0.0968  0.2287
 1204SOL    HW215246   3.744   3.313  17.585  0.5537 -1.5854  3.9509
 1205SOL     OW15247   4.493   3.058   8.056  0.2877  0.2066 -0.0077
 1205SOL    HW115248   4.523   3.045   7.966  1.2243  1.6495  0.1053
 1205SOL    HW215249   4.471   2.970   8.086  0.1964  0.5995  1.0627
 1206SOL     OW15250   3.427   2.492   6.763  0.3305  0.7440  0.0092
 1206SOL    HW115251   3.501   2.466   6.709 -0.9934 -3.5244  0.2250
 1206SOL    HW215252   3.380   2.552   6.706 -1.3852 -0.7037 -0.1065
 1207SOL     OW15253   3.334   3.031   7.043  0.0982 -0.6906 -0.1381
 1207SOL    HW115254   3.285   2.955   7.074 -0.8063 -0.4006 -0.8511
 1207SOL    HW215255   3.370   3.059   7.127  1.5069 -1.7110 -0.4035
 1208SOL     OW15256   4.452   2.523   8.217 -0.0248 -0.5736  0.2299
 1208SOL    HW115257   4.375   2.538   8.272 -0.2494 -0.9062  0.0090
 1208SOL    HW215258   4.434   2.431   8.199 -1.3217 -0.2333 -0.2719
 1209SOL     OW15259   1.165   0.153   3.258 -0.3399  0.0228 -0.2056
 1209SOL    HW115260   1.135   0.237   3.294  1.9222  0.6919  0.1090
 1209SOL    HW215261   1.234   0.175   3.196 -0.8342 -1.2541 -1.2074
 1210SOL     OW15262   0.300   4.661   3.390 -0.4871 -0.2069  0.0023
 1210SOL    HW115263   0.261   4.684   3.475  0.8420  0.5959  0.3866
 1210SOL    HW215264   0.289   4.566   3.401 -0.5621 -0.2741 -0.6869
 1211SOL     OW15265   1.846   0.165   4.423  0.1486 -0.1742 -0.5760
 1211SOL    HW115266   1.761   0.158   4.466 -0.3920  0.0597 -1.6232
 1211SOL    HW215267   1.873   0.074   4.415  1.0257  0.1432 -1.2037
 1212SOL     OW15268   2.556   0.713   5.627  0.5774 -0.4144  0.4581
 1212SOL    HW115269   2.589   0.695   5.715  1.0440  0.4500  0.4577
 1212SOL    HW215270   2.510   0.793   5.651  2.0114  0.4443  0.3242
 1213SOL     OW15271   1.396   0.550   8.524  0.0661 -0.2898 -0.5792
 1213SOL    HW115272   1.467   0.496   8.559  1.1019 -0.6572 -3.2459
 1213SOL    HW215273   1.319   0.518   8.571 -1.0766  2.1249 -0.7849
 1214SOL     OW15274   3.787   0.618   4.964 -0.7979  0.6041  0.3230
 1214SOL    HW115275   3.801   0.566   5.044  0.9757  0.5533 -0.0095
 1214SOL    HW215276   3.694   0.638   4.967 -0.3762  2.4196  1.0159
 1215SOL     OW15277   0.799   3.888  16.439  0.0191 -0.3396  0.2955
 1215SOL    HW115278   0.838   3.955  16.495  1.8927  0.1974 -1.6120
 1215SOL    HW215279   0.867   3.821  16.437 -0.8379 -1.1712 -1.6773
 1216SOL     OW15280   0.997   1.898  10.511  0.1765 -0.3926  0.4187
 1216SOL    HW115281   0.926   1.843  10.477  1.2301 -1.4370 -0.0782
 1216SOL    HW215282   1.068   1.837  10.529  0.9252  0.6723  1.0745
 1217SOL     OW15283   2.849   1.984   2.052 -0.4329  0.4252  0.3099
 1217SOL    HW115284   2.890   1.906   2.013 -2.8923 -1.2329  1.0378
 1217SOL    HW215285   2.915   2.047   2.024 -0.3408 -0.1893 -0.8474
 1218SOL     OW15286   2.882   0.073  11.210 -0.4283 -0.1882 -0.1367
 1218SOL    HW115287   2.871   0.062  11.304  1.7809 -1.0936  0.0125
 1218SOL    HW215288   2.796   0.099  11.176 -1.0511 -0.2155  1.4380
 1219SOL     OW15289   0.421   0.761   6.496  0.6797 -0.2524 -0.6003
 1219SOL    HW115290   0.363   0.709   6.441  0.4946 -0.1127 -0.5360
 1219SOL    HW215291   0.358   0.824   6.531  1.4235  0.1166  0.0677
 1220SOL     OW15292   3.825   4.299   4.787 -0.1763 -0.4823  0.1890
 1220SOL    HW115293   3.908   4.250   4.784  0.0942  0.0299 -0.7983
 1220SOL    HW215294   3.762   4.228   4.797 -0.3908 -0.2506  0.4749
 1221SOL     OW15295   1.113   4.429  14.901 -0.0435  0.3240 -0.7070
 1221SOL    HW115296   1.204   4.454  14.916  0.2680 -1.1316 -0.1210
 1221SOL    HW215297   1.112   4.402  14.809 -0.2310 -1.3976 -0.1913
 1222SOL     OW15298   2.163   4.214  15.321 -0.0936 -0.0183 -0.4384
 1222SOL    HW115299   2.153   4.226  15.415 -0.3484 -1.0626 -0.3332
 1222SOL    HW215300   2.113   4.134  15.303 -0.9281  0.0802  1.4891
 1223SOL     OW15301   0.436   0.285   5.845  0.3472 -0.1216 -0.0725
 1223SOL    HW115302   0.517   0.239   5.866 -0.3351 -0.2817  2.2277
 1223SOL    HW215303   0.409   0.221   5.779  0.9954  0.5576 -0.9972
 1224SOL     OW15304   1.276   4.062  14.988 -0.1035  0.0090  0.0454
 1224SOL    HW115305   1.280   4.121  15.063  2.3620  0.3816 -0.3760
 1224SOL    HW215306   1.239   3.983  15.029 -0.3117  0.0288 -0.1063
 1225SOL     OW15307   4.640   4.242   7.421  0.2906 -0.2835 -0.7139
 1225SOL    HW115308   4.618   4.293   7.499  1.2416 -1.8164  0.5892
 1225SOL    HW215309   4.734   4.221   7.429  0.2476  0.7271  2.5928
 1226SOL     OW15310   4.337   1.693   5.071  0.3594  0.3439 -0.2105
 1226SOL    HW115311   4.336   1.705   4.976 -0.5098 -2.2704 -0.5046
 1226SOL    HW215312   4.254   1.651   5.090 -1.2099  2.7205 -1.7571
 1227SOL     OW15313   3.589   2.444  15.871  0.4858  0.8564 -0.0727
 1227SOL    HW115314   3.499   2.469  15.890 -0.6266 -2.5637 -0.6909
 1227SOL    HW215315   3.627   2.527  15.843  0.6315  0.5634 -0.7505
 1228SOL     OW15316   1.705   0.461   4.468 -0.2970 -0.4710 -0.0211
 1228SOL    HW115317   1.757   0.527   4.422 -2.3100  0.1868 -1.3563
 1228SOL    HW215318   1.738   0.384   4.421 -1.0986 -1.3180  0.8115
 1229SOL     OW15319   1.759   2.519  11.999  0.2188 -0.1641  0.4587
 1229SOL    HW115320   1.825   2.585  11.980 -0.3332 -0.0658 -1.1115
 1229SOL    HW215321   1.806   2.438  12.021 -0.8413 -0.9083  0.0237
 1230SOL     OW15322   3.911   0.185   9.774 -0.7271 -0.0227 -0.3534
 1230SOL    HW115323   3.831   0.234   9.756 -0.3455  0.2509 -1.3335
 1230SOL    HW215324   3.883   0.109   9.722  0.6841 -1.0458  0.3740
 1231SOL     OW15325   2.489   0.264   2.135 -0.0826 -0.4589 -0.4409
 1231SOL    HW115326   2.440   0.187   2.164  0.5991 -0.9097 -0.4837
 1231SOL    HW215327   2.542   0.240   2.058  0.0327  0.5949 -0.6818
 1232SOL     OW15328   3.543   2.054   7.373  0.0508 -0.5551 -0.5442
 1232SOL    HW115329   3.476   2.119   7.392  0.3349  0.5472 -3.3270
 1232SOL    HW215330   3.628   2.098   7.372  0.3246 -1.0691  0.7666
 1233SOL     OW15331   0.848   1.111  12.150 -0.1020  0.5787  0.6272
 1233SOL    HW115332   0.802   1.029  12.172 -3.2609  2.2326  0.2351
 1233SOL    HW215333   0.935   1.095  12.187  1.2366  0.9055 -2.4001
 1234SOL     OW15334   4.317   4.718  15.013  0.2589 -0.3220 -0.5329
 1234SOL    HW115335   4.292   4.635  14.972 -3.6706  0.6104 -0.0636
 1234SOL    HW215336   4.247   0.002  15.077  1.5844  0.1492  0.7829
 1235SOL     OW15337   1.144   4.146   4.477 -0.6750 -0.0677  0.3138
 1235SOL    HW115338   1.221   4.197   4.501 -0.4136  0.5504 -1.8580
 1235SOL    HW215339   1.181   4.060   4.500 -2.7677 -0.8742  0.6696
 1236SOL     OW15340   1.296   1.153  13.346 -0.3480 -0.4210 -0.0199
 1236SOL    HW115341   1.391   1.155  13.340 -0.3040 -0.9654  0.5475
 1236SOL    HW215342   1.263   1.214  13.279 -2.0935 -1.0973  0.2186
 1237SOL     OW15343   0.295   0.723   6.899  0.4236  0.1004  0.1004
 1237SOL    HW115344   0.236   0.775   6.953 -0.8200 -0.8426 -0.3189
 1237SOL    HW215345   0.249   0.639   6.894 -0.1233  0.4633 -1.1469
 1238SOL     OW15346   0.103   3.622  16.398  0.1588  0.1258 -0.3665
 1238SOL    HW115347   0.147   3.537  16.393 -0.3740 -0.1497 -0.3939
 1238SOL    HW215348   0.013   3.593  16.413  0.9058 -2.8604 -1.6471
 1239SOL     OW15349   2.256   4.173   2.559  0.7172 -0.0073 -0.0305
 1239SOL    HW115350   2.288   4.095   2.605  0.4501  0.6186  1.2261
 1239SOL    HW215351   2.314   4.237   2.602 -0.9961  1.9823 -0.7013
 1240SOL     OW15352   4.261   4.499   8.538 -0.2982 -0.4143  0.1587
 1240SOL    HW115353   4.320   4.430   8.569  1.6472  0.7468 -0.9546
 1240SOL    HW215354   4.191   4.501   8.603  1.7787 -0.0314  2.3697
 1241SOL     OW15355   0.161   0.278   2.561 -1.0273  0.0841 -0.4161
 1241SOL    HW115356   0.197   0.190   2.561 -1.0323  0.0806 -0.6378
 1241SOL    HW215357   0.163   0.301   2.654  1.4391  2.6666 -1.0927
 1242SOL     OW15358   4.582   4.334  11.730  0.2451 -0.5249 -0.2311
 1242SOL    HW115359   4.509   4.374  11.683 -1.2518  0.7125  3.1563
 1242SOL    HW215360   4.553   4.243  11.729 -1.5807  0.0901 -3.8399
 1243SOL     OW15361   1.428   0.773   4.743 -0.2631  0.5998  0.4968
 1243SOL    HW115362   1.498   0.734   4.795  0.3446  2.0964  0.7921
 1243SOL    HW215363   1.359   0.711   4.767  0.4097  0.1523  1.2721
 1244SOL     OW15364   1.609   3.725   5.417 -0.5490  0.0152  0.1476
 1244SOL    HW115365   1.658   3.752   5.339  0.1221  0.9431  0.8876
 1244SOL    HW215366   1.524   3.717   5.375 -1.4106  0.4814  1.8211
 1245SOL     OW15367   0.432   0.068   6.722 -0.2327  0.4665  0.0957
 1245SOL    HW115368   0.359   0.126   6.701 -1.1276 -0.6764  0.0671
 1245SOL    HW215369   0.503   0.125   6.694  0.7980 -0.2618  1.2477
 1246SOL     OW15370   0.539   1.377   1.949  0.1886 -0.1096 -0.3700
 1246SOL    HW115371   0.535   1.381   1.853 -1.7855 -0.2372 -0.2828
 1246SOL    HW215372   0.611   1.316   1.965  0.8951  0.6761 -0.5718
 1247SOL     OW15373   2.060   3.971   2.522 -0.7209 -0.1743 -0.2466
 1247SOL    HW115374   2.137   4.027   2.534 -1.7680  0.8858  1.4139
 1247SOL    HW215375   2.004   4.034   2.477  2.7998  3.1871  0.0216
 1248SOL     OW15376   2.119   2.218   3.041 -0.0513 -0.4142 -0.4996
 1248SOL    HW115377   2.119   2.237   2.947 -3.0183 -1.5576 -0.7239
 1248SOL    HW215378   2.091   2.308   3.060  1.5486 -0.3008  1.2335
 1249SOL     OW15379   0.391   0.762  15.667  0.8093 -0.0114 -0.0404
 1249SOL    HW115380   0.298   0.778  15.651  0.9597  0.6127 -0.2688
 1249SOL    HW215381   0.399   0.682  15.615  0.7874  1.3337 -2.1351
 1250SOL     OW15382   2.525   3.420   1.758 -0.1015 -0.5871  0.1826
 1250SOL    HW115383   2.562   3.331   1.759  0.4117 -0.3897 -0.9816
 1250SOL    HW215384   2.587   3.463   1.698  0.5528 -1.6185  0.1187
 1251SOL     OW15385   0.689   4.633  13.308 -0.3718 -0.0171  0.2786
 1251SOL    HW115386   0.607   4.681  13.301 -1.2375 -1.6404 -0.6342
 1251SOL    HW215387   0.753   4.689  13.264 -0.2746 -1.4039 -1.3466
 1252SOL     OW15388   4.686   4.634   7.683 -0.2476  0.1459 -0.0464
 1252SOL    HW115389   0.044   4.658   7.697 -0.1692 -0.2806  0.1741
 1252SOL    HW215390   4.645   4.720   7.682  1.6916  1.0823 -0.4377
 1253SOL     OW15391   0.448   1.971   8.612  0.1491  0.3981  0.8158
 1253SOL    HW115392   0.419   2.016   8.692  0.2958  0.9104  0.5843
 1253SOL    HW215393   0.372   1.997   8.560  0.4472 -1.5287 -0.5488
 1254SOL     OW15394   4.143   0.053  17.706 -0.2349  0.1699  0.4871
 1254SOL    HW115395   4.069   0.105   0.004  0.3647  0.9659  0.5935
 1254SOL    HW215396   4.206   0.125  17.710  0.8772 -0.8355  0.7461
 1255SOL     OW15397   0.286   0.488  13.969 -0.2240 -0.1901 -0.1322
 1255SOL    HW115398   0.196   0.517  13.980 -0.0480 -0.5896  2.4082
 1255SOL    HW215399   0.277   0.444  13.885  0.2673 -2.4494  0.9878
 1256SOL     OW15400   1.315   4.094   3.316  0.4626 -0.2842 -0.3309
 1256SOL    HW115401   1.291   4.161   3.252  0.2711  0.1063  0.1491
 1256SOL    HW215402   1.335   4.030   3.248  1.5104  0.0439 -0.3436
 1257SOL     OW15403   2.706   3.084   7.821 -0.2236  0.0519 -0.2997
 1257SOL    HW115404   2.775   3.018   7.817 -0.3364 -0.1730  1.3721
 1257SOL    HW215405   2.752   3.152   7.870 -0.5014  0.4749 -0.6266
 1258SOL     OW15406   3.409   1.918  15.632  0.3546 -0.0284  0.0496
 1258SOL    HW115407   3.354   1.993  15.655  1.4043  0.8291 -0.1998
 1258SOL    HW215408   3.483   1.921  15.693  2.1988  0.5629 -2.2272
 1259SOL     OW15409   3.412   4.533   7.573  0.2762  0.2037  0.2309
 1259SOL    HW115410   3.375   4.556   7.487  1.7390 -0.7121 -0.6370
 1259SOL    HW215411   3.378   4.444   7.587 -3.1045  1.5476  0.6498
 1260SOL     OW15412   0.818   2.061   4.452  0.2819 -0.3439  0.5377
 1260SOL    HW115413   0.758   2.092   4.385  0.1089 -0.8260  0.4741
 1260SOL    HW215414   0.766   1.990   4.488 -0.5502  0.2211  0.4392
 1261SOL     OW15415   1.395   3.089   6.487  0.6000 -0.3627 -0.7823
 1261SOL    HW115416   1.367   3.026   6.554  0.6642  0.6357  0.1674
 1261SOL    HW215417   1.309   3.112   6.452  1.2482  1.7036 -0.9743
 1262SOL     OW15418   3.973   2.078   8.821 -0.3801  0.0908 -0.0333
 1262SOL    HW115419   3.973   2.017   8.894 -1.2875  2.4874  1.9769
 1262SOL    HW215420   4.039   2.050   8.757  1.3305 -2.1409  2.7563
 1263SOL     OW15421   0.186   2.843   4.291 -0.1811  0.1826  0.3307
 1263SOL    HW115422   0.157   2.784   4.361 -0.1514 -0.6928 -0.3904
 1263SOL    HW215423   0.154   2.794   4.215 -0.5181  0.9239 -0.0026
 1264SOL     OW15424   0.196   4.524   8.486  0.0933 -0.2495  0.4361
 1264SOL    HW115425   0.209   4.433   8.513 -0.5273 -0.4666  0.0310
 1264SOL    HW215426   0.106   4.536   8.516  0.0098 -0.4444  0.2644
 1265SOL     OW15427   2.661   3.202  16.267 -0.6616  0.2839  0.7531
 1265SOL    HW115428   2.665   3.293  16.297  0.9267  1.0450 -1.7897
 1265SOL    HW215429   2.572   3.196  16.233 -0.4272 -2.4350  0.5892
 1266SOL     OW15430   3.027   4.717   7.200  0.0496  0.0820 -0.1702
 1266SOL    HW115431   2.966   4.671   7.142  0.3482 -1.1817  0.5226
 1266SOL    HW215432   2.994   4.691   7.286  1.0584 -3.1560 -0.7709
 1267SOL     OW15433   2.397   0.019   3.531  0.1089 -0.9443  0.0870
 1267SOL    HW115434   2.322   0.054   3.579 -0.5071 -0.8566 -0.9273
 1267SOL    HW215435   2.457   0.094   3.530 -2.6135  1.2680  1.4904
 1268SOL     OW15436   2.777   1.209   6.324 -0.4567 -0.2896  0.0461
 1268SOL    HW115437   2.753   1.300   6.339  0.9768  0.0123  0.5240
 1268SOL    HW215438   2.712   1.184   6.257 -2.0833  1.3095  1.0335
 1269SOL     OW15439   3.043   1.925   2.397 -0.0805  0.5837  0.0305
 1269SOL    HW115440   3.067   1.833   2.390 -2.8262 -0.1263  0.2598
 1269SOL    HW215441   2.970   1.920   2.459 -1.8897 -1.4443 -2.2782
 1270SOL     OW15442   0.674   0.052   7.438  0.7210  0.4597  0.2071
 1270SOL    HW115443   0.674   4.726   7.364  2.2499  0.8815 -0.1435
 1270SOL    HW215444   0.580   0.057   7.454  0.6308 -1.6052  0.3530
 1271SOL     OW15445   0.071   1.761   4.089  0.1129  0.1301 -0.2817
 1271SOL    HW115446   0.148   1.765   4.033  0.2075 -0.7331 -0.2067
 1271SOL    HW215447   0.094   1.823   4.158  1.7742  1.0235 -1.6473
 1272SOL     OW15448   1.393   0.579  11.608  0.7569  0.4080  0.3021
 1272SOL    HW115449   1.309   0.536  11.623  1.1792  0.3135  2.4653
 1272SOL    HW215450   1.436   0.589  11.694 -0.1488 -0.8629  0.8906
 1273SOL     OW15451   2.506   0.781   7.404  1.2240 -0.0330 -0.4819
 1273SOL    HW115452   2.593   0.774   7.443  1.0095 -1.0756 -0.1998
 1273SOL    HW215453   2.506   0.876   7.394 -0.1700  0.2585  2.3979
 1274SOL     OW15454   3.036   3.498   0.404 -0.3695  0.1431  0.6614
 1274SOL    HW115455   2.941   3.497   0.409 -0.4694 -0.9545 -1.6947
 1274SOL    HW215456   3.053   3.406   0.421  1.7846  0.0829 -1.8710
 1275SOL     OW15457   1.100   0.943  10.350 -0.5246  0.4769  0.3536
 1275SOL    HW115458   1.116   1.019  10.293 -1.9343 -0.6778 -1.5752
 1275SOL    HW215459   1.010   0.955  10.380 -1.0565  1.1337 -1.5228
 1276SOL     OW15460   2.629   1.734   4.515  0.4666  0.1964 -0.4616
 1276SOL    HW115461   2.596   1.648   4.488 -0.6750  0.9026 -1.2897
 1276SOL    HW215462   2.720   1.736   4.487  1.4784  0.2095  2.7600
 1277SOL     OW15463   0.055   1.891   5.323  0.2819 -0.3405 -0.2821
 1277SOL    HW115464   0.094   1.926   5.243  1.0006  0.0474  0.2350
 1277SOL    HW215465   4.694   1.898   5.320  0.1725 -1.0937  1.2117
 1278SOL     OW15466   3.387   1.874  15.360 -0.3782 -0.1253  0.1719
 1278SOL    HW115467   3.440   1.802  15.327 -0.8990 -0.7563  0.7129
 1278SOL    HW215468   3.428   1.890  15.446  2.0857  0.3695 -1.0942
 1279SOL     OW15469   2.870   2.063   6.860  0.2557 -0.2214 -0.0977
 1279SOL    HW115470   2.908   1.982   6.828 -0.7346 -0.9985  0.7065
 1279SOL    HW215471   2.802   2.077   6.794  1.3118  0.3557 -1.0599
 1280SOL     OW15472   2.552   1.839   8.618  0.4712 -0.3213  0.1317
 1280SOL    HW115473   2.626   1.839   8.556 -0.2525  2.0226 -0.7263
 1280SOL    HW215474   2.472   1.846   8.566 -0.0304 -3.5617  0.4319
 1281SOL     OW15475   3.051   1.110   6.284  0.2102 -0.6600 -0.1352
 1281SOL    HW115476   3.098   1.171   6.341 -0.7152 -0.3959  0.3464
 1281SOL    HW215477   2.966   1.153   6.289  1.5423  2.1807 -1.7734
 1282SOL     OW15478   2.949   2.615  16.535  0.1585 -0.4690  0.1223
 1282SOL    HW115479   3.002   2.653  16.465  0.2405 -0.6024  0.1126
 1282SOL    HW215480   2.975   2.523  16.532 -0.3426 -0.6294  0.6576
 1283SOL     OW15481   3.121   3.500  16.038  0.4283 -0.1488 -0.2545
 1283SOL    HW115482   3.028   3.476  16.037 -0.1512  2.1350 -1.6013
 1283SOL    HW215483   3.146   3.497  15.946 -0.0555  0.0770 -0.3937
 1284SOL     OW15484   1.461   0.742  11.390  0.2823 -0.1472  0.0193
 1284SOL    HW115485   1.438   0.692  11.468 -1.0561  0.5429  0.0852
 1284SOL    HW215486   1.380   0.748  11.338  0.2982 -0.8130 -0.0754
 1285SOL     OW15487   1.451   2.023   4.279  0.7673 -0.2255  0.2929
 1285SOL    HW115488   1.504   2.048   4.202  2.7795 -1.7905  1.1776
 1285SOL    HW215489   1.523   1.997   4.337  1.4499 -0.5194 -0.6689
 1286SOL     OW15490   1.781   0.346   9.730  0.1070 -0.1491  0.2371
 1286SOL    HW115491   1.697   0.394   9.734  0.3749  0.3576 -0.2423
 1286SOL    HW215492   1.753   0.287   9.661 -1.1059 -0.1884  0.7561
 1287SOL     OW15493   3.220   1.310   6.130  0.0882  0.4893 -0.2018
 1287SOL    HW115494   3.164   1.252   6.077  0.3336 -0.6600  0.8004
 1287SOL    HW215495   3.258   1.244   6.187  0.3837  2.1511  1.5081
 1288SOL     OW15496   2.302   2.775  16.478  0.3252 -0.1976 -0.2110
 1288SOL    HW115497   2.326   2.766  16.386  0.9556  0.3771 -0.1000
 1288SOL    HW215498   2.228   2.716  16.495  0.3550  0.0384  0.7735
 1289SOL     OW15499   1.362   0.604   8.972 -0.0846  0.1112 -0.2225
 1289SOL    HW115500   1.426   0.674   8.981 -0.3928  0.5140 -1.2293
 1289SOL    HW215501   1.406   0.548   8.908 -0.7635 -2.3928  1.4736
 1290SOL     OW15502   3.754   4.712  14.062 -0.2242 -0.2838 -0.6187
 1290SOL    HW115503   3.814   4.669  14.122 -0.5519 -0.5323 -0.4655
 1290SOL    HW215504   3.695   0.019  14.126 -1.0912  0.2179 -1.7284
 1291SOL     OW15505   2.054   2.557   2.351 -0.2888  0.3057 -1.0571
 1291SOL    HW115506   2.039   2.466   2.326 -2.0716 -0.3897  2.5699
 1291SOL    HW215507   2.149   2.567   2.356 -0.6524  3.7064 -1.2635
 1292SOL     OW15508   1.495   0.352  17.187  0.1418  0.1394 -0.1327
 1292SOL    HW115509   1.471   0.267  17.224 -1.1524  0.6104  0.1186
 1292SOL    HW215510   1.411   0.398  17.196 -0.3572 -0.9008  0.5699
 1293SOL     OW15511   4.221   2.868   5.086 -0.4337  0.3902  0.2197
 1293SOL    HW115512   4.144   2.879   5.142  1.5016 -0.8373  3.0987
 1293SOL    HW215513   4.263   2.953   5.103 -0.8783  0.9078 -1.3065
 1294SOL     OW15514   1.988   0.346  14.418  0.4010  0.4396  1.1623
 1294SOL    HW115515   2.006   0.291  14.495  1.4949 -3.1998 -1.6354
 1294SOL    HW215516   1.953   0.278  14.360  1.3849  1.4316 -0.6016
 1295SOL     OW15517   0.467   1.292  14.387 -0.2779  0.3786 -0.4473
 1295SOL    HW115518   0.487   1.210  14.433  0.9632  0.9461  0.0057
 1295SOL    HW215519   0.555   1.317  14.358  0.2362  0.0207  0.8125
 1296SOL     OW15520   3.534   2.076   6.551 -0.2670  0.2909  0.6787
 1296SOL    HW115521   3.466   2.119   6.499  0.3519  1.9180  1.2170
 1296SOL    HW215522   3.557   2.008   6.488 -2.9756 -1.3821  1.5113
 1297SOL     OW15523   0.014   2.202   4.694 -0.2091 -0.0631  0.2345
 1297SOL    HW115524   4.718   2.215   4.784 -0.3354  2.2451 -0.1336
 1297SOL    HW215525   4.677   2.238   4.641  0.4060 -3.7030 -3.0808
 1298SOL     OW15526   2.367   3.740   3.451 -0.2952 -0.2333  0.9501
 1298SOL    HW115527   2.416   3.749   3.370 -1.1978  1.5975  0.6037
 1298SOL    HW215528   2.374   3.645   3.458  1.4816  0.1986  4.9755
 1299SOL     OW15529   0.883   1.242   4.747  0.3936  0.0158  0.0745
 1299SOL    HW115530   0.909   1.161   4.703  2.3021  0.8640 -0.3717
 1299SOL    HW215531   0.821   1.206   4.809  0.5219  1.2311  0.9146
 1300SOL     OW15532   3.338   4.502   8.565  0.1489  0.7053 -0.0764
 1300SOL    HW115533   3.423   4.477   8.529  1.1025  2.0712  1.2020
 1300SOL    HW215534   3.295   4.541   8.488  0.9650  1.6483 -0.0461
 1301SOL     OW15535   0.229   2.319   8.108  0.1226  0.2702 -0.3614
 1301SOL    HW115536   0.171   2.254   8.069  1.3259 -0.9286 -0.1610
 1301SOL    HW215537   0.203   2.315   8.200 -0.1472 -2.2204 -0.5571
 1302SOL     OW15538   4.282   2.719  17.643 -0.0117  0.4354 -0.0295
 1302SOL    HW115539   4.321   2.659  17.707  1.5806  2.9705  1.3712
 1302SOL    HW215540   4.193   2.726  17.678 -0.1609 -2.7851  0.1884
 1303SOL     OW15541   0.796   0.918   7.851 -0.6199  0.1673  0.1106
 1303SOL    HW115542   0.855   0.876   7.789 -0.4400  0.5285  0.0360
 1303SOL    HW215543   0.813   1.012   7.838  0.2546  0.1366  1.0142
 1304SOL     OW15544   4.188   3.314   4.808  0.0221  0.2070  0.3882
 1304SOL    HW115545   4.187   3.225   4.772  1.2869 -0.0094  0.8961
 1304SOL    HW215546   4.272   3.353   4.786  0.6246 -0.9306  0.6640
 1305SOL     OW15547   0.563   1.550  10.879 -0.1032  0.3137 -0.2869
 1305SOL    HW115548   0.485   1.538  10.932 -0.1703 -0.9498 -0.6720
 1305SOL    HW215549   0.625   1.588  10.941 -1.5890  0.7256  0.9217
 1306SOL     OW15550   3.583   2.647   9.719 -0.6814  0.1473  0.4146
 1306SOL    HW115551   3.605   2.569   9.668  0.1868  0.1494  0.7799
 1306SOL    HW215552   3.582   2.609   9.807 -1.5069  2.8391  1.5682
 1307SOL     OW15553   0.441   3.886   6.234  0.1148  0.2422 -0.3972
 1307SOL    HW115554   0.406   3.803   6.267 -3.0252  2.9144  2.9091
 1307SOL    HW215555   0.533   3.885   6.261  0.0900 -0.9314 -0.3533
 1308SOL     OW15556   3.555   0.546   3.362  0.3620  0.6093 -0.3369
 1308SOL    HW115557   3.631   0.591   3.398  0.7148 -0.4117  0.1867
 1308SOL    HW215558   3.596   0.495   3.292 -0.0270 -1.8441  1.2395
 1309SOL     OW15559   2.417   3.411   7.319  0.2232  0.2393 -0.0977
 1309SOL    HW115560   2.437   3.384   7.408 -0.9497  0.5012  0.2406
 1309SOL    HW215561   2.328   3.444   7.331  0.4188  1.1556 -1.1448
 1310SOL     OW15562   1.085   0.440   4.442  0.6745 -0.1312 -0.5795
 1310SOL    HW115563   1.151   0.376   4.415  0.2715 -0.4947 -0.7173
 1310SOL    HW215564   1.128   0.513   4.486 -1.8502  0.3317  1.0904
 1311SOL     OW15565   2.948   2.771  15.030 -0.5209  0.2093  0.5788
 1311SOL    HW115566   2.931   2.848  15.084  0.7077  1.6612 -1.0865
 1311SOL    HW215567   2.860   2.747  15.002 -0.0295  0.7529 -1.4727
 1312SOL     OW15568   1.681   2.056   2.188 -0.1913 -0.1966 -0.2547
 1312SOL    HW115569   1.629   2.032   2.265  0.3195 -1.4700 -0.3037
 1312SOL    HW215570   1.621   2.111   2.138  0.4967 -0.3498 -1.2522
 1313SOL     OW15571   2.629   0.492   6.844  0.3863  0.3334  0.1196
 1313SOL    HW115572   2.546   0.540   6.846 -0.3200 -0.9225  1.3138
 1313SOL    HW215573   2.681   0.538   6.778 -1.9730  0.4335 -1.6482
 1314SOL     OW15574   0.032   3.902   2.640  0.1237 -0.0383 -0.3874
 1314SOL    HW115575   0.019   3.889   2.546 -1.3800  0.3408 -0.2300
 1314SOL    HW215576   0.003   3.992   2.654  0.6379  0.2921 -1.4956
 1315SOL     OW15577   0.384   2.688  11.310  0.2555 -0.4106 -0.0182
 1315SOL    HW115578   0.312   2.739  11.348  1.1763  1.0392 -0.2556
 1315SOL    HW215579   0.464   2.718  11.353 -0.7055  2.2383 -0.0569
 1316SOL     OW15580   0.256   1.262  10.860 -0.4574  0.1566  0.1718
 1316SOL    HW115581   0.241   1.229  10.949  0.6342 -1.3490 -0.2319
 1316SOL    HW215582   0.189   1.331  10.854  0.1804  0.9043  1.6506
 1317SOL     OW15583   4.096   1.405   8.519  0.1714 -0.4033  0.1946
 1317SOL    HW115584   4.139   1.449   8.591  0.6574 -0.2294 -0.2046
 1317SOL    HW215585   4.056   1.475   8.468  3.0934  1.3096  0.2764
 1318SOL     OW15586   0.442   0.476   4.157 -0.4806 -0.1448  0.0938
 1318SOL    HW115587   0.487   0.552   4.121 -0.0121 -0.3910  0.1501
 1318SOL    HW215588   0.389   0.445   4.083 -0.3213  1.9268 -0.8796
 1319SOL     OW15589   4.000   2.401  11.652 -0.3252 -0.0494 -0.5800
 1319SOL    HW115590   4.077   2.396  11.708 -0.5131 -0.7174 -0.3839
 1319SOL    HW215591   4.044   2.418  11.569 -1.1950 -0.2248 -1.0800
 1320SOL     OW15592   2.559   2.624  13.159 -0.4140 -0.0532  0.0673
 1320SOL    HW115593   2.636   2.600  13.209 -0.6121 -1.4695 -0.3115
 1320SOL    HW215594   2.491   2.568  13.196 -0.2710 -0.7174 -0.6617
 1321SOL     OW15595   3.353   1.315   3.684 -0.0957  0.0608  0.4382
 1321SOL    HW115596   3.368   1.407   3.664 -0.4367  0.5519  2.4031
 1321SOL    HW215597   3.439   1.285   3.713 -0.8835 -0.1697  2.5163
 1322SOL     OW15598   3.741   0.779  15.053 -0.0036  0.3465 -0.4360
 1322SOL    HW115599   3.769   0.806  14.965 -0.3473  3.2218  0.3663
 1322SOL    HW215600   3.677   0.715  15.019 -1.5114  1.8782 -0.4559
 1323SOL     OW15601   3.324   0.099   6.829  0.1409 -0.6573  0.2108
 1323SOL    HW115602   3.296   0.162   6.895  0.1016 -2.7267  2.1716
 1323SOL    HW215603   3.287   0.017   6.861 -0.1663 -0.1805  1.0808
 1324SOL     OW15604   4.021   4.505   4.342 -0.2837  0.0138  0.4812
 1324SOL    HW115605   3.972   4.587   4.349  2.4746  1.5871  1.4805
 1324SOL    HW215606   3.999   4.462   4.425  0.5165 -0.9075  0.2224
 1325SOL     OW15607   1.190   3.010   8.113 -0.2829 -0.1365  0.5157
 1325SOL    HW115608   1.142   3.020   8.195  0.4420  0.6896  0.8451
 1325SOL    HW215609   1.221   3.100   8.102 -1.3027  0.2563  0.8747
 1326SOL     OW15610   2.107   3.460   1.695 -0.2570 -0.1283  0.6342
 1326SOL    HW115611   2.087   3.471   1.788 -0.4854 -0.1171  0.5829
 1326SOL    HW215612   2.019   3.447   1.660  0.2629 -0.1903 -0.6499
 1327SOL     OW15613   3.536   1.902   6.057 -0.2926  0.3306 -0.3695
 1327SOL    HW115614   3.441   1.900   6.055 -0.2884 -0.3518  0.2549
 1327SOL    HW215615   3.569   1.823   6.015  1.4231  0.6971  0.2589
 1328SOL     OW15616   3.965   2.738   2.875 -0.6652 -0.1859  0.1467
 1328SOL    HW115617   4.004   2.688   2.803  0.0407  0.0932  0.3331
 1328SOL    HW215618   4.025   2.720   2.947 -0.4042 -0.7835 -0.2189
 1329SOL     OW15619   0.688   2.379   8.631  0.0077  0.1107  0.5089
 1329SOL    HW115620   0.652   2.313   8.571 -0.0067  1.5520 -1.0574
 1329SOL    HW215621   0.762   2.417   8.584  0.1315 -0.2455  0.4110
 1330SOL     OW15622   4.126   0.472   8.167  0.1117 -0.6432  0.1055
 1330SOL    HW115623   4.117   0.563   8.193 -0.4891 -0.8613  0.6615
 1330SOL    HW215624   4.104   0.470   8.074  0.1400 -0.7293  0.1007
 1331SOL     OW15625   2.151   3.567   4.629 -0.0460 -0.5965  0.0018
 1331SOL    HW115626   2.185   3.531   4.547 -1.6406 -1.6763 -0.1799
 1331SOL    HW215627   2.084   3.630   4.603  3.3877  1.4346 -3.8687
 1332SOL     OW15628   2.758   1.453   2.363  0.0638 -0.0242 -0.0097
 1332SOL    HW115629   2.747   1.367   2.403 -2.6003  0.9385  1.3252
 1332SOL    HW215630   2.753   1.438   2.269 -1.9102  0.6373 -0.0100
 1333SOL     OW15631   2.672   2.581   8.922  0.1679  0.1734 -0.6579
 1333SOL    HW115632   2.651   2.490   8.899 -1.8415  0.7755 -1.1718
 1333SOL    HW215633   2.595   2.612   8.970  0.8790  0.8684  0.0221
 1334SOL     OW15634   0.714   4.612  14.329 -0.1145 -0.3577 -0.1697
 1334SOL    HW115635   0.789   4.624  14.388  0.5502 -2.9070 -0.4909
 1334SOL    HW215636   0.739   4.657  14.249  0.9303 -1.1197 -0.2752
 1335SOL     OW15637   1.934   4.612   3.380  0.2081  0.6032 -0.2115
 1335SOL    HW115638   1.907   4.614   3.472 -0.4290  0.5931 -0.3948
 1335SOL    HW215639   1.854   4.579   3.340  0.3562 -0.3817  0.3137
 1336SOL     OW15640   4.050   1.927  13.363 -0.4678  0.2084  0.0517
 1336SOL    HW115641   4.123   1.987  13.349 -0.3792  0.0711 -0.0612
 1336SOL    HW215642   4.059   1.892  13.452 -3.0952 -0.8565 -0.0922
 1337SOL     OW15643   1.675   1.740  13.492  0.2588  0.7240  0.3748
 1337SOL    HW115644   1.736   1.759  13.420  0.8133 -0.3656  0.5507
 1337SOL    HW215645   1.711   1.655  13.516  1.5435  0.8635 -1.0206
 1338SOL     OW15646   0.144   2.011   2.340  0.2952  0.4503  0.1745
 1338SOL    HW115647   0.232   1.981   2.319 -0.4961 -3.0365  1.9022
 1338SOL    HW215648   0.114   1.960   2.415 -1.5580  1.3823  0.0642
 1339SOL     OW15649   2.874   4.466   2.010  0.0516 -0.3906 -0.6661
 1339SOL    HW115650   2.875   4.410   2.087  0.2469  1.2846  0.5539
 1339SOL    HW215651   2.807   4.526   2.043 -1.5798 -1.8945 -1.1866
 1340SOL     OW15652   4.570   4.205   1.683 -0.3993 -0.1142  0.2289
 1340SOL    HW115653   4.534   4.216   1.595 -0.8357  1.6627  0.6380
 1340SOL    HW215654   4.561   4.110   1.692 -1.8873 -0.0740 -0.9539
 1341SOL     OW15655   1.640   2.964   5.628 -0.3839  0.2945  0.6661
 1341SOL    HW115656   1.612   3.037   5.684 -0.6401  1.4350 -0.9461
 1341SOL    HW215657   1.554   2.922   5.622 -1.1429  1.8641  0.3606
 1342SOL     OW15658   4.425   2.032   5.075  0.2574 -0.2834  0.5118
 1342SOL    HW115659   4.464   1.955   5.117  1.6479  0.4056  0.4849
 1342SOL    HW215660   4.369   2.058   5.147 -0.0084 -2.3607  1.0534
 1343SOL     OW15661   0.966   3.168   3.563 -0.0764 -0.4854 -0.3408
 1343SOL    HW115662   0.962   3.104   3.492 -3.0498 -0.2749 -0.3437
 1343SOL    HW215663   0.886   3.221   3.557 -1.3578 -2.3788  0.0414
 1344SOL     OW15664   0.889   3.143  12.640 -0.4986 -0.3407 -0.3377
 1344SOL    HW115665   0.827   3.144  12.568 -0.8729 -1.1100 -0.0269
 1344SOL    HW215666   0.969   3.119  12.592  1.5089  1.6531  2.0130
 1345SOL     OW15667   1.168   2.509   3.928  0.2845 -0.0270 -0.1784
 1345SOL    HW115668   1.194   2.580   3.986 -3.5125  1.2914 -0.0455
 1345SOL    HW215669   1.131   2.443   3.986 -1.3261  1.6149  0.6875
 1346SOL     OW15670   1.293   2.194   9.413  0.4736  0.1302 -0.4498
 1346SOL    HW115671   1.289   2.117   9.471 -0.4692 -0.4606 -1.3057
 1346SOL    HW215672   1.283   2.158   9.325 -0.1686  0.9579 -0.7064
 1347SOL     OW15673   0.578   2.758   1.672  0.4270 -0.1394  0.3216
 1347SOL    HW115674   0.613   2.674   1.644 -0.1543 -0.2214 -0.1377
 1347SOL    HW215675   0.548   2.752   1.763 -0.0470  2.1089  0.3235
 1348SOL     OW15676   1.954   3.168  10.814 -0.2414  0.4929 -0.3903
 1348SOL    HW115677   1.955   3.241  10.752  1.6721  1.0046  0.2475
 1348SOL    HW215678   1.929   3.100  10.751 -3.3227  0.7548  0.5475
 1349SOL     OW15679   3.271   3.768   5.332  0.6417 -0.3764  0.9679
 1349SOL    HW115680   3.279   3.850   5.283  2.4318 -0.2288  1.4909
 1349SOL    HW215681   3.179   3.750   5.316  1.1999  0.3511 -3.0418
 1350SOL     OW15682   0.280   0.250  15.404 -0.9891  0.0048 -0.0999
 1350SOL    HW115683   0.320   0.281  15.322  0.5420 -1.9780 -0.1218
 1350SOL    HW215684   0.314   0.161  15.417 -0.6914  0.5753  2.8910
 1351SOL     OW15685   0.972   0.803   7.659  0.2147 -0.4048  0.0667
 1351SOL    HW115686   1.023   0.755   7.594 -0.8673 -1.8201  0.2597
 1351SOL    HW215687   1.024   0.794   7.739 -0.4289 -1.0395  0.4143
 1352SOL     OW15688   1.925   0.160   9.516 -0.0859  0.4148  0.0305
 1352SOL    HW115689   1.830   0.147   9.527  0.0831  0.0344  1.0757
 1352SOL    HW215690   1.942   0.146   9.609  3.2894 -1.5979 -0.8937
 1353SOL     OW15691   2.852   0.939  11.262 -0.0447  0.4714  0.0754
 1353SOL    HW115692   2.941   0.941  11.298  0.1626 -1.2732 -0.3284
 1353SOL    HW215693   2.849   1.004  11.192 -0.5464 -0.7101 -1.0109
 1354SOL     OW15694   2.577   0.715   2.789 -0.0496 -0.1733  0.0729
 1354SOL    HW115695   2.613   0.627   2.798 -2.2016 -0.9948  0.5888
 1354SOL    HW215696   2.653   0.774   2.784 -1.2003  1.2319 -0.8007
 1355SOL     OW15697   1.407   2.283   2.807 -0.2408 -0.1083  0.0081
 1355SOL    HW115698   1.440   2.317   2.724 -1.6550 -1.0016 -0.9376
 1355SOL    HW215699   1.439   2.337   2.879 -0.9632  0.8814 -0.4084
 1356SOL     OW15700   2.797   3.841   6.418  0.1297 -0.0458 -0.0613
 1356SOL    HW115701   2.704   3.825   6.405  0.0273 -0.6782  1.4736
 1356SOL    HW215702   2.814   3.748   6.434 -1.5573 -0.3997 -0.3903
 1357SOL     OW15703   4.366   0.374   3.549 -0.2277  0.6226  0.2209
 1357SOL    HW115704   4.279   0.387   3.588 -0.7620 -0.7624 -0.5036
 1357SOL    HW215705   4.351   0.353   3.456 -1.8244 -2.3813  1.1542
 1358SOL     OW15706   3.420   0.896   8.044  0.1434 -0.9702  0.6282
 1358SOL    HW115707   3.475   0.954   8.096 -1.5383  0.9847  0.2309
 1358SOL    HW215708   3.333   0.917   8.079  0.7523 -0.5777  1.8807
 1359SOL     OW15709   3.420   3.931   9.073 -0.1110 -0.1252  0.0206
 1359SOL    HW115710   3.401   4.021   9.099  0.9104  0.6824 -2.0500
 1359SOL    HW215711   3.507   3.945   9.035 -0.5926  1.7413 -0.4063
 1360SOL     OW15712   2.977   2.041   7.330  0.1716 -0.6212  0.5118
 1360SOL    HW115713   3.029   1.965   7.305 -1.0199 -1.5248  0.7637
 1360SOL    HW215714   2.896   2.027   7.279 -0.9258  0.8386  1.8695
 1361SOL     OW15715   2.391   3.030  16.069  0.6100 -0.4404 -0.1585
 1361SOL    HW115716   2.382   3.108  16.124 -1.8587 -1.3617  0.7404
 1361SOL    HW215717   2.403   3.070  15.983  0.7124 -0.2410 -0.0528
 1362SOL     OW15718   3.544   2.355   4.165  0.1763 -0.3076 -0.0741
 1362SOL    HW115719   3.559   2.280   4.108  0.8457 -2.1656  2.5435
 1362SOL    HW215720   3.449   2.355   4.177  0.0747  0.3532 -0.8653
 1363SOL     OW15721   3.106   1.978   6.482 -0.0712  0.4300  0.1549
 1363SOL    HW115722   3.166   2.049   6.458 -0.3446 -0.0606 -1.9432
 1363SOL    HW215723   3.157   1.903   6.453  0.1240  0.9568 -0.8669
 1364SOL     OW15724   0.412   2.424   5.395 -0.2599  0.1454  0.0088
 1364SOL    HW115725   0.503   2.413   5.422 -0.3552  0.7741  0.6122
 1364SOL    HW215726   0.374   2.376   5.469  0.5315 -0.0150  0.3126
 1365SOL     OW15727   1.872   1.351   5.689  0.2431  0.8059  0.8778
 1365SOL    HW115728   1.852   1.338   5.782 -1.2465 -1.5571  0.2318
 1365SOL    HW215729   1.965   1.327   5.687 -0.0567 -0.2057 -1.1654
 1366SOL     OW15730   2.489   3.325  12.184  0.3879 -0.3127  0.6308
 1366SOL    HW115731   2.500   3.420  12.196 -3.3950  0.3227 -0.6495
 1366SOL    HW215732   2.524   3.310  12.096  0.1620  1.4896  0.2259
 1367SOL     OW15733   4.436   1.619   9.149 -0.2795  0.4585  0.2554
 1367SOL    HW115734   4.452   1.645   9.240  0.3831 -4.4563  1.5288
 1367SOL    HW215735   4.492   1.679   9.100 -1.2322 -0.8759 -2.4717
 1368SOL     OW15736   2.840   4.040   4.340  0.2910 -0.7170  0.2130
 1368SOL    HW115737   2.855   3.966   4.282  0.1276  0.6028 -1.5368
 1368SOL    HW215738   2.917   4.093   4.320 -2.6801  2.7966 -1.8975
 1369SOL     OW15739   0.391   0.467   6.754 -0.0327 -0.0170  0.2259
 1369SOL    HW115740   0.406   0.413   6.676  0.4421 -0.7096  0.7899
 1369SOL    HW215741   0.481   0.490   6.775 -0.3768  2.2399 -0.8550
 1370SOL     OW15742   2.864   4.512   3.268  0.0488  0.0423  0.7324
 1370SOL    HW115743   2.959   4.520   3.273  0.0890 -0.3734  0.6002
 1370SOL    HW215744   2.839   4.543   3.355  0.2225  1.9826  0.0840
 1371SOL     OW15745   0.852   3.959   2.414 -0.2797 -0.1851  0.7657
 1371SOL    HW115746   0.926   4.010   2.447  1.4671 -2.9351  1.0960
 1371SOL    HW215747   0.815   4.011   2.343  0.4278 -0.7374 -0.0067
 1372SOL     OW15748   1.817   2.551   5.969  0.6279 -0.3198 -0.8962
 1372SOL    HW115749   1.892   2.604   5.942  1.0980  0.2902  1.6102
 1372SOL    HW215750   1.824   2.476   5.909 -0.0608 -0.5282 -0.7104
 1373SOL     OW15751   1.937   3.361   7.135  0.2726 -0.3774  0.1524
 1373SOL    HW115752   1.965   3.302   7.065 -1.9066  0.4117 -1.3873
 1373SOL    HW215753   1.846   3.374   7.111  0.5129  0.1151 -0.4952
 1374SOL     OW15754   3.775   0.363   5.218 -0.1738  0.6050 -0.3876
 1374SOL    HW115755   3.796   0.332   5.306  0.8791  0.3270 -0.7443
 1374SOL    HW215756   3.851   0.333   5.168 -0.4960  0.7084 -0.9390
 1375SOL     OW15757   3.078   1.092   7.554 -0.5376  0.1093 -0.0403
 1375SOL    HW115758   3.049   1.167   7.501  0.7359  0.4048 -0.3109
 1375SOL    HW215759   3.100   1.022   7.493  0.8481  0.9007 -0.4456
 1376SOL     OW15760   3.999   3.010   7.303  0.7228  0.1426 -0.4136
 1376SOL    HW115761   4.016   2.985   7.394 -0.2365 -0.7265 -0.4696
 1376SOL    HW215762   3.908   2.985   7.289  0.5942 -0.4359  1.3819
 1377SOL     OW15763   4.427   2.790  15.163 -0.2279  0.1961 -0.4161
 1377SOL    HW115764   4.425   2.878  15.125  2.0409 -0.2213 -1.4775
 1377SOL    HW215765   4.500   2.748  15.119 -0.7719 -0.3558 -0.7886
 1378SOL     OW15766   0.535   2.330  17.281  0.0929  0.1290 -0.1636
 1378SOL    HW115767   0.536   2.303  17.372  0.8643  0.3985 -0.0918
 1378SOL    HW215768   0.478   2.262  17.245 -0.6695 -0.0805  1.4408
 1379SOL     OW15769   4.338   2.609   5.502 -0.1081 -0.0858 -0.2821
 1379SOL    HW115770   4.430   2.627   5.480 -0.5429 -0.7873 -2.6581
 1379SOL    HW215771   4.329   2.521   5.466 -1.0776  0.1754 -0.6542
 1380SOL     OW15772   2.910   0.107   7.738 -0.0634  0.2953 -0.0855
 1380SOL    HW115773   2.892   0.052   7.814 -0.4880  1.0818  0.3817
 1380SOL    HW215774   2.817   0.111   7.715 -0.5348 -2.6826  1.2996
 1381SOL     OW15775   2.547   3.785   8.366  0.1811  0.0418 -0.4997
 1381SOL    HW115776   2.545   3.707   8.311 -1.2494  1.2034 -2.1031
 1381SOL    HW215777   2.627   3.825   8.332  0.4485 -1.1049 -1.2195
 1382SOL     OW15778   2.461   3.846   1.343 -0.4028  0.3339 -0.1631
 1382SOL    HW115779   2.432   3.816   1.428  0.8399 -2.6421 -0.7703
 1382SOL    HW215780   2.555   3.860   1.358 -0.3255 -3.0813  2.5166
 1383SOL     OW15781   4.442   4.603   7.483 -0.2053 -0.0982 -0.4085
 1383SOL    HW115782   4.478   4.655   7.411 -0.2158  1.0274  0.3959
 1383SOL    HW215783   4.512   4.549   7.519 -1.4512  0.0047  2.1619
 1384SOL     OW15784   2.822   4.396   4.170 -0.1602  0.5184  0.8667
 1384SOL    HW115785   2.885   4.421   4.103 -0.4674 -0.5824  0.1679
 1384SOL    HW215786   2.877   4.379   4.247 -0.8557  2.2982  1.7596
 1385SOL     OW15787   0.985   0.165  10.840  0.5648 -0.1129 -0.1739
 1385SOL    HW115788   1.007   0.169  10.747  0.8902  1.2875 -0.0459
 1385SOL    HW215789   0.913   0.102  10.838  0.2391  0.2276  0.7689
 1386SOL     OW15790   2.178   3.389   8.518 -0.6420  0.1770  0.3066
 1386SOL    HW115791   2.135   3.449   8.578 -2.1423  0.3574 -0.9387
 1386SOL    HW215792   2.271   3.403   8.537 -1.2812  1.0808  2.6947
 1387SOL     OW15793   3.867   2.691   3.248  0.0014  1.0899 -0.0839
 1387SOL    HW115794   3.828   2.634   3.314  2.2937  1.7274  1.8220
 1387SOL    HW215795   3.787   2.704   3.198  0.5653  1.4346 -0.8873
 1388SOL     OW15796   0.606   3.685   9.508 -0.2508 -0.4114  0.1244
 1388SOL    HW115797   0.576   3.676   9.418  1.7040 -0.0749 -0.5628
 1388SOL    HW215798   0.695   3.651   9.506  0.4107  1.3241 -0.0549
 1389SOL     OW15799   3.628   2.134   4.031  0.0112 -0.6279 -0.1684
 1389SOL    HW115800   3.688   2.065   4.057  1.5266  0.8394  0.2385
 1389SOL    HW215801   3.563   2.075   3.995 -1.7719  1.9257 -1.1692
 1390SOL     OW15802   2.844   3.412   8.896  0.0323 -0.5180 -0.4050
 1390SOL    HW115803   2.864   3.357   8.972  0.0913 -0.6436 -0.5105
 1390SOL    HW215804   2.806   3.347   8.835  2.6137 -1.3217 -1.1443
 1391SOL     OW15805   3.674   4.001   4.483  0.4944 -0.1868  0.5643
 1391SOL    HW115806   3.753   3.990   4.536  1.7792 -0.1842 -1.3767
 1391SOL    HW215807   3.614   4.028   4.553  0.3596  2.7023 -0.6942
 1392SOL     OW15808   4.222   2.689   6.754 -0.9312 -0.1355  0.1730
 1392SOL    HW115809   4.273   2.625   6.804 -2.6783 -0.4621  1.5816
 1392SOL    HW215810   4.152   2.641   6.709  1.1826 -3.2648  0.2472
 1393SOL     OW15811   3.793   1.539   4.146  0.0781 -0.3532 -0.5012
 1393SOL    HW115812   3.816   1.589   4.225  1.0251  0.9448 -1.5902
 1393SOL    HW215813   3.723   1.600   4.123 -1.2192 -1.9539 -0.7933
 1394SOL     OW15814   1.520   1.699   4.574 -0.4339  0.2457  0.9638
 1394SOL    HW115815   1.475   1.644   4.509 -0.5896  2.0246 -0.4253
 1394SOL    HW215816   1.436   1.730   4.609  0.3395  1.1477  2.0211
 1395SOL     OW15817   2.572   1.130   4.819 -0.2525 -0.3126  0.3881
 1395SOL    HW115818   2.606   1.049   4.858  2.9776  0.1517 -1.4448
 1395SOL    HW215819   2.477   1.117   4.812 -0.2153 -0.4102  0.0744
 1396SOL     OW15820   0.476   3.160   1.963 -0.4156  0.3516 -0.3689
 1396SOL    HW115821   0.562   3.145   2.003 -0.5430 -1.4516 -0.7973
 1396SOL    HW215822   0.435   3.080   1.996  1.1871  0.0638  0.9224
 1397SOL     OW15823   2.094   1.348   4.135  0.1388  0.2627 -0.2838
 1397SOL    HW115824   2.004   1.316   4.141  0.5087 -0.6088  0.6186
 1397SOL    HW215825   2.099   1.416   4.203 -1.6987  0.3068 -0.1761
 1398SOL     OW15826   3.904   1.372   4.822 -0.5702  0.1018  0.3461
 1398SOL    HW115827   3.830   1.431   4.839 -1.0492  0.5676 -3.2922
 1398SOL    HW215828   3.879   1.333   4.738 -3.5886  1.7716  0.4704
 1399SOL     OW15829   4.617   2.111   2.479  0.4099 -0.3852  0.0000
 1399SOL    HW115830   4.533   2.119   2.434 -0.5499 -2.4182  1.4430
 1399SOL    HW215831   4.635   2.017   2.470 -1.1179 -0.8015  1.2739
 1400SOL     OW15832   2.857   3.458   6.699 -0.0631  0.0963 -0.2465
 1400SOL    HW115833   2.806   3.377   6.699 -0.2749  0.2285 -0.6525
 1400SOL    HW215834   2.838   3.489   6.787  0.0833 -0.8493  0.1108
 1401SOL     OW15835   1.834   1.610   4.233  0.1992 -0.1260  0.4905
 1401SOL    HW115836   1.785   1.662   4.170  1.0063  0.8920  0.6809
 1401SOL    HW215837   1.767   1.563   4.283 -1.4336  1.0113 -0.6414
 1402SOL     OW15838   2.308   3.990   7.000  0.4502  0.2581  0.3531
 1402SOL    HW115839   2.226   4.024   7.035 -0.5109 -1.4679 -0.1960
 1402SOL    HW215840   2.306   4.020   6.909  3.9480 -2.9885 -0.8258
 1403SOL     OW15841   0.454   0.402  11.330 -0.1736  0.1351  0.3811
 1403SOL    HW115842   0.515   0.397  11.404 -1.2215 -1.4826  1.1458
 1403SOL    HW215843   0.371   0.375  11.369 -1.0959 -0.5118 -2.0127
 1404SOL     OW15844   3.609   0.022   6.704  0.0686  0.0815  0.2133
 1404SOL    HW115845   3.568   4.676   6.736  0.3398 -0.3606 -0.5523
 1404SOL    HW215846   3.543   0.039   6.637 -0.4134  0.0651  0.6805
 1405SOL     OW15847   0.625   4.413  17.521  0.3340  0.2108 -0.4601
 1405SOL    HW115848   0.599   4.338  17.467  1.0282  0.6212 -1.3616
 1405SOL    HW215849   0.539   4.416  17.562  1.2103  0.8677  1.3142
 1406SOL     OW15850   1.378   1.906   3.424  0.0626  0.0716  0.0555
 1406SOL    HW115851   1.383   1.994   3.387 -0.9012 -0.5063 -1.4065
 1406SOL    HW215852   1.283   1.901   3.422  0.2445 -1.9798 -2.1616
 1407SOL     OW15853   0.391   4.375  14.365  0.2466 -0.4093  0.5884
 1407SOL    HW115854   0.379   4.411  14.453  1.7194  2.1602 -0.2533
 1407SOL    HW215855   0.307   4.411  14.336  0.8317  1.2073  0.8948
 1408SOL     OW15856   2.418   3.521  15.838  0.3334  0.4947  0.7267
 1408SOL    HW115857   2.420   3.559  15.926  1.9367  0.8440  0.5294
 1408SOL    HW215858   2.345   3.462  15.856 -0.5921  1.4602  0.1316
 1409SOL     OW15859   2.765   0.799  17.050  0.2212 -0.0610  0.3347
 1409SOL    HW115860   2.777   0.728  17.113 -2.4480 -0.3867  0.4739
 1409SOL    HW215861   2.689   0.846  17.084 -0.6073 -1.5865  0.5894
 1410SOL     OW15862   3.393   2.128   1.997 -0.3180 -0.4501  0.0851
 1410SOL    HW115863   3.406   2.132   2.092 -0.1325 -0.1248  0.0457
 1410SOL    HW215864   3.454   2.064   1.960  0.6794  1.2283 -1.1693
 1411SOL     OW15865   3.024   4.383   7.666 -0.0247  0.3622 -0.0268
 1411SOL    HW115866   3.058   4.422   7.747 -0.3912  1.0311 -0.1934
 1411SOL    HW215867   2.946   4.336   7.695  2.0009 -1.4417  2.4954
 1412SOL     OW15868   1.587   0.088   7.349 -0.2174  0.3942  0.5247
 1412SOL    HW115869   1.495   0.089   7.375 -0.3988 -2.4814  0.0289
 1412SOL    HW215870   1.624   0.086   7.437  3.4942  1.1593 -1.0286
 1413SOL     OW15871   1.502   2.099   6.775 -0.1716 -0.1420  0.2769
 1413SOL    HW115872   1.452   2.176   6.745  0.0443 -0.2991 -0.4972
 1413SOL    HW215873   1.593   2.125   6.759  0.1585 -0.3455  1.8085
 1414SOL     OW15874   0.647   1.638  14.285 -0.0809 -0.3240 -0.4468
 1414SOL    HW115875   0.669   1.715  14.233 -0.2193  1.3705  1.9865
 1414SOL    HW215876   0.724   1.581  14.275  0.8138  0.8082 -0.0974
 1415SOL     OW15877   4.351   4.234   4.981  0.1416 -0.3118 -0.1313
 1415SOL    HW115878   4.379   4.302   4.919  1.6003 -0.9344 -0.1497
 1415SOL    HW215879   4.426   4.176   4.993 -0.1901 -0.6368  0.3416
 1416SOL     OW15880   3.705   3.928   8.314  0.2964 -0.4249 -0.4200
 1416SOL    HW115881   3.758   3.985   8.258  1.0650  0.9728  1.7477
 1416SOL    HW215882   3.664   3.998   8.365  1.1858 -1.8417  2.2182
 1417SOL     OW15883   1.499   4.457   7.560  0.1977 -0.5261 -0.1238
 1417SOL    HW115884   1.438   4.489   7.494 -0.6242 -0.1525  0.8139
 1417SOL    HW215885   1.582   4.501   7.539  0.4356 -0.6933  0.4682
 1418SOL     OW15886   4.659   1.517   8.867 -0.0229  0.2130 -0.1509
 1418SOL    HW115887   4.677   1.480   8.954 -0.1615  1.2019  0.3032
 1418SOL    HW215888   4.651   1.609   8.891 -0.0881  0.0715  0.3833
 1419SOL     OW15889   1.604   0.091  12.143  0.1727  0.0218  0.5996
 1419SOL    HW115890   1.683   0.144  12.142 -1.6569  2.7058  0.1701
 1419SOL    HW215891   1.594   0.101  12.238 -0.4017  2.1307  0.2945
 1420SOL     OW15892   1.143   1.374   9.515  0.4106  0.2746 -0.1801
 1420SOL    HW115893   1.067   1.410   9.559 -0.4564 -0.4472 -1.0801
 1420SOL    HW215894   1.210   1.375   9.583 -0.1244 -0.8194  0.3588
 1421SOL     OW15895   0.518   4.366  15.386  0.0138 -0.4934 -0.6286
 1421SOL    HW115896   0.510   4.272  15.365 -0.0854 -0.5904 -0.1390
 1421SOL    HW215897   0.431   4.379  15.422  0.5581  0.3539  0.3882
 1422SOL     OW15898   0.209   2.331   2.171  0.3163  0.6337 -0.1961
 1422SOL    HW115899   0.296   2.357   2.140  0.1585 -1.6266 -2.5795
 1422SOL    HW215900   0.165   2.319   2.087 -0.0863 -0.9716  0.2542
 1423SOL     OW15901   3.628   0.378  14.354  0.2925 -0.1309  0.1819
 1423SOL    HW115902   3.534   0.386  14.369  0.4335  0.0054  1.0265
 1423SOL    HW215903   3.668   0.351  14.437 -0.5565 -2.3892 -0.1446
 1424SOL     OW15904   4.500   3.467   0.815  0.9746  0.1373  0.2079
 1424SOL    HW115905   4.431   3.409   0.783  2.4453 -0.5089 -1.8593
 1424SOL    HW215906   4.549   3.472   0.732  0.1392  0.1316 -0.2856
 1425SOL     OW15907   0.736   0.045  15.475  0.4951 -0.2343  0.3693
 1425SOL    HW115908   0.785   0.097  15.411 -1.2908  3.0863  1.6943
 1425SOL    HW215909   0.692   4.715  15.419  1.2175  0.8822 -1.4892
 1426SOL     OW15910   1.097   2.498   8.915 -0.2096 -0.5605  0.1519
 1426SOL    HW115911   1.170   2.559   8.929 -0.7131 -0.0647  0.5876
 1426SOL    HW215912   1.132   2.458   8.835 -1.1840 -0.6135 -0.2521
 1427SOL     OW15913   3.689   3.764   5.771  0.8489 -0.3716  0.2200
 1427SOL    HW115914   3.706   3.835   5.833  0.4203  0.3601 -0.4996
 1427SOL    HW215915   3.774   3.721   5.767 -1.1589 -4.1612 -1.3262
 1428SOL     OW15916   1.905   4.644   4.329 -0.4118  0.4171 -0.4512
 1428SOL    HW115917   1.985   4.669   4.283 -0.8675 -0.2207 -1.5977
 1428SOL    HW215918   1.923   4.552   4.350 -0.4261  0.2189 -1.3022
 1429SOL     OW15919   1.047   1.679   2.320  0.1875 -0.0859  0.2388
 1429SOL    HW115920   1.061   1.772   2.336  0.7276 -0.2789  0.8685
 1429SOL    HW215921   0.961   1.678   2.277  0.6218 -0.6478 -0.6203
 1430SOL     OW15922   3.447   2.821   9.167  0.2089  0.3185  0.0391
 1430SOL    HW115923   3.534   2.796   9.136 -0.4479  0.4266 -1.8951
 1430SOL    HW215924   3.426   2.894   9.109 -1.2748 -0.3259 -0.2303
 1431SOL     OW15925   4.356   2.284  12.584 -0.3078 -0.3762 -0.5718
 1431SOL    HW115926   4.304   2.363  12.599  0.8880  0.5673 -1.5030
 1431SOL    HW215927   4.298   2.244  12.519  2.2121 -1.5309 -2.0974
 1432SOL     OW15928   4.674   3.538  10.958  0.2608 -0.6222  0.2181
 1432SOL    HW115929   4.655   3.445  10.954  3.7968 -1.3555  0.0756
 1432SOL    HW215930   4.595   3.564  11.004  1.9512 -0.0610  2.8140
 1433SOL     OW15931   2.409   1.388   9.612 -0.4629 -0.2565 -0.3706
 1433SOL    HW115932   2.485   1.412   9.666 -2.2216  0.6050  1.7552
 1433SOL    HW215933   2.454   1.340   9.543  0.9958 -1.2094  1.2411
 1434SOL     OW15934   3.476   2.348  16.749  0.0790  0.2701  0.0384
 1434SOL    HW115935   3.405   2.292  16.780  0.3559 -0.6618 -1.0106
 1434SOL    HW215936   3.514   2.377  16.832  0.1960 -0.8710  0.3859
 1435SOL     OW15937   0.068   0.416   5.027  0.1772  0.0154 -0.0324
 1435SOL    HW115938   0.030   0.494   4.986 -0.5011 -0.3909 -0.1803
 1435SOL    HW215939   0.161   0.427   5.009  0.3275  0.7161  1.1448
 1436SOL     OW15940   2.770   3.087   2.948 -0.0295  0.2049  0.0375
 1436SOL    HW115941   2.695   3.106   3.005 -1.0949 -0.9866 -0.9811
 1436SOL    HW215942   2.726   3.041   2.877  0.2899 -0.3568  0.2049
 1437SOL     OW15943   2.789   3.559   1.909 -0.0667 -0.0408 -0.5010
 1437SOL    HW115944   2.876   3.598   1.903 -1.5605  3.2578 -0.4298
 1437SOL    HW215945   2.758   3.557   1.818  3.7386 -1.7065 -1.7533
 1438SOL     OW15946   2.164   1.951   2.033 -0.2463 -0.3177  0.4314
 1438SOL    HW115947   2.095   2.011   2.059  0.1873  0.0024  0.8534
 1438SOL    HW215948   2.210   1.934   2.116 -0.5750 -0.1639  0.6414
 1439SOL     OW15949   4.152   0.189   4.220  0.2932 -0.1580  0.3983
 1439SOL    HW115950   4.157   0.279   4.251 -1.3840  0.5555 -1.4706
 1439SOL    HW215951   4.057   0.175   4.222  0.2227  0.3055  0.3042
 1440SOL     OW15952   4.171   3.031  17.627 -0.3325 -0.2118 -0.1233
 1440SOL    HW115953   4.089   2.982  17.617 -1.5530  1.0630  3.1760
 1440SOL    HW215954   4.212   3.000  17.547 -1.6699 -0.6137 -0.6499
 1441SOL     OW15955   3.194   3.772   4.856 -0.5332  0.2460  0.1375
 1441SOL    HW115956   3.178   3.727   4.773  0.1765  2.1334 -0.9997
 1441SOL    HW215957   3.235   3.713   4.920 -0.3915  0.3460  0.1388
 1442SOL     OW15958   3.713   4.065   8.690 -0.2408 -0.4730 -0.3103
 1442SOL    HW115959   3.769   4.005   8.640  0.5819 -0.3742  0.4984
 1442SOL    HW215960   3.773   4.138   8.704  0.1853 -1.3000  2.1634
 1443SOL     OW15961   4.472   0.480   4.709 -0.5620 -0.1856  0.1902
 1443SOL    HW115962   4.427   0.403   4.745  0.9871 -2.1726 -2.0810
 1443SOL    HW215963   4.558   0.439   4.696 -0.4082 -0.3743  1.8871
 1444SOL     OW15964   2.904   0.222   2.473 -0.0523  0.1728 -0.6132
 1444SOL    HW115965   2.986   0.233   2.522 -0.2788 -0.4771 -0.1017
 1444SOL    HW215966   2.922   0.152   2.410 -0.6836  1.3989 -2.1590
 1445SOL     OW15967   4.593   2.614   5.448 -0.0253  0.2672  0.5293
 1445SOL    HW115968   4.658   2.545   5.441  0.3801  0.9394 -2.3200
 1445SOL    HW215969   4.643   2.669   5.508 -0.8553  2.6855 -0.9462
 1446SOL     OW15970   0.085   2.616   5.942  0.0320 -0.0346 -0.7654
 1446SOL    HW115971   0.118   2.567   5.866  0.7501 -2.5309  1.1689
 1446SOL    HW215972   4.726   2.599   5.928 -0.1563  0.7231 -0.4165
 1447SOL     OW15973   3.678   3.595   1.503 -0.6452 -0.1725 -0.5639
 1447SOL    HW115974   3.738   3.562   1.569  2.0071  0.2970 -2.7405
 1447SOL    HW215975   3.603   3.536   1.511 -1.9534  1.5389 -0.2298
 1448SOL     OW15976   1.592   0.326   5.809 -0.5175  0.9385 -0.2731
 1448SOL    HW115977   1.579   0.342   5.716 -3.9661 -2.5360 -0.3430
 1448SOL    HW215978   1.606   0.231   5.813 -1.2221  0.8316 -0.5328
 1449SOL     OW15979   2.987   0.519  12.684  0.1855 -0.5040 -0.1133
 1449SOL    HW115980   2.979   0.594  12.625  1.8743 -1.1868 -1.1942
 1449SOL    HW215981   3.080   0.496  12.686  0.1649 -0.6599 -1.1684
 1450SOL     OW15982   1.547   1.792   2.899 -0.2712 -0.6257  0.0448
 1450SOL    HW115983   1.605   1.806   2.974  0.1273  1.9772 -0.7294
 1450SOL    HW215984   1.512   1.881   2.894  1.0801 -0.0331  1.1375
 1451SOL     OW15985   1.988   1.805   0.223 -0.3884 -0.1179  0.4341
 1451SOL    HW115986   1.981   1.897   0.245 -0.1338 -0.2857  1.2278
 1451SOL    HW215987   1.938   1.778   0.300  0.9950 -0.5155  1.1912
 1452SOL     OW15988   2.517   3.807   5.060  0.1695 -0.0122 -0.0818
 1452SOL    HW115989   2.437   3.778   5.102 -0.2780 -0.8052 -1.4921
 1452SOL    HW215990   2.590   3.766   5.106  1.3243  1.5785 -0.4871
 1453SOL     OW15991   0.859   4.146   1.703 -0.2789  0.1141 -0.7773
 1453SOL    HW115992   0.787   4.150   1.641 -1.9757 -0.1719  1.1710
 1453SOL    HW215993   0.808   4.117   1.779  0.1324  1.4028 -0.0073
 1454SOL     OW15994   2.137   1.118  15.526  0.0688 -0.3483  0.1735
 1454SOL    HW115995   2.218   1.133  15.575 -0.1083 -1.7803  0.9045
 1454SOL    HW215996   2.076   1.151  15.592  0.3928  0.6883 -0.0409
 1455SOL     OW15997   2.812   0.777   1.741  0.3574  0.8548 -0.5581
 1455SOL    HW115998   2.803   0.703   1.800  1.1935  1.3487  0.2008
 1455SOL    HW215999   2.811   0.740   1.653 -1.6560 -0.6882  0.1260
 1456SOL     OW16000   0.233   2.537   5.724 -0.0772  0.0683  0.3090
 1456SOL    HW116001   0.235   2.442   5.713 -2.2127  0.1924 -1.1489
 1456SOL    HW216002   0.307   2.565   5.669  2.0701  0.5468  3.4291
 1457SOL     OW16003   0.944   4.344   6.926 -0.2180 -0.2721  0.9184
 1457SOL    HW116004   0.887   4.397   6.870  1.1552  1.9630  1.6497
 1457SOL    HW216005   0.914   4.256   6.903  0.5596 -0.1186 -0.6636
 1458SOL     OW16006   0.366   0.515   2.548 -0.2705  1.0939  0.3465
 1458SOL    HW116007   0.357   0.471   2.632 -0.6795 -0.1031 -0.3210
 1458SOL    HW216008   0.461   0.518   2.550 -0.3242  1.0857  3.3078
 1459SOL     OW16009   4.287   2.852   8.248 -0.2700  0.0706  0.2183
 1459SOL    HW116010   4.230   2.794   8.198 -1.1603  0.4627  0.7609
 1459SOL    HW216011   4.249   2.940   8.246  1.3998  0.8112  0.7866
 1460SOL     OW16012   4.480   0.842   0.518 -0.0672  0.1731 -0.0475
 1460SOL    HW116013   4.415   0.890   0.570  1.2388 -1.5705  3.1829
 1460SOL    HW216014   4.446   0.843   0.429 -0.2234  5.0350  0.0930
 1461SOL     OW16015   3.392   3.757   2.705  0.2909  0.7077  0.2140
 1461SOL    HW116016   3.330   3.722   2.769  1.5866  0.2236  1.1912
 1461SOL    HW216017   3.401   3.848   2.735 -1.5415  1.2053 -0.7283
 1462SOL     OW16018   4.544   4.399   8.131  0.2138 -0.5281  0.1245
 1462SOL    HW116019   4.478   4.375   8.066 -0.4408  2.1817 -0.1748
 1462SOL    HW216020   4.497   4.370   8.210 -1.4956 -0.6721 -0.9441
 1463SOL     OW16021   2.990   2.348   5.018  0.1645 -0.4367 -0.1168
 1463SOL    HW116022   3.059   2.397   5.062 -0.9919 -1.5765  2.9571
 1463SOL    HW216023   3.010   2.258   5.046  1.4647  0.7159  2.6317
 1464SOL     OW16024   3.718   0.885   1.234 -0.1360  0.1453  1.0421
 1464SOL    HW116025   3.680   0.972   1.236  2.9353  1.5075  1.1772
 1464SOL    HW216026   3.805   0.908   1.268  0.1478  0.5830  0.0287
 1465SOL     OW16027   4.703   3.420  17.187  0.3603  0.3267 -0.0917
 1465SOL    HW116028   0.006   3.344  17.143 -2.2276 -0.0430 -1.6527
 1465SOL    HW216029   4.713   3.414  17.282  0.2778 -0.0856 -0.1090
 1466SOL     OW16030   2.650   1.534   5.366  0.5896  0.4783  0.6742
 1466SOL    HW116031   2.655   1.502   5.276  0.6203  1.8053  0.1979
 1466SOL    HW216032   2.572   1.486   5.395 -0.0361  1.5500  0.7841
 1467SOL     OW16033   1.305   0.247  17.494 -0.1785 -0.5129 -0.7526
 1467SOL    HW116034   1.380   0.199  17.459 -0.0012 -0.3537 -0.5851
 1467SOL    HW216035   1.244   0.232  17.421  0.9820 -1.0403 -1.6191
 1468SOL     OW16036   1.781   3.912   2.176  0.2994 -0.0408  0.3008
 1468SOL    HW116037   1.695   3.901   2.136  0.0384 -1.6477  1.3121
 1468SOL    HW216038   1.758   3.932   2.266  2.3886 -0.3750  0.9185
 1469SOL     OW16039   4.404   0.630   8.171 -0.3243 -0.1571  0.0557
 1469SOL    HW116040   4.461   0.701   8.200 -0.1364  0.5773 -2.0816
 1469SOL    HW216041   4.315   0.665   8.182 -0.4553 -0.6630  0.5669
 1470SOL     OW16042   2.982   1.602   1.729  0.4863 -0.1021  0.2280
 1470SOL    HW116043   2.970   1.687   1.685  1.8742 -0.0691 -0.1099
 1470SOL    HW216044   3.008   1.630   1.817  1.6863  1.2767 -0.5608
 1471SOL     OW16045   0.808   1.921   6.476 -0.1853  0.0693 -0.0623
 1471SOL    HW116046   0.792   1.973   6.554  0.9096 -1.2060  1.0002
 1471SOL    HW216047   0.759   1.844   6.504 -0.3859  0.0054 -0.5783
 1472SOL     OW16048   4.098   3.897   2.411 -0.1591  0.3219  0.4716
 1472SOL    HW116049   4.011   3.915   2.375  0.1246  0.9396  0.1049
 1472SOL    HW216050   4.153   3.857   2.344 -1.6644  0.8024 -1.0521
 1473SOL     OW16051   4.352   4.081   4.085  0.4697 -0.1863  0.0285
 1473SOL    HW116052   4.447   4.072   4.091  0.3141 -1.1818  1.2286
 1473SOL    HW216053   4.338   4.099   4.178  0.9257 -1.0852  0.2686
 1474SOL     OW16054   0.083   0.130  14.486  0.0952  0.7799 -0.4009
 1474SOL    HW116055   0.124   0.137  14.400 -2.4776 -1.7040 -1.8511
 1474SOL    HW216056   0.073   0.035  14.487 -1.0069  0.8876 -1.0680
 1475SOL     OW16057   2.529   2.308   2.986  0.2218 -0.3279  0.3636
 1475SOL    HW116058   2.573   2.272   3.063 -1.6847 -0.7028  1.2983
 1475SOL    HW216059   2.468   2.365   3.034 -2.2266 -0.4919 -2.5553
 1476SOL     OW16060   2.361   1.717  14.736  0.5444  0.4500  0.9298
 1476SOL    HW116061   2.268   1.718  14.714  0.6486 -1.3601  0.4148
 1476SOL    HW216062   2.379   1.808  14.761  0.4284  1.7890 -3.8899
 1477SOL     OW16063   0.065   2.239   3.966  0.3708 -0.4037  0.0124
 1477SOL    HW116064   4.705   2.229   3.979  0.0751  1.0267 -1.0351
 1477SOL    HW216065   0.105   2.247   4.053  0.8207 -0.1751 -0.2146
 1478SOL     OW16066   4.579   3.057   7.788  0.2940  0.1163 -0.1774
 1478SOL    HW116067   4.627   3.131   7.752  0.9119  0.2683  0.9454
 1478SOL    HW216068   4.530   3.043   7.707  0.3522  0.7023 -0.3161
 1479SOL     OW16069   1.965   0.128   5.082  0.1195 -0.2051  0.1672
 1479SOL    HW116070   2.052   0.151   5.051  0.2625 -1.7609 -0.6171
 1479SOL    HW216071   1.977   0.036   5.106  2.4930  0.5048  1.6906
 1480SOL     OW16072   4.094   1.630   7.897  0.1745  0.3962  0.5012
 1480SOL    HW116073   4.183   1.598   7.882 -0.1537 -1.0026  1.5605
 1480SOL    HW216074   4.062   1.571   7.965 -0.3084 -0.0543 -0.1133
 1481SOL     OW16075   1.919   4.685   8.904  0.1037 -0.2272  0.4936
 1481SOL    HW116076   1.866   4.710   8.828  1.2209 -0.5027 -0.3822
 1481SOL    HW216077   1.930   4.592   8.883  0.2152 -0.2271  0.5532
 1482SOL     OW16078   0.592   1.843   2.826  0.8116 -0.1685  0.7423
 1482SOL    HW116079   0.654   1.772   2.809  1.1438  0.7605 -1.9401
 1482SOL    HW216080   0.514   1.795   2.856 -1.7616  2.4285 -1.7958
 1483SOL     OW16081   2.054   1.624   0.002 -0.0935 -0.0775 -0.1466
 1483SOL    HW116082   2.014   1.704   0.037 -0.3139  1.0840 -2.9958
 1483SOL    HW216083   2.011   1.552   0.048  1.8796 -0.9151  0.3667
 1484SOL     OW16084   1.124   3.375   1.797  0.0414  0.3782 -0.1074
 1484SOL    HW116085   1.097   3.465   1.813 -1.4527  0.2893 -2.1347
 1484SOL    HW216086   1.170   3.375   1.714 -2.1318 -1.3450 -1.3283
 1485SOL     OW16087   3.585   2.414  16.976 -0.4607  0.3939 -0.2936
 1485SOL    HW116088   3.673   2.452  16.973 -1.1748  2.1645  1.4374
 1485SOL    HW216089   3.570   2.436  17.068  1.5518  3.3357 -0.6515
 1486SOL     OW16090   4.119   3.707   6.927  0.6279  0.7646 -0.8662
 1486SOL    HW116091   4.095   3.621   6.892  2.4223 -0.2158  0.2601
 1486SOL    HW216092   4.097   3.764   6.854  0.7170  0.7035 -0.9403
 1487SOL     OW16093   0.741   3.943  15.836 -0.3386 -0.4290  0.3687
 1487SOL    HW116094   0.760   3.871  15.776 -0.4210  0.6692 -0.9699
 1487SOL    HW216095   0.744   4.025  15.788  1.5192 -0.1292  0.9874
 1488SOL     OW16096   4.127   0.972  15.280 -0.2982 -0.2722  0.3785
 1488SOL    HW116097   4.105   0.997  15.190  1.5879  0.9547  0.2540
 1488SOL    HW216098   4.205   0.917  15.278 -0.9576 -1.1735 -0.6170
 1489SOL     OW16099   4.666   1.693   2.295 -0.1900 -0.8009 -0.1545
 1489SOL    HW116100   4.668   1.617   2.354  1.4596  1.1815  2.3263
 1489SOL    HW216101   0.026   1.707   2.283 -0.6258  2.4155  0.2396
 1490SOL     OW16102   3.944   1.148   3.670  0.2731 -0.2917  0.8530
 1490SOL    HW116103   3.919   1.187   3.753  0.8678 -1.4707  1.6048
 1490SOL    HW216104   3.870   1.090   3.656 -1.3154  1.7158  1.0396
 1491SOL     OW16105   3.952   2.940  13.811 -0.0755 -0.3124 -0.3556
 1491SOL    HW116106   4.006   2.872  13.771  1.5175 -0.9652  2.9880
 1491SOL    HW216107   3.870   2.895  13.830 -1.2889  1.5561 -1.1037
 1492SOL     OW16108   4.390   0.739   6.416 -0.1101  0.1876  0.2319
 1492SOL    HW116109   4.384   0.647   6.390 -2.1421 -0.1836  2.0489
 1492SOL    HW216110   4.317   0.752   6.476  0.3100  1.5508  0.4599
 1493SOL     OW16111   3.862   2.075   3.378  0.4271  0.0800  0.5659
 1493SOL    HW116112   3.803   2.010   3.415  0.1727 -0.9421 -1.6349
 1493SOL    HW216113   3.937   2.067   3.437 -0.7755 -3.0035  1.7092
 1494SOL     OW16114   1.062   0.222  11.740 -0.3123 -0.0500  0.0795
 1494SOL    HW116115   1.109   0.196  11.819 -0.1194 -1.7547 -0.5919
 1494SOL    HW216116   1.115   0.187  11.668 -0.5432 -0.2363 -0.0001
 1495SOL     OW16117   4.491   0.662   5.091  0.2930  0.3257  0.2814
 1495SOL    HW116118   4.563   0.655   5.028  0.3664 -1.9420  0.6275
 1495SOL    HW216119   4.448   0.577   5.096  0.2983  0.4601  2.5744
 1496SOL     OW16120   1.855   2.944   2.873  0.9203  0.8284 -0.3429
 1496SOL    HW116121   1.793   2.893   2.925  1.9311 -0.0059  0.0247
 1496SOL    HW216122   1.854   2.890   2.794 -1.0413  1.2262 -0.6059
 1497SOL     OW16123   2.975   3.867   1.765 -0.0820 -0.1676 -0.5201
 1497SOL    HW116124   3.049   3.875   1.826  0.1814 -0.6781 -0.7669
 1497SOL    HW216125   2.966   3.772   1.753 -0.2579 -0.4627  1.8736
 1498SOL     OW16126   0.183   0.715   3.409  0.0560 -0.1010  0.1967
 1498SOL    HW116127   0.095   0.750   3.424 -0.3477 -1.0203 -0.0260
 1498SOL    HW216128   0.189   0.637   3.464 -2.3460 -0.4445 -0.0193
 1499SOL     OW16129   2.565   0.706   3.482 -0.1730 -0.3849  0.4677
 1499SOL    HW116130   2.600   0.652   3.412 -0.4155  2.8994 -2.1987
 1499SOL    HW216131   2.505   0.756   3.426  2.0146  1.9437  0.2297
 1500SOL     OW16132   3.742   1.406   5.446 -0.6405 -0.3425 -0.3383
 1500SOL    HW116133   3.828   1.401   5.406  0.3282 -0.5433  1.7613
 1500SOL    HW216134   3.699   1.339   5.393 -0.1676 -1.2073  0.3776
 1501SOL     OW16135   1.181   4.141   3.050 -1.0274 -0.6352 -0.3800
 1501SOL    HW116136   1.113   4.078   3.075  0.1628 -1.3759  0.9608
 1501SOL    HW216137   1.246   4.071   3.041  0.5341  0.2270  4.4356
 1502SOL     OW16138   4.360   2.568   2.804 -0.3005  0.0305 -0.4757
 1502SOL    HW116139   4.311   2.611   2.734  1.1759  1.9619 -0.2908
 1502SOL    HW216140   4.443   2.568   2.756  0.3966 -1.1285  0.7444
 1503SOL     OW16141   1.220   2.772   6.271 -0.1308  0.4825  0.2819
 1503SOL    HW116142   1.167   2.716   6.214 -0.8927 -0.0120  1.4810
 1503SOL    HW216143   1.304   2.727   6.266 -0.5209 -0.2231  0.1544
 1504SOL     OW16144   0.297   2.596   2.028  0.2878  0.3410 -0.2369
 1504SOL    HW116145   0.273   2.686   2.008 -1.8692 -0.6580 -2.2258
 1504SOL    HW216146   0.230   2.552   1.975 -0.4628  1.7485 -0.4360
 1505SOL     OW16147   4.415   2.761  11.199 -0.0710 -0.0031  0.5781
 1505SOL    HW116148   4.403   2.670  11.228 -0.7912  0.1464  0.7396
 1505SOL    HW216149   4.322   2.786  11.199 -0.1009 -0.0965 -1.7845
 1506SOL     OW16150   1.957   3.511   6.111 -0.1388  0.4747 -0.3238
 1506SOL    HW116151   2.035   3.456   6.108  0.8087  1.8380 -1.2087
 1506SOL    HW216152   1.935   3.516   6.204 -0.3823  0.0893 -0.3624
 1507SOL     OW16153   1.137   3.210   9.903 -0.4099 -0.1593  0.3330
 1507SOL    HW116154   1.138   3.305   9.910 -1.8218 -0.0441 -1.0430
 1507SOL    HW216155   1.080   3.183   9.975  0.4415  1.7686  1.7160
 1508SOL     OW16156   0.285   2.834   1.651 -0.0987  0.6621 -0.2424
 1508SOL    HW116157   0.325   2.749   1.633 -0.6040  0.7978 -1.9385
 1508SOL    HW216158   0.218   2.845   1.583 -1.0516  0.9731  0.7444
 1509SOL     OW16159   1.529   4.715   8.493  0.1868 -0.7526  0.0004
 1509SOL    HW116160   1.439   4.681   8.488  0.0144 -0.6354  2.2349
 1509SOL    HW216161   1.524   0.065   8.447 -2.8188 -1.0961 -0.2977
 1510SOL     OW16162   3.829   1.801   2.863 -0.0231 -0.0491  0.2520
 1510SOL    HW116163   3.758   1.833   2.807  0.1605 -0.0435  0.0271
 1510SOL    HW216164   3.897   1.867   2.849 -0.0365 -0.1947 -0.4640
 1511SOL     OW16165   3.704   4.685   0.314 -0.4698 -0.6008  0.8269
 1511SOL    HW116166   3.674   4.682   0.223 -0.5426 -1.8862  0.8928
 1511SOL    HW216167   3.639   0.013   0.348  1.3873  2.3782 -1.0924
 1512SOL     OW16168   4.131   2.250  10.144  0.1307 -0.2040 -0.4160
 1512SOL    HW116169   4.072   2.314  10.103  1.8163 -0.6795 -3.6168
 1512SOL    HW216170   4.074   2.175  10.158  2.0337 -1.4277  0.7381
 1513SOL     OW16171   2.636   2.110  12.471 -0.1040  1.3373 -0.3135
 1513SOL    HW116172   2.695   2.176  12.435 -0.7244  0.3838 -3.0924
 1513SOL    HW216173   2.556   2.132  12.423  0.0420  1.7928 -0.3513
 1514SOL     OW16174   1.061   1.151   4.040 -0.4583 -0.2478  0.1776
 1514SOL    HW116175   0.994   1.106   3.989 -0.4117  0.8425 -0.8351
 1514SOL    HW216176   1.116   1.173   3.965  0.3860 -0.6277  0.6826
 1515SOL     OW16177   1.259   0.925   1.664 -0.7185  0.2905 -0.0167
 1515SOL    HW116178   1.287   1.012   1.637 -0.6518 -0.0471 -1.0419
 1515SOL    HW216179   1.337   0.877   1.691 -1.3029 -0.8456 -0.3203
 1516SOL     OW16180   1.506   3.267   5.503  0.2463  0.1959 -0.8669
 1516SOL    HW116181   1.474   3.201   5.442 -1.5774  0.7484 -0.5018
 1516SOL    HW216182   1.451   3.265   5.582  0.4659  0.6043 -0.7016
 1517SOL     OW16183   3.750   0.951   3.706 -0.4458  0.0198  0.2401
 1517SOL    HW116184   3.706   0.866   3.714 -1.6016  0.9390  3.3370
 1517SOL    HW216185   3.822   0.929   3.765  0.0729  1.8634  0.2737
 1518SOL     OW16186   0.574   3.421   7.396  0.1371 -0.3502  0.0379
 1518SOL    HW116187   0.529   3.505   7.384  1.4047  0.4009  0.6210
 1518SOL    HW216188   0.581   3.388   7.306 -0.2650 -2.5616  0.8223
 1519SOL     OW16189   0.405   2.604  17.194  0.2194  0.2819  0.2636
 1519SOL    HW116190   0.427   2.520  17.235 -0.3660  0.2810  0.5743
 1519SOL    HW216191   0.424   2.668  17.262 -2.5823  0.7435  0.6122
 1520SOL     OW16192   2.736   2.290   5.134 -0.2031 -0.1656 -0.7247
 1520SOL    HW116193   2.813   2.309   5.081  0.1342 -0.5074 -0.3615
 1520SOL    HW216194   2.729   2.195   5.125  1.8618 -0.6061  2.3075
 1521SOL     OW16195   3.896   2.346   2.367  0.2764  0.2870  0.2145
 1521SOL    HW116196   3.911   2.266   2.317 -0.3985  0.0082  0.4653
 1521SOL    HW216197   3.867   2.306   2.449  1.2649  1.2061  1.0248
 1522SOL     OW16198   2.284   0.482  16.196 -0.1604 -0.8033  0.0281
 1522SOL    HW116199   2.357   0.423  16.210  0.4022 -0.1128 -0.0068
 1522SOL    HW216200   2.205   0.436  16.224 -0.4511  0.8654  1.9741
 1523SOL     OW16201   3.664   2.697   2.127 -0.6258  0.6391 -0.1220
 1523SOL    HW116202   3.708   2.780   2.113 -3.0430  1.9741  0.2554
 1523SOL    HW216203   3.707   2.659   2.204 -3.3993  0.8379  1.5234
 1524SOL     OW16204   2.515   0.603   6.477 -0.0219 -0.4895 -0.4726
 1524SOL    HW116205   2.439   0.546   6.477 -2.7311  3.1104 -0.0982
 1524SOL    HW216206   2.509   0.646   6.562 -0.1524 -1.0330 -0.2093
 1525SOL     OW16207   2.702   3.631  15.487  0.2283  0.0545  0.0706
 1525SOL    HW116208   2.710   3.726  15.474 -0.8793  0.4832  2.6873
 1525SOL    HW216209   2.615   3.625  15.525 -0.3282  0.1906 -1.1689
 1526SOL     OW16210   0.744   2.261   7.874  0.3727  0.1456  0.2694
 1526SOL    HW116211   0.726   2.342   7.923 -0.0436  0.2798 -0.1004
 1526SOL    HW216212   0.744   2.295   7.784 -0.0866 -0.8489 -0.1071
 1527SOL     OW16213   3.928   0.641  11.882 -0.4416 -0.2147  0.2445
 1527SOL    HW116214   3.918   0.646  11.978 -3.0581 -2.0988  0.0780
 1527SOL    HW216215   4.021   0.664  11.873  0.3227 -1.8094  3.8127
 1528SOL     OW16216   1.450   0.313  12.074 -0.0649 -0.2443 -0.3961
 1528SOL    HW116217   1.510   0.384  12.099  1.9793 -1.8742 -0.6077
 1528SOL    HW216218   1.502   0.232  12.070 -0.6117 -0.5120 -2.3868
 1529SOL     OW16219   2.585   3.486   7.074  0.2110 -0.5249 -0.2669
 1529SOL    HW116220   2.575   3.421   7.144  0.3548 -0.3057 -0.0412
 1529SOL    HW216221   2.525   3.449   7.010 -1.5071  0.1872  0.9362
 1530SOL     OW16222   0.651   3.608   3.564 -0.3928  0.0597  0.6983
 1530SOL    HW116223   0.694   3.545   3.506  0.8366  1.6532 -0.1318
 1530SOL    HW216224   0.722   3.659   3.602  0.1005  0.0148 -0.1734
 1531SOL     OW16225   2.027   0.004   4.636 -0.6520  0.1658 -0.1039
 1531SOL    HW116226   2.114   0.036   4.613 -0.3904 -0.2027  0.3802
 1531SOL    HW216227   2.028   4.646   4.663  0.6900  0.0961 -0.3928
 1532SOL     OW16228   4.514   2.581   4.648 -0.0347  0.2115 -0.1170
 1532SOL    HW116229   4.435   2.556   4.696  0.3274 -1.5074 -0.3946
 1532SOL    HW216230   4.542   2.656   4.699 -0.8098 -0.6721  1.6054
 1533SOL     OW16231   3.157   1.513   3.450 -0.1311 -0.2749  0.9825
 1533SOL    HW116232   3.158   1.451   3.377 -1.0754  0.5499  0.2568
 1533SOL    HW216233   3.065   1.506   3.477 -0.5722 -1.6252 -0.8642
 1534SOL     OW16234   1.460   2.727   5.371 -0.3550  0.2114  0.5200
 1534SOL    HW116235   1.495   2.755   5.286  2.3873  0.7213  1.8080
 1534SOL    HW216236   1.539   2.741   5.423 -1.9967  0.8907  2.8219
 1535SOL     OW16237   2.969   1.812   3.306  0.6156 -0.1415 -0.5207
 1535SOL    HW116238   2.883   1.809   3.264  0.8146 -2.8860 -0.7770
 1535SOL    HW216239   2.970   1.719   3.331 -0.5030 -0.4542 -1.6345
 1536SOL     OW16240   0.423   4.056   3.581 -0.2191 -0.2271  0.4611
 1536SOL    HW116241   0.350   4.055   3.518 -0.4790 -0.7135  0.7697
 1536SOL    HW216242   0.392   4.004   3.655 -0.2742 -1.6025 -0.5161
 1537SOL     OW16243   2.423   0.743   6.710 -0.2852 -0.1610  0.0750
 1537SOL    HW116244   2.434   0.832   6.742  0.5271 -0.1304 -0.2999
 1537SOL    HW216245   2.408   0.698   6.793 -0.2716 -1.4552 -0.6201
 1538SOL     OW16246   1.583   3.772   7.972 -0.2410  0.0813  0.3168
 1538SOL    HW116247   1.674   3.770   8.000 -0.0465 -1.8483 -0.4641
 1538SOL    HW216248   1.577   3.694   7.917  1.1578  1.3762 -1.6713
 1539SOL     OW16249   1.299   2.640  10.332  0.6266  0.2720 -0.8476
 1539SOL    HW116250   1.335   2.556  10.301 -3.0241 -0.9064 -1.8744
 1539SOL    HW216251   1.240   2.659  10.259  0.7038  3.2848 -0.1024
 1540SOL     OW16252   4.699   4.653   2.546  0.4419 -0.3805 -0.1159
 1540SOL    HW116253   4.647   4.733   2.543  1.6411  0.3924 -0.2287
 1540SOL    HW216254   0.053   4.687   2.559 -0.0937  1.6185 -1.6573
 1541SOL     OW16255   0.173   4.420   8.787  0.0877  0.3669 -0.0579
 1541SOL    HW116256   0.111   4.489   8.810  1.3926  1.3961  0.3897
 1541SOL    HW216257   0.111   4.353   8.759 -0.6631  0.5747  1.1006
 1542SOL     OW16258   3.082   2.432   1.992 -0.5653 -0.0444  0.6023
 1542SOL    HW116259   3.097   2.342   1.962  0.7162  0.3366  0.1123
 1542SOL    HW216260   3.049   2.471   1.911 -2.1163  2.3142  2.3860
 1543SOL     OW16261   1.916   4.356   2.198  0.0936 -0.2124 -0.3236
 1543SOL    HW116262   1.876   4.288   2.145 -1.2916  0.3837 -0.0396
 1543SOL    HW216263   1.998   4.310   2.216 -0.3049 -2.3160 -4.0596
 1544SOL     OW16264   2.974   4.159  16.372  0.6088  0.2308  0.0644
 1544SOL    HW116265   2.908   4.209  16.324  1.9806 -0.3636 -2.4470
 1544SOL    HW216266   3.021   4.220  16.429 -0.9572 -1.1516  2.7862
 1545SOL     OW16267   0.375   0.951  13.065 -0.1088 -0.3331  0.4194
 1545SOL    HW116268   0.387   1.046  13.063 -0.3801 -0.3064  0.1265
 1545SOL    HW216269   0.285   0.947  13.099  0.4393 -1.3731  1.7459
 1546SOL     OW16270   0.239   4.190  11.000 -0.2933 -0.3149  0.6840
 1546SOL    HW116271   0.313   4.182  10.939 -0.5385  0.9237  0.2208
 1546SOL    HW216272   0.217   4.099  11.017 -1.1076 -0.0624  0.9899
 1547SOL     OW16273   4.667   4.003   6.919 -0.1616  0.1126  0.3224
 1547SOL    HW116274   4.572   4.013   6.912 -0.2086  1.0406  2.0780
 1547SOL    HW216275   4.675   4.034   7.009  0.1782 -0.1691  0.3918
 1548SOL     OW16276   4.450   3.048   7.523  0.3471 -0.4400 -0.4595
 1548SOL    HW116277   4.470   2.960   7.493  1.0119 -1.2500  2.3848
 1548SOL    HW216278   4.447   3.092   7.438 -1.3613 -0.7429 -0.5510
 1549SOL     OW16279   0.055   2.603   8.709 -0.0935  0.5392 -0.1378
 1549SOL    HW116280   0.026   2.632   8.796 -1.0017 -0.3639 -0.1439
 1549SOL    HW216281   0.147   2.629   8.714 -0.4908  1.6229  1.9438
 1550SOL     OW16282   2.412   0.428   4.633 -0.3184  0.2726 -1.0929
 1550SOL    HW116283   2.329   0.387   4.608  0.2528  0.9174 -4.0543
 1550SOL    HW216284   2.443   0.459   4.548 -0.7083 -0.7476 -1.6198
 1551SOL     OW16285   0.152   3.613  17.189 -0.0849  0.3701  0.1908
 1551SOL    HW116286   0.093   3.539  17.203 -0.0826 -0.0845 -2.1988
 1551SOL    HW216287   0.138   3.631  17.096 -0.9153  3.9471  1.0144
 1552SOL     OW16288   1.771   0.795   7.305 -0.0985  0.1475  0.4552
 1552SOL    HW116289   1.747   0.831   7.389  4.2108  2.0191  0.8959
 1552SOL    HW216290   1.849   0.742   7.321 -0.2654 -1.0861 -2.7749
 1553SOL     OW16291   1.086   2.410  11.359 -0.1169  0.1893  0.0921
 1553SOL    HW116292   1.150   2.424  11.289  0.9589  1.3440  1.3091
 1553SOL    HW216293   1.043   2.330  11.328 -1.3560  0.9620 -0.1865
 1554SOL     OW16294   4.180   3.385   1.142 -0.6234 -0.3099  0.1547
 1554SOL    HW116295   4.133   3.347   1.068 -0.0106 -0.2886 -0.2483
 1554SOL    HW216296   4.171   3.311   1.202 -2.9541  0.4391  0.7291
 1555SOL     OW16297   1.742   0.020   4.093  0.0273 -0.6641 -0.0605
 1555SOL    HW116298   1.682   0.051   4.162  1.2133  2.4227 -0.4211
 1555SOL    HW216299   1.763   4.671   4.136  1.9070 -1.8234 -3.3056
 1556SOL     OW16300   3.156   1.639   5.416  0.0482  0.0091 -0.2264
 1556SOL    HW116301   3.198   1.583   5.349 -0.9794  0.1833 -1.0086
 1556SOL    HW216302   3.079   1.589   5.441 -1.0924  2.3503  0.8793
 1557SOL     OW16303   2.908   1.637   6.528 -0.0070 -0.1959  0.3704
 1557SOL    HW116304   2.857   1.568   6.485 -0.9761  0.2759  0.7779
 1557SOL    HW216305   2.962   1.582   6.585 -0.6491  0.1219  1.2833
 1558SOL     OW16306   0.753   2.876   1.262 -0.1468  0.4517 -0.2451
 1558SOL    HW116307   0.759   2.894   1.168  0.0664  0.0231 -0.3106
 1558SOL    HW216308   0.844   2.884   1.288  0.0986 -1.4449 -0.5626
 1559SOL     OW16309   2.195   1.962   2.373 -0.0135 -0.2015 -0.9647
 1559SOL    HW116310   2.284   1.931   2.356 -0.1405 -1.0395 -0.1328
 1559SOL    HW216311   2.156   1.881   2.407 -0.0189  0.4562  0.5815
 1560SOL     OW16312   1.308   3.334   1.270  0.8450 -0.3251  0.2715
 1560SOL    HW116313   1.342   3.274   1.203 -1.1980 -0.6669 -0.4423
 1560SOL    HW216314   1.325   3.422   1.237  0.9749 -0.8343 -1.0526
 1561SOL     OW16315   4.027   2.197   7.693  0.0404 -0.2002 -0.0943
 1561SOL    HW116316   4.097   2.261   7.706  0.7555 -1.0700  0.3058
 1561SOL    HW216317   3.955   2.252   7.723 -1.0177 -1.4318 -0.3848
 1562SOL     OW16318   4.233   3.107  11.175  0.5104  0.0394  1.2834
 1562SOL    HW116319   4.298   3.167  11.138 -1.7925  1.5047 -0.3717
 1562SOL    HW216320   4.166   3.166  11.207  0.0808  0.6181 -0.6808
 1563SOL     OW16321   1.036   3.455  10.025  0.9339  0.0281  0.2162
 1563SOL    HW116322   0.999   3.518  10.087 -1.1105 -1.9872  1.0264
 1563SOL    HW216323   0.973   3.465   9.954  0.7909  0.5527  0.4169
 1564SOL     OW16324   2.155   0.305   2.533 -0.0356 -0.0032 -0.0413
 1564SOL    HW116325   2.068   0.282   2.565 -0.1767 -1.1112 -1.2250
 1564SOL    HW216326   2.186   0.216   2.522  1.5966  0.6222 -0.5352
 1565SOL     OW16327   4.049   2.969  10.923 -0.0577 -0.6783  0.0981
 1565SOL    HW116328   4.003   3.039  10.877  1.8844  0.2290 -0.4294
 1565SOL    HW216329   4.083   3.004  11.005  0.8484 -0.2985 -0.4463
 1566SOL     OW16330   0.750   2.852  15.272  0.0315  0.3197 -0.1456
 1566SOL    HW116331   0.797   2.778  15.312  2.3242  0.3879 -2.7158
 1566SOL    HW216332   0.662   2.822  15.249  0.0619 -0.7210  1.1033
 1567SOL     OW16333   0.916   2.936   5.261 -0.4136 -0.4739  0.9370
 1567SOL    HW116334   0.917   3.031   5.271 -1.3605  0.0196 -3.6626
 1567SOL    HW216335   0.821   2.928   5.252 -0.2431  0.2714 -1.6074
 1568SOL     OW16336   4.016   4.129  12.640 -0.3485 -0.2091 -0.2556
 1568SOL    HW116337   4.110   4.120  12.624 -0.3766 -2.2434  0.7149
 1568SOL    HW216338   3.999   4.184  12.563  1.9518 -0.4265 -0.9166
 1569SOL     OW16339   4.571   1.104  11.860 -0.1909 -0.5935  0.0609
 1569SOL    HW116340   4.621   1.021  11.862  1.4938  0.4447  1.7291
 1569SOL    HW216341   4.627   1.156  11.918 -2.4047  1.4580  0.3355
 1570SOL     OW16342   3.296   2.888   0.952 -0.4581  0.2846  0.2583
 1570SOL    HW116343   3.326   2.824   1.016 -0.1342  0.6583  0.4798
 1570SOL    HW216344   3.336   2.967   0.987  2.1862 -0.4735 -1.0558
 1571SOL     OW16345   0.578   2.078   5.525 -0.2119  0.6495  0.0206
 1571SOL    HW116346   0.497   2.100   5.572 -0.4324 -1.0647  0.4438
 1571SOL    HW216347   0.572   1.984   5.545 -0.8130  0.5418 -0.6663
 1572SOL     OW16348   2.549   0.669   8.410 -0.3629 -0.1286 -0.0340
 1572SOL    HW116349   2.576   0.754   8.374  0.3520 -0.0482  0.6807
 1572SOL    HW216350   2.552   0.678   8.506 -1.5890 -3.7421  0.3198
 1573SOL     OW16351   4.012   1.908   4.433 -0.1467 -0.1508  0.1738
 1573SOL    HW116352   4.080   1.955   4.481 -0.2026 -1.0236  1.0955
 1573SOL    HW216353   3.931   1.928   4.480 -0.1321 -2.9760  1.4020
 1574SOL     OW16354   2.841   0.303   7.174  0.2433  0.1954 -0.2006
 1574SOL    HW116355   2.817   0.307   7.081 -1.6630  0.1061  0.2745
 1574SOL    HW216356   2.824   0.395   7.197 -1.9168 -0.4702  0.9077
 1575SOL     OW16357   3.980   3.163   3.182 -0.1962 -0.1690  0.0690
 1575SOL    HW116358   3.907   3.144   3.240 -0.0754  2.1462  0.9498
 1575SOL    HW216359   3.970   3.096   3.113 -0.1512 -1.4382  1.2919
 1576SOL     OW16360   0.698   3.195   6.663 -0.0320  0.1764  0.0569
 1576SOL    HW116361   0.725   3.133   6.730 -0.9900  0.0386  0.3059
 1576SOL    HW216362   0.664   3.272   6.709  0.5910  0.9583 -0.7882
 1577SOL     OW16363   0.063   4.197   8.694 -0.3028  0.0483 -0.1702
 1577SOL    HW116364   0.132   4.131   8.690  0.2410  0.6755 -1.3429
 1577SOL    HW216365   4.718   4.151   8.721  0.1458 -0.8688 -0.4159
 1578SOL     OW16366   2.928   3.050   3.916 -0.3857  0.1538 -0.2839
 1578SOL    HW116367   2.940   2.975   3.975 -0.4522  0.3548 -0.0125
 1578SOL    HW216368   3.010   3.095   3.937  0.0766  0.1304 -2.0638
 1579SOL     OW16369   2.832   0.672   1.264 -0.1334 -0.2226 -0.2476
 1579SOL    HW116370   2.910   0.704   1.219  0.2834 -0.6778  0.1516
 1579SOL    HW216371   2.870   0.607   1.323 -1.3746  0.3900  1.2338
 1580SOL     OW16372   2.726   4.202   7.670  0.0524 -0.0159 -0.4044
 1580SOL    HW116373   2.767   4.122   7.637  1.6304  1.1403 -1.2338
 1580SOL    HW216374   2.657   4.224   7.607 -0.2162  1.8057  0.5004
 1581SOL     OW16375   3.705   1.887   3.470 -0.5039  0.0133 -0.2694
 1581SOL    HW116376   3.615   1.880   3.504 -0.9034  0.4304 -1.2321
 1581SOL    HW216377   3.743   1.807   3.507  0.1528  0.4538  0.0071
 1582SOL     OW16378   2.552   3.081  12.535 -0.5596  0.6073 -0.3702
 1582SOL    HW116379   2.576   3.034  12.615 -1.0440 -1.0198 -1.1819
 1582SOL    HW216380   2.483   3.020  12.509  0.0659  0.9735 -2.8684
 1583SOL     OW16381   1.570   3.089   8.310 -0.1628 -0.3293 -0.3788
 1583SOL    HW116382   1.656   3.069   8.273  0.6713  3.1219 -0.3302
 1583SOL    HW216383   1.519   3.120   8.235 -1.2233 -1.7406 -0.2417
 1584SOL     OW16384   1.947   3.980   9.356  0.2568  0.1640  0.0748
 1584SOL    HW116385   1.872   4.008   9.409 -0.3136 -0.4830 -0.3835
 1584SOL    HW216386   1.901   3.964   9.273 -1.1366 -1.5992  1.1784
 1585SOL     OW16387   3.782   3.467  11.957  0.0563  0.0973  0.0538
 1585SOL    HW116388   3.873   3.454  11.931 -0.9384 -2.1727 -2.2067
 1585SOL    HW216389   3.797   3.466  12.052  1.1891 -0.1406 -0.1233
 1586SOL     OW16390   2.779   4.225  11.646 -0.5569 -0.5345  0.3347
 1586SOL    HW116391   2.739   4.201  11.563 -1.5024  0.6188  0.4561
 1586SOL    HW216392   2.865   4.187  11.627  0.4382  2.3934 -1.0672
 1587SOL     OW16393   0.894   2.616   5.893  0.0292  0.4615  0.0593
 1587SOL    HW116394   0.814   2.565   5.882  0.4477 -0.4566  1.2581
 1587SOL    HW216395   0.943   2.598   5.813 -0.2274  1.5205 -0.3343
 1588SOL     OW16396   0.998   4.255  14.231  0.3810  0.1815  0.1021
 1588SOL    HW116397   1.027   4.347  14.228  0.3038  0.1253 -2.4841
 1588SOL    HW216398   0.969   4.238  14.141 -0.4005  1.5357  0.0948
 1589SOL     OW16399   3.487   1.702   8.185  0.0791 -0.0322  0.2107
 1589SOL    HW116400   3.392   1.703   8.170  0.2338  0.5597 -0.7355
 1589SOL    HW216401   3.486   1.769   8.253  2.5954  0.3949 -0.1598
 1590SOL     OW16402   1.137   1.059   1.949 -0.2102 -0.3953 -0.1560
 1590SOL    HW116403   1.228   1.069   1.977 -1.0355  1.3829  1.8814
 1590SOL    HW216404   1.145   1.014   1.864  1.3603  1.2723 -0.8967
 1591SOL     OW16405   4.124   4.388   5.413 -0.0943  0.3490 -0.1969
 1591SOL    HW116406   4.077   4.311   5.378  0.8840  0.3808 -1.5850
 1591SOL    HW216407   4.078   4.402   5.495 -0.7498 -1.4525 -0.2475
 1592SOL     OW16408   0.040   1.915  17.485 -0.0858 -0.8917  0.3419
 1592SOL    HW116409   0.061   1.947  17.397 -0.7968 -0.2260  0.4127
 1592SOL    HW216410   0.083   1.831  17.502  0.1807 -0.7797  0.2181
 1593SOL     OW16411   4.644   0.876   7.069  0.1857  0.6034  0.2123
 1593SOL    HW116412   4.553   0.895   7.045 -0.0987 -0.4668  0.4605
 1593SOL    HW216413   4.672   0.850   6.982  0.1932  0.5344  0.2350
 1594SOL     OW16414   0.582   1.743   1.989 -0.0288  0.3565 -0.2104
 1594SOL    HW116415   0.495   1.773   2.012 -0.1045 -0.8933  1.1573
 1594SOL    HW216416   0.566   1.677   1.921  1.6290  0.9843 -1.2242
 1595SOL     OW16417   2.223   4.409   7.025 -0.3109  0.4694 -0.2782
 1595SOL    HW116418   2.181   4.490   6.995 -0.1201  0.7306  0.1629
 1595SOL    HW216419   2.164   4.384   7.096 -0.6657 -2.4496 -1.5922
 1596SOL     OW16420   0.899   1.212   7.740 -0.1842  0.0515 -0.0494
 1596SOL    HW116421   0.928   1.179   7.654  1.9931  0.1056  0.6660
 1596SOL    HW216422   0.967   1.181   7.800  0.0428  0.9446  0.1478
 1597SOL     OW16423   3.172   1.544   1.455  0.3831 -0.0329 -0.1097
 1597SOL    HW116424   3.175   1.450   1.439  3.0547 -0.3797  2.5706
 1597SOL    HW216425   3.080   1.570   1.447  0.5760  0.7710  0.2581
 1598SOL     OW16426   0.973   2.609   6.193  0.0176  0.3495  0.2134
 1598SOL    HW116427   1.037   2.548   6.156 -0.3127  1.4197 -2.0559
 1598SOL    HW216428   0.929   2.636   6.113  0.8141 -0.2047 -0.4072
 1599SOL     OW16429   2.919   2.896  12.997 -0.1616 -0.4198 -0.6632
 1599SOL    HW116430   2.969   2.972  12.966  0.5342 -0.2433  0.8702
 1599SOL    HW216431   2.830   2.930  12.991 -0.4871 -1.3143 -0.9223
 1600SOL     OW16432   2.392   2.292   7.813  0.0071  0.0732  0.0895
 1600SOL    HW116433   2.394   2.297   7.909  0.1216 -0.9728  0.1360
 1600SOL    HW216434   2.299   2.309   7.798  0.1677  1.6763  0.8933
 1601SOL     OW16435   4.250   4.345   9.918  0.2745 -0.0369 -0.6871
 1601SOL    HW116436   4.240   4.412   9.985 -1.9932  0.7832 -1.8644
 1601SOL    HW216437   4.321   4.298   9.962  0.4164  0.1852 -0.6808
 1602SOL     OW16438   0.463   1.792   6.477 -0.2122  0.2326 -0.1482
 1602SOL    HW116439   0.413   1.718   6.511 -1.6353  0.4776 -1.7269
 1602SOL    HW216440   0.407   1.820   6.404  1.8476  1.1190 -1.4093
 1603SOL     OW16441   3.917   2.469  12.463 -0.0317  0.1593 -0.2465
 1603SOL    HW116442   3.885   2.542  12.516  2.7642  0.1214  1.4860
 1603SOL    HW216443   4.008   2.471  12.492  0.3341  1.9608 -1.5384
 1604SOL     OW16444   2.669   1.805   6.697 -0.5825  0.4975 -0.0500
 1604SOL    HW116445   2.764   1.814   6.688 -0.3261  1.0292  3.3857
 1604SOL    HW216446   2.668   1.718   6.738  0.2753  1.1803  1.3821
 1605SOL     OW16447   4.167   0.482   6.137 -0.5688 -0.2583  0.4705
 1605SOL    HW116448   4.167   0.577   6.123  0.4945 -0.6721 -2.2028
 1605SOL    HW216449   4.230   0.479   6.209  1.2926 -1.4767 -1.2263
 1606SOL     OW16450   0.319   1.472  14.807 -0.2553 -0.5603 -0.1071
 1606SOL    HW116451   0.331   1.500  14.897  0.7109  0.5052 -0.5627
 1606SOL    HW216452   0.372   1.393  14.800 -0.3102 -0.4637 -1.6894
 1607SOL     OW16453   1.045   0.457   3.714 -0.3001 -0.4476 -0.5653
 1607SOL    HW116454   0.967   0.401   3.715  0.1626 -1.0764  0.2518
 1607SOL    HW216455   1.038   0.481   3.621 -0.7493 -0.6493 -0.5807
 1608SOL     OW16456   1.764   0.603  13.471 -0.4387  0.0292 -0.3859
 1608SOL    HW116457   1.751   0.509  13.458  2.8875 -0.7245  2.0166
 1608SOL    HW216458   1.752   0.603  13.566 -0.7844  0.6568 -0.4308
 1609SOL     OW16459   4.714   4.622   9.070 -0.0445 -0.0244  0.4033
 1609SOL    HW116460   0.051   4.640   9.009  0.7722  1.2262  1.7270
 1609SOL    HW216461   0.021   4.552   9.121 -2.1824 -1.1166  0.6284
 1610SOL     OW16462   1.284   3.350   7.722  0.3080  0.2485  0.8162
 1610SOL    HW116463   1.276   3.258   7.747 -0.7776  0.3624  0.8839
 1610SOL    HW216464   1.347   3.340   7.650 -0.0045  0.2934  0.5378
 1611SOL     OW16465   3.765   4.530   2.320  0.0034 -0.2024 -0.8950
 1611SOL    HW116466   3.691   4.482   2.357  0.8368  0.1163  1.1994
 1611SOL    HW216467   3.776   4.470   2.246 -2.6043 -2.0521  0.2013
 1612SOL     OW16468   0.751   4.262  10.460 -0.2835  0.1406 -0.0180
 1612SOL    HW116469   0.799   4.285  10.380  0.7085  2.1427  1.1484
 1612SOL    HW216470   0.827   4.238  10.513  2.4003  0.2693 -3.7874
 1613SOL     OW16471   1.117   4.020  13.738 -0.0825 -0.2083  0.2618
 1613SOL    HW116472   1.134   3.945  13.680  0.8056 -0.5804  1.0056
 1613SOL    HW216473   1.021   4.022  13.742 -0.0137 -0.1030  1.8550
 1614SOL     OW16474   0.617   0.729  14.205 -0.4765 -0.9759  0.6809
 1614SOL    HW116475   0.596   0.652  14.152  3.4001 -1.1166 -0.6506
 1614SOL    HW216476   0.629   0.796  14.139  1.1008 -2.0082 -0.0744
 1615SOL     OW16477   4.271   3.012  10.601  0.4435 -0.1927 -0.2600
 1615SOL    HW116478   4.187   3.055  10.583 -0.5913 -2.3650 -0.5858
 1615SOL    HW216479   4.320   3.090  10.576  0.1181 -0.0863 -0.5782
 1616SOL     OW16480   0.314   0.975   3.497  0.0394 -0.5875  0.1451
 1616SOL    HW116481   0.250   0.915   3.533  0.2013 -1.0689 -0.3629
 1616SOL    HW216482   0.388   0.981   3.557  0.8037  0.9943 -0.9384
 1617SOL     OW16483   3.073   2.732   6.403  0.3883  0.2026  0.1831
 1617SOL    HW116484   3.020   2.712   6.326  1.5784 -4.0929  0.4588
 1617SOL    HW216485   3.011   2.719   6.475  0.6033 -1.7900  0.0104
 1618SOL     OW16486   4.526   3.474   9.971 -0.8103 -0.0170  0.3147
 1618SOL    HW116487   4.458   3.531  10.008  0.6077  1.9394 -0.0847
 1618SOL    HW216488   4.575   3.536   9.917 -1.9921 -1.2167 -2.1406
 1619SOL     OW16489   4.251   1.961   8.985 -0.1096  0.5929 -0.3839
 1619SOL    HW116490   4.345   1.945   8.979 -0.1699  0.4852 -1.0291
 1619SOL    HW216491   4.213   1.943   8.899  0.4419  2.4591 -1.0396
 1620SOL     OW16492   0.509   4.221  17.360 -0.2560  0.1935  0.3830
 1620SOL    HW116493   0.415   4.223  17.347  0.0161  0.0673 -1.6267
 1620SOL    HW216494   0.537   4.138  17.323 -0.7008 -0.3745  1.3198
 1621SOL     OW16495   3.071   4.570   5.752  0.5519 -0.0257  0.0753
 1621SOL    HW116496   3.074   4.603   5.663  0.3713 -2.0396 -0.6892
 1621SOL    HW216497   3.016   4.638   5.790 -0.3403 -1.5103  1.4323
 1622SOL     OW16498   1.386   1.159   2.025 -0.3102  0.1103  0.0847
 1622SOL    HW116499   1.464   1.104   2.012  0.9422  2.0667 -0.6016
 1622SOL    HW216500   1.360   1.192   1.939  0.3123  0.7603  0.1467
 1623SOL     OW16501   4.510   4.562   2.929 -0.0267  0.1591  0.0759
 1623SOL    HW116502   4.459   4.642   2.915 -0.3849 -0.0606  0.1231
 1623SOL    HW216503   4.447   4.494   2.907 -2.3482  1.8718  1.4044
 1624SOL     OW16504   0.417   4.399   7.425 -0.2298 -0.0048  0.3891
 1624SOL    HW116505   0.488   4.361   7.477  1.1747  1.6199 -0.3772
 1624SOL    HW216506   0.408   4.327   7.363 -0.6344  1.8678 -1.7280
 1625SOL     OW16507   1.694   1.345   3.505  0.0289 -0.2978 -0.2527
 1625SOL    HW116508   1.688   1.251   3.492  2.5510 -0.6549  1.1075
 1625SOL    HW216509   1.678   1.374   3.415  0.9837 -0.1068 -0.3686
 1626SOL     OW16510   3.385   2.191   3.722  0.3163  0.4768  0.4325
 1626SOL    HW116511   3.471   2.165   3.686 -0.1334  1.6500 -1.4981
 1626SOL    HW216512   3.335   2.128   3.670 -0.8380  1.7634 -0.0100
 1627SOL     OW16513   1.597   0.081   8.026 -0.5143 -0.2398  0.3795
 1627SOL    HW116514   1.591   4.730   8.069  0.4487 -0.0381  0.9055
 1627SOL    HW216515   1.665   0.129   8.074  1.3096 -0.2827 -2.1421
 1628SOL     OW16516   3.215   1.127   2.342  0.3068 -0.7050  0.1485
 1628SOL    HW116517   3.163   1.074   2.281  1.2013 -0.2452 -1.0114
 1628SOL    HW216518   3.151   1.191   2.372  0.3042  0.3447 -2.1356
 1629SOL     OW16519   1.235   2.692  15.943 -0.2859  0.0584  0.0290
 1629SOL    HW116520   1.276   2.762  15.893  1.6168  0.0973  1.6195
 1629SOL    HW216521   1.197   2.639  15.873 -1.8247  1.0438  0.1259
 1630SOL     OW16522   1.258   3.104   9.326  0.4962  0.0776 -0.2909
 1630SOL    HW116523   1.238   3.143   9.241 -1.4544  0.8429  0.5087
 1630SOL    HW216524   1.320   3.166   9.365  0.2233  0.6559 -0.7710
 1631SOL     OW16525   3.241   0.949  17.571  0.1510  0.4813  0.0558
 1631SOL    HW116526   3.316   0.914  17.619  1.6368  1.4221 -1.5894
 1631SOL    HW216527   3.239   1.033  17.617  0.0744 -0.1041  1.1171
 1632SOL     OW16528   1.560   1.568   0.176 -0.2086 -0.1032 -0.4119
 1632SOL    HW116529   1.507   1.490   0.164  0.2109 -0.7259  1.9457
 1632SOL    HW216530   1.507   1.626   0.120 -0.1170  1.6295  1.3060
 1633SOL     OW16531   4.326   0.761   2.285  0.1208  0.0424  0.0092
 1633SOL    HW116532   4.417   0.779   2.261  0.2518  0.9766  1.2115
 1633SOL    HW216533   4.352   0.690   2.342  2.4268  1.3058  0.5107
 1634SOL     OW16534   3.177   4.329   3.563 -0.2256 -0.1732 -0.0367
 1634SOL    HW116535   3.083   4.334   3.552 -0.1772 -0.2134 -0.4519
 1634SOL    HW216536   3.191   4.261   3.629 -0.1222 -0.9685 -0.8778
 1635SOL     OW16537   2.693   0.865   4.362 -0.3219  0.5883  0.2086
 1635SOL    HW116538   2.608   0.866   4.406 -1.1976  0.6918 -1.4936
 1635SOL    HW216539   2.707   0.770   4.356  1.0695  0.7272  1.4843
 1636SOL     OW16540   1.787   2.001   5.537 -0.0826  0.2857 -0.0628
 1636SOL    HW116541   1.751   1.958   5.615  1.6696 -1.0955 -0.0169
 1636SOL    HW216542   1.707   2.035   5.496  0.1934  0.7406 -0.2167
 1637SOL     OW16543   3.675   4.265   7.684 -0.8168  0.2704  0.7029
 1637SOL    HW116544   3.716   4.186   7.649 -0.7366  0.7894 -0.3806
 1637SOL    HW216545   3.697   4.334   7.622 -0.6154 -0.1058  0.3564
 1638SOL     OW16546   0.161   1.650  13.340  1.0477 -0.1108  0.3307
 1638SOL    HW116547   0.171   1.556  13.354 -2.9486 -0.1510  2.6976
 1638SOL    HW216548   0.185   1.670  13.430  1.5472 -1.7246  0.5618
 1639SOL     OW16549   4.197   0.702   0.489 -0.1500 -0.0724  0.4417
 1639SOL    HW116550   4.239   0.650   0.420  1.0127  0.2649  0.8795
 1639SOL    HW216551   4.235   0.666   0.569 -0.0097  3.7333  2.1080
 1640SOL     OW16552   1.393   0.482   3.204 -0.5709  0.2898 -0.0554
 1640SOL    HW116553   1.392   0.392   3.170  1.1403 -0.0387  0.7513
 1640SOL    HW216554   1.486   0.491   3.224 -0.5158  0.4377 -0.3788
 1641SOL     OW16555   2.772   1.459   7.050 -0.1646  0.2139  0.1264
 1641SOL    HW116556   2.777   1.364   7.038  1.7586  0.4600 -1.0618
 1641SOL    HW216557   2.729   1.460   7.136  0.5777  1.0296  0.4947
 1642SOL     OW16558   1.727   3.477   8.341 -0.3788 -0.2193  0.5535
 1642SOL    HW116559   1.814   3.439   8.335  0.7935  2.4049  0.9973
 1642SOL    HW216560   1.754   3.566   8.321  1.1469 -0.7249  0.3819
 1643SOL     OW16561   2.336   2.810  16.190 -0.4348 -0.4716  0.6363
 1643SOL    HW116562   2.372   2.743  16.132  0.3196 -0.9843  1.7030
 1643SOL    HW216563   2.361   2.886  16.137  2.1086 -1.9508 -0.2948
 1644SOL     OW16564   2.126   0.807   8.910 -1.0765  0.1949 -0.5473
 1644SOL    HW116565   2.057   0.782   8.971  1.6321 -1.5611  1.7886
 1644SOL    HW216566   2.201   0.767   8.954 -2.3978 -1.9835 -0.2641
 1645SOL     OW16567   3.250   3.768   7.294 -0.4814  0.3211 -0.1437
 1645SOL    HW116568   3.315   3.837   7.299 -0.4655  0.2952  0.0161
 1645SOL    HW216569   3.183   3.818   7.247 -1.2267 -1.1510 -0.6493
 1646SOL     OW16570   1.420   1.474   4.479 -0.0448  0.4841 -0.1643
 1646SOL    HW116571   1.377   1.489   4.563 -0.1934 -1.6946  0.1571
 1646SOL    HW216572   1.359   1.412   4.439 -1.3163  1.0224  0.9664
 1647SOL     OW16573   1.095   1.345   2.182 -0.1078 -0.2265  0.0674
 1647SOL    HW116574   1.064   1.402   2.111 -0.9409  0.4383  0.9493
 1647SOL    HW216575   1.046   1.264   2.168  0.3325 -0.6129  0.7561
 1648SOL     OW16576   2.064   4.231   9.509 -0.0062  0.7854  0.1886
 1648SOL    HW116577   2.040   4.180   9.432 -1.1006  0.1150  0.9877
 1648SOL    HW216578   2.064   4.322   9.480 -0.0956 -0.1025 -2.5641
 1649SOL     OW16579   2.182   0.290   8.062  0.1845 -0.1016 -0.4273
 1649SOL    HW116580   2.141   0.352   8.001  0.1386  1.4056  1.1404
 1649SOL    HW216581   2.108   0.239   8.096 -0.3302  0.0322 -1.3334
 1650SOL     OW16582   3.363   0.151   4.566  0.1337  0.2195 -0.3130
 1650SOL    HW116583   3.425   0.082   4.544 -0.1533  0.3843 -1.6653
 1650SOL    HW216584   3.291   0.094   4.591  1.2570 -0.2971  1.7245
 1651SOL     OW16585   0.580   4.259   1.138  0.3676  0.0111 -0.3657
 1651SOL    HW116586   0.524   4.215   1.073  0.9880 -0.8596 -0.3149
 1651SOL    HW216587   0.510   4.287   1.197 -0.0581 -0.4558 -0.6476
 1652SOL     OW16588   3.688   2.384   6.955  0.1414 -0.8125 -0.1376
 1652SOL    HW116589   3.746   2.316   6.921  1.4765  0.7960 -1.0621
 1652SOL    HW216590   3.688   2.358   7.048  0.2592 -0.0337  0.0765
 1653SOL     OW16591   0.844   0.560  10.591 -0.2721  0.4870 -0.2246
 1653SOL    HW116592   0.798   0.525  10.667  2.1270 -3.3340 -0.5238
 1653SOL    HW216593   0.871   0.646  10.623  1.0217  0.7254 -1.9220
 1654SOL     OW16594   2.765   3.296   8.062  0.3279  0.1101  0.9473
 1654SOL    HW116595   2.675   3.290   8.093  0.6583 -1.8577  1.5921
 1654SOL    HW216596   2.802   3.348   8.133  0.4351  1.8211 -0.3660
 1655SOL     OW16597   1.187   0.507   5.788 -0.0111  0.1358  0.0106
 1655SOL    HW116598   1.126   0.442   5.754  1.5837 -1.2478 -0.2458
 1655SOL    HW216599   1.211   0.468   5.872  1.3044 -1.6889 -1.2005
 1656SOL     OW16600   1.737   0.456   4.760  0.0220  0.0613 -0.3418
 1656SOL    HW116601   1.715   0.432   4.671 -1.6169 -1.8940  0.5908
 1656SOL    HW216602   1.798   0.385   4.779 -0.7668 -0.6446 -0.4498
 1657SOL     OW16603   2.725   3.198   3.234 -0.2335 -0.1577  0.3915
 1657SOL    HW116604   2.702   3.106   3.221  0.5828 -0.0769 -1.5798
 1657SOL    HW216605   2.803   3.195   3.288 -0.3194  0.5011  0.5593
 1658SOL     OW16606   2.760   2.551   8.409 -0.1412 -0.5703  0.0304
 1658SOL    HW116607   2.720   2.466   8.393 -0.0660 -0.2309 -1.8822
 1658SOL    HW216608   2.756   2.572   8.316  0.7920 -0.6684 -0.0331
 1659SOL     OW16609   1.823   1.939   9.574 -0.1862 -0.1190  0.0277
 1659SOL    HW116610   1.903   1.931   9.626 -0.0849 -2.5219 -0.4990
 1659SOL    HW216611   1.815   1.846   9.554  0.2096 -0.2137  0.3006
 1660SOL     OW16612   1.100   4.520  14.238 -0.0479 -0.0564 -0.4375
 1660SOL    HW116613   1.195   4.515  14.226  0.0995  1.8529  0.0309
 1660SOL    HW216614   1.099   4.588  14.305  2.5218  0.8197 -1.2649
 1661SOL     OW16615   0.080   0.916   4.761 -0.0088 -0.5341 -0.7421
 1661SOL    HW116616   0.023   0.920   4.685 -1.1309  1.1698  0.1818
 1661SOL    HW216617   0.056   0.992   4.816  1.6428 -1.7944  1.7392
 1662SOL     OW16618   4.378   0.835  16.983 -0.1192  0.0343  0.2604
 1662SOL    HW116619   4.336   0.917  16.957 -0.2374 -0.8091 -2.2553
 1662SOL    HW216620   4.468   0.855  17.010 -0.8568  0.5384  2.2903
 1663SOL     OW16621   1.541   2.065   8.597 -0.0438 -0.1809 -0.0441
 1663SOL    HW116622   1.562   2.139   8.540 -3.0505 -1.4809 -2.7847
 1663SOL    HW216623   1.567   2.096   8.684  0.5637 -3.8743  1.1120
 1664SOL     OW16624   3.621   0.986   5.631 -0.3310 -0.4652 -0.0986
 1664SOL    HW116625   3.548   0.930   5.606  0.7160 -1.2132 -1.4403
 1664SOL    HW216626   3.570   1.023   5.704 -1.6287  0.0087 -1.2619
 1665SOL     OW16627   1.081   3.340  15.863  0.0841 -0.0654 -0.5175
 1665SOL    HW116628   1.113   3.340  15.953 -0.7740  0.6492 -0.2153
 1665SOL    HW216629   1.092   3.247  15.840  3.4066  0.5265 -1.2505
 1666SOL     OW16630   4.211   4.232   9.034 -0.4972  0.0146  0.1337
 1666SOL    HW116631   4.125   4.190   9.041 -1.1683  1.5056  0.7840
 1666SOL    HW216632   4.263   4.158   9.005 -2.1767 -0.3075 -2.0713
 1667SOL     OW16633   4.503   1.002   4.028  0.4095  0.8316  0.3362
 1667SOL    HW116634   4.583   1.027   3.981 -0.3241  1.7158 -0.4271
 1667SOL    HW216635   4.475   0.929   3.973 -1.5339  1.4520  0.5067
 1668SOL     OW16636   0.666   4.184   3.542  0.5620  0.2912  0.0140
 1668SOL    HW116637   0.582   4.138   3.545  0.5159  0.3590 -0.2928
 1668SOL    HW216638   0.679   4.176   3.637  0.0202  0.5853  0.1201
 1669SOL     OW16639   0.205   1.192   4.053  0.5497 -0.2945  0.9388
 1669SOL    HW116640   0.263   1.162   3.984 -0.5789 -1.1916  0.3897
 1669SOL    HW216641   0.244   1.279   4.048  0.5405 -0.2803  1.1168
 1670SOL     OW16642   4.291   1.751   4.798  0.0014 -0.0731  0.3119
 1670SOL    HW116643   4.196   1.750   4.783  0.2365 -0.6528 -1.0513
 1670SOL    HW216644   4.317   1.716   4.714 -1.7444 -1.7574  0.4777
 1671SOL     OW16645   2.003   2.763  12.864 -0.2425  0.0736  0.3257
 1671SOL    HW116646   2.011   2.674  12.830  0.6382  1.3979 -2.9362
 1671SOL    HW216647   1.940   2.746  12.934 -0.4382  0.2184  0.1888
 1672SOL     OW16648   1.677   0.963   7.098 -0.5087 -0.2663  0.2866
 1672SOL    HW116649   1.729   1.039   7.123 -0.1566 -0.3636 -0.1656
 1672SOL    HW216650   1.710   0.897   7.160 -0.7463 -2.4126 -1.8821
 1673SOL     OW16651   4.377   0.552   2.496 -0.2184 -0.4489 -0.2595
 1673SOL    HW116652   4.468   0.557   2.525 -0.4680  0.3024  0.4005
 1673SOL    HW216653   4.339   0.623   2.547  0.0264  0.2171 -1.0134
 1674SOL     OW16654   1.597   1.104  17.180 -0.1067 -0.3119  0.2372
 1674SOL    HW116655   1.650   1.028  17.155 -1.7969 -1.4622  0.1481
 1674SOL    HW216656   1.548   1.133  17.103  2.1174  0.1641 -0.9766
 1675SOL     OW16657   0.308   0.220   3.569  0.6052 -0.3228  0.3855
 1675SOL    HW116658   0.345   0.277   3.502  0.8214 -2.5363 -1.3947
 1675SOL    HW216659   0.217   0.245   3.550  0.3858 -0.7804  0.8270
 1676SOL     OW16660   3.150   2.499   8.134 -0.4893 -0.4648 -0.7626
 1676SOL    HW116661   3.179   2.466   8.049  0.6333 -1.1193 -0.1339
 1676SOL    HW216662   3.153   2.422   8.191  2.8410 -0.4544 -0.9271
 1677SOL     OW16663   0.496   0.299  15.676  0.3273  0.6982 -0.0038
 1677SOL    HW116664   0.492   0.206  15.701  0.2396  0.8400  0.5084
 1677SOL    HW216665   0.591   0.293  15.666  0.0929 -0.3149 -1.7201
 1678SOL     OW16666   1.023   1.657   4.750  0.0534  0.2868 -0.0998
 1678SOL    HW116667   1.031   1.691   4.661 -1.6745  0.5455 -0.1465
 1678SOL    HW216668   1.066   1.731   4.793  0.8452  1.6006 -3.1396
 1679SOL     OW16669   4.063   2.526  13.997  0.3256 -0.1665 -0.1141
 1679SOL    HW116670   4.139   2.499  14.048 -0.1103  1.3555  1.3235
 1679SOL    HW216671   4.062   2.450  13.939 -1.1455 -0.1870 -0.0570
 1680SOL     OW16672   2.759   2.564   2.290  0.3815  1.2753  0.0686
 1680SOL    HW116673   2.828   2.503   2.263  0.4019  1.3212  0.0179
 1680SOL    HW216674   2.676   2.522   2.267  0.2109  1.0230  1.1257
 1681SOL     OW16675   3.384   3.454   8.492  0.0480 -0.4781  0.3970
 1681SOL    HW116676   3.314   3.470   8.428 -0.6461 -0.6172  1.1196
 1681SOL    HW216677   3.369   3.518   8.562  1.6710 -1.2182  1.4125
 1682SOL     OW16678   0.708   1.928   4.167 -0.1249  0.3357  0.1763
 1682SOL    HW116679   0.803   1.935   4.183 -0.0363  0.1745 -0.2780
 1682SOL    HW216680   0.675   1.994   4.227  0.0891 -0.2102  0.8987
 1683SOL     OW16681   3.089   4.436   1.811  0.3475  0.2385  0.1814
 1683SOL    HW116682   3.155   4.480   1.865  1.3211 -0.1617 -0.6971
 1683SOL    HW216683   3.008   4.435   1.863  0.2174  0.9458 -0.0060
 1684SOL     OW16684   4.294   3.632   2.767  0.1669 -0.3328  0.3550
 1684SOL    HW116685   4.304   3.652   2.860  1.5477  1.1509 -0.1174
 1684SOL    HW216686   4.204   3.599   2.759  0.1302  0.5428 -2.8632
 1685SOL     OW16687   0.648   0.116   4.349  0.0380  0.2182 -0.1080
 1685SOL    HW116688   0.717   0.059   4.383 -0.3361  1.4043  2.6360
 1685SOL    HW216689   0.616   0.153   4.431  0.1995 -0.1425  0.1193
 1686SOL     OW16690   0.171   3.203   1.050 -0.4242  0.1120  0.1757
 1686SOL    HW116691   0.121   3.202   0.968  0.8681  0.9037 -0.6135
 1686SOL    HW216692   0.193   3.110   1.057  1.1945  0.4347 -0.7399
 1687SOL     OW16693   1.740   0.422   3.909 -0.5521  0.0771 -0.0439
 1687SOL    HW116694   1.645   0.412   3.896 -0.4035 -0.8567 -0.3983
 1687SOL    HW216695   1.774   0.347   3.860  1.1620  0.5320  0.4578
 1688SOL     OW16696   2.788   3.482   0.525 -0.0361  0.4871  0.4360
 1688SOL    HW116697   2.789   3.552   0.590  2.4745  1.3558 -0.5490
 1688SOL    HW216698   2.694   3.468   0.513 -0.0164  2.1692 -1.7259
 1689SOL     OW16699   3.735   4.730   1.317  0.1512  0.1498  0.1438
 1689SOL    HW116700   3.715   4.655   1.374 -1.7804  1.2360  0.8779
 1689SOL    HW216701   3.830   4.728   1.328  0.3845 -0.0137 -1.9659
 1690SOL     OW16702   4.716   1.567   1.637  0.0870 -0.1771  0.1469
 1690SOL    HW116703   4.692   1.478   1.614 -1.8348  0.4237 -0.2024
 1690SOL    HW216704   4.693   1.570   1.730  1.5550  0.0157  0.4959
 1691SOL     OW16705   1.977   0.162   1.229  0.1871  0.0977 -0.2856
 1691SOL    HW116706   2.004   0.195   1.314 -1.2551  0.5083 -0.0035
 1691SOL    HW216707   1.884   0.183   1.226  0.3217  0.9369  2.1048
 1692SOL     OW16708   4.232   0.105   8.006 -0.1643  0.3476 -0.0916
 1692SOL    HW116709   4.160   0.118   7.945  2.1281  1.8106 -2.5120
 1692SOL    HW216710   4.293   0.175   7.982  1.6544 -0.6647  1.6285
 1693SOL     OW16711   2.370   4.511   3.409 -0.4052 -0.6306 -0.0122
 1693SOL    HW116712   2.292   4.477   3.453 -2.4028  0.6863 -2.5520
 1693SOL    HW216713   2.371   4.603   3.435  3.8232 -0.8704  0.5675
 1694SOL     OW16714   2.505   0.007  11.949  0.4833 -0.2215 -0.3999
 1694SOL    HW116715   2.495   0.022  11.855 -2.2487 -1.9350 -0.3638
 1694SOL    HW216716   2.576   4.678  11.945 -0.8437 -1.6243 -1.7668
 1695SOL     OW16717   3.964   4.313   3.585  0.0355  0.0761 -0.3408
 1695SOL    HW116718   4.025   4.387   3.586  1.3311 -1.0306  1.5933
 1695SOL    HW216719   3.917   4.328   3.502  0.1497 -2.9337 -0.9640
 1696SOL     OW16720   4.500   1.238  13.402 -0.2086 -0.3225 -0.2244
 1696SOL    HW116721   4.566   1.171  13.381 -1.0356 -0.8858 -1.0313
 1696SOL    HW216722   4.427   1.179  13.422  0.9360 -2.0257 -1.0986
 1697SOL     OW16723   3.189   2.867   2.610 -0.4092  0.4146  0.2977
 1697SOL    HW116724   3.253   2.868   2.538 -0.3034 -1.3473  0.3688
 1697SOL    HW216725   3.108   2.855   2.560  0.2122 -2.1846 -0.0635
 1698SOL     OW16726   3.640   3.776   2.571  0.0018 -0.6523 -0.5974
 1698SOL    HW116727   3.614   3.706   2.631 -0.9727 -0.4778 -0.8178
 1698SOL    HW216728   3.604   3.741   2.490 -0.8436  1.4263 -1.1238
 1699SOL     OW16729   3.424   0.537   6.711 -0.0965  0.0338  0.4583
 1699SOL    HW116730   3.487   0.468   6.690  1.9589  2.1699 -0.4326
 1699SOL    HW216731   3.349   0.506   6.660 -1.5966  0.8936  2.1396
 1700SOL     OW16732   3.987   0.249  13.607  0.3911  0.0523 -0.0045
 1700SOL    HW116733   3.967   0.155  13.609 -0.5505  0.2435 -0.4741
 1700SOL    HW216734   4.055   0.246  13.675 -1.9747  0.1334  2.3723
 1701SOL     OW16735   4.431   1.997  10.159 -0.4691  0.2592 -0.6277
 1701SOL    HW116736   4.438   2.044  10.241 -2.3823 -3.8092  1.8584
 1701SOL    HW216737   4.380   1.924  10.194  1.3573 -1.4423 -1.4527
 1702SOL     OW16738   1.265   2.298   1.128  0.7327 -0.1435 -0.3351
 1702SOL    HW116739   1.206   2.261   1.194  0.3189 -1.1212 -1.2561
 1702SOL    HW216740   1.214   2.366   1.084 -0.0251  0.0914  0.8804
 1703SOL     OW16741   0.167   4.625   8.166  0.4946 -0.6334  0.7979
 1703SOL    HW116742   0.210   4.646   8.084 -0.2641  0.7137  0.7372
 1703SOL    HW216743   0.217   4.676   8.229  0.8374  0.1417 -0.1049
 1704SOL     OW16744   2.124   4.219   5.181  0.2811 -0.3699  0.1035
 1704SOL    HW116745   2.080   4.294   5.142  0.0617 -1.1363 -1.1305
 1704SOL    HW216746   2.049   4.172   5.218 -0.2145  2.3742  2.5229
 1705SOL     OW16747   0.383   0.572   4.678 -0.2449 -0.7817  0.2876
 1705SOL    HW116748   0.390   0.530   4.592 -1.5101  3.1644 -1.7712
 1705SOL    HW216749   0.377   0.666   4.665 -2.5592 -0.9180  0.3439
 1706SOL     OW16750   2.718   3.532   0.043  0.2146 -0.0794  0.2868
 1706SOL    HW116751   2.798   3.479   0.043  0.4752  0.3476  1.9945
 1706SOL    HW216752   2.675   3.487   0.115 -1.3806  0.1194 -0.5458
 1707SOL     OW16753   0.332   1.520   0.408  0.2625 -0.5261 -0.5989
 1707SOL    HW116754   0.337   1.447   0.470 -0.1828  1.5674  1.9361
 1707SOL    HW216755   0.416   1.512   0.363 -0.0691 -1.1786 -1.0913
 1708SOL     OW16756   0.562   3.880  16.276 -1.0863 -0.3161 -0.4324
 1708SOL    HW116757   0.648   3.880  16.317 -0.7160  1.3454 -1.2184
 1708SOL    HW216758   0.542   3.786  16.277 -2.5286  0.0055  1.8175
 1709SOL     OW16759   0.497   2.603   9.003  0.1100 -0.3015 -0.3679
 1709SOL    HW116760   0.576   2.551   8.987  1.7115  1.1728  2.7068
 1709SOL    HW216761   0.515   2.616   9.096 -1.0220 -3.4418  0.2748
 1710SOL     OW16762   0.767   1.351   8.343 -0.8101 -0.4652 -0.2211
 1710SOL    HW116763   0.719   1.305   8.411  0.8953  0.0993  1.3377
 1710SOL    HW216764   0.825   1.287   8.302  1.6094  1.8416 -0.3796
 1711SOL     OW16765   3.116   1.363  15.591 -0.4054 -0.0170 -0.1866
 1711SOL    HW116766   3.192   1.347  15.535  0.3956  2.0610  0.3231
 1711SOL    HW216767   3.058   1.292  15.562  1.1236 -0.3619 -2.4126
 1712SOL     OW16768   4.532   4.408  17.712  0.3461  0.4391  0.7325
 1712SOL    HW116769   4.492   4.458   0.047  0.2796  2.0510 -0.4419
 1712SOL    HW216770   4.479   4.450  17.643  0.1130  0.7614  1.1098
 1713SOL     OW16771   1.057   4.160   2.486 -0.0996 -0.7647  0.2079
 1713SOL    HW116772   1.108   4.099   2.539  1.8941 -0.0940 -0.9070
 1713SOL    HW216773   1.053   4.236   2.543 -1.6053  0.4288 -1.4877
 1714SOL     OW16774   2.173   2.308   4.089  0.0076  0.3169 -0.3816
 1714SOL    HW116775   2.184   2.308   4.184 -0.9473 -0.0794 -0.2634
 1714SOL    HW216776   2.250   2.346   4.046 -0.5270  3.0419  1.1035
 1715SOL     OW16777   0.770   2.247  16.970 -0.2268  0.8655  0.1968
 1715SOL    HW116778   0.795   2.202  16.890 -4.0744 -2.7096  1.0123
 1715SOL    HW216779   0.737   2.332  16.941 -3.6162 -0.8177 -0.8285
 1716SOL     OW16780   0.774   1.998   8.716  0.1651 -0.0116  0.1143
 1716SOL    HW116781   0.752   2.047   8.637 -1.3149 -1.4715 -0.3708
 1716SOL    HW216782   0.763   1.910   8.679 -0.9201 -0.1462  0.7634
 1717SOL     OW16783   3.100   4.215   4.196 -0.5651  0.0797  0.0703
 1717SOL    HW116784   3.098   4.128   4.158  1.9153 -0.9514  2.3250
 1717SOL    HW216785   3.069   4.274   4.127 -3.1840 -1.8163 -0.3374
 1718SOL     OW16786   2.853   4.612   1.455  0.0584 -0.2896  0.1022
 1718SOL    HW116787   2.796   4.678   1.415 -0.7574 -1.2223 -0.2728
 1718SOL    HW216788   2.925   4.607   1.393  1.1652 -3.2084  1.5882
 1719SOL     OW16789   0.547   4.605   5.763 -0.0737 -0.2276  0.2338
 1719SOL    HW116790   0.571   4.634   5.676  0.9318  0.4889  0.7627
 1719SOL    HW216791   0.460   4.565   5.758  0.4959 -1.5346  0.7147
 1720SOL     OW16792   3.551   3.070   4.171  0.5931 -0.0251  0.0072
 1720SOL    HW116793   3.560   3.109   4.258 -2.2180  0.6331 -0.0096
 1720SOL    HW216794   3.559   3.147   4.115 -0.9912  1.6977  2.1458
 1721SOL     OW16795   0.892   3.741   6.278  0.5617  0.6249  0.0002
 1721SOL    HW116796   0.817   3.682   6.271 -1.0219  2.5979  0.3563
 1721SOL    HW216797   0.953   3.708   6.212  1.0868  2.3257 -0.3617
 1722SOL     OW16798   2.935   3.259   7.107  0.2903  0.6444 -0.1656
 1722SOL    HW116799   2.890   3.279   7.189 -0.3471  1.8316 -0.8020
 1722SOL    HW216800   2.954   3.167   7.124 -1.9190 -0.0342 -1.3903
 1723SOL     OW16801   2.193   4.475  15.851  0.0027 -0.8105 -0.2177
 1723SOL    HW116802   2.214   4.441  15.938 -2.7052 -0.0570  0.7513
 1723SOL    HW216803   2.265   4.535  15.831  1.7415 -1.9655  2.5178
 1724SOL     OW16804   0.259   4.379   5.188  0.0111 -0.0895  0.1027
 1724SOL    HW116805   0.288   4.362   5.098  2.6269 -0.9584  1.1013
 1724SOL    HW216806   0.226   4.467   5.171  1.0106 -0.5459 -4.2379
 1725SOL     OW16807   3.171   1.897  10.853  0.2279 -0.0632 -0.0862
 1725SOL    HW116808   3.230   1.830  10.886  1.4664  1.1700  0.1830
 1725SOL    HW216809   3.168   1.945  10.935 -1.8707 -0.2830 -0.0248
 1726SOL     OW16810   1.501   1.679   5.481  0.4641  0.0199 -0.1409
 1726SOL    HW116811   1.584   1.633   5.497  0.6145  0.6621  0.9304
 1726SOL    HW216812   1.432   1.613   5.485  1.6670 -1.2801 -0.8692
 1727SOL     OW16813   1.216   0.711   7.055  0.4145  0.2633  0.3997
 1727SOL    HW116814   1.154   0.649   7.016  1.7013  0.0139 -1.2222
 1727SOL    HW216815   1.208   0.790   7.003 -1.4579 -0.7023 -0.7689
 1728SOL     OW16816   3.566   1.958   5.468 -0.0387  0.0790  0.2309
 1728SOL    HW116817   3.641   1.910   5.433  1.9116  2.0957  1.5899
 1728SOL    HW216818   3.597   2.047   5.451  0.0585  0.3251  1.6719
 1729SOL     OW16819   1.842   2.421   6.780  0.4098  0.9307 -1.0844
 1729SOL    HW116820   1.936   2.402   6.790 -0.2409 -1.1536  0.8480
 1729SOL    HW216821   1.839   2.517   6.779 -0.2690  0.9252  0.8947
 1730SOL     OW16822   0.138   3.475  14.697 -0.2837  0.0054  0.1301
 1730SOL    HW116823   0.090   3.551  14.731 -0.1260 -0.6427  1.7952
 1730SOL    HW216824   0.074   3.435  14.638  0.2258 -0.0175 -0.4042
 1731SOL     OW16825   3.556   2.667   5.495  0.2301 -0.3838 -0.1330
 1731SOL    HW116826   3.532   2.760   5.501  0.2926 -0.4026  0.4110
 1731SOL    HW216827   3.645   2.677   5.463  0.4552 -0.7025  0.3942
 1732SOL     OW16828   3.994   2.930   5.212  0.1644 -0.5460  0.4247
 1732SOL    HW116829   3.945   2.957   5.289  2.6903  3.6385  0.5622
 1732SOL    HW216830   4.034   3.013   5.184  0.2928 -1.1401 -1.1632
 1733SOL     OW16831   3.433   2.386   3.218  0.5784 -0.1369  0.1071
 1733SOL    HW116832   3.485   2.337   3.282  0.1725  0.3360  0.7968
 1733SOL    HW216833   3.437   2.470   3.264 -1.1556  0.6953 -1.2634
 1734SOL     OW16834   1.077   3.517   5.199 -0.1943  0.6195  0.0305
 1734SOL    HW116835   0.991   3.538   5.163  0.4609  3.2225 -0.0423
 1734SOL    HW216836   1.108   3.446   5.143 -1.2015  0.4011 -0.2430
 1735SOL     OW16837   3.442   2.141   9.254 -0.0481 -0.0452  0.2683
 1735SOL    HW116838   3.448   2.229   9.291  0.1658  0.2570 -0.4773
 1735SOL    HW216839   3.384   2.153   9.179 -0.3842 -0.2336  0.5013
 1736SOL     OW16840   1.442   2.783  17.156 -0.4705  0.0591  0.1042
 1736SOL    HW116841   1.347   2.793  17.162 -0.4991  0.1866 -0.5226
 1736SOL    HW216842   1.460   2.876  17.148  1.7606 -0.4309 -0.7304
 1737SOL     OW16843   0.007   2.574   1.972  0.2852  0.8650 -0.1483
 1737SOL    HW116844   4.672   2.536   2.027  2.8812 -1.0845  1.7562
 1737SOL    HW216845   4.689   2.616   1.904  1.6807  0.9759 -1.1428
 1738SOL     OW16846   2.281   1.292   1.851 -0.4258 -0.0024 -0.0222
 1738SOL    HW116847   2.187   1.303   1.840 -0.4370  0.0818  0.1639
 1738SOL    HW216848   2.292   1.370   1.906 -0.9814 -1.5083  2.2390
 1739SOL     OW16849   2.776   0.962   1.385  0.4819 -0.3311 -0.3577
 1739SOL    HW116850   2.863   0.944   1.348  0.6783 -0.3255  0.1056
 1739SOL    HW216851   2.739   0.879   1.355 -1.9989 -0.1978  2.3815
 1740SOL     OW16852   2.681   0.865  13.663 -0.0886  0.0211 -0.2039
 1740SOL    HW116853   2.721   0.816  13.734 -2.0579 -2.2515 -0.6810
 1740SOL    HW216854   2.764   0.873  13.615  1.5623 -1.1564  2.4654
 1741SOL     OW16855   1.393   4.672   4.387  0.1746 -0.4545 -0.0915
 1741SOL    HW116856   1.356   4.606   4.446 -0.8566 -0.1466 -0.3998
 1741SOL    HW216857   1.400   4.627   4.303 -0.3620  0.3675 -0.5747
 1742SOL     OW16858   2.763   0.517   9.308  0.1289 -0.3903 -0.3345
 1742SOL    HW116859   2.728   0.499   9.396 -0.8524  0.0093 -0.6388
 1742SOL    HW216860   2.854   0.543   9.319 -0.1295 -0.7247  2.5298
 1743SOL     OW16861   3.314   0.610   2.654  0.4391  0.1670  0.3024
 1743SOL    HW116862   3.284   0.698   2.630 -2.6440 -1.3832 -1.5225
 1743SOL    HW216863   3.286   0.551   2.584  1.2148  0.0187  0.1222
 1744SOL     OW16864   3.090   1.559   5.720 -0.0744 -0.6161 -0.3938
 1744SOL    HW116865   3.095   1.532   5.812 -1.1818  2.0915  0.4813
 1744SOL    HW216866   3.177   1.598   5.721 -0.9469  1.3257 -0.1843
 1745SOL     OW16867   3.330   0.758   4.733 -0.6350  0.4526 -0.0596
 1745SOL    HW116868   3.271   0.683   4.727  1.3597 -1.2760  2.0552
 1745SOL    HW216869   3.389   0.743   4.659 -0.1289 -1.2344  0.6815
 1746SOL     OW16870   1.241   1.499  17.676  0.5019  0.3330 -0.5226
 1746SOL    HW116871   1.320   1.537  17.638  0.6321  0.6744  0.0914
 1746SOL    HW216872   1.219   1.430  17.613  0.9341 -1.3871  1.2357
 1747SOL     OW16873   2.582   3.227   5.450 -0.3159  0.5308 -0.1633
 1747SOL    HW116874   2.510   3.285   5.475 -1.4434 -0.5902 -0.8172
 1747SOL    HW216875   2.548   3.196   5.366 -0.3727 -2.1318  0.8317
 1748SOL     OW16876   2.057   3.094   8.143  0.2623 -0.1673  0.0479
 1748SOL    HW116877   2.117   3.123   8.212  1.3172 -1.1951 -0.4293
 1748SOL    HW216878   2.090   3.005   8.138  0.4201 -0.0663 -0.7498
 1749SOL     OW16879   3.510   3.958   3.603  0.3491 -0.2207 -0.4583
 1749SOL    HW116880   3.598   3.993   3.586  0.3729  0.2979  0.6512
 1749SOL    HW216881   3.531   3.924   3.690 -2.1785 -1.3299 -0.2843
 1750SOL     OW16882   1.798   2.288   8.733  0.6105 -0.7772 -0.2912
 1750SOL    HW116883   1.833   2.334   8.809 -0.1905 -2.7868  1.3015
 1750SOL    HW216884   1.777   2.205   8.776 -2.0894  0.1957  0.3036
 1751SOL     OW16885   0.886   1.594   3.282  0.1824  0.2761 -0.0318
 1751SOL    HW116886   0.821   1.537   3.242  1.9307 -1.6029 -0.2245
 1751SOL    HW216887   0.849   1.622   3.366  0.8862 -0.6363  0.5923
 1752SOL     OW16888   0.986   3.123   7.392  0.0561 -0.4047 -0.0096
 1752SOL    HW116889   1.004   3.211   7.427  1.7431 -0.0180 -1.8734
 1752SOL    HW216890   0.915   3.134   7.329  0.2667 -1.6433 -0.4443
 1753SOL     OW16891   0.861   4.371   3.595  0.5204 -0.0733  0.3515
 1753SOL    HW116892   0.790   4.314   3.566  0.5327 -0.4269  1.0188
 1753SOL    HW216893   0.911   4.402   3.519  1.6290 -2.3478  0.1505
 1754SOL     OW16894   0.559   2.654  15.213 -0.6032 -0.1577  0.3959
 1754SOL    HW116895   0.554   2.673  15.119  0.1064 -1.7573  0.0333
 1754SOL    HW216896   0.511   2.571  15.215  0.4268 -0.7029  2.0149
 1755SOL     OW16897   0.640   2.897   3.541  0.2271  0.3646  0.1305
 1755SOL    HW116898   0.546   2.883   3.557  0.6997 -1.5492  1.3105
 1755SOL    HW216899   0.638   2.889   3.446 -0.5949  0.0345  0.1697
 1756SOL     OW16900   0.724   4.562   7.216 -0.0339 -0.1756 -0.2528
 1756SOL    HW116901   0.794   4.552   7.152 -0.2217  0.4886 -0.5699
 1756SOL    HW216902   0.655   4.556   7.150  0.0049 -0.2609 -0.2860
 1757SOL     OW16903   0.059   3.216   6.100  0.5353  0.7349  0.1149
 1757SOL    HW116904   0.081   3.193   6.009 -0.5199 -0.3254  0.1389
 1757SOL    HW216905   0.070   3.311   6.095 -0.3168  0.7360 -1.8192
 1758SOL     OW16906   1.351   1.115  14.242 -0.0811 -0.1432  0.5621
 1758SOL    HW116907   1.357   1.115  14.337 -0.3552  2.4546  0.5781
 1758SOL    HW216908   1.336   1.027  14.210  0.6239 -0.3249  0.7330
 1759SOL     OW16909   3.026   4.076  15.903 -0.4828  0.0652  0.2173
 1759SOL    HW116910   3.082   4.034  15.837  1.1680  0.4500  1.3603
 1759SOL    HW216911   2.958   4.115  15.849  1.4933  1.0083 -1.6118
 1760SOL     OW16912   2.138   1.569   7.261  0.4044 -0.0750  0.1704
 1760SOL    HW116913   2.133   1.634   7.191  1.7843  1.4558  1.4905
 1760SOL    HW216914   2.168   1.627   7.330 -3.0251  1.7323  0.1774
 1761SOL     OW16915   0.667   2.904   4.219 -0.5842  0.3284 -0.5113
 1761SOL    HW116916   0.708   2.990   4.229  0.8716 -0.3251 -0.7476
 1761SOL    HW216917   0.582   2.918   4.177 -0.4755  2.3761 -0.0184
 1762SOL     OW16918   4.128   0.074   3.954  0.1922  0.0437 -0.7676
 1762SOL    HW116919   4.063   0.144   3.946 -0.5492 -0.2764  2.5883
 1762SOL    HW216920   4.173   0.100   4.034 -0.7266 -1.7129  0.3426
 1763SOL     OW16921   3.449   0.707   4.500  0.3118 -0.2022 -0.2757
 1763SOL    HW116922   3.535   0.735   4.470  0.9747 -0.6978  1.1774
 1763SOL    HW216923   3.392   0.725   4.426 -0.1883  3.6911  1.0612
 1764SOL     OW16924   0.849   0.933   6.520  0.2558  0.0607 -0.3473
 1764SOL    HW116925   0.773   0.947   6.463  1.0105 -0.8975 -1.6037
 1764SOL    HW216926   0.911   0.990   6.476  0.5799 -1.4875 -1.9226
 1765SOL     OW16927   4.705   2.081  12.332 -0.4631  0.2005 -0.5360
 1765SOL    HW116928   4.690   1.992  12.298  0.6733 -0.7855  1.5129
 1765SOL    HW216929   0.046   2.065  12.390 -0.8338 -0.3392 -0.2063
 1766SOL     OW16930   1.230   4.258  12.444  0.0292 -0.3539  0.3888
 1766SOL    HW116931   1.165   4.231  12.379  0.5482  2.1735 -1.1864
 1766SOL    HW216932   1.291   4.185  12.442 -2.2119 -2.1358 -2.4743
 1767SOL     OW16933   4.144   0.500   5.597 -0.3288 -1.0520 -0.0510
 1767SOL    HW116934   4.101   0.433   5.651 -2.1088  0.2212  0.1311
 1767SOL    HW216935   4.141   0.573   5.659 -1.4260  0.5256 -1.9717
 1768SOL     OW16936   4.283   4.534   7.952 -0.5269  0.1435  0.5079
 1768SOL    HW116937   4.241   4.595   7.892 -0.4866  2.1131  2.5055
 1768SOL    HW216938   4.275   4.584   8.033  0.1280  1.7441 -0.4250
 1769SOL     OW16939   1.268   0.517  11.955  0.0107 -0.1305 -0.3161
 1769SOL    HW116940   1.334   0.450  11.972  0.9069  0.3446 -1.9947
 1769SOL    HW216941   1.288   0.577  12.027  3.2357  0.0984 -1.4139
 1770SOL     OW16942   0.746   2.064   6.726 -0.1994  0.2735 -0.4912
 1770SOL    HW116943   0.690   2.061   6.804  0.9223  0.4790  0.3102
 1770SOL    HW216944   0.834   2.071   6.762 -1.6041  2.4287  2.5123
 1771SOL     OW16945   1.872   1.017   9.124  0.2339 -0.0649  0.0452
 1771SOL    HW116946   1.833   0.946   9.073 -0.3397 -1.3610  2.2842
 1771SOL    HW216947   1.795   1.047   9.173  0.6622 -0.8593  1.2113
 1772SOL     OW16948   2.714   1.464   6.390 -0.0043  0.0175 -0.2049
 1772SOL    HW116949   2.675   1.500   6.310 -0.2257  0.2268 -0.0011
 1772SOL    HW216950   2.655   1.510   6.449 -0.0780  0.5251 -0.6756
 1773SOL     OW16951   3.991   4.732   8.684 -0.2449 -0.4625  0.0516
 1773SOL    HW116952   3.916   0.031   8.633  0.0840  2.7610  1.6828
 1773SOL    HW216953   4.057   0.056   8.646 -1.4366  0.1368 -1.1284
 1774SOL     OW16954   0.583   0.883   6.067  0.1820 -0.2036 -0.5852
 1774SOL    HW116955   0.497   0.859   6.101 -0.4530  2.2449 -0.4176
 1774SOL    HW216956   0.554   0.924   5.985  0.0879  1.3170  0.1990
 1775SOL     OW16957   1.505   3.383   8.436  0.5291 -0.2227  0.1586
 1775SOL    HW116958   1.579   3.439   8.413  0.6472 -0.5491 -0.2456
 1775SOL    HW216959   1.540   3.295   8.424  3.7063  1.0869 -0.2824
 1776SOL     OW16960   0.197   4.186   6.367  0.2895 -0.5531 -0.2912
 1776SOL    HW116961   0.106   4.158   6.361 -0.7881  2.8033  0.6636
 1776SOL    HW216962   0.204   4.245   6.292  0.3746 -0.7961 -0.4775
 1777SOL     OW16963   2.055   0.127   9.124  0.1013  0.1322  0.3701
 1777SOL    HW116964   2.041   0.063   9.054 -3.3439  0.5498  0.7047
 1777SOL    HW216965   2.150   0.138   9.120  0.0220  0.3463 -0.8923
 1778SOL     OW16966   0.716   4.079  13.942  0.3601 -0.6614 -0.3334
 1778SOL    HW116967   0.629   4.041  13.928  0.3386 -0.3683 -1.0045
 1778SOL    HW216968   0.767   4.058  13.863 -0.5016  0.8206 -1.2848
 1779SOL     OW16969   3.723   2.588  12.020 -0.2588 -0.2602  0.1607
 1779SOL    HW116970   3.750   2.585  12.111  0.2614 -1.3028 -0.0357
 1779SOL    HW216971   3.718   2.682  12.001 -0.3236  0.1056  2.0549
 1780SOL     OW16972   0.706   0.919   4.000 -0.2691 -0.3546  0.6519
 1780SOL    HW116973   0.747   0.872   4.073 -0.9072 -1.8860  0.0221
 1780SOL    HW216974   0.615   0.923   4.031 -0.3502  1.7230  0.1338
 1781SOL     OW16975   2.415   2.941  13.268 -0.9770  0.1696  0.9834
 1781SOL    HW116976   2.328   2.907  13.251 -0.2351 -1.3923  0.3151
 1781SOL    HW216977   2.419   3.025  13.222  0.3848  0.0087  0.8023
 1782SOL     OW16978   3.326   2.963   1.711 -0.5095 -0.4582 -0.1575
 1782SOL    HW116979   3.414   2.930   1.691 -0.7502 -0.5398 -1.0371
 1782SOL    HW216980   3.309   2.916   1.793 -1.8166  0.1970 -0.0548
 1783SOL     OW16981   2.175   3.060   6.792  0.4413 -0.1644 -0.4665
 1783SOL    HW116982   2.128   3.045   6.710 -0.2152  1.4456 -0.3839
 1783SOL    HW216983   2.221   3.140   6.767 -0.3996  0.0208 -1.4063
 1784SOL     OW16984   0.723   2.937   8.417 -0.4480 -0.1725 -0.2320
 1784SOL    HW116985   0.806   2.901   8.387  0.4898 -0.0669  2.2841
 1784SOL    HW216986   0.756   2.996   8.485 -1.2129 -0.6010  0.5188
 1785SOL     OW16987   3.658   0.915   1.894  0.2484 -0.2324 -0.4400
 1785SOL    HW116988   3.690   0.825   1.894  2.1635  0.4768  3.7843
 1785SOL    HW216989   3.605   0.923   1.973 -0.5696 -1.4453 -0.8641
 1786SOL     OW16990   4.239   0.841  10.461  0.6931 -0.1494  0.6477
 1786SOL    HW116991   4.312   0.857  10.522  1.9200  0.5725 -1.0094
 1786SOL    HW216992   4.218   0.750  10.481  1.3781  0.2233  3.0545
 1787SOL     OW16993   2.953   0.265  13.253 -0.4798 -0.0530 -0.4454
 1787SOL    HW116994   2.915   0.344  13.294 -1.2716 -0.5929 -0.1419
 1787SOL    HW216995   3.033   0.264  13.306 -1.5825 -0.6560  1.2106
 1788SOL     OW16996   0.879   0.020  13.168 -0.1762  0.8334  0.2135
 1788SOL    HW116997   0.915   0.100  13.130 -1.1983  0.1485 -2.1912
 1788SOL    HW216998   0.886   4.690  13.098 -2.8713  0.9081 -0.1255
 1789SOL     OW16999   1.229   3.124   2.527 -0.0030  0.7819  0.6840
 1789SOL    HW117000   1.199   3.046   2.481 -0.7598  2.1289 -1.0996
 1789SOL    HW217001   1.202   3.182   2.456 -0.2039  0.2206  0.3027
 1790SOL     OW17002   0.174   0.107   4.944  0.0970 -0.2883 -0.2621
 1790SOL    HW117003   0.102   0.128   5.002 -0.0695  0.2005 -0.6492
 1790SOL    HW217004   0.242   0.150   4.996  0.3653 -0.6238 -0.3263
 1791SOL     OW17005   2.444   3.082   8.440 -0.2596 -0.1179  0.6366
 1791SOL    HW117006   2.386   3.055   8.511 -2.7564  3.1286 -0.1542
 1791SOL    HW217007   2.527   3.052   8.477  0.1941 -1.7300 -1.7206
 1792SOL     OW17008   2.674   1.118   0.201 -0.0342 -0.0421  0.4440
 1792SOL    HW117009   2.646   1.206   0.177 -2.2497 -1.1075 -0.8731
 1792SOL    HW217010   2.590   1.071   0.198  0.1327 -0.1520 -2.4974
 1793SOL     OW17011   1.181   0.383   0.238  0.0904  0.8602 -0.0084
 1793SOL    HW117012   1.265   0.410   0.275  1.3145 -0.8390 -1.5697
 1793SOL    HW217013   1.189   0.423   0.151  0.2079  0.3755 -0.2240
 1794SOL     OW17014   3.306   3.598   5.077  0.3003 -0.0815 -0.0006
 1794SOL    HW117015   3.284   3.630   5.164 -0.7940 -0.7488 -0.0292
 1794SOL    HW217016   3.297   3.508   5.109 -0.3012 -0.2016 -0.5071
 1795SOL     OW17017   2.926   3.545  16.311 -0.3232  0.4831 -0.2895
 1795SOL    HW117018   2.909   3.515  16.222 -0.1055 -0.8664  0.1248
 1795SOL    HW217019   3.007   3.596  16.299  0.2470 -0.7150 -1.3961
 1796SOL     OW17020   3.555   3.867  12.766 -0.3937 -0.0361  0.6852
 1796SOL    HW117021   3.470   3.880  12.724  0.7886  1.5917 -1.2165
 1796SOL    HW217022   3.621   3.871  12.697  1.0693  1.6256  2.1784
 1797SOL     OW17023   2.018   4.472   5.558 -0.0399  0.4148  0.0924
 1797SOL    HW117024   1.947   4.532   5.580 -0.1026  0.6291 -0.6798
 1797SOL    HW217025   2.065   4.514   5.485 -0.0152  0.8206  0.3456
 1798SOL     OW17026   3.490   2.495  12.214 -0.4447 -0.5197  0.0745
 1798SOL    HW117027   3.536   2.413  12.228  0.6442  0.2572  1.0141
 1798SOL    HW217028   3.534   2.531  12.137  1.4365 -0.5167  1.1660
 1799SOL     OW17029   1.024   0.929   2.388 -0.0246 -0.3911  0.0655
 1799SOL    HW117030   1.069   0.884   2.459  0.3185  1.3286  0.9379
 1799SOL    HW217031   1.010   1.015   2.427  2.5614  0.5076 -0.9730
 1800SOL     OW17032   1.690   0.584   9.257 -0.3748  0.9999 -0.6988
 1800SOL    HW117033   1.726   0.562   9.171 -0.1843 -0.1742 -0.3167
 1800SOL    HW217034   1.674   0.498   9.297 -0.2298  0.4734 -1.7764
 1801SOL     OW17035   1.210   1.294   8.219  0.1924  0.2177  0.0476
 1801SOL    HW117036   1.249   1.209   8.238 -0.2690  0.0635  0.3141
 1801SOL    HW217037   1.250   1.348   8.287 -2.1176  0.9815  0.7952
 1802SOL     OW17038   0.649   1.976  15.305  0.0634 -0.0825  0.5115
 1802SOL    HW117039   0.602   2.044  15.257  0.1605  1.4459  2.5508
 1802SOL    HW217040   0.707   2.029  15.360  0.6361  0.5544 -0.7125
 1803SOL     OW17041   3.575   0.648  12.093  0.7032 -0.6328 -0.6236
 1803SOL    HW117042   3.592   0.560  12.127 -1.2910  0.9876  4.6154
 1803SOL    HW217043   3.627   0.694  12.159  1.0360 -2.7065  0.5640
 1804SOL     OW17044   0.921   1.443   7.036  0.3035 -0.3556  0.2479
 1804SOL    HW117045   0.914   1.402   7.123 -0.3486  0.0172  0.3752
 1804SOL    HW217046   0.992   1.388   7.004  1.4177  0.3734  1.4841
 1805SOL     OW17047   3.878   1.923  12.960 -0.1160 -0.2316 -0.7101
 1805SOL    HW117048   3.822   1.988  13.002 -1.0784 -1.8827  0.5326
 1805SOL    HW217049   3.899   1.858  13.027 -3.8367  1.6041  2.2262
 1806SOL     OW17050   2.578   2.128   3.910 -0.3438  0.2023  0.8680
 1806SOL    HW117051   2.488   2.145   3.940 -0.3789  0.8492  0.4114
 1806SOL    HW217052   2.570   2.038   3.880 -2.2394  0.4373  0.6217
 1807SOL     OW17053   2.823   4.137  15.743 -0.7203 -0.2270  0.3527
 1807SOL    HW117054   2.813   4.153  15.649 -1.9491  2.6624  1.0043
 1807SOL    HW217055   2.797   4.045  15.748 -0.4954 -0.0839  3.7948
 1808SOL     OW17056   3.820   3.148  13.937  0.0620 -0.5214 -0.3414
 1808SOL    HW117057   3.883   3.091  13.892  1.2386  0.3623  0.1852
 1808SOL    HW217058   3.782   3.188  13.859 -1.9373 -1.7148  0.0058
 1809SOL     OW17059   4.490   3.937   2.926 -0.0743 -0.0061 -0.6136
 1809SOL    HW117060   4.413   3.881   2.925 -0.9850  1.1963  1.1675
 1809SOL    HW217061   4.476   3.986   2.845  0.2592 -0.4015 -0.9098
 1810SOL     OW17062   2.270   2.760   9.407 -0.1002 -0.6793 -0.1119
 1810SOL    HW117063   2.266   2.851   9.377 -1.0965 -0.4125  0.8250
 1810SOL    HW217064   2.211   2.706   9.354 -0.3412  0.3248 -0.8645
 1811SOL     OW17065   1.356   3.733  15.684 -0.8004  0.1482 -0.1473
 1811SOL    HW117066   1.394   3.759  15.600 -0.1916  0.8991  0.3652
 1811SOL    HW217067   1.322   3.817  15.716 -1.1948  0.1100 -0.4637
 1812SOL     OW17068   0.981   4.512   3.020 -0.0666  0.1122 -0.4487
 1812SOL    HW117069   1.000   4.604   3.001 -1.6730  0.5382  0.0553
 1812SOL    HW217070   0.895   4.519   3.061 -0.6880 -0.5540 -1.6576
 1813SOL     OW17071   0.988   2.379   6.585  0.3284 -0.3368  0.9743
 1813SOL    HW117072   0.988   2.408   6.677 -0.3842  0.0936  0.8443
 1813SOL    HW217073   1.068   2.414   6.548  2.1189 -3.3738  1.9870
 1814SOL     OW17074   4.255   4.548   5.671 -0.9777 -0.2653 -0.1927
 1814SOL    HW117075   4.246   4.488   5.745 -0.5015 -0.8803 -0.6306
 1814SOL    HW217076   4.185   4.507   5.619 -1.4535  0.7150 -0.3344
 1815SOL     OW17077   1.059   2.784  15.334  0.0822 -0.7341  0.3949
 1815SOL    HW117078   1.131   2.845  15.350  1.2999 -1.7890 -1.0909
 1815SOL    HW217079   1.062   2.764  15.241  1.2919 -2.7870  0.8802
 1816SOL     OW17080   0.782   3.029  17.659 -0.4354  0.7012  0.1004
 1816SOL    HW117081   0.702   2.988  17.627 -1.4962  0.5054  3.0050
 1816SOL    HW217082   0.774   3.112  17.614  0.8443  1.0470  0.4911
 1817SOL     OW17083   4.620   0.004   7.324  0.0941  0.2912  0.3232
 1817SOL    HW117084   4.704   4.733   7.369  1.2551 -0.2259 -1.8876
 1817SOL    HW217085   4.624   0.091   7.286 -0.2896  0.4571  0.6611
 1818SOL     OW17086   0.789   4.009   6.337 -0.4183  0.6248 -0.2466
 1818SOL    HW117087   0.814   4.076   6.401 -1.0349  1.8958 -1.3514
 1818SOL    HW217088   0.811   3.925   6.378  0.4597  1.0385  0.1344
 1819SOL     OW17089   2.848   1.015   9.351 -0.4633 -0.1194  0.2978
 1819SOL    HW117090   2.889   1.098   9.327 -0.7895 -0.7490 -2.4646
 1819SOL    HW217091   2.880   0.948   9.291  0.3208 -2.0047  2.8030
 1820SOL     OW17092   4.170   3.382  15.031  0.3723  0.2219  0.1640
 1820SOL    HW117093   4.214   3.436  14.967  0.9845  0.5138  0.8326
 1820SOL    HW217094   4.195   3.425  15.113  1.3395 -1.2713  0.6493
 1821SOL     OW17095   4.393   0.275   5.765 -0.4509  0.3467 -0.1636
 1821SOL    HW117096   4.320   0.264   5.826  0.3054 -0.2145  0.6345
 1821SOL    HW217097   4.400   0.368   5.787  0.8779 -0.0319  0.9941
 1822SOL     OW17098   3.869   2.865   1.431  0.2785  0.3586  0.6979
 1822SOL    HW117099   3.824   2.830   1.354 -1.9608 -0.1221  2.2484
 1822SOL    HW217100   3.805   2.866   1.501 -1.8340 -2.0938 -1.2070
 1823SOL     OW17101   3.043   0.989   2.707  0.0340  0.0886 -0.1317
 1823SOL    HW117102   3.132   0.968   2.679  0.2981 -1.5342  1.9449
 1823SOL    HW217103   2.999   0.929   2.645  0.6995 -0.5857  0.0461
 1824SOL     OW17104   0.525   4.265   8.589 -0.2807 -0.3045  0.2004
 1824SOL    HW117105   0.523   4.334   8.656 -2.2796 -0.4326  0.2709
 1824SOL    HW217106   0.614   4.285   8.559  0.3840 -3.6932 -0.0160
 1825SOL     OW17107   3.357   0.582   6.992 -0.2423  0.8171  0.1198
 1825SOL    HW117108   3.429   0.578   7.054  0.7750 -1.3712 -1.2094
 1825SOL    HW217109   3.404   0.555   6.913  1.8312 -0.7876  1.9022
 1826SOL     OW17110   3.627   1.000   8.242 -0.1392  0.0432 -0.6038
 1826SOL    HW117111   3.630   0.911   8.276 -0.5264 -0.0796 -0.8870
 1826SOL    HW217112   3.648   1.060   8.313  1.9001 -0.9327 -0.3951
 1827SOL     OW17113   1.389   0.704   6.148  0.1884  0.1491  0.1598
 1827SOL    HW117114   1.459   0.716   6.213  0.0337 -1.5220  0.6445
 1827SOL    HW217115   1.331   0.774   6.179  0.3339 -0.5447  2.0337
 1828SOL     OW17116   0.888   1.829   1.799  0.2051 -0.2426  0.5243
 1828SOL    HW117117   0.921   1.861   1.883 -0.4451  2.4765 -0.2665
 1828SOL    HW217118   0.942   1.878   1.738 -0.6593  0.0552 -0.0017
 1829SOL     OW17119   3.557   0.989  11.883 -0.1100  0.0748  1.0753
 1829SOL    HW117120   3.563   0.919  11.818 -0.1897  2.4290 -1.4817
 1829SOL    HW217121   3.608   0.954  11.955 -0.6369 -2.3159  0.2813
 1830SOL     OW17122   4.500   3.610  16.260 -0.2411 -0.0037 -0.2282
 1830SOL    HW117123   4.533   3.554  16.329 -0.6553  0.1654  0.1087
 1830SOL    HW217124   4.570   3.592  16.198 -0.1211  1.2883 -0.4650
 1831SOL     OW17125   1.857   0.381   3.424 -0.0128  0.0067  0.2103
 1831SOL    HW117126   1.905   0.365   3.505 -0.1514  1.5439  0.5960
 1831SOL    HW217127   1.767   0.350   3.437  0.4362 -1.0801  0.7776
 1832SOL     OW17128   3.381   0.842   6.250  0.2911  0.3591  0.4137
 1832SOL    HW117129   3.435   0.915   6.219 -2.2645  1.6047 -1.0450
 1832SOL    HW217130   3.456   0.788   6.277 -0.7303 -1.5599 -0.5802
 1833SOL     OW17131   0.704   3.443  10.406  0.6279  0.0681  0.1500
 1833SOL    HW117132   0.737   3.530  10.428 -0.4274  0.6892 -0.7023
 1833SOL    HW217133   0.655   3.411  10.482  1.8577  0.6572  1.1893
 1834SOL     OW17134   2.276   4.084   3.038  0.0375  0.0605  0.0560
 1834SOL    HW117135   2.314   4.015   2.984 -0.1164  0.0560 -0.0458
 1834SOL    HW217136   2.184   4.068   3.017 -0.0783  1.8388 -0.8492
 1835SOL     OW17137   3.216   2.399   0.298 -0.3727 -0.0771  0.0848
 1835SOL    HW117138   3.258   2.463   0.355  2.6940 -1.0532 -1.0404
 1835SOL    HW217139   3.232   2.432   0.209  1.9078 -1.2819  0.0313
 1836SOL     OW17140   4.541   3.161   6.022 -0.6821 -0.0890 -0.1959
 1836SOL    HW117141   4.552   3.069   5.998  0.6947  0.0525 -0.0599
 1836SOL    HW217142   4.628   3.170   6.061 -0.5704 -2.8075  0.1855
 1837SOL     OW17143   1.439   0.661  16.931 -0.0887  0.1442 -0.3227
 1837SOL    HW117144   1.487   0.645  16.850 -2.0901  0.7470 -1.6464
 1837SOL    HW217145   1.511   0.622  16.979  0.4008  0.6073 -0.6746
 1838SOL     OW17146   0.517   1.467  15.451  0.2028  0.2526  0.3402
 1838SOL    HW117147   0.511   1.540  15.389  0.5990  0.6935  0.8300
 1838SOL    HW217148   0.600   1.423  15.432 -0.7379 -1.2965 -0.2164
 1839SOL     OW17149   0.090   3.349   6.628 -0.4239  0.5187 -0.3326
 1839SOL    HW117150   0.056   3.410   6.693 -4.1900 -1.9246 -0.0289
 1839SOL    HW217151   0.015   3.291   6.634 -2.0467  2.9459  2.6273
 1840SOL     OW17152   1.573   0.532   7.209 -0.9883  0.1587  0.7635
 1840SOL    HW117153   1.610   0.573   7.131 -0.9065  0.6805  1.0740
 1840SOL    HW217154   1.632   0.550   7.283  0.2545 -2.5837  0.4189
 1841SOL     OW17155   1.518   3.532   5.567  0.0767  0.5047 -0.1905
 1841SOL    HW117156   1.564   3.586   5.502 -1.2509 -1.4448 -2.7162
 1841SOL    HW217157   1.508   3.450   5.520 -1.8745 -0.0109  1.1392
 1842SOL     OW17158   0.604   2.416   3.764 -0.0077 -0.1331 -0.4957
 1842SOL    HW117159   0.659   2.338   3.760 -0.1324 -0.4193  3.1261
 1842SOL    HW217160   0.633   2.469   3.838  2.6817  2.1963 -3.2779
 1843SOL     OW17161   3.285   3.302   6.646  0.1815  0.2948 -0.4581
 1843SOL    HW117162   3.243   3.388   6.654 -1.4308 -0.4764 -0.8035
 1843SOL    HW217163   3.258   3.262   6.728  2.9601  0.0563  0.3631
 1844SOL     OW17164   2.572   2.621  16.769  0.2209  0.0190 -0.4011
 1844SOL    HW117165   2.623   2.644  16.692  0.9843 -0.2808  0.0148
 1844SOL    HW217166   2.636   2.607  16.838  0.5120  1.4072 -0.3868
 1845SOL     OW17167   3.027   1.238   9.351 -0.2110 -0.3522 -0.0916
 1845SOL    HW117168   3.070   1.208   9.431 -0.4526  0.3762  0.3146
 1845SOL    HW217169   2.988   1.322   9.375  1.3934  0.2211  0.5493
 1846SOL     OW17170   1.543   1.717   3.516 -0.0669 -0.8446 -0.5123
 1846SOL    HW117171   1.491   1.764   3.451 -2.1016  1.5665  2.8176
 1846SOL    HW217172   1.465   1.689   3.564  2.1269 -0.9118  3.0112
 1847SOL     OW17173   0.330   1.510   4.829 -0.6365  0.2871 -0.1542
 1847SOL    HW117174   0.364   1.599   4.842  0.4706  0.0479 -1.4595
 1847SOL    HW217175   0.359   1.486   4.741 -1.6337 -0.1536 -0.3632
 1848SOL     OW17176   1.015   4.599  11.375 -0.5051 -0.3991  0.3816
 1848SOL    HW117177   0.939   4.603  11.433 -0.8649  0.6281 -0.1598
 1848SOL    HW217178   1.057   4.685  11.384 -2.1480  0.6371 -1.7302
 1849SOL     OW17179   4.058   2.292   8.575 -0.2685  0.1152  0.7704
 1849SOL    HW117180   4.113   2.227   8.618  0.4818  0.0713 -0.2691
 1849SOL    HW217181   4.036   2.357   8.641  0.2527  1.9420 -0.8637
 1850SOL     OW17182   0.670   0.978   3.491  0.3413  0.0615  0.1079
 1850SOL    HW117183   0.632   0.923   3.423 -0.3299  2.1164 -1.1770
 1850SOL    HW217184   0.688   0.922   3.567 -1.2926 -1.4360 -0.6268
 1851SOL     OW17185   1.605   1.603   1.878  0.4862  0.4634 -0.2541
 1851SOL    HW117186   1.572   1.671   1.820 -0.0606  0.1607 -0.2989
 1851SOL    HW217187   1.644   1.661   1.944 -0.2946  1.6730 -0.8468
 1852SOL     OW17188   3.026   2.849   3.399  0.2099 -0.2100 -0.2846
 1852SOL    HW117189   3.090   2.779   3.395 -0.1981 -0.5478 -0.9473
 1852SOL    HW217190   3.009   2.847   3.493  1.3008 -0.4858 -0.1023
 1853SOL     OW17191   4.186   3.162   5.443  0.5381 -0.2667 -0.4136
 1853SOL    HW117192   4.153   3.113   5.519 -0.1846 -0.2157 -0.6931
 1853SOL    HW217193   4.212   3.094   5.382  0.3579  0.7863 -1.6467
 1854SOL     OW17194   3.921   3.075  11.186  0.3298  0.7442  0.2439
 1854SOL    HW117195   3.912   2.983  11.214 -3.5799  0.1078 -3.1860
 1854SOL    HW217196   3.846   3.088  11.128  0.3469 -0.0366  0.0500
 1855SOL     OW17197   4.179   0.096   8.498 -0.1507  0.5661 -0.0494
 1855SOL    HW117198   4.149   0.175   8.453 -0.4865  0.6895  0.3932
 1855SOL    HW217199   4.254   0.066   8.446  0.7581 -1.2207  2.2753
 1856SOL     OW17200   1.422   0.917   2.603 -0.6537 -0.4609 -0.2559
 1856SOL    HW117201   1.440   0.929   2.697  0.2603 -0.0394 -0.4774
 1856SOL    HW217202   1.516   0.923   2.582 -0.7065  0.1358 -0.3260
 1857SOL     OW17203   2.662   0.260  10.389  0.3785  0.7937 -0.2229
 1857SOL    HW117204   2.587   0.201  10.376  0.8864  0.3737 -1.2884
 1857SOL    HW217205   2.629   0.307  10.466  0.3891  0.2454  0.1171
 1858SOL     OW17206   0.594   1.392   5.385  0.5968 -0.2698 -0.3286
 1858SOL    HW117207   0.646   1.433   5.454 -1.1304 -0.7850  1.2708
 1858SOL    HW217208   0.625   1.301   5.387 -1.0064 -0.8268 -1.0812
 1859SOL     OW17209   0.618   4.592   6.968 -0.1649  0.6186 -0.0247
 1859SOL    HW117210   0.678   4.543   6.912 -0.1274  0.1694  0.4068
 1859SOL    HW217211   0.623   4.679   6.930 -1.1849  1.7919  2.5427
 1860SOL     OW17212   3.259   1.680  12.573 -0.2580  0.3580 -0.0493
 1860SOL    HW117213   3.193   1.716  12.633  0.2664  2.5209 -0.7683
 1860SOL    HW217214   3.339   1.729  12.591 -0.0318  0.0073 -0.1065
 1861SOL     OW17215   3.318   4.030   5.250 -0.2957 -0.2665 -0.0582
 1861SOL    HW117216   3.336   4.099   5.187 -2.3524 -1.2190 -1.7071
 1861SOL    HW217217   3.370   4.068   5.321 -1.1822 -0.4988  0.7281
 1862SOL     OW17218   0.152   2.798  11.018 -0.5273  0.0959  0.2999
 1862SOL    HW117219   0.180   2.706  11.015  0.5008  0.3923  0.5445
 1862SOL    HW217220   0.058   2.786  11.031  0.2553 -5.5743  0.6229
 1863SOL     OW17221   2.034   1.993   6.010 -0.0663 -0.0945 -0.0539
 1863SOL    HW117222   2.103   1.932   6.037  0.5252  1.4242  1.8595
 1863SOL    HW217223   1.952   1.951   6.036 -1.2210  1.2790 -1.5233
 1864SOL     OW17224   0.605   2.007   6.949  0.1441 -0.0385  0.2282
 1864SOL    HW117225   0.543   1.987   7.019  0.5464 -2.0464  0.0061
 1864SOL    HW217226   0.646   2.080   6.996 -0.1634  1.5624 -1.9826
 1865SOL     OW17227   3.836   4.709   8.234  0.1759 -0.2767 -0.3010
 1865SOL    HW117228   3.857   4.721   8.326  2.3204  0.4395 -0.8748
 1865SOL    HW217229   3.899   4.655   8.185 -0.2592 -1.9003  0.9541
 1866SOL     OW17230   2.725   3.172   0.530  0.2582  0.3944  0.3387
 1866SOL    HW117231   2.745   3.259   0.565  0.1179  0.1036  1.1508
 1866SOL    HW217232   2.719   3.116   0.608  0.5855 -1.1990 -0.7794
 1867SOL     OW17233   2.868   0.217   4.329  0.1955  0.1790 -0.9020
 1867SOL    HW117234   2.916   0.298   4.314  0.1368  0.1952 -0.9992
 1867SOL    HW217235   2.835   0.192   4.243  1.3503 -1.8466 -0.7677
 1868SOL     OW17236   4.078   3.267   3.701 -0.4046  0.0798 -0.4653
 1868SOL    HW117237   4.171   3.288   3.698 -0.3755  0.3206  2.3194
 1868SOL    HW217238   4.059   3.268   3.795  0.1814 -1.0706 -0.3314
 1869SOL     OW17239   0.152   2.026   5.565  1.1501  0.3860  0.2520
 1869SOL    HW117240   0.123   1.943   5.603 -2.0889  0.8073 -1.2209
 1869SOL    HW217241   0.137   2.008   5.472  0.5939  0.1118  0.3955
 1870SOL     OW17242   0.063   3.520  16.732  0.0979 -0.3487 -0.0314
 1870SOL    HW117243   0.095   3.604  16.767 -2.1476  0.5182 -0.0624
 1870SOL    HW217244   0.145   3.502  16.686 -0.3528 -0.8394 -0.6428
 1871SOL     OW17245   0.501   1.794   5.556  0.1202  0.4465 -0.2930
 1871SOL    HW117246   0.450   1.741   5.618 -0.1682 -3.6158 -4.0093
 1871SOL    HW217247   0.577   1.736   5.564  0.2654  0.5970 -0.5751
 1872SOL     OW17248   1.323   3.973   7.428 -0.1110 -0.1679 -0.6742
 1872SOL    HW117249   1.296   3.893   7.382 -1.5752 -0.4448  0.6751
 1872SOL    HW217250   1.274   4.041   7.382 -1.0932  0.6301  1.5386
 1873SOL     OW17251   0.610   3.519   1.998 -0.7880  0.3362 -0.0371
 1873SOL    HW117252   0.626   3.444   1.942 -0.7432 -0.2608  0.7746
 1873SOL    HW217253   0.560   3.570   1.935  1.3192 -0.1647 -2.1128
 1874SOL     OW17254   3.759   1.152   2.877 -0.2065 -0.5757  0.4098
 1874SOL    HW117255   3.792   1.225   2.929  1.5015 -1.7086  0.9121
 1874SOL    HW217256   3.673   1.179   2.845 -0.4168 -1.9109 -0.1648
 1875SOL     OW17257   1.974   2.886   1.400  0.1556 -0.1376  0.2778
 1875SOL    HW117258   2.067   2.870   1.388  1.0320  3.0438  2.7657
 1875SOL    HW217259   1.950   2.825   1.471  0.2205 -0.8915 -0.3487
 1876SOL     OW17260   3.281   2.909   6.431  0.4818 -0.0462  0.0215
 1876SOL    HW117261   3.233   2.991   6.439  0.8625  0.2089 -0.3310
 1876SOL    HW217262   3.204   2.855   6.417 -0.0489  0.5224  0.7382
 1877SOL     OW17263   0.589   4.543   1.410 -0.1935 -0.8396  0.0537
 1877SOL    HW117264   0.650   4.613   1.387 -2.3706  0.1493 -2.8243
 1877SOL    HW217265   0.511   4.591   1.440  0.8460  0.2441  1.0408
 1878SOL     OW17266   4.645   3.192   4.407  0.0024 -0.1524 -0.2338
 1878SOL    HW117267   4.717   3.133   4.381 -0.4881 -0.3503 -1.1510
 1878SOL    HW217268   4.703   3.250   4.456 -1.2974 -0.5744  1.7919
 1879SOL     OW17269   2.024   2.529   4.920  0.0034 -0.9743 -0.1928
 1879SOL    HW117270   2.083   2.462   4.886 -1.6183 -1.7033 -1.5610
 1879SOL    HW217271   2.046   2.612   4.877 -0.1750 -0.2214  1.1603
 1880SOL     OW17272   1.093   0.633   9.257 -0.1048  0.8548 -0.0509
 1880SOL    HW117273   1.120   0.684   9.180  0.5486 -0.6694 -0.8341
 1880SOL    HW217274   1.125   0.682   9.332 -1.4940  0.4373  0.7915
 1881SOL     OW17275   0.761   4.563   5.906  0.1402 -0.1296  0.1653
 1881SOL    HW117276   0.678   4.574   5.860  2.0081  2.4805 -2.5945
 1881SOL    HW217277   0.816   4.546   5.830  0.1416 -1.5281  0.4809
 1882SOL     OW17278   3.071   3.137   7.393 -0.5832  0.4621  0.2995
 1882SOL    HW117279   3.061   3.071   7.325 -0.7583 -0.8477  1.6045
 1882SOL    HW217280   3.136   3.107   7.457  0.5818 -3.1096 -2.5761
 1883SOL     OW17281   2.523   1.113   0.556 -0.0935 -0.5374  0.8218
 1883SOL    HW117282   2.475   1.037   0.587  2.5376 -2.5894 -0.1487
 1883SOL    HW217283   2.482   1.116   0.470  0.7710 -0.2431  0.4219
 1884SOL     OW17284   2.293   3.998  15.829  0.4389  0.2996  0.5731
 1884SOL    HW117285   2.206   3.961  15.836  0.7540 -0.8759 -1.5969
 1884SOL    HW217286   2.278   4.070  15.890 -0.7178  0.9643 -0.5012
 1885SOL     OW17287   4.403   2.474   8.524  0.0294  0.0858 -0.0359
 1885SOL    HW117288   4.473   2.428   8.570 -1.5791 -1.7935  0.5515
 1885SOL    HW217289   4.350   2.397   8.499 -2.2805  1.9177 -0.8096
 1886SOL     OW17290   4.077   2.941   6.695  0.7935 -0.4467 -0.2134
 1886SOL    HW117291   4.123   2.871   6.742  0.4632 -0.1267  0.5852
 1886SOL    HW217292   3.986   2.920   6.714  0.3733  0.0707 -1.6751
 1887SOL     OW17293   2.336   0.827   3.358 -0.1544 -0.0754 -0.1656
 1887SOL    HW117294   2.274   0.771   3.405  1.2095  0.3354  2.1100
 1887SOL    HW217295   2.314   0.912   3.396 -1.2778 -0.1444 -0.6742
 1888SOL     OW17296   1.877   0.363  11.062  0.6603 -0.3023  0.0587
 1888SOL    HW117297   1.951   0.385  11.005  1.1712  1.8425  1.5783
 1888SOL    HW217298   1.916   0.303  11.126 -0.3165  0.5920  1.4753
 1889SOL     OW17299   2.233   2.614   6.947  0.4341  0.4308  0.6753
 1889SOL    HW117300   2.194   2.702   6.946 -0.1462  0.1745  0.5286
 1889SOL    HW217301   2.321   2.638   6.975  1.6241 -2.7577 -0.3932
 1890SOL     OW17302   1.960   2.051   2.222  0.1397  1.0391  0.3451
 1890SOL    HW117303   1.879   2.041   2.173 -0.1874  0.8537  0.9209
 1890SOL    HW217304   1.945   2.000   2.302  1.6035  1.5818  0.9623
 1891SOL     OW17305   1.766   0.268   6.552 -0.1848  0.4838 -0.1176
 1891SOL    HW117306   1.818   0.341   6.519 -0.7265  0.4606 -1.0173
 1891SOL    HW217307   1.739   0.225   6.470  3.4568 -1.8009 -0.1117
 1892SOL     OW17308   3.562   0.086  13.435 -0.2695  0.3872  0.3239
 1892SOL    HW117309   3.469   0.076  13.413 -0.7356  1.0515  2.0503
 1892SOL    HW217310   3.611   0.046  13.363 -0.4683  0.6971  0.0119
 1893SOL     OW17311   3.529   1.387   4.792 -0.0402  0.0596  0.0150
 1893SOL    HW117312   3.467   1.326   4.833 -0.7852  0.3397 -0.6940
 1893SOL    HW217313   3.469   1.454   4.758 -0.0061 -1.1939 -2.4843
 1894SOL     OW17314   2.904   2.306   4.760  0.4334  0.3065  0.0750
 1894SOL    HW117315   2.954   2.308   4.842  1.3854  1.5674 -0.5309
 1894SOL    HW217316   2.816   2.279   4.787  1.0084 -2.5905 -0.9763
 1895SOL     OW17317   1.446   3.254   6.984  0.2524 -0.6170  0.4215
 1895SOL    HW117318   1.396   3.218   7.057  0.1415 -0.3322  0.4852
 1895SOL    HW217319   1.479   3.181   6.931  0.4060 -0.3498  0.1508
 1896SOL     OW17320   3.674   3.383   4.667  0.2190 -0.2838 -0.2789
 1896SOL    HW117321   3.603   3.325   4.693  1.1612 -1.2625  0.1022
 1896SOL    HW217322   3.743   3.318   4.652  0.8178 -0.0651  1.5640
 1897SOL     OW17323   1.180   0.719  14.629 -0.4272  0.5571  0.4668
 1897SOL    HW117324   1.219   0.800  14.659  2.1048 -0.3096 -0.4962
 1897SOL    HW217325   1.090   0.743  14.606 -0.1583  0.0799 -1.0956
 1898SOL     OW17326   2.649   1.800   3.996  0.2528  0.5391  0.0712
 1898SOL    HW117327   2.555   1.808   3.982  0.1629 -2.0604 -0.6487
 1898SOL    HW217328   2.677   1.754   3.918 -0.4568  0.2624 -0.0163
 1899SOL     OW17329   3.397   0.080  14.519  0.5285 -0.2591 -0.0877
 1899SOL    HW117330   3.426   0.002  14.472 -0.5360  0.3364 -1.7701
 1899SOL    HW217331   3.479   0.129  14.525 -0.4117  1.2927  0.1720
 1900SOL     OW17332   3.872   4.282   8.745 -0.1359 -0.2504  0.3118
 1900SOL    HW117333   3.924   4.347   8.697 -1.0357 -0.2099 -0.6119
 1900SOL    HW217334   3.792   4.336   8.746  1.1000  1.5585  0.5609
 1901SOL     OW17335   2.679   3.470   3.988  0.0331  0.4116 -1.0200
 1901SOL    HW117336   2.681   3.380   4.019  0.2356  0.6513 -0.3459
 1901SOL    HW217337   2.706   3.469   3.896  2.9694  0.7902 -0.1340
 1902SOL     OW17338   4.597   4.316   6.476 -0.0354 -0.5702 -0.0764
 1902SOL    HW117339   4.563   4.292   6.562 -0.7782  0.5120 -0.0615
 1902SOL    HW217340   4.617   4.228   6.443  0.8908 -0.2949 -0.2424
 1903SOL     OW17341   4.153   3.172   5.184 -0.0437 -0.2994  0.2623
 1903SOL    HW117342   4.169   3.240   5.118 -0.3868  0.9004  1.4237
 1903SOL    HW217343   4.177   3.209   5.269 -0.1159 -2.1369  1.0864
 1904SOL     OW17344   4.175   2.202   7.214  0.3016 -0.3824 -0.0290
 1904SOL    HW117345   4.161   2.156   7.297 -3.3162  0.4092 -0.1758
 1904SOL    HW217346   4.100   2.260   7.201  0.4391 -0.2739 -0.3252
 1905SOL     OW17347   1.648   4.155   2.648  0.2057 -0.2120 -0.1120
 1905SOL    HW117348   1.563   4.182   2.613  0.1608 -0.7636 -0.4317
 1905SOL    HW217349   1.667   4.228   2.707  0.4691  0.6247 -1.2547
 1906SOL     OW17350   2.210   1.786   3.330 -0.0117  0.4474 -0.0071
 1906SOL    HW117351   2.174   1.698   3.342  1.7229 -0.3944 -0.9399
 1906SOL    HW217352   2.173   1.821   3.250 -0.3921 -0.1935 -0.1105
 1907SOL     OW17353   3.604   1.834   7.529  0.4067 -0.1692 -0.1722
 1907SOL    HW117354   3.510   1.835   7.510  0.2790 -2.8422  0.2784
 1907SOL    HW217355   3.634   1.914   7.487  0.1564  0.4553  0.8450
 1908SOL     OW17356   1.781   4.445   5.775  0.1965  0.5800  0.1998
 1908SOL    HW117357   1.815   4.371   5.827  0.6288  0.1797 -0.6542
 1908SOL    HW217358   1.687   4.439   5.792  0.0975  0.6809 -0.3315
 1909SOL     OW17359   0.442   3.696   8.942  0.0778  0.8628 -0.4961
 1909SOL    HW117360   0.488   3.721   8.862  1.6008 -2.4098 -0.6281
 1909SOL    HW217361   0.406   3.615   8.906 -0.3758  0.6938  0.3431
 1910SOL     OW17362   2.461   1.906   2.514  0.4000  0.2054 -0.0372
 1910SOL    HW117363   2.494   1.854   2.588 -0.1045  1.7441  1.2753
 1910SOL    HW217364   2.479   1.836   2.451 -0.9047  0.2367 -0.4447
 1911SOL     OW17365   1.455   0.315   6.063 -0.0722 -0.0677 -0.0161
 1911SOL    HW117366   1.492   0.311   5.975  0.9946  1.7708  0.3448
 1911SOL    HW217367   1.529   0.354   6.110 -2.0763  3.3964  0.2228
 1912SOL     OW17368   2.633   0.969   5.334 -0.2727  0.0447 -0.3665
 1912SOL    HW117369   2.639   0.880   5.368 -3.3541 -0.3385 -0.8335
 1912SOL    HW217370   2.669   0.950   5.247  2.2837  0.0995  0.6780
 1913SOL     OW17371   4.677   0.086   5.360  0.1350 -0.3755  0.7642
 1913SOL    HW117372   4.692   0.173   5.323  0.0812 -0.9003 -0.4794
 1913SOL    HW217373   4.590   0.066   5.325 -0.4262  1.2338  1.2514
 1914SOL     OW17374   0.786   2.088   5.760  0.0940  0.1278 -0.7608
 1914SOL    HW117375   0.823   2.107   5.674  0.3082  2.0656 -0.2452
 1914SOL    HW217376   0.760   2.173   5.796 -0.1517 -0.6647  0.9142
 1915SOL     OW17377   4.465   2.710   8.009 -0.0656 -0.0569 -0.2472
 1915SOL    HW117378   4.472   2.657   8.089 -0.6171  2.2814  1.3550
 1915SOL    HW217379   4.555   2.734   7.990 -0.2114  1.5393  1.0447
 1916SOL     OW17380   1.044   2.610  11.541 -0.3613  0.2388 -0.5357
 1916SOL    HW117381   1.049   2.565  11.457  0.6921  0.7131 -0.7193
 1916SOL    HW217382   0.953   2.583  11.552 -0.3677  0.2094 -0.6612
 1917SOL     OW17383   2.618   3.494   2.879 -0.3332 -0.0363  0.1185
 1917SOL    HW117384   2.589   3.420   2.825  0.6706  0.2799 -0.8597
 1917SOL    HW217385   2.619   3.564   2.814  0.3281 -2.3837 -2.3909
 1918SOL     OW17386   3.768   3.993   7.592 -0.0329  0.2022 -0.4295
 1918SOL    HW117387   3.733   3.906   7.610  4.0066 -1.0692  1.4307
 1918SOL    HW217388   3.832   3.970   7.524 -0.4788 -0.5870 -0.5765
 1919SOL     OW17389   2.607   3.463  16.336 -0.6000  0.2976  0.6014
 1919SOL    HW117390   2.650   3.539  16.376 -0.1866  1.6494 -2.4324
 1919SOL    HW217391   2.516   3.489  16.320 -0.3584 -0.1865 -1.5360
 1920SOL     OW17392   2.018   3.529   6.675 -0.3444  0.3139  0.2681
 1920SOL    HW117393   2.091   3.493   6.624 -1.8435 -1.4627 -0.6115
 1920SOL    HW217394   1.957   3.456   6.688  0.7451 -0.2179  2.3019
 1921SOL     OW17395   2.020   3.517   5.398  0.4181  0.1521  0.3546
 1921SOL    HW117396   1.952   3.470   5.350 -0.1246  0.3430  0.9421
 1921SOL    HW217397   1.973   3.547   5.476  0.5793  0.1589  0.4496
 1922SOL     OW17398   1.844   1.008  10.103 -0.6148  0.6335 -0.4007
 1922SOL    HW117399   1.794   0.975  10.029 -2.9831  0.5715  1.2223
 1922SOL    HW217400   1.877   1.093  10.074 -0.4797 -0.2345 -2.8051
 1923SOL     OW17401   1.125   0.645   8.826 -0.1933  0.2380 -0.5315
 1923SOL    HW117402   1.070   0.696   8.885  0.7004 -0.6387  1.0353
 1923SOL    HW217403   1.202   0.625   8.879 -1.6407 -0.5165  1.2783
 1924SOL     OW17404   3.767   4.268   0.498 -0.0295 -0.1127  0.5119
 1924SOL    HW117405   3.816   4.251   0.578  0.9080 -1.9855 -0.4530
 1924SOL    HW217406   3.703   4.198   0.511 -0.3191  0.3587  1.5632
 1925SOL     OW17407   4.496   2.288   4.550 -0.6829  0.0891  0.0125
 1925SOL    HW117408   4.476   2.371   4.508  0.2945  0.7430  0.8442
 1925SOL    HW217409   4.414   2.276   4.598 -0.0528 -1.4088  0.7328
 1926SOL     OW17410   2.025   1.126  11.946  0.7216 -0.9341  0.8382
 1926SOL    HW117411   2.097   1.174  11.904  0.0206 -0.0392  0.6619
 1926SOL    HW217412   2.083   1.060  11.984  0.1682 -2.7933 -1.5366
 1927SOL     OW17413   4.339   3.937   3.743 -0.9513 -0.1618  0.1720
 1927SOL    HW117414   4.320   3.976   3.829  2.4101  0.3448  0.6758
 1927SOL    HW217415   4.432   3.960   3.739 -0.8716 -0.9795 -2.4986
 1928SOL     OW17416   2.256   1.646   2.211 -0.3641  0.2826 -0.3055
 1928SOL    HW117417   2.194   1.617   2.279 -0.7259  1.1422 -0.2732
 1928SOL    HW217418   2.339   1.653   2.257 -0.3272 -1.2827 -0.1071
 1929SOL     OW17419   1.617   4.351  12.224  0.4871  0.0565 -0.5790
 1929SOL    HW117420   1.538   4.401  12.247  0.6161 -0.5005  1.1250
 1929SOL    HW217421   1.633   4.310  12.309 -2.7767  2.9769  1.4368
 1930SOL     OW17422   2.565   4.263  16.401 -0.2525  0.3498 -0.1612
 1930SOL    HW117423   2.657   4.240  16.413 -0.2307  0.8199  0.5786
 1930SOL    HW217424   2.518   4.181  16.415  1.2407 -0.6629 -1.2190
 1931SOL     OW17425   1.296   4.602   5.238  0.2979 -0.2237  0.6328
 1931SOL    HW117426   1.348   4.682   5.230 -0.4563  0.1868 -0.0839
 1931SOL    HW217427   1.247   4.599   5.320 -0.1445 -0.2836  0.3669
 1932SOL     OW17428   4.021   4.501  15.041 -0.0021  0.0500 -0.0722
 1932SOL    HW117429   4.089   4.480  14.978 -1.3100  0.0997 -1.5024
 1932SOL    HW217430   4.036   4.590  15.072  0.5587 -0.3431  0.7904
 1933SOL     OW17431   1.589   3.951  16.814 -0.0883 -0.3760 -0.2005
 1933SOL    HW117432   1.657   3.995  16.762  2.0613 -0.9303  2.1279
 1933SOL    HW217433   1.517   3.944  16.752  0.1346 -0.4766 -0.4446
 1934SOL     OW17434   0.209   0.820   7.941 -0.2528 -0.3030  0.0964
 1934SOL    HW117435   0.220   0.836   8.034  0.5173  1.5704 -0.3176
 1934SOL    HW217436   0.294   0.794   7.904 -0.6001 -1.4410  0.0952
 1935SOL     OW17437   1.074   2.557   5.223 -0.8626  0.2212  0.5715
 1935SOL    HW117438   0.983   2.569   5.251 -0.7440  1.7238  0.3226
 1935SOL    HW217439   1.095   2.633   5.169  0.2010 -1.2948 -1.1667
 1936SOL     OW17440   3.506   4.062   9.844  0.5624 -0.3969 -0.0853
 1936SOL    HW117441   3.589   4.090   9.882 -0.0681 -0.2165  1.1566
 1936SOL    HW217442   3.540   4.041   9.757 -0.7276  1.4826 -1.0481
 1937SOL     OW17443   2.110   4.249   8.675 -0.0399  0.1473  0.2086
 1937SOL    HW117444   2.169   4.196   8.728  1.2221  0.7156 -0.6336
 1937SOL    HW217445   2.107   4.187   8.602  0.5429  0.3594  0.0028
 1938SOL     OW17446   0.937   1.218   3.180 -0.4312  0.0007 -0.3757
 1938SOL    HW117447   0.987   1.197   3.259 -1.4360  0.0280  0.2650
 1938SOL    HW217448   0.845   1.211   3.204 -0.5996  2.5113 -0.2662
 1939SOL     OW17449   2.126   0.747  11.203 -0.0265  0.0205  0.0865
 1939SOL    HW117450   2.145   0.668  11.153  0.1668 -0.6311  1.1945
 1939SOL    HW217451   2.145   0.811  11.134 -0.2085 -0.2017 -0.1695
 1940SOL     OW17452   1.472   0.302   2.694  0.1566  0.5490  0.6165
 1940SOL    HW117453   1.441   0.284   2.605 -0.2312 -1.6128  1.1852
 1940SOL    HW217454   1.499   0.394   2.695  0.5136  0.4796 -2.6443
 1941SOL     OW17455   1.017   2.605   3.619  0.1829 -0.2196 -0.1886
 1941SOL    HW117456   1.011   2.701   3.627  0.6700 -0.4397  2.9337
 1941SOL    HW217457   1.071   2.600   3.540 -0.3096  1.3368 -0.6395
 1942SOL     OW17458   1.625   2.215   3.501  0.5145  0.6860  0.0315
 1942SOL    HW117459   1.676   2.139   3.530 -2.5780 -1.0828  0.8538
 1942SOL    HW217460   1.667   2.271   3.566 -0.5605  0.8037  0.6354
 1943SOL     OW17461   2.153   2.639   6.542  0.5617 -0.4072  0.5732
 1943SOL    HW117462   2.215   2.631   6.470  0.6810 -3.8428  1.0546
 1943SOL    HW217463   2.079   2.655   6.484  2.5048  0.4869 -1.6568
 1944SOL     OW17464   4.404   3.870   2.250  0.3156 -0.9348 -0.1081
 1944SOL    HW117465   4.374   3.932   2.183  1.4344  0.6802  0.8576
 1944SOL    HW217466   4.348   3.794   2.238 -0.8945  0.1606 -1.3740
 1945SOL     OW17467   4.243   1.189   0.963 -0.3597 -0.5451 -0.2152
 1945SOL    HW117468   4.309   1.250   0.996 -2.1420  0.9950  0.4846
 1945SOL    HW217469   4.169   1.240   0.997 -0.7507 -0.3057 -1.4150
 1946SOL     OW17470   2.522   0.759   8.932 -0.1679 -0.3618  0.1437
 1946SOL    HW117471   2.503   0.836   8.985  0.8615 -0.6162  0.8763
 1946SOL    HW217472   2.608   0.742   8.970 -0.4099  1.0043  1.3091
 1947SOL     OW17473   0.581   2.426   1.363 -0.0870  0.0588 -0.0252
 1947SOL    HW117474   0.556   2.513   1.331 -0.8597  0.2944  1.2075
 1947SOL    HW217475   0.510   2.369   1.333  0.4267  0.7795 -2.5424
 1948SOL     OW17476   0.445   4.255   5.413 -0.1403 -0.0593 -0.7347
 1948SOL    HW117477   0.381   4.209   5.467  0.9864  0.5941  1.1704
 1948SOL    HW217478   0.388   4.297   5.349 -0.8233 -1.5823 -1.1251
 1949SOL     OW17479   2.571   2.915  11.557 -0.0639  0.0536 -0.0056
 1949SOL    HW117480   2.655   2.890  11.518  0.1342  0.0140  0.4448
 1949SOL    HW217481   2.514   2.885  11.486 -0.9839  0.0547  0.7373
 1950SOL     OW17482   3.545   3.204   9.599  0.0946  0.1265 -0.0000
 1950SOL    HW117483   3.504   3.137   9.654 -1.3969 -0.4358 -1.7831
 1950SOL    HW217484   3.523   3.172   9.511 -0.6442 -0.8731  0.5535
 1951SOL     OW17485   3.906   2.977   9.041 -0.0230  0.5547 -0.1891
 1951SOL    HW117486   3.886   3.019   8.958  0.7856 -2.0493 -1.7229
 1951SOL    HW217487   3.971   2.913   9.012  0.3160  1.3539 -1.1778
 1952SOL     OW17488   3.733   1.050  12.111 -0.4678  0.3301  0.6563
 1952SOL    HW117489   3.779   1.038  12.195  1.9122 -0.3197 -0.7341
 1952SOL    HW217490   3.803   1.099  12.068  0.0118 -0.5735  0.4206
 1953SOL     OW17491   0.961   2.203  11.226 -0.3767 -0.0834 -0.2884
 1953SOL    HW117492   0.970   2.226  11.134  0.9801  1.6913  0.2764
 1953SOL    HW217493   0.877   2.161  11.241  0.2447 -1.9779 -2.1947
 1954SOL     OW17494   1.053   3.994   3.930  0.2480 -0.4980 -0.1383
 1954SOL    HW117495   1.018   3.975   4.017  4.8080 -1.1401  1.5243
 1954SOL    HW217496   1.108   4.070   3.948  2.0860 -1.4605 -1.6902
 1955SOL     OW17497   3.932   4.183   9.112  0.2758  0.3100  0.1573
 1955SOL    HW117498   3.844   4.218   9.098  0.7790  0.9389 -1.4774
 1955SOL    HW217499   3.916   4.163   9.204  2.6790 -0.8469  0.3183
 1956SOL     OW17500   4.693   4.268   9.878  0.3755  0.3251  0.0409
 1956SOL    HW117501   0.040   4.286   9.830 -0.4198  0.9141 -1.0717
 1956SOL    HW217502   4.640   4.347   9.888  0.8150  0.2187  3.1166
 1957SOL     OW17503   1.021   2.329  15.920  0.0935  0.5471  0.3199
 1957SOL    HW117504   0.973   2.404  15.885 -1.7919  0.6417  3.1162
 1957SOL    HW217505   0.961   2.305  15.991 -0.7253  1.2043 -0.1527
 1958SOL     OW17506   3.111   1.796   8.280  0.0213  0.3519 -0.0753
 1958SOL    HW117507   3.022   1.833   8.276 -0.1979  0.2700  3.2923
 1958SOL    HW217508   3.152   1.862   8.336 -0.4574  1.2139 -0.7400
 1959SOL     OW17509   2.978   1.430  14.877  0.3413  0.3351 -0.2836
 1959SOL    HW117510   2.939   1.423  14.964 -0.5578  2.6206 -0.4951
 1959SOL    HW217511   3.012   1.341  14.876 -2.3744 -0.7156  0.3568
 1960SOL     OW17512   4.337   3.031   3.269  0.3423  0.0958  0.1874
 1960SOL    HW117513   4.259   2.998   3.223 -0.9781  1.0422  1.7361
 1960SOL    HW217514   4.358   2.959   3.328  2.3385 -0.6779 -1.4958
 1961SOL     OW17515   1.591   3.872  11.772  0.0132 -0.4771  0.0648
 1961SOL    HW117516   1.599   3.777  11.775 -2.9053 -0.7779 -1.0928
 1961SOL    HW217517   1.497   3.883  11.790  0.1439  0.3657  0.2234
 1962SOL     OW17518   3.098   4.500   7.910 -0.4019  0.4365 -0.2863
 1962SOL    HW117519   3.106   4.456   7.995  2.0503  1.4153 -0.0082
 1962SOL    HW217520   3.007   4.530   7.909 -0.0822  1.3428 -2.5343
 1963SOL     OW17521   4.456   3.631   0.584 -0.1578 -0.1539  0.2157
 1963SOL    HW117522   4.365   3.605   0.576  0.6044 -2.7749 -0.0449
 1963SOL    HW217523   4.452   3.713   0.534  1.2613 -0.6572 -0.7315
 1964SOL     OW17524   0.377   2.357   6.005  0.9273 -0.1751 -0.2566
 1964SOL    HW117525   0.452   2.402   6.042 -0.8420  1.3393  1.4862
 1964SOL    HW217526   0.306   2.404   6.048  1.6708  0.2476  0.5032
 1965SOL     OW17527   3.471   2.086   2.958  0.1811 -0.1568  0.2988
 1965SOL    HW117528   3.387   2.040   2.961  0.1377  0.0172  1.7572
 1965SOL    HW217529   3.516   2.063   3.040  0.5072 -0.2240  0.1017
 1966SOL     OW17530   0.082   1.474   8.154 -0.0019 -0.3661 -0.5222
 1966SOL    HW117531   0.115   1.563   8.162  1.0570 -0.6174 -1.9509
 1966SOL    HW217532   0.152   1.422   8.193 -0.4462 -0.6117 -0.0600
 1967SOL     OW17533   3.726   1.473  16.273 -0.5146 -0.0262 -0.1952
 1967SOL    HW117534   3.821   1.464  16.284 -0.3655 -0.1612 -1.6626
 1967SOL    HW217535   3.695   1.518  16.352  0.1788 -0.4118  0.2990
 1968SOL     OW17536   2.258   0.245   8.464 -0.1208  0.2089 -0.2961
 1968SOL    HW117537   2.254   0.231   8.559  1.6631 -1.5623 -0.4684
 1968SOL    HW217538   2.235   0.159   8.429 -2.2796  1.0012 -0.7843
 1969SOL     OW17539   2.080   3.904  16.157  0.5628 -0.0316  0.2310
 1969SOL    HW117540   2.110   3.918  16.247 -1.4376  0.3853  0.8135
 1969SOL    HW217541   1.985   3.911  16.162  0.3572 -1.9048 -0.9105
 1970SOL     OW17542   3.032   2.428  12.911  0.4274 -0.5279  0.5695
 1970SOL    HW117543   3.042   2.514  12.951  0.6282 -0.9614  1.4444
 1970SOL    HW217544   2.947   2.413  12.954 -0.0893 -0.3828 -0.4105
 1971SOL     OW17545   3.805   0.485   7.740  0.4542 -0.0746 -0.1427
 1971SOL    HW117546   3.746   0.485   7.815 -0.1965  1.0021 -0.6543
 1971SOL    HW217547   3.753   0.417   7.698 -0.5614  1.7242 -1.8259
 1972SOL     OW17548   3.736   3.985   3.485 -0.5592 -0.1373  0.1819
 1972SOL    HW117549   3.828   3.958   3.491 -1.5363 -3.3921  0.6912
 1972SOL    HW217550   3.704   3.901   3.450 -2.0250 -0.1004  1.4504
 1973SOL     OW17551   2.400   0.942  16.468 -0.3405 -0.2736  0.3467
 1973SOL    HW117552   2.376   0.975  16.381  1.4811 -1.6788 -0.6983
 1973SOL    HW217553   2.350   0.862  16.482  0.9893 -1.0316  0.7449
 1974SOL     OW17554   1.010   3.429  17.699 -0.7224  0.7073 -0.4627
 1974SOL    HW117555   1.069   3.490  17.656  0.1631  2.1569  2.7927
 1974SOL    HW217556   1.046   3.345  17.672  1.3585  1.6924 -0.7835
 1975SOL     OW17557   3.534   3.176   7.798  0.3348  0.2565 -0.2673
 1975SOL    HW117558   3.538   3.148   7.889  1.4748 -0.2503 -0.4732
 1975SOL    HW217559   3.489   3.260   7.800 -0.9720 -0.4870  1.8089
 1976SOL     OW17560   0.476   3.461   8.598  0.1336  0.5882 -0.3352
 1976SOL    HW117561   0.571   3.453   8.608  0.0747  0.2694 -0.0167
 1976SOL    HW217562   0.469   3.533   8.535  1.6994  0.6944 -0.3810
 1977SOL     OW17563   0.111   0.885   2.657 -0.3786  0.5089 -0.0928
 1977SOL    HW117564   0.164   0.878   2.737 -0.7827 -0.4981  0.0900
 1977SOL    HW217565   0.150   0.823   2.595  1.1582  1.4806 -0.1113
 1978SOL     OW17566   0.022   3.129   7.150  0.6222 -0.9603  0.2672
 1978SOL    HW117567   0.107   3.121   7.194  1.4044  1.8399 -0.7528
 1978SOL    HW217568   4.719   3.051   7.192 -0.0752  0.3966  2.2107
 1979SOL     OW17569   1.059   3.959   5.004 -0.1560 -0.3641 -0.8413
 1979SOL    HW117570   1.135   4.007   5.037 -0.8955  1.0085 -1.1258
 1979SOL    HW217571   1.006   4.031   4.971 -1.2530 -0.0180  1.6543
 1980SOL     OW17572   0.217   3.809  10.013  0.4211  0.2979 -0.5047
 1980SOL    HW117573   0.247   3.894   9.981 -0.3807  1.2556  1.2476
 1980SOL    HW217574   0.128   3.839  10.030 -0.1449 -2.0578  0.7405
 1981SOL     OW17575   3.979   2.407   8.193 -0.3320 -0.2008  0.1011
 1981SOL    HW117576   3.988   2.320   8.154 -1.6484  0.1966 -1.0979
 1981SOL    HW217577   3.941   2.377   8.275 -2.2665 -0.1877 -0.8038
 1982SOL     OW17578   2.324   2.692   0.783  0.3473  0.1799  0.0124
 1982SOL    HW117579   2.307   2.609   0.740  2.5355 -0.7581  0.9673
 1982SOL    HW217580   2.370   2.724   0.705 -0.5028  2.9050  0.6122
 1983SOL     OW17581   2.273   4.052   5.002 -0.3439 -0.2196  0.0426
 1983SOL    HW117582   2.230   4.110   5.065 -1.0292 -1.5142  0.7878
 1983SOL    HW217583   2.208   3.982   5.008  2.1577 -2.6481 -1.1848
 1984SOL     OW17584   4.347   4.436   8.944  0.0071  0.4862  0.8260
 1984SOL    HW117585   4.354   4.414   8.852  0.9372 -1.2592  1.3143
 1984SOL    HW217586   4.301   4.356   8.970  0.0663  0.5531  1.1448
 1985SOL     OW17587   3.739   2.188   1.882 -0.0725  0.4477 -0.0255
 1985SOL    HW117588   3.707   2.225   1.964  0.1554 -0.2099  0.3652
 1985SOL    HW217589   3.682   2.112   1.892 -1.4340  1.0839 -3.1003
 1986SOL     OW17590   3.041   4.320  10.980  0.0375 -0.0650  0.4360
 1986SOL    HW117591   3.080   4.390  11.032  1.2127 -0.4197  0.0299
 1986SOL    HW217592   2.994   4.367  10.911  0.1052 -0.1539  0.3291
 1987SOL     OW17593   3.342   4.653  12.776  0.4195 -0.0756 -0.2419
 1987SOL    HW117594   3.344   4.590  12.849 -0.2920  1.7079  1.2907
 1987SOL    HW217595   3.326   4.595  12.701  1.5750 -3.1375  1.8488
 1988SOL     OW17596   3.811   2.740  16.299 -0.7162  0.5245  0.3267
 1988SOL    HW117597   3.721   2.707  16.303 -1.1904  1.9080  1.0536
 1988SOL    HW217598   3.865   2.663  16.280 -0.8503  0.0718  1.7896
 1989SOL     OW17599   1.198   4.624   4.945  0.3237  0.1471  0.6939
 1989SOL    HW117600   1.263   4.619   5.015  0.4486  1.5470  0.6853
 1989SOL    HW217601   1.146   4.549   4.973 -0.8036  0.6422 -0.1051
 1990SOL     OW17602   0.647   1.893   4.579 -0.2625  0.0763 -0.2092
 1990SOL    HW117603   0.674   1.837   4.652  1.2456  0.9219 -0.1278
 1990SOL    HW217604   0.554   1.910   4.595  0.0530  2.6730 -1.2486
 1991SOL     OW17605   2.010   3.401   2.927  0.1229 -0.2347 -0.2298
 1991SOL    HW117606   1.969   3.483   2.954  0.1085 -0.5828  0.8060
 1991SOL    HW217607   1.943   3.333   2.935 -2.5093  2.4827  0.8772
 1992SOL     OW17608   0.962   0.570   3.472 -0.4163 -0.1913  0.0828
 1992SOL    HW117609   0.873   0.576   3.439 -0.7602  0.2174  1.0858
 1992SOL    HW217610   0.988   0.662   3.468  1.5195 -0.7747 -0.5578
 1993SOL     OW17611   2.965   1.653   1.204 -0.0597  0.5517  0.2732
 1993SOL    HW117612   3.021   1.588   1.162  0.4831  1.7824 -0.9023
 1993SOL    HW217613   2.912   1.689   1.132 -2.0489 -1.9626  0.4826
 1994SOL     OW17614   4.427   2.652   5.101 -0.1154 -0.2390  0.1528
 1994SOL    HW117615   4.366   2.724   5.090  0.3496  0.2931  0.9670
 1994SOL    HW217616   4.499   2.698   5.146  1.0025 -1.2295 -0.6280
 1995SOL     OW17617   3.043   3.466   4.935  0.1335  0.4668 -0.8146
 1995SOL    HW117618   3.028   3.481   5.028  3.4610 -3.1276  0.3161
 1995SOL    HW217619   2.979   3.524   4.894 -2.1418 -1.6619 -0.2881
 1996SOL     OW17620   1.095   2.845  11.648  0.2979 -0.2809  0.8338
 1996SOL    HW117621   1.191   2.843  11.641  0.0315 -2.0386 -2.0223
 1996SOL    HW217622   1.071   2.756  11.624 -1.5019  0.4205  0.0800
 1997SOL     OW17623   3.044   4.145  11.618 -0.3821 -0.5614 -0.3656
 1997SOL    HW117624   3.096   4.225  11.620 -1.3864  0.0777 -0.2042
 1997SOL    HW217625   3.115   4.081  11.625  0.8663  1.0873  1.8653
 1998SOL     OW17626   1.867   0.869  13.469  0.0394  0.6842  0.1403
 1998SOL    HW117627   1.813   0.796  13.499 -1.6041  1.8997  0.2058
 1998SOL    HW217628   1.819   0.940  13.512  0.5878  0.3025  1.3765
 1999SOL     OW17629   4.550   1.030   6.050  0.5611 -0.1271  0.2475
 1999SOL    HW117630   4.539   1.066   5.963  2.7722  1.7857  0.7516
 1999SOL    HW217631   4.591   0.944   6.036  0.3661 -0.0351 -0.8569
 2000SOL     OW17632   4.108   3.354   1.483  0.0561  0.2646  0.1613
 2000SOL    HW117633   4.135   3.289   1.418 -1.3695 -0.1269 -0.0335
 2000SOL    HW217634   4.069   3.286   1.537  0.4786 -1.2942 -1.5070
 2001SOL     OW17635   3.271   0.777   5.058 -0.1938 -0.0619 -0.1035
 2001SOL    HW117636   3.188   0.751   5.017 -0.1800 -1.0820  0.5229
 2001SOL    HW217637   3.303   0.834   4.988  1.4069  1.4897  1.9289
 2002SOL     OW17638   3.351   3.081   2.892  0.2386  0.8369 -0.0345
 2002SOL    HW117639   3.270   3.043   2.927  1.3247  1.2177  2.9707
 2002SOL    HW217640   3.377   3.134   2.968 -3.1642  0.8060  1.1665
 2003SOL     OW17641   1.016   1.894   2.019  0.3531  0.0487 -0.1590
 2003SOL    HW117642   0.956   1.935   2.080 -2.1365 -0.5027 -2.2559
 2003SOL    HW217643   1.097   1.915   2.066  1.4029 -1.3922 -1.3327
 2004SOL     OW17644   1.835   4.463  11.343  0.2687  0.4323 -0.2242
 2004SOL    HW117645   1.841   4.549  11.385 -2.0344  0.3066  0.3791
 2004SOL    HW217646   1.780   4.487  11.268  1.7218 -1.3367 -1.8603
 2005SOL     OW17647   0.331   0.326  14.542 -0.0005 -0.3559 -0.0109
 2005SOL    HW117648   0.269   0.307  14.471 -0.2962 -2.5746  0.8386
 2005SOL    HW217649   0.264   0.331  14.609  0.9547 -0.3571  0.9398
 2006SOL     OW17650   1.607   3.931   3.999 -0.2978  0.6142  0.4371
 2006SOL    HW117651   1.529   3.964   4.043  0.4166  0.8710  1.5048
 2006SOL    HW217652   1.605   3.993   3.927 -1.5225 -0.5254 -0.5123
 2007SOL     OW17653   2.389   1.575   6.599 -0.0523  0.0723  0.3903
 2007SOL    HW117654   2.447   1.649   6.580 -0.3194 -0.2120 -1.4951
 2007SOL    HW217655   2.401   1.517   6.524  0.7347 -0.9123  1.2754
 2008SOL     OW17656   0.091   4.277   2.449 -0.4691 -0.0507  0.3135
 2008SOL    HW117657   0.024   4.282   2.517 -2.3769  0.9472 -1.6418
 2008SOL    HW217658   0.140   4.355   2.475 -1.4224  0.1433  1.5284
 2009SOL     OW17659   2.640   0.950  14.573 -0.4003  0.6236  0.2350
 2009SOL    HW117660   2.608   0.871  14.529  0.7548 -0.5159  1.4812
 2009SOL    HW217661   2.611   0.920  14.659 -0.2298  1.6097  0.6386
 2010SOL     OW17662   2.355   0.183   9.105 -0.1182 -0.8109  0.4483
 2010SOL    HW117663   2.405   0.241   9.048 -2.0620  0.7602  0.3094
 2010SOL    HW217664   2.385   0.204   9.194 -1.7080  1.7449  0.4125
 2011SOL     OW17665   0.278   2.853   8.392  0.6490  0.5045  0.1820
 2011SOL    HW117666   0.249   2.794   8.462 -0.3967  1.0935  0.2417
 2011SOL    HW217667   0.236   2.812   8.317  0.8223  0.6775 -0.0104
 2012SOL     OW17668   1.562   1.449   3.290 -0.2716  0.5572 -0.2489
 2012SOL    HW117669   1.570   1.493   3.206 -1.9855 -0.2568 -0.8407
 2012SOL    HW217670   1.475   1.480   3.318 -0.8373 -0.8963 -0.4032
 2013SOL     OW17671   0.312   4.266   3.788  0.2577  0.0353 -0.2646
 2013SOL    HW117672   0.378   4.252   3.721 -0.1752  0.3426 -0.7543
 2013SOL    HW217673   0.280   4.177   3.800  1.2653 -0.5233 -1.7743
 2014SOL     OW17674   3.108   0.180   4.145 -0.0048 -0.7836 -0.6672
 2014SOL    HW117675   3.080   0.122   4.216  2.6144 -0.2306  0.7990
 2014SOL    HW217676   3.033   0.180   4.085 -0.3555 -1.9608 -0.2458
 2015SOL     OW17677   3.804   1.928   8.982 -0.3713  0.1967 -0.1889
 2015SOL    HW117678   3.769   1.861   8.924 -1.2888 -0.9234  1.6469
 2015SOL    HW217679   3.729   1.945   9.040 -0.5121 -0.1228 -0.2768
 2016SOL     OW17680   0.944   3.065   4.691  0.2078  0.2010  0.5606
 2016SOL    HW117681   0.962   2.990   4.634 -0.3373  0.6397 -0.2073
 2016SOL    HW217682   0.950   3.014   4.771 -3.3142 -0.3026  0.4981
 2017SOL     OW17683   3.591   4.723   8.671  0.7848 -0.0940 -0.8724
 2017SOL    HW117684   3.510   0.024   8.633 -1.2895 -2.9978  0.8604
 2017SOL    HW217685   3.592   0.042   8.750  0.6718  1.0911 -1.6634
 2018SOL     OW17686   1.015   1.287  13.833 -0.2252 -0.1687 -0.2059
 2018SOL    HW117687   1.107   1.263  13.828 -0.1092  0.1829  0.2175
 2018SOL    HW217688   1.000   1.281  13.739  0.6355  0.5506 -0.3896
 2019SOL     OW17689   2.232   2.214   0.502  0.1913 -0.8487  0.9797
 2019SOL    HW117690   2.168   2.281   0.526  0.9343  0.0138  0.5344
 2019SOL    HW217691   2.250   2.240   0.412  0.3418  2.7983  2.0860
 2020SOL     OW17692   4.416   1.814  16.951 -0.0589 -0.4559  0.2077
 2020SOL    HW117693   4.439   1.859  17.032 -0.8709 -0.8797  0.6752
 2020SOL    HW217694   4.322   1.834  16.949 -0.0949 -0.4330  1.7484
 2021SOL     OW17695   2.662   2.896  11.177 -0.0699  0.0758 -0.2709
 2021SOL    HW117696   2.736   2.932  11.227 -0.1881  1.7773 -1.3249
 2021SOL    HW217697   2.597   2.965  11.193 -0.3711  0.4390 -3.1178
 2022SOL     OW17698   1.225   1.703   1.900  0.3233 -0.6465  0.1199
 2022SOL    HW117699   1.292   1.759   1.939 -0.6790  1.9854 -1.9265
 2022SOL    HW217700   1.156   1.699   1.966 -0.6544  0.3596 -0.8424
 2023SOL     OW17701   0.749   3.915   4.943 -0.1992 -0.1848 -0.0842
 2023SOL    HW117702   0.671   3.899   4.891 -0.6263 -0.3347  0.6076
 2023SOL    HW217703   0.820   3.922   4.878 -1.6293  2.0674 -1.4026
 2024SOL     OW17704   3.405   3.401   2.701 -0.3368 -0.1673 -0.0706
 2024SOL    HW117705   3.368   3.474   2.750 -1.0390 -0.6230  0.0742
 2024SOL    HW217706   3.491   3.435   2.678 -0.2770  1.0148  1.9218
 2025SOL     OW17707   0.451   3.104   9.613 -0.4155  0.3773  0.4876
 2025SOL    HW117708   0.518   3.168   9.637 -1.0971  0.7508  1.4141
 2025SOL    HW217709   0.498   3.041   9.559 -1.1690  1.2194 -1.1393
 2026SOL     OW17710   1.083   0.609   2.959 -0.1830 -0.3349 -0.9219
 2026SOL    HW117711   1.048   0.636   3.044  1.3202  0.2381 -0.4872
 2026SOL    HW217712   1.024   0.663   2.907  0.2844  1.6475  0.6016
 2027SOL     OW17713   0.682   2.351   9.092  0.6503 -0.2959  0.3106
 2027SOL    HW117714   0.606   2.365   9.149  0.2567  2.0412 -0.7737
 2027SOL    HW217715   0.639   2.302   9.023 -0.1434 -2.0536  2.0603
 2028SOL     OW17716   3.350   2.111  11.558 -0.3001  0.5866 -0.1278
 2028SOL    HW117717   3.395   2.134  11.640 -0.8688  1.6405 -0.1081
 2028SOL    HW217718   3.288   2.183  11.543 -2.2592 -0.5529  2.5343
 2029SOL     OW17719   2.601   3.362  12.453  0.0587 -0.1553  0.1678
 2029SOL    HW117720   2.606   3.349  12.359  0.4924  0.1606  0.1460
 2029SOL    HW217721   2.599   3.270  12.480 -1.7603  0.5322  2.3976
 2030SOL     OW17722   4.547   4.368   7.670 -0.1069 -0.3751  0.4213
 2030SOL    HW117723   4.568   4.460   7.690 -0.4408  0.0762 -1.2952
 2030SOL    HW217724   4.462   4.366   7.714 -0.1539  0.3754  0.3649
 2031SOL     OW17725   1.237   3.330   8.417 -0.2113  0.1297  0.6179
 2031SOL    HW117726   1.189   3.413   8.420 -2.3812 -1.2222  2.6226
 2031SOL    HW217727   1.324   3.359   8.448 -1.0635  1.2773  1.9352
 2032SOL     OW17728   0.167   3.793   1.027  0.3644 -0.1440 -0.1131
 2032SOL    HW117729   0.165   3.756   0.939  0.9537 -0.1125 -0.1393
 2032SOL    HW217730   0.129   3.724   1.081 -1.3968 -0.9829 -2.4492
 2033SOL     OW17731   1.416   4.324   2.769  0.0204 -0.0213 -0.2422
 2033SOL    HW117732   1.408   4.418   2.751 -1.9601  0.2198  1.9175
 2033SOL    HW217733   1.340   4.315   2.827  0.2880  0.0723  0.1251
 2034SOL     OW17734   4.183   3.812   3.220  0.0897 -0.0114  0.2716
 2034SOL    HW117735   4.223   3.891   3.184  0.6916 -0.6685 -0.5249
 2034SOL    HW217736   4.097   3.813   3.178 -0.9811  0.7295  2.4852
 2035SOL     OW17737   1.478   3.672   3.563 -0.0014 -0.4470  0.0083
 2035SOL    HW117738   1.387   3.645   3.574 -0.5695  1.3614 -0.2543
 2035SOL    HW217739   1.484   3.766   3.581 -0.1380 -0.4137 -0.1305
 2036SOL     OW17740   3.720   0.765   4.164  0.0560 -0.2357  0.0913
 2036SOL    HW117741   3.667   0.822   4.220 -0.4201 -1.8693  1.2827
 2036SOL    HW217742   3.783   0.821   4.120  0.5703 -2.6308 -2.2120
 2037SOL     OW17743   1.243   0.569  15.774 -0.4303  0.4839 -1.1157
 2037SOL    HW117744   1.256   0.582  15.680 -1.2947  1.4536 -1.1070
 2037SOL    HW217745   1.283   0.644  15.819 -0.4977 -1.0223  1.4199
 2038SOL     OW17746   1.381   3.150   7.304  0.1726 -0.0280  0.2003
 2038SOL    HW117747   1.372   3.231   7.354  4.3577  0.8023 -0.3513
 2038SOL    HW217748   1.458   3.111   7.344  1.3945 -0.1107 -2.1899
 2039SOL     OW17749   1.068   0.895   8.151  0.2252  0.5534  0.0316
 2039SOL    HW117750   1.094   0.829   8.216 -0.1842  1.4433  1.0993
 2039SOL    HW217751   0.978   0.864   8.137  0.6216  0.2797 -1.8346
 2040SOL     OW17752   3.002   3.756   2.757 -0.5800 -0.1210  0.5505
 2040SOL    HW117753   3.014   3.763   2.852 -0.0211 -0.6523  0.5269
 2040SOL    HW217754   2.987   3.663   2.741 -1.4013  0.2157 -0.5668
 2041SOL     OW17755   2.319   1.429  16.074  0.3286  0.3125  0.3340
 2041SOL    HW117756   2.320   1.451  16.167  0.1232  1.2780  0.1037
 2041SOL    HW217757   2.397   1.477  16.048  1.0355  0.6924  3.1609
 2042SOL     OW17758   1.562   1.248   5.193 -0.0410  0.1813 -0.1616
 2042SOL    HW117759   1.640   1.194   5.182  0.2083  0.2966  0.9653
 2042SOL    HW217760   1.501   1.197   5.139 -1.6884  0.3842  1.4913
 2043SOL     OW17761   2.197   2.994  13.676  0.6261  0.9174 -0.0784
 2043SOL    HW117762   2.235   2.995  13.589  1.7813  0.7123  0.4323
 2043SOL    HW217763   2.225   2.904  13.692  0.9580  1.0045 -0.1891
 2044SOL     OW17764   2.854   3.428  15.383  0.0605 -0.1362 -0.2431
 2044SOL    HW117765   2.942   3.467  15.381 -0.6577  1.4484 -0.6399
 2044SOL    HW217766   2.810   3.499  15.429  1.7253  0.1360  0.9665
 2045SOL     OW17767   2.974   2.297   7.214 -0.2526  0.1340  0.3564
 2045SOL    HW117768   3.001   2.209   7.240 -0.7117  0.1568  0.9001
 2045SOL    HW217769   2.891   2.304   7.261 -2.0455  0.1897 -2.7811
 2046SOL     OW17770   3.032   0.336  10.909  0.1636  0.4899  0.2882
 2046SOL    HW117771   3.060   0.265  10.967  1.0504  1.2566  0.7896
 2046SOL    HW217772   2.945   0.362  10.939  0.4319  1.3149  0.3478
 2047SOL     OW17773   2.317   4.284   5.390  0.5665 -0.1400  0.2183
 2047SOL    HW117774   2.241   4.287   5.332  0.7404  1.1671  0.0541
 2047SOL    HW217775   2.294   4.217   5.454 -1.1025  1.3654  1.2052
 2048SOL     OW17776   2.624   4.665  11.312  0.2464 -0.1075  0.1019
 2048SOL    HW117777   2.629   4.708  11.227 -1.3251 -2.6758 -1.3061
 2048SOL    HW217778   2.566   4.729  11.352  1.3211  1.9446 -1.6179
 2049SOL     OW17779   2.127   4.523  12.108 -0.0622  0.2977  0.3148
 2049SOL    HW117780   2.173   4.505  12.026  0.0070 -0.1855  0.4588
 2049SOL    HW217781   2.057   4.580  12.076  0.2181  0.5997  0.2436
 2050SOL     OW17782   3.183   4.021   9.716 -0.0009  0.1828  0.2226
 2050SOL    HW117783   3.217   4.069   9.641 -1.0665  1.2423  0.4247
 2050SOL    HW217784   3.139   3.943   9.680  0.2256  0.8105 -1.4115
 2051SOL     OW17785   2.661   1.499   3.632  0.0717  0.3199 -0.0152
 2051SOL    HW117786   2.632   1.446   3.558 -1.6373  0.3058  0.6432
 2051SOL    HW217787   2.679   1.434   3.701 -2.1451  1.3112  1.4885
 2052SOL     OW17788   2.383   2.505   1.850  0.3275  0.3273 -0.2003
 2052SOL    HW117789   2.294   2.470   1.840  0.3311  0.3488 -0.3046
 2052SOL    HW217790   2.435   2.427   1.871  0.3722  0.5441  0.4902
 2053SOL     OW17791   4.295   1.241   6.764 -0.3106 -0.4276 -0.4566
 2053SOL    HW117792   4.291   1.337   6.771 -2.1351 -0.4130 -1.5777
 2053SOL    HW217793   4.258   1.221   6.678 -1.8071 -0.7482  0.2583
 2054SOL     OW17794   4.631   3.087   3.835 -0.9081 -0.6768  0.1200
 2054SOL    HW117795   4.715   3.132   3.834 -1.9518  1.2538  0.5487
 2054SOL    HW217796   4.650   3.007   3.785  1.6188 -0.0059  0.0550
 2055SOL     OW17797   4.165   2.024   9.221 -0.4682 -0.2234  0.3164
 2055SOL    HW117798   4.215   2.091   9.267  1.5482 -0.7361 -1.1052
 2055SOL    HW217799   4.194   2.009   9.130 -1.2229  1.8105 -0.2517
 2056SOL     OW17800   0.068   1.327   6.454 -0.0075  0.3547 -0.1889
 2056SOL    HW117801   0.099   1.251   6.404  0.0221 -0.4073  0.9910
 2056SOL    HW217802   0.141   1.350   6.511 -0.6125 -1.8476  1.4625
 2057SOL     OW17803   3.111   3.134   8.992 -0.3197  0.3278  0.7825
 2057SOL    HW117804   3.118   3.093   8.906 -3.5545 -1.0073  1.1484
 2057SOL    HW217805   3.179   3.092   9.044 -0.3468  1.9836  2.1674
 2058SOL     OW17806   2.421   2.799   5.750 -0.7449 -0.8037  0.2870
 2058SOL    HW117807   2.333   2.802   5.787 -0.0108  1.7509  1.8452
 2058SOL    HW217808   2.466   2.765   5.827 -0.7364 -2.1813 -0.3332
 2059SOL     OW17809   0.604   0.196   5.400 -0.5976 -0.0719  0.0684
 2059SOL    HW117810   0.587   0.236   5.315  0.1485 -1.0332 -0.5163
 2059SOL    HW217811   0.564   0.261   5.459  1.1597  2.8059 -1.8923
 2060SOL     OW17812   3.694   1.021   6.681  0.2345 -0.2097 -0.5402
 2060SOL    HW117813   3.673   1.111   6.655  1.4104  0.0298 -0.6675
 2060SOL    HW217814   3.620   1.010   6.741  0.3085 -0.2862 -0.4622
 2061SOL     OW17815   4.593   1.543  15.928  0.2386  0.5119  0.0837
 2061SOL    HW117816   4.504   1.510  15.939 -0.8166  3.2019 -0.5295
 2061SOL    HW217817   4.579   1.637  15.919  0.3913  0.4402 -0.9088
 2062SOL     OW17818   2.471   1.956   5.405 -0.1250 -0.1360 -0.0071
 2062SOL    HW117819   2.436   1.907   5.330 -2.0041 -0.0801  0.8479
 2062SOL    HW217820   2.540   1.897   5.435 -0.4800 -0.2429  0.6115
 2063SOL     OW17821   0.803   3.183   2.462  0.3112  0.1246  0.1076
 2063SOL    HW117822   0.852   3.195   2.543  0.8829 -1.1469 -0.0511
 2063SOL    HW217823   0.822   3.092   2.438 -1.4930 -0.2882  0.2969
 2064SOL     OW17824   2.881   3.843  11.416  0.0975 -0.0022  0.1394
 2064SOL    HW117825   2.953   3.897  11.385 -1.2728  1.9291  0.2768
 2064SOL    HW217826   2.820   3.914  11.438 -0.7373 -0.8069  0.4547
 2065SOL     OW17827   2.584   0.390   1.458 -0.1153  0.1506 -0.4760
 2065SOL    HW117828   2.495   0.375   1.427 -0.7028  2.0824  0.2817
 2065SOL    HW217829   2.647   0.371   1.388 -0.7184  1.7705 -1.4527
 2066SOL     OW17830   4.319   0.190   7.369  0.5318  0.3594 -0.0270
 2066SOL    HW117831   4.231   0.153   7.361  1.0470 -0.4697 -1.8525
 2066SOL    HW217832   4.336   0.195   7.463  0.0444 -0.5632  0.1095
 2067SOL     OW17833   2.441   3.108   4.605  0.4204  0.5620 -0.3279
 2067SOL    HW117834   2.419   3.019   4.580  0.2740  0.5332 -0.0909
 2067SOL    HW217835   2.409   3.118   4.694 -0.7905  0.4966 -0.7620
 2068SOL     OW17836   2.119   0.680   9.345  0.0469 -0.1709  0.1337
 2068SOL    HW117837   2.033   0.717   9.328 -0.0931  0.0890  1.4134
 2068SOL    HW217838   2.093   0.603   9.395 -2.2182  1.1063  0.9212
 2069SOL     OW17839   4.231   3.384   2.576  0.1446 -0.1366 -0.5244
 2069SOL    HW117840   4.259   3.417   2.662 -0.1904  2.4759 -1.4154
 2069SOL    HW217841   4.256   3.459   2.522 -0.3301  1.5273  1.5499
 2070SOL     OW17842   4.653   3.445   5.867  0.0052 -0.0111 -0.2999
 2070SOL    HW117843   4.584   3.386   5.837 -2.7666  2.4176  1.2537
 2070SOL    HW217844   4.612   3.498   5.935 -0.3028  0.8992 -1.2066
 2071SOL     OW17845   2.690   0.776   9.492 -0.6345 -0.1807 -0.3407
 2071SOL    HW117846   2.701   0.866   9.460 -1.0967  0.2220  0.6703
 2071SOL    HW217847   2.626   0.735   9.435 -0.4919 -0.8800  0.0071
 2072SOL     OW17848   2.056   0.696   6.994  0.4411 -0.0934 -0.1899
 2072SOL    HW117849   1.995   0.628   6.966 -0.0601  0.5453 -0.6476
 2072SOL    HW217850   2.094   0.648   7.067 -1.7136  0.6089  1.3758
 2073SOL     OW17851   2.158   2.580   9.255  0.1588 -0.4680  0.4403
 2073SOL    HW117852   2.077   2.544   9.290 -0.3780 -0.2911 -0.6314
 2073SOL    HW217853   2.223   2.514   9.278  1.3749  0.3443 -0.6742
 2074SOL     OW17854   4.607   1.071   4.986  0.0875 -0.4548  0.2160
 2074SOL    HW117855   4.562   1.140   4.938  0.4169 -0.1948  0.2790
 2074SOL    HW217856   4.547   0.999   4.970 -1.8353  0.2452  4.2862
 2075SOL     OW17857   0.262   4.471   2.598 -0.2183 -0.1754  0.2219
 2075SOL    HW117858   0.340   4.416   2.604  1.4458  1.7560 -3.3728
 2075SOL    HW217859   0.223   4.453   2.684 -0.2490  1.2594  0.5101
 2076SOL     OW17860   4.206   2.982  16.202 -0.3286 -0.5150  0.4051
 2076SOL    HW117861   4.185   2.922  16.130  0.6585 -1.7082  1.1145
 2076SOL    HW217862   4.220   2.918  16.272  0.8186 -1.5027 -0.7237
 2077SOL     OW17863   0.483   0.524   8.142  0.2304 -0.3715  0.5993
 2077SOL    HW117864   0.472   0.606   8.093 -0.2908 -0.1921  1.0166
 2077SOL    HW217865   0.394   0.490   8.140 -0.7148  2.0224  1.4191
 2078SOL     OW17866   3.245   1.336   1.248 -0.2630 -0.5768 -0.0615
 2078SOL    HW117867   3.225   1.356   1.157 -0.0876  0.4088  0.1078
 2078SOL    HW217868   3.338   1.315   1.234 -1.1801 -1.8335 -4.2873
 2079SOL     OW17869   0.779   3.674   7.037  0.0029 -0.3796 -0.0482
 2079SOL    HW117870   0.846   3.667   6.968 -1.6688  0.1138 -1.7078
 2079SOL    HW217871   0.703   3.664   6.980  0.4417  2.0921 -1.0429
 2080SOL     OW17872   4.025   1.492   7.418  0.2183  0.2150 -0.2897
 2080SOL    HW117873   4.013   1.411   7.368 -1.6904 -0.0415  0.5753
 2080SOL    HW217874   4.108   1.525   7.385  1.0349 -0.5197  1.0061
 2081SOL     OW17875   3.659   4.706   4.279  0.2982  0.3572 -0.1440
 2081SOL    HW117876   3.609   0.034   4.226  2.6811  3.0613  0.7976
 2081SOL    HW217877   3.653   4.639   4.211 -0.2413 -0.2716  0.5171
 2082SOL     OW17878   0.930   4.693  14.462  0.1890 -0.1715  0.0369
 2082SOL    HW117879   0.910   0.025  14.528 -1.5197  0.9043 -1.5756
 2082SOL    HW217880   1.014   4.729  14.433  1.3481 -1.9292  1.1887
 2083SOL     OW17881   2.639   0.769  16.739 -0.1499  0.2568 -0.1965
 2083SOL    HW117882   2.617   0.852  16.697  0.1140 -0.2453 -1.3458
 2083SOL    HW217883   2.609   0.789  16.827 -1.7290  0.2617 -0.7452
 2084SOL     OW17884   1.681   0.429   5.197 -0.2447  0.1169 -0.4056
 2084SOL    HW117885   1.699   0.380   5.277  0.4330 -0.3647 -0.8624
 2084SOL    HW217886   1.754   0.489   5.187  0.2622 -0.4697 -0.2116
 2085SOL     OW17887   2.788   4.208  11.202 -0.5900 -0.1125 -0.7056
 2085SOL    HW117888   2.730   4.283  11.191  0.6993  0.9458 -0.3697
 2085SOL    HW217889   2.872   4.249  11.182  0.2727 -1.8086 -0.5183
 2086SOL     OW17890   2.085   0.172   5.654 -0.1957  0.2869 -0.0271
 2086SOL    HW117891   2.102   0.182   5.560 -0.1599  1.1688  0.0780
 2086SOL    HW217892   2.022   0.100   5.661  1.9805 -1.4902  1.4664
 2087SOL     OW17893   4.027   1.777   4.744 -0.2175 -0.5273  0.4104
 2087SOL    HW117894   3.969   1.853   4.743  0.9303  0.3662  1.7442
 2087SOL    HW217895   3.968   1.702   4.750 -2.4249  0.9199 -3.2844
 2088SOL     OW17896   2.128   0.078   3.379 -0.3503 -0.0361 -0.3077
 2088SOL    HW117897   2.055   0.016   3.383  0.9046 -1.5186 -0.4246
 2088SOL    HW217898   2.156   0.084   3.470  0.9304  2.2246 -0.8479
 2089SOL     OW17899   1.657   3.447   4.527  0.2446 -0.2825 -0.1761
 2089SOL    HW117900   1.740   3.457   4.574  0.8657 -2.0640 -0.8846
 2089SOL    HW217901   1.657   3.537   4.497 -0.6766  0.4844  2.0989
 2090SOL     OW17902   0.525   2.979  17.573 -0.0423 -0.1271 -0.0167
 2090SOL    HW117903   0.451   2.975  17.633 -0.4284 -2.6734 -0.6306
 2090SOL    HW217904   0.501   2.921  17.500 -1.1146  0.6131 -0.2514
 2091SOL     OW17905   1.962   4.278  16.001 -0.4309  0.0998  0.2049
 2091SOL    HW117906   2.035   4.226  15.969 -2.1524 -1.1181 -1.7637
 2091SOL    HW217907   2.012   4.347  16.045 -0.2937 -0.0538  0.2891
 2092SOL     OW17908   1.448   3.004   0.759  0.1663  0.4314 -0.1476
 2092SOL    HW117909   1.448   3.053   0.841  1.6580  0.2269 -0.0222
 2092SOL    HW217910   1.510   3.052   0.704  1.2236  1.5838  2.0720
 2093SOL     OW17911   0.095   0.232   3.795  0.2443  0.2622  0.3854
 2093SOL    HW117912   0.012   0.226   3.747  0.4174 -3.1108  0.4975
 2093SOL    HW217913   0.062   0.290   3.863  1.7210 -0.0421  1.3693
 2094SOL     OW17914   4.134   1.306   8.919 -0.0050 -0.0089 -0.7062
 2094SOL    HW117915   4.212   1.284   8.868 -0.9742  1.6144 -2.8733
 2094SOL    HW217916   4.172   1.385   8.959  0.5777 -0.8880  0.4954
 2095SOL     OW17917   0.362   1.919   3.241 -0.7708  0.0713  0.2476
 2095SOL    HW117918   0.298   1.868   3.192 -2.7260 -0.4204  3.3334
 2095SOL    HW217919   0.334   1.888   3.327  0.5612  0.0748  0.6968
 2096SOL     OW17920   4.164   0.355   0.843 -0.2736  0.1141  0.4002
 2096SOL    HW117921   4.226   0.313   0.903  1.0649  0.7821 -0.5114
 2096SOL    HW217922   4.097   0.287   0.848  0.5516 -0.8567 -1.5128
 2097SOL     OW17923   2.771   1.126   4.274 -0.8553  0.0433  0.0651
 2097SOL    HW117924   2.726   1.046   4.301 -0.3322  0.1803  1.3721
 2097SOL    HW217925   2.836   1.080   4.222  0.3278  0.8016  0.8696
 2098SOL     OW17926   4.434   0.338   8.031  0.1978 -0.2311 -0.6423
 2098SOL    HW117927   4.516   0.295   8.053 -0.9909 -1.4889  1.3454
 2098SOL    HW217928   4.445   0.428   8.062 -0.6104 -0.8838  1.5458
 2099SOL     OW17929   2.003   4.382   4.898 -0.0015 -0.6005  1.0133
 2099SOL    HW117930   2.021   4.407   4.807  2.2689 -1.6891  1.1782
 2099SOL    HW217931   1.997   4.287   4.885 -0.8685 -0.2513 -1.0946
 2100SOL     OW17932   2.927   2.914   7.785 -0.1759  0.0849 -0.0869
 2100SOL    HW117933   2.973   2.928   7.703  1.5655  0.5262  0.9551
 2100SOL    HW217934   2.889   2.826   7.776  0.0934  0.0626 -0.9423
 2101SOL     OW17935   2.176   3.542   8.868 -0.4020  0.1988  0.2348
 2101SOL    HW117936   2.125   3.573   8.793  1.2903 -1.3269 -1.5358
 2101SOL    HW217937   2.136   3.595   8.937 -0.0937  1.5191 -0.5996
 2102SOL     OW17938   2.729   3.117   5.099 -0.1185  0.3367 -0.5456
 2102SOL    HW117939   2.657   3.173   5.069 -0.9490 -0.4456 -0.0236
 2102SOL    HW217940   2.774   3.184   5.150 -1.2728  1.3637 -0.8660
 2103SOL     OW17941   4.310   0.915   8.490  0.0719 -0.4481 -0.0686
 2103SOL    HW117942   4.298   0.969   8.412  1.1012  0.5208  0.4281
 2103SOL    HW217943   4.224   0.874   8.489 -0.2320  0.3445 -3.8864
 2104SOL     OW17944   2.599   0.759   7.926  0.5040  0.1486 -0.3699
 2104SOL    HW117945   2.610   0.822   7.997 -0.1997 -1.0443  0.7894
 2104SOL    HW217946   2.566   0.688   7.981  1.8350 -3.0034 -3.6424
 2105SOL     OW17947   4.684   4.648   6.708 -0.2911  0.0660  0.1717
 2105SOL    HW117948   0.042   4.676   6.701 -0.6241  1.2312  0.4296
 2105SOL    HW217949   4.653   4.717   6.768 -2.4444  0.4086 -1.3477
 2106SOL     OW17950   1.257   4.681   8.814  0.5909  0.0979  0.4616
 2106SOL    HW117951   1.248   4.697   8.720 -0.2092  1.0719  0.7039
 2106SOL    HW217952   1.305   4.598   8.813 -0.1167 -0.3279  1.2844
 2107SOL     OW17953   2.741   3.573  13.227 -0.1117 -0.0380  0.0640
 2107SOL    HW117954   2.668   3.552  13.285 -0.7555 -2.2719 -1.5565
 2107SOL    HW217955   2.717   3.660  13.195 -2.2259 -0.9093 -0.7437
 2108SOL     OW17956   4.296   4.727   2.871 -0.0629  0.4370  0.2419
 2108SOL    HW117957   4.215   4.699   2.828  0.8197 -1.3595 -0.2159
 2108SOL    HW217958   4.270   0.082   2.847 -0.3223  0.6409  1.2613
 2109SOL     OW17959   0.382   1.489   2.154 -0.2693 -0.0377 -0.9950
 2109SOL    HW117960   0.416   1.422   2.213  0.7025  0.0633 -1.4337
 2109SOL    HW217961   0.417   1.457   2.070  0.3864 -1.7628 -0.0586
 2110SOL     OW17962   2.846   4.503   6.939 -0.4729 -0.3152  0.2269
 2110SOL    HW117963   2.814   4.413   6.939 -3.4778  0.7725  3.5172
 2110SOL    HW217964   2.824   4.522   7.030  2.7845 -0.2685  1.0097
 2111SOL     OW17965   1.875   0.670   7.822 -0.3734 -0.8047  0.3336
 2111SOL    HW117966   1.797   0.641   7.870  0.0874 -0.7280  1.1226
 2111SOL    HW217967   1.877   0.765   7.835 -0.0872 -0.6659 -0.7116
 2112SOL     OW17968   1.251   4.220  12.729 -0.7900  0.0031 -0.5722
 2112SOL    HW117969   1.295   4.140  12.758 -0.9215  0.6607  1.4539
 2112SOL    HW217970   1.192   4.178  12.666 -0.3078 -3.1802  1.1318
 2113SOL     OW17971   3.560   2.043   2.405  0.0076 -0.3023 -0.5814
 2113SOL    HW117972   3.552   1.985   2.481  0.2961 -1.3809 -1.3890
 2113SOL    HW217973   3.642   2.093   2.415 -0.4609  0.4997 -0.7445
 2114SOL     OW17974   0.150   2.707   3.030 -0.3151  0.4266 -0.3527
 2114SOL    HW117975   0.080   2.772   3.026  0.9111  1.8878  1.8181
 2114SOL    HW217976   0.176   2.685   2.941  1.8962  0.2020  0.3682
 2115SOL     OW17977   1.071   3.223   6.959  0.8019  0.9944 -0.2503
 2115SOL    HW117978   1.130   3.208   6.885 -2.2927 -0.7490 -2.3532
 2115SOL    HW217979   1.043   3.312   6.940 -0.5817  1.0086  1.8474
 2116SOL     OW17980   3.415   4.067   2.348 -0.1814 -0.2174 -0.1658
 2116SOL    HW117981   3.337   4.092   2.397  0.3768 -0.6186  0.9334
 2116SOL    HW217982   3.489   4.068   2.409  0.3971  0.5594 -0.8834
 2117SOL     OW17983   4.413   0.206   4.613 -0.4123 -0.2178 -0.2961
 2117SOL    HW117984   4.318   0.214   4.600 -0.1695  3.3109  0.1313
 2117SOL    HW217985   4.427   0.114   4.636  2.3795  0.2792  0.0127
 2118SOL     OW17986   1.572   2.306   4.644 -0.1057 -0.0852  0.3831
 2118SOL    HW117987   1.572   2.222   4.690  0.2799 -0.8234 -0.9783
 2118SOL    HW217988   1.571   2.372   4.714 -0.5090 -1.4161  1.6454
 2119SOL     OW17989   4.259   0.570  10.534 -0.3458 -0.1042  0.3423
 2119SOL    HW117990   4.250   0.492  10.479  1.7865  0.5696 -0.9633
 2119SOL    HW217991   4.352   0.557  10.551 -0.0593  1.1173 -0.3236
 2120SOL     OW17992   4.471   0.106   2.140  0.0383 -0.3728 -0.3122
 2120SOL    HW117993   4.555   0.149   2.157  1.2170 -2.2288 -1.4107
 2120SOL    HW217994   4.425   0.183   2.106 -1.4878 -0.6704  1.0656
 2121SOL     OW17995   2.537   0.097  14.016  0.1816  0.1339  0.4850
 2121SOL    HW117996   2.514   0.154  13.943 -1.2497 -0.8797  0.1473
 2121SOL    HW217997   2.564   0.161  14.082 -0.6863  0.1316  0.8381
 2122SOL     OW17998   3.412   0.993   4.077  0.4420 -0.2478 -0.2759
 2122SOL    HW117999   3.393   1.079   4.113  1.0665 -0.3565  0.3110
 2122SOL    HW218000   3.476   0.957   4.138  1.0725  2.2938  0.5505
 2123SOL     OW18001   3.432   2.362   7.724 -0.3996  0.2570  0.0346
 2123SOL    HW118002   3.405   2.270   7.733 -0.4177  0.3429  0.9500
 2123SOL    HW218003   3.478   2.368   7.808  0.1805  1.5305 -0.3928
 2124SOL     OW18004   0.934   0.705   3.149 -0.3459 -0.0222 -0.2560
 2124SOL    HW118005   0.840   0.699   3.165 -0.6976  3.4420 -0.9611
 2124SOL    HW218006   0.955   0.764   3.221 -0.1616  0.0724 -0.3882
 2125SOL     OW18007   0.801   1.394   1.747  0.0151 -0.1914  0.0356
 2125SOL    HW118008   0.707   1.402   1.734  0.0678 -0.1388 -0.2937
 2125SOL    HW218009   0.833   1.476   1.711 -1.5088  0.9397  1.2261
 2126SOL     OW18010   1.594   1.789   7.445  0.2048  0.1750 -0.3914
 2126SOL    HW118011   1.598   1.753   7.534 -1.1255  1.4476  0.1972
 2126SOL    HW218012   1.637   1.873   7.459  0.1985  0.1246 -0.0613
 2127SOL     OW18013   4.162   4.052   1.834 -0.0111 -0.1566  0.0739
 2127SOL    HW118014   4.091   4.010   1.785  1.9299 -1.4778 -1.6292
 2127SOL    HW218015   4.192   4.111   1.764 -0.7956  1.1582  0.8527
 2128SOL     OW18016   2.648   1.745   1.315  0.0117  0.2575 -0.0217
 2128SOL    HW118017   2.569   1.754   1.368  0.2820  0.8505  0.2829
 2128SOL    HW218018   2.666   1.838   1.302  1.9789 -0.1375  0.0056
 2129SOL     OW18019   3.908   4.182  15.778 -0.1047 -0.1150 -0.6113
 2129SOL    HW118020   3.953   4.172  15.695  0.6331  1.9303 -0.4611
 2129SOL    HW218021   3.980   4.215  15.831 -0.8995 -0.4604  0.6887
 2130SOL     OW18022   0.617   0.915   2.232  0.6286 -0.2497  0.2600
 2130SOL    HW118023   0.537   0.965   2.219 -0.5869 -3.0360 -3.1095
 2130SOL    HW218024   0.638   0.943   2.321 -1.8541  1.9576  0.1486
 2131SOL     OW18025   3.184   3.195  15.766 -0.1068  0.3433 -0.1196
 2131SOL    HW118026   3.180   3.289  15.778 -0.4037  0.3270 -0.1044
 2131SOL    HW218027   3.113   3.178  15.704 -0.0230  1.5096 -0.5349
 2132SOL     OW18028   0.073   2.618   2.255  0.0396  0.3037  0.2258
 2132SOL    HW118029   0.127   2.554   2.209  1.3871  0.8814  1.0187
 2132SOL    HW218030   4.725   2.576   2.229  0.5103 -1.1895  1.1795
 2133SOL     OW18031   4.644   4.677   8.215  0.1555 -0.1251  1.0992
 2133SOL    HW118032   4.604   4.601   8.174 -1.4340  1.3556 -0.0580
 2133SOL    HW218033   0.004   4.657   8.213  0.7432  3.2081 -3.0112
 2134SOL     OW18034   0.926   4.280   7.655  0.6943 -0.6462 -0.7847
 2134SOL    HW118035   1.017   4.257   7.637  0.7258 -0.7389 -0.5007
 2134SOL    HW218036   0.913   4.321   7.570  1.2068 -2.3516 -1.6685
 2135SOL     OW18037   1.924   1.150   4.595 -0.0213 -0.1310 -0.2429
 2135SOL    HW118038   1.881   1.084   4.649 -2.0301  1.9922  0.7746
 2135SOL    HW218039   1.930   1.103   4.512 -0.3839 -1.6947  0.6127
 2136SOL     OW18040   2.842   1.454   0.515 -0.2102  0.2949 -0.2818
 2136SOL    HW118041   2.796   1.491   0.439 -0.2649 -0.4002 -0.5869
 2136SOL    HW218042   2.765   1.409   0.549  0.8864  0.5932  2.5524
 2137SOL     OW18043   4.394   0.514   3.052 -0.4751 -0.1534  0.0512
 2137SOL    HW118044   4.404   0.453   2.979  4.1502 -3.0301  3.1047
 2137SOL    HW218045   4.345   0.587   3.014  0.6411  1.1705  1.1971
 2138SOL     OW18046   1.993   1.713   1.996  0.8062  0.6159  0.2115
 2138SOL    HW118047   2.056   1.773   2.035 -2.1031  4.1387 -0.4484
 2138SOL    HW218048   2.040   1.630   1.990 -3.2271 -1.8036  1.4975
 2139SOL     OW18049   2.600   3.692  12.541 -0.0110  0.1003 -0.1562
 2139SOL    HW118050   2.542   3.618  12.521  0.7801 -1.1013  1.9831
 2139SOL    HW218051   2.664   3.689  12.470  0.4667  1.1888  0.2337
 2140SOL     OW18052   1.731   1.070   5.107 -0.0132 -0.0782  0.5165
 2140SOL    HW118053   1.689   0.999   5.059  0.5718 -1.5337  2.1543
 2140SOL    HW218054   1.809   1.093   5.055 -0.8171 -0.1019 -0.6907
 2141SOL     OW18055   1.253   4.567   2.461  0.1904  0.0726  0.0150
 2141SOL    HW118056   1.338   4.605   2.443 -0.2665  0.6899 -0.8504
 2141SOL    HW218057   1.249   4.495   2.397  0.8466  0.1287 -0.0846
 2142SOL     OW18058   0.733   3.916  14.468 -0.0067  0.1852  0.0136
 2142SOL    HW118059   0.801   3.980  14.489  0.9967 -0.0147 -2.7799
 2142SOL    HW218060   0.717   3.936  14.376 -0.9409  2.4435  0.6686
 2143SOL     OW18061   0.303   4.119  12.502  0.1281 -0.0933  0.1256
 2143SOL    HW118062   0.383   4.077  12.536  0.0437 -1.1073 -0.9575
 2143SOL    HW218063   0.237   4.086  12.563 -0.4921  0.7666 -0.0843
 2144SOL     OW18064   0.575   2.885   0.619  0.4273  0.5716  0.5174
 2144SOL    HW118065   0.608   2.952   0.560  1.3435 -1.3162 -1.1033
 2144SOL    HW218066   0.535   2.942   0.685  0.0055  0.0412  0.7164
 2145SOL     OW18067   4.729   3.103   4.965 -0.5786  0.4321 -0.1011
 2145SOL    HW118068   0.060   3.089   5.033 -0.5647  2.0810  0.2336
 2145SOL    HW218069   0.043   3.085   4.884  1.1770  1.7074  0.6595
 2146SOL     OW18070   3.684   4.526   1.482  0.5620 -0.1692  0.1845
 2146SOL    HW118071   3.709   4.442   1.444 -2.9460 -1.1248 -0.1006
 2146SOL    HW218072   3.638   4.490   1.558  0.2207  1.9215  0.9767
 2147SOL     OW18073   4.410   2.723   1.323  0.5669 -0.6500 -0.6137
 2147SOL    HW118074   4.474   2.654   1.306  1.6125 -0.0203  0.8317
 2147SOL    HW218075   4.338   2.667   1.351 -0.2827 -1.4171 -4.3047
 2148SOL     OW18076   3.331   0.295   1.305 -0.4976 -0.3574 -0.0853
 2148SOL    HW118077   3.335   0.216   1.251  0.2625  1.2524 -2.4068
 2148SOL    HW218078   3.420   0.301   1.338 -0.4342 -0.7876 -0.1762
 2149SOL     OW18079   3.583   0.598   1.987 -0.4066  0.3904  0.2680
 2149SOL    HW118080   3.530   0.580   1.909 -0.7416 -1.7647  0.9840
 2149SOL    HW218081   3.669   0.623   1.953  0.2358 -1.8571  0.2645
 2150SOL     OW18082   1.357   2.318   8.289 -0.4550  0.1661  0.3006
 2150SOL    HW118083   1.426   2.296   8.351  0.5457 -1.6510 -1.4728
 2150SOL    HW218084   1.282   2.264   8.313 -1.8234  1.3049 -1.4188
 2151SOL     OW18085   4.014   4.251  12.368 -0.6400 -0.2288 -0.0706
 2151SOL    HW118086   3.988   4.211  12.286  1.4422  1.2774 -1.4747
 2151SOL    HW218087   4.080   4.316  12.343 -0.7157 -0.2497 -0.3161
 2152SOL     OW18088   4.532   1.149   6.854 -0.3523 -0.0338 -0.4803
 2152SOL    HW118089   4.479   1.085   6.902 -0.7695 -0.8547 -2.0116
 2152SOL    HW218090   4.460   1.195   6.811 -0.6764  0.3281  0.4502
 2153SOL     OW18091   2.096   0.667   2.726 -0.2168  0.0798  0.0895
 2153SOL    HW118092   2.161   0.686   2.793 -1.8147  2.8930  0.8374
 2153SOL    HW218093   2.089   0.746   2.673 -0.3924 -0.5775 -0.8820
 2154SOL     OW18094   0.879   3.554   9.508 -0.2438 -0.5091 -0.6586
 2154SOL    HW118095   0.910   3.595   9.427 -0.7738  3.0123  0.9000
 2154SOL    HW218096   0.942   3.485   9.525  0.1947  0.3990  1.4402
 2155SOL     OW18097   2.355   4.613  10.502  0.0689 -0.1316  0.4499
 2155SOL    HW118098   2.371   4.538  10.559 -1.2332  1.2391  2.6550
 2155SOL    HW218099   2.263   4.636  10.515  0.0605  0.1050 -0.0238
 2156SOL     OW18100   4.566   1.793   8.462 -0.3853 -0.0242 -0.0843
 2156SOL    HW118101   4.633   1.735   8.426 -0.1705 -0.5341  1.1085
 2156SOL    HW218102   4.531   1.740   8.534 -1.1519 -2.3839 -2.2456
 2157SOL     OW18103   4.509   3.365   5.534  0.0757  0.1006  0.3856
 2157SOL    HW118104   4.417   3.391   5.532  0.2171  0.5926  0.1070
 2157SOL    HW218105   4.519   3.321   5.618 -1.9038  2.8052  2.0238
 2158SOL     OW18106   3.232   4.561   7.050  0.0325 -1.2464 -0.0489
 2158SOL    HW118107   3.178   4.493   7.090 -1.7231 -0.5778 -1.2729
 2158SOL    HW218108   3.166   4.620   7.013  1.4611  0.2846 -0.1087
 2159SOL     OW18109   1.390   4.227   2.439  0.0569 -0.4939 -0.3087
 2159SOL    HW118110   1.348   4.301   2.394  0.0688 -1.4359 -1.8669
 2159SOL    HW218111   1.324   4.194   2.501 -0.5650  1.4025  0.0427
 2160SOL     OW18112   1.154   2.724  17.162  0.3632  0.0308  0.1727
 2160SOL    HW118113   1.123   2.728  17.071  1.7719 -2.4068 -0.4348
 2160SOL    HW218114   1.129   2.633  17.178  0.7126 -0.1603 -0.3667
 2161SOL     OW18115   1.945   1.429   7.415  0.2972 -0.9953 -0.0621
 2161SOL    HW118116   2.023   1.484   7.409 -1.0399  1.2481  3.4951
 2161SOL    HW218117   1.873   1.476   7.372  0.0651 -1.6849 -0.4174
 2162SOL     OW18118   2.926   4.382   2.914  0.6755 -0.1928 -0.1799
 2162SOL    HW118119   2.960   4.322   2.849  1.2981  0.4218 -0.4219
 2162SOL    HW218120   2.903   4.462   2.867  1.8616  0.9278  1.1607
 2163SOL     OW18121   1.766   1.297   9.605  0.2079 -0.1310 -0.3369
 2163SOL    HW118122   1.678   1.335   9.604 -0.1362 -0.9358 -0.5703
 2163SOL    HW218123   1.807   1.365   9.552 -0.5521  1.7125  1.4267
 2164SOL     OW18124   0.530   1.154   7.739 -0.3573 -0.1826 -0.2410
 2164SOL    HW118125   0.489   1.075   7.705  0.0874 -0.9728  1.0410
 2164SOL    HW218126   0.561   1.195   7.659 -2.2524 -1.2025 -1.4976
 2165SOL     OW18127   3.755   1.594   4.882 -0.2400 -0.7487  0.5426
 2165SOL    HW118128   3.660   1.585   4.874 -0.3546  0.9044 -0.1062
 2165SOL    HW218129   3.764   1.669   4.941  2.0318 -0.0091 -0.7253
 2166SOL     OW18130   4.680   0.270   0.960 -0.5097  0.4242  0.3337
 2166SOL    HW118131   4.674   0.328   1.036  3.5345  1.1919  0.0934
 2166SOL    HW218132   4.696   0.189   1.008 -1.0796  0.1897  0.1336
 2167SOL     OW18133   3.697   3.792   7.326  0.6676  0.2443  0.1392
 2167SOL    HW118134   3.698   3.706   7.368  1.0821 -0.6188 -1.6320
 2167SOL    HW218135   3.786   3.814   7.299  0.8179 -3.3379 -2.3423
 2168SOL     OW18136   1.704   1.141   5.549 -0.2761  0.3509  0.0500
 2168SOL    HW118137   1.777   1.102   5.501 -1.3608 -1.2856 -0.2591
 2168SOL    HW218138   1.749   1.224   5.568 -2.3102  1.0751  1.6802
 2169SOL     OW18139   3.715   2.833   3.733  0.5586  0.0706  1.0018
 2169SOL    HW118140   3.700   2.741   3.754 -2.7051  0.5048  0.6330
 2169SOL    HW218141   3.800   2.817   3.692  0.2779 -1.8396  1.1535
 2170SOL     OW18142   1.331   4.077   7.036 -0.1266 -0.6919  1.0172
 2170SOL    HW118143   1.278   4.088   7.115 -0.8262  3.1310  0.0223
 2170SOL    HW218144   1.261   4.070   6.971  0.2848  2.0144  0.2675
 2171SOL     OW18145   2.193   0.935   1.946  0.1983  0.1701 -0.0411
 2171SOL    HW118146   2.260   0.898   2.004  1.1284  0.2576 -1.0702
 2171SOL    HW218147   2.243   0.915   1.867  0.2421 -1.9531  0.5120
 2172SOL     OW18148   1.961   2.381   7.571 -0.1087  0.2844  0.7478
 2172SOL    HW118149   1.870   2.382   7.541  1.3948  1.9706 -3.8715
 2172SOL    HW218150   1.999   2.446   7.510  0.7162 -0.2889  0.6556
 2173SOL     OW18151   4.118   2.197   5.268  0.1863  0.1553 -0.5422
 2173SOL    HW118152   4.172   2.118   5.272  1.6309  1.3407  3.5698
 2173SOL    HW218153   4.053   2.164   5.206  0.3083 -0.1456 -0.5073
 2174SOL     OW18154   0.992   2.263  10.964 -0.0488  0.4903 -0.0370
 2174SOL    HW118155   0.966   2.230  10.878  1.5350 -0.1151 -0.2964
 2174SOL    HW218156   0.999   2.353  10.935 -1.3165  0.1838 -1.2872
 2175SOL     OW18157   1.438   1.828   7.225  0.3266  0.3022  0.0342
 2175SOL    HW118158   1.366   1.764   7.228  0.6350  0.1334  3.0340
 2175SOL    HW218159   1.487   1.812   7.305  2.1307 -0.5899 -1.2668
 2176SOL     OW18160   0.211   3.720   2.014  0.0466 -0.2152 -0.1930
 2176SOL    HW118161   0.286   3.711   2.072  0.2208 -3.7232 -0.9485
 2176SOL    HW218162   0.138   3.694   2.070  1.0447 -2.5208  0.0476
 2177SOL     OW18163   2.137   3.491  17.071 -0.2220  0.3981  0.8878
 2177SOL    HW118164   2.203   3.475  17.003  0.9399  0.9153  1.9066
 2177SOL    HW218165   2.188   3.543  17.132  0.8042 -0.0069  0.3779
 2178SOL     OW18166   3.807   1.976   4.807 -0.5623  0.0045  0.4206
 2178SOL    HW118167   3.714   1.978   4.827 -0.6515 -1.9625  0.1713
 2178SOL    HW218168   3.851   1.976   4.892 -0.2051  2.0560  0.2395
 2179SOL     OW18169   0.564   4.673  17.510 -0.2419 -0.1370 -0.2524
 2179SOL    HW118170   0.634   4.700  17.451 -0.4291  0.7657 -0.0580
 2179SOL    HW218171   0.581   4.580  17.522  0.3692 -0.1138 -0.9231
 2180SOL     OW18172   0.219   2.231   6.592 -0.4135  0.3037 -0.5010
 2180SOL    HW118173   0.302   2.195   6.622 -0.6441  0.6140  0.5089
 2180SOL    HW218174   0.239   2.221   6.499  1.3232 -0.5821 -0.0331
 2181SOL     OW18175   1.695   3.818  15.704 -0.8987 -0.2026  0.2318
 2181SOL    HW118176   1.711   3.724  15.697  0.8092  0.1254 -0.3551
 2181SOL    HW218177   1.600   3.810  15.706 -0.8648 -0.3903  1.0390
 2182SOL     OW18178   2.955   2.797   4.550 -0.0217  0.6154 -0.3704
 2182SOL    HW118179   2.975   2.890   4.565  2.2930  0.4758 -2.5648
 2182SOL    HW218180   2.993   2.754   4.627 -1.9018 -0.2563  0.0629
 2183SOL     OW18181   0.186   0.410  12.522  0.0729  0.2047  0.1987
 2183SOL    HW118182   0.187   0.443  12.612  2.2258  0.3640  0.1140
 2183SOL    HW218183   0.264   0.354  12.525  0.3517  0.6178  0.5602
 2184SOL     OW18184   4.581   1.876   6.231 -0.0369 -0.1912  0.6357
 2184SOL    HW118185   4.581   1.793   6.183  1.2456  0.5914 -0.6981
 2184SOL    HW218186   4.557   1.927   6.153  2.0415 -0.1278  0.0330
 2185SOL     OW18187   0.407   0.528  15.540 -0.1410 -0.3905  0.3946
 2185SOL    HW118188   0.429   0.443  15.580  0.3311 -1.4910 -2.2186
 2185SOL    HW218189   0.341   0.501  15.476  0.4688 -0.8091 -0.0626
 2186SOL     OW18190   4.558   4.375   5.272  0.1019 -0.5190  0.3717
 2186SOL    HW118191   4.478   4.425   5.256 -0.0281 -0.6793  0.5043
 2186SOL    HW218192   4.616   4.436   5.317  0.5741  0.1987 -1.2092
 2187SOL     OW18193   0.743   2.024   1.264  0.1922 -0.4105 -0.0134
 2187SOL    HW118194   0.737   2.019   1.169 -2.6338  0.3493  0.1074
 2187SOL    HW218195   0.682   1.954   1.287  0.9232 -1.1288 -0.2466
 2188SOL     OW18196   0.012   0.012  11.292  0.0613 -1.0203 -0.3144
 2188SOL    HW118197   4.692   4.712  11.220 -0.2561 -0.9135 -0.1248
 2188SOL    HW218198   0.069   4.671  11.302 -0.3132 -1.3137 -0.3689
 2189SOL     OW18199   4.603   1.742   4.979  0.4263 -0.0814  0.6154
 2189SOL    HW118200   4.543   1.699   5.041  1.1309 -1.5420  0.2908
 2189SOL    HW218201   4.690   1.720   5.012  0.1417 -0.7551  0.9337
 2190SOL     OW18202   2.255   3.655   6.954  0.3863 -0.2269  0.3375
 2190SOL    HW118203   2.162   3.679   6.959  0.6008  0.0979  2.6490
 2190SOL    HW218204   2.286   3.732   7.001 -0.7794  0.6358 -0.2777
 2191SOL     OW18205   0.109   2.075   8.009 -0.2624  0.2396 -0.2186
 2191SOL    HW118206   0.143   2.067   7.920 -0.2566 -0.1497 -0.1842
 2191SOL    HW218207   0.017   2.046   8.008 -0.2338  0.1689 -0.9451
 2192SOL     OW18208   4.190   0.298   5.915  0.0014  0.1781  0.0499
 2192SOL    HW118209   4.164   0.360   5.983  0.8069  3.0002 -2.2040
 2192SOL    HW218210   4.122   0.317   5.851 -0.4028 -0.9330  0.1449
 2193SOL     OW18211   0.251   0.016   2.557  0.8449  0.2695  0.5288
 2193SOL    HW118212   0.271   4.659   2.578  0.7594 -0.1365 -1.1645
 2193SOL    HW218213   0.341   0.047   2.570  1.0270 -0.3200  0.6517
 2194SOL     OW18214   2.863   1.209   1.473  0.0386 -0.1659 -0.3469
 2194SOL    HW118215   2.954   1.180   1.459 -0.1819 -1.8912  1.7245
 2194SOL    HW218216   2.820   1.132   1.435 -2.0756  1.5945 -1.4758
 2195SOL     OW18217   3.802   3.403  11.123  0.3798 -0.0213  0.1446
 2195SOL    HW118218   3.893   3.410  11.093  0.1500  0.2767 -0.4868
 2195SOL    HW218219   3.809   3.463  11.197 -1.3698  1.1658 -0.6472
 2196SOL     OW18220   2.541   3.556   8.188  0.1710  0.5065  0.5434
 2196SOL    HW118221   2.626   3.528   8.220  0.4848  0.5519 -0.2648
 2196SOL    HW218222   2.567   3.591   8.103 -0.0008  0.3217  0.4157
 2197SOL     OW18223   3.105   1.721   9.261 -0.2926 -0.2110 -0.2153
 2197SOL    HW118224   3.085   1.678   9.344  1.0973 -0.0688  0.2001
 2197SOL    HW218225   3.201   1.718   9.258 -0.2901  0.5138 -0.9478
 2198SOL     OW18226   3.062   3.052   3.184 -0.4483 -0.0414 -0.0448
 2198SOL    HW118227   3.055   2.970   3.232 -0.8087  1.3552  2.2731
 2198SOL    HW218228   3.015   3.026   3.104 -0.3867  0.6049 -0.2919
 2199SOL     OW18229   3.528   0.514  11.481  0.6179 -0.5648 -0.1971
 2199SOL    HW118230   3.602   0.489  11.536  1.6275  3.2287  0.1677
 2199SOL    HW218231   3.575   0.537  11.400 -0.8749  2.2744 -0.2597
 2200SOL     OW18232   1.085   1.651   8.850 -0.5282 -0.2549  0.3882
 2200SOL    HW118233   1.074   1.569   8.800 -1.9992  0.0312  0.2349
 2200SOL    HW218234   1.038   1.635   8.932  1.0535  2.5173  1.8260
 2201SOL     OW18235   4.646   0.741   5.753 -0.0569 -0.1843 -0.7143
 2201SOL    HW118236   4.618   0.762   5.664 -1.1234  1.2946 -0.0284
 2201SOL    HW218237   4.709   0.809   5.777 -1.8084  0.7248  1.3073
 2202SOL     OW18238   2.071   0.989   2.765 -0.2801  0.7095 -0.3441
 2202SOL    HW118239   2.132   1.058   2.740 -0.3562  0.9461  0.1443
 2202SOL    HW218240   2.002   1.042   2.803 -0.7095  0.1710 -0.3628
 2203SOL     OW18241   2.772   1.215   5.295  0.3167 -0.0920  0.1125
 2203SOL    HW118242   2.716   1.144   5.327  1.4855  0.5336  3.5588
 2203SOL    HW218243   2.831   1.167   5.237  0.2730 -3.0393  2.5151
 2204SOL     OW18244   0.440   3.795  15.236 -0.7805  0.8908 -0.0588
 2204SOL    HW118245   0.418   3.721  15.179  2.4181  0.2892 -0.5119
 2204SOL    HW218246   0.353   3.835  15.245 -1.3313 -0.3901  0.2699
 2205SOL     OW18247   0.830   3.445   9.814  0.1777  0.1527  0.3022
 2205SOL    HW118248   0.735   3.456   9.821 -0.2524 -3.7256  0.4324
 2205SOL    HW218249   0.867   3.534   9.813 -2.6995  1.3789  3.3391
 2206SOL     OW18250   1.795   2.831   8.881  0.2087 -0.0729 -0.1818
 2206SOL    HW118251   1.889   2.846   8.869  0.4906 -1.9596 -0.4339
 2206SOL    HW218252   1.784   2.762   8.816  0.4985  0.5765 -0.9191
 2207SOL     OW18253   0.462   2.169   8.157 -0.2619 -0.2868  0.5702
 2207SOL    HW118254   0.534   2.230   8.166 -0.6703  0.1712  0.7328
 2207SOL    HW218255   0.391   2.224   8.124  0.0329  0.1694  0.7074
 2208SOL     OW18256   1.836   1.574   2.332  0.6498  0.1958 -0.0556
 2208SOL    HW118257   1.834   1.518   2.255 -2.4227  1.1710 -0.6811
 2208SOL    HW218258   1.811   1.504   2.393  0.5540  3.0037  3.1636
 2209SOL     OW18259   4.620   3.572   6.314 -0.2029 -0.1003  0.5608
 2209SOL    HW118260   4.654   3.637   6.375  0.1344 -0.5003  0.8061
 2209SOL    HW218261   4.696   3.514   6.312 -1.1287 -1.2288 -2.3564
 2210SOL     OW18262   2.489   1.664  12.252 -0.3915 -0.7408 -0.6524
 2210SOL    HW118263   2.514   1.756  12.263 -0.8341 -0.6170 -0.6756
 2210SOL    HW218264   2.564   1.628  12.204 -0.0662 -2.1684  0.9078
 2211SOL     OW18265   0.079   0.997  17.384  0.1033  0.1809  0.1184
 2211SOL    HW118266   0.154   0.964  17.435 -0.1337  0.4859  0.6702
 2211SOL    HW218267   0.064   0.922  17.327  0.5543  0.7528 -0.7497
 2212SOL     OW18268   3.101   3.730  14.953  0.0590 -0.1008  0.3883
 2212SOL    HW118269   3.006   3.725  14.959  0.1958  0.8264  3.5761
 2212SOL    HW218270   3.120   3.643  14.919 -0.5502  0.7782 -2.2084
 2213SOL     OW18271   1.522   1.177   3.054  0.3033 -0.1841 -0.0581
 2213SOL    HW118272   1.486   1.142   2.973  3.0036 -0.4255 -1.1683
 2213SOL    HW218273   1.446   1.215   3.097  0.6878  0.1567  0.3212
 2214SOL     OW18274   0.768   1.760   8.541 -0.1429  0.0609  0.4326
 2214SOL    HW118275   0.841   1.760   8.479  0.2069  0.0773  0.8427
 2214SOL    HW218276   0.778   1.676   8.586 -1.2737  0.2106  0.9509
 2215SOL     OW18277   2.628   4.091   3.072  0.2002  0.0744 -0.0980
 2215SOL    HW118278   2.694   4.153   3.103  2.0875 -1.7654 -0.4660
 2215SOL    HW218279   2.555   4.152   3.057  0.2678 -0.0779 -1.0723
 2216SOL     OW18280   1.246   3.081   3.423  0.6786 -0.0381  0.2826
 2216SOL    HW118281   1.187   3.045   3.357  0.2681 -0.0030  0.6293
 2216SOL    HW218282   1.191   3.153   3.455  1.7276  0.8386  0.1167
 2217SOL     OW18283   3.452   0.780  10.149 -0.1192 -0.9259  0.0357
 2217SOL    HW118284   3.419   0.864  10.181  3.2569  0.9633 -1.3625
 2217SOL    HW218285   3.544   0.803  10.133 -0.9905  1.4891 -1.6013
 2218SOL     OW18286   4.472   1.274  16.480  0.9074 -0.7567  0.8246
 2218SOL    HW118287   4.543   1.218  16.511  1.3363  0.7409  2.4821
 2218SOL    HW218288   4.513   1.357  16.459  0.9403 -0.8263  0.6057
 2219SOL     OW18289   2.891   0.535   5.518 -0.0230 -0.6948  0.3733
 2219SOL    HW118290   2.955   0.549   5.449  1.8873  0.8613  2.4508
 2219SOL    HW218291   2.932   0.588   5.587  0.4739  0.1330 -0.5555
 2220SOL     OW18292   0.490   1.491   3.567  0.6236  0.1064 -0.4511
 2220SOL    HW118293   0.394   1.489   3.564  0.6630 -2.3653 -0.6021
 2220SOL    HW218294   0.508   1.559   3.502 -0.7429 -1.2237 -2.2430
 2221SOL     OW18295   1.873   1.872  16.375  0.4980 -0.2378  0.1402
 2221SOL    HW118296   1.813   1.925  16.322  1.3020  1.8101  1.2799
 2221SOL    HW218297   1.945   1.934  16.391  0.0868  0.4849 -0.8237
 2222SOL     OW18298   3.747   1.872  11.396 -0.1230 -0.1821 -0.3176
 2222SOL    HW118299   3.820   1.896  11.340  1.1698 -3.3013  0.0171
 2222SOL    HW218300   3.714   1.797  11.347 -1.0271 -0.5201  0.7894
 2223SOL     OW18301   1.791   1.490   1.292 -0.1707  0.0080 -0.2562
 2223SOL    HW118302   1.705   1.459   1.266  0.4155 -0.6327 -1.4275
 2223SOL    HW218303   1.844   1.427   1.244  0.9188  0.8504 -0.1661
 2224SOL     OW18304   1.072   3.932   9.858 -0.2084 -0.2514  0.5072
 2224SOL    HW118305   1.070   3.987   9.779  0.0434  0.7716  1.2135
 2224SOL    HW218306   1.070   3.845   9.819 -1.7923  0.6947 -1.5357
 2225SOL     OW18307   2.165   2.693   5.860  0.0848  0.4696  0.1773
 2225SOL    HW118308   2.240   2.633   5.858  0.6492  1.1692  0.3607
 2225SOL    HW218309   2.094   2.644   5.818  0.3343  0.6476 -0.4483
 2226SOL     OW18310   3.039   3.800  13.505 -0.1707 -0.6502  0.0123
 2226SOL    HW118311   3.133   3.795  13.517 -0.2902  1.1482  1.7831
 2226SOL    HW218312   3.030   3.888  13.543  2.0501  0.3149 -1.6699
 2227SOL     OW18313   2.991   2.052   8.695  0.2248  0.4500 -0.3229
 2227SOL    HW118314   2.966   2.020   8.782 -0.4257 -0.1054 -0.7187
 2227SOL    HW218315   2.973   2.144   8.715 -1.3068 -0.0923  0.8279
 2228SOL     OW18316   0.906   2.870   3.601  0.1760  0.0445  0.0941
 2228SOL    HW118317   0.811   2.884   3.600  0.2885  0.8328  0.1793
 2228SOL    HW218318   0.902   2.828   3.514  0.1769  0.9080 -0.3220
 2229SOL     OW18319   2.129   1.369   2.401  1.0748  0.0457  0.4447
 2229SOL    HW118320   2.041   1.369   2.440  0.5662  1.6695 -0.6976
 2229SOL    HW218321   2.100   1.368   2.310 -0.2856 -1.9001  0.9094
 2230SOL     OW18322   3.010   3.390   3.700 -0.1659 -0.1302 -0.4982
 2230SOL    HW118323   3.040   3.300   3.683  1.5304  0.3298  0.1611
 2230SOL    HW218324   3.072   3.455   3.668  1.1425 -2.2859 -2.3164
 2231SOL     OW18325   4.691   0.886   3.455  0.0930 -0.0751  0.0271
 2231SOL    HW118326   4.624   0.818   3.454 -2.3480  2.3387 -1.3349
 2231SOL    HW218327   4.664   0.950   3.389  0.2195  1.9067  1.9177
 2232SOL     OW18328   0.282   0.710   4.216 -0.0339 -0.3904 -0.3463
 2232SOL    HW118329   0.278   0.619   4.245  0.5373  0.3449  2.0551
 2232SOL    HW218330   0.197   0.740   4.248  0.0337 -1.5309  0.9240
 2233SOL     OW18331   2.067   0.837   8.348 -0.1542 -0.2891  0.4710
 2233SOL    HW118332   2.034   0.747   8.348 -1.9029  0.3552  2.1040
 2233SOL    HW218333   2.158   0.825   8.319  0.3448  2.1497  1.0145
 2234SOL     OW18334   2.517   4.318   6.056 -0.5199  0.1233 -0.4890
 2234SOL    HW118335   2.487   4.354   5.972 -0.7518  2.3091  0.5368
 2234SOL    HW218336   2.610   4.311   6.033  0.2665 -0.6052  3.0255
 2235SOL     OW18337   1.453   1.350   6.113 -0.0385  0.4360 -0.0844
 2235SOL    HW118338   1.515   1.303   6.057  0.6982  0.6991  0.5155
 2235SOL    HW218339   1.453   1.280   6.178  1.6503  0.6484  0.1404
 2236SOL     OW18340   2.403   2.163   6.096  0.2412  0.4238  0.6748
 2236SOL    HW118341   2.405   2.072   6.127  0.5611  0.3755  0.5036
 2236SOL    HW218342   2.345   2.201   6.162 -0.8932  1.8830 -1.1689
 2237SOL     OW18343   2.818   4.590   4.634 -0.2958  0.0312  0.2990
 2237SOL    HW118344   2.826   4.501   4.598  2.8530 -0.2438  1.6631
 2237SOL    HW218345   2.800   4.637   4.552  3.0632 -1.0719 -1.1057
 2238SOL     OW18346   1.403   0.743   3.090  0.1447  0.4270 -0.2934
 2238SOL    HW118347   1.350   0.776   3.162  0.6375 -0.5375  0.5066
 2238SOL    HW218348   1.392   0.650   3.111 -0.1677  0.7857  1.1077
 2239SOL     OW18349   2.019   1.426  16.255 -0.4334 -0.6294  0.1911
 2239SOL    HW118350   1.977   1.417  16.170  0.0874 -1.9049  0.0669
 2239SOL    HW218351   2.050   1.515  16.243  0.0045 -0.7184  0.6357
 2240SOL     OW18352   2.256   1.070   3.430  0.4522 -0.6777  0.1675
 2240SOL    HW118353   2.299   1.123   3.362 -0.2255  0.8279  0.9258
 2240SOL    HW218354   2.237   1.138   3.494 -0.8722  1.1416 -2.1584
 2241SOL     OW18355   4.204   0.482  13.883 -0.0733 -0.3151  0.4355
 2241SOL    HW118356   4.146   0.457  13.955 -0.3499  0.4676  0.4830
 2241SOL    HW218357   4.205   0.400  13.835 -1.8071  0.2225 -0.4858
 2242SOL     OW18358   3.660   4.150  16.995  0.1769  0.0867  0.2911
 2242SOL    HW118359   3.748   4.113  16.981 -0.0286  0.0154 -0.8921
 2242SOL    HW218360   3.667   4.215  16.925 -3.1345 -0.1650 -0.2910
 2243SOL     OW18361   3.017   0.423   1.164  0.0392  0.1582  0.3144
 2243SOL    HW118362   2.994   0.425   1.071 -0.9161  0.3128  0.5635
 2243SOL    HW218363   3.109   0.445   1.150  0.5516 -1.4882  1.0929
 2244SOL     OW18364   3.805   0.734   4.718 -0.1561  0.5563 -0.6904
 2244SOL    HW118365   3.783   0.680   4.795 -2.1427 -0.3767 -1.9082
 2244SOL    HW218366   3.789   0.824   4.744  1.3120  1.0007 -1.3317
 2245SOL     OW18367   2.977   0.041   6.161  0.3802 -0.6632 -0.1675
 2245SOL    HW118368   2.987   0.021   6.254 -0.1727 -0.2710 -0.0260
 2245SOL    HW218369   2.927   0.122   6.161 -0.5640 -1.2401  0.5631
 2246SOL     OW18370   2.626   1.831   7.019  0.0238  0.1170  0.5946
 2246SOL    HW118371   2.545   1.805   7.064  1.3431 -1.7699  1.8530
 2246SOL    HW218372   2.635   1.771   6.945 -0.9576  2.1744 -1.2200
 2247SOL     OW18373   3.837   2.488   4.488  0.1652 -0.0491 -0.2620
 2247SOL    HW118374   3.871   2.490   4.398 -1.7285 -0.0069 -0.9729
 2247SOL    HW218375   3.818   2.581   4.498  0.0677 -0.1188  0.1925
 2248SOL     OW18376   0.602   3.990   8.604 -0.1701  0.1505 -0.5325
 2248SOL    HW118377   0.534   3.986   8.671  0.8039  0.7246  0.4931
 2248SOL    HW218378   0.598   4.080   8.573 -0.1504  1.1135  2.2083
 2249SOL     OW18379   1.990   1.021   3.459  0.2892 -0.1175 -0.2002
 2249SOL    HW118380   1.980   0.934   3.499 -1.3278 -0.7306 -1.9277
 2249SOL    HW218381   2.085   1.015   3.444  0.2724  0.2213 -0.4242
 2250SOL     OW18382   3.003   0.206   1.933 -0.0540  0.3828 -0.3174
 2250SOL    HW118383   3.080   0.247   1.894 -0.5477  1.3020 -0.3289
 2250SOL    HW218384   2.958   0.285   1.964  2.6816  1.1637  1.6046
 2251SOL     OW18385   1.606   4.407   7.811  0.4385 -0.1836 -0.0276
 2251SOL    HW118386   1.540   4.472   7.834 -0.0787 -0.2164 -1.4541
 2251SOL    HW218387   1.607   4.409   7.715  0.2547 -0.2303 -0.0312
 2252SOL     OW18388   3.361   0.260  11.137  0.7292 -0.0526  0.2909
 2252SOL    HW118389   3.373   0.275  11.231  0.4387 -1.2755  0.5246
 2252SOL    HW218390   3.279   0.212  11.123  0.3688  0.0952  1.9641
 2253SOL     OW18391   1.487   1.364  14.232  0.0249  0.1636  0.5305
 2253SOL    HW118392   1.419   1.381  14.166  1.3603 -2.2197 -1.4662
 2253SOL    HW218393   1.482   1.269  14.237 -1.1123  0.1695 -0.4822
 2254SOL     OW18394   4.097   2.636   3.091 -0.2574  0.0060  0.2168
 2254SOL    HW118395   4.100   2.545   3.121  2.1123 -0.9419 -2.8648
 2254SOL    HW218396   4.018   2.659   3.140 -1.2251  1.4623 -2.0154
 2255SOL     OW18397   0.370   3.888   5.444 -0.0331 -0.2653  0.3961
 2255SOL    HW118398   0.349   3.975   5.477 -3.3209 -0.3257 -1.5305
 2255SOL    HW218399   0.376   3.905   5.350  1.6867 -1.9185  0.2139
 2256SOL     OW18400   1.464   2.624   6.292  0.1827  0.6228 -0.2432
 2256SOL    HW118401   1.488   2.542   6.336  1.5270  1.2491  0.1771
 2256SOL    HW218402   1.543   2.642   6.241  0.3898 -0.6638 -0.3640
 2257SOL     OW18403   0.289   2.112   0.853  0.1521  0.1378  0.3834
 2257SOL    HW118404   0.357   2.170   0.888  1.6191 -0.7972 -0.9252
 2257SOL    HW218405   0.288   2.049   0.924  2.8174 -1.0211 -0.6183
 2258SOL     OW18406   1.221   2.180   3.653 -0.0692 -0.0376 -0.3778
 2258SOL    HW118407   1.132   2.155   3.628  0.2602 -0.4642 -1.1326
 2258SOL    HW218408   1.245   2.130   3.731  0.2892 -1.4149 -1.3669
 2259SOL     OW18409   2.000   0.712   6.199 -0.0283 -0.6385  0.1336
 2259SOL    HW118410   2.023   0.749   6.114 -0.5695  0.3007  0.3887
 2259SOL    HW218411   1.925   0.761   6.232 -1.1197  0.5559 -4.1767
 2260SOL     OW18412   1.290   2.309  17.701  0.0742  0.1403  0.2471
 2260SOL    HW118413   1.224   2.342  17.639  1.5862  1.3805 -0.7158
 2260SOL    HW218414   1.254   2.357   0.040 -0.9192 -1.3474  0.7253
 2261SOL     OW18415   4.092   1.798   6.505 -0.2739  0.0919  0.1484
 2261SOL    HW118416   4.160   1.831   6.564  0.5369 -2.1020  0.4323
 2261SOL    HW218417   4.062   1.718   6.547  0.5867 -0.2720  0.0803
 2262SOL     OW18418   3.926   4.354  16.274 -0.1105 -0.5400  0.2811
 2262SOL    HW118419   3.880   4.437  16.261  0.3407 -0.3958 -0.3556
 2262SOL    HW218420   4.009   4.369  16.230 -1.0877 -0.7281 -1.5948
 2263SOL     OW18421   0.596   1.293   0.150  0.5420 -0.3252 -0.1699
 2263SOL    HW118422   0.562   1.207   0.173  0.0350 -0.2466 -0.6272
 2263SOL    HW218423   0.543   1.315   0.074 -0.9285 -1.0126  0.6609
 2264SOL     OW18424   3.264   1.030   4.715 -0.3944  0.1239  0.2701
 2264SOL    HW118425   3.170   1.034   4.734  0.1805 -0.8122  3.2725
 2264SOL    HW218426   3.276   0.941   4.683 -0.3365 -0.0636  0.8224
 2265SOL     OW18427   2.490   3.320   3.302  0.0200 -0.1295 -0.0230
 2265SOL    HW118428   2.576   3.277   3.302  0.6592  1.1520  0.1155
 2265SOL    HW218429   2.507   3.393   3.242  0.5694  0.1193  0.4375
 2266SOL     OW18430   0.977   2.221   3.856 -0.3004 -0.1799 -0.2127
 2266SOL    HW118431   0.916   2.148   3.853  0.5391 -0.8830 -0.1918
 2266SOL    HW218432   1.027   2.201   3.935  0.7913 -1.9151 -1.3568
 2267SOL     OW18433   3.402   1.649   8.923 -0.2553  0.2395  0.4696
 2267SOL    HW118434   3.477   1.663   8.981 -0.7399 -2.5610  1.7764
 2267SOL    HW218435   3.388   1.556   8.941  0.4384 -0.4687 -2.5623
 2268SOL     OW18436   2.282   2.024   9.751  0.2399  0.1109 -0.0786
 2268SOL    HW118437   2.188   2.015   9.766  0.2437  0.6983  0.2701
 2268SOL    HW218438   2.316   2.051   9.836 -1.3889  0.6108  0.4027
 2269SOL     OW18439   3.880   0.089   1.634  0.2906 -0.0576  0.6473
 2269SOL    HW118440   3.902   0.171   1.678  1.6806  0.7534 -1.5574
 2269SOL    HW218441   3.865   0.037   1.713  1.5174  0.3675  1.1579
 2270SOL     OW18442   1.655   1.574   2.781 -0.1130 -0.1741  0.1950
 2270SOL    HW118443   1.616   1.661   2.788 -1.1109 -0.5457 -0.9267
 2270SOL    HW218444   1.595   1.529   2.722 -0.6742 -0.5855  1.0674
 2271SOL     OW18445   2.104   4.663   5.320 -0.0211 -0.0378  0.0323
 2271SOL    HW118446   2.183   4.625   5.282 -0.3844 -0.0104 -0.7528
 2271SOL    HW218447   2.033   4.605   5.293  0.3190 -0.4985  0.1247
 2272SOL     OW18448   2.968   0.553   1.494  0.2878  0.1615  0.7009
 2272SOL    HW118449   3.027   0.478   1.486 -0.6990 -0.5412  0.0576
 2272SOL    HW218450   2.903   0.517   1.555  1.7321  2.4347  3.5827
 2273SOL     OW18451   1.986   0.900   6.788  0.0438 -0.6441  0.2108
 2273SOL    HW118452   2.035   0.981   6.804  2.5639 -1.7016 -2.2851
 2273SOL    HW218453   2.011   0.857   6.870 -1.1748  0.4174  1.1528
 2274SOL     OW18454   1.383   1.488   2.148  0.6983  0.3136  0.4385
 2274SOL    HW118455   1.422   1.405   2.176 -0.2720 -0.6267 -0.9844
 2274SOL    HW218456   1.291   1.467   2.134  1.3134 -2.0621 -0.0758
 2275SOL     OW18457   0.139   2.316   2.446  0.6977 -0.9277 -0.1476
 2275SOL    HW118458   0.096   2.232   2.463 -0.6320  0.2524  2.2865
 2275SOL    HW218459   0.163   2.310   2.353 -0.8813 -0.0385 -0.6214
 2276SOL     OW18460   2.197   3.501  12.291 -0.5020  0.9805  0.3313
 2276SOL    HW118461   2.198   3.540  12.204 -0.0769 -0.6951 -0.3940
 2276SOL    HW218462   2.105   3.473  12.296 -0.5275  0.9479 -0.3039
 2277SOL     OW18463   0.778   3.284   3.933  0.4160 -0.1236 -0.5497
 2277SOL    HW118464   0.704   3.283   3.872  0.0288 -2.5467 -0.0141
 2277SOL    HW218465   0.845   3.293   3.865  1.0231 -0.9942 -0.0658
 2278SOL     OW18466   2.160   1.567   6.229 -0.1249  0.2748  0.1036
 2278SOL    HW118467   2.155   1.660   6.251  0.4925  0.1084  0.9623
 2278SOL    HW218468   2.097   1.567   6.157  0.5256  2.3168 -0.4712
 2279SOL     OW18469   2.392   0.035   6.423 -0.2988  0.5026  0.1080
 2279SOL    HW118470   2.470   4.724   6.389  1.5054  1.8913  2.3949
 2279SOL    HW218471   2.321   4.706   6.421  1.2122 -1.2129  0.0608
 2280SOL     OW18472   1.556   3.848   2.069  0.5140 -0.1890  0.7822
 2280SOL    HW118473   1.464   3.865   2.050  1.4731  2.5952 -1.4860
 2280SOL    HW218474   1.594   3.807   1.991 -1.0989 -1.6954  0.7983
 2281SOL     OW18475   0.749   1.088   4.928  0.2193 -0.3463  0.1781
 2281SOL    HW118476   0.679   1.034   4.962 -0.6733  0.1970 -0.7807
 2281SOL    HW218477   0.826   1.045   4.966  1.8492  1.7455 -0.7487
 2282SOL     OW18478   4.624   2.900   5.965  0.0890 -0.3227  0.2195
 2282SOL    HW118479   4.681   2.842   6.015  0.5371 -0.5069 -0.4967
 2282SOL    HW218480   4.542   2.851   5.968 -0.2962  0.2678 -0.4284
 2283SOL     OW18481   2.741   3.619   4.210 -0.1386 -0.0088  0.6220
 2283SOL    HW118482   2.751   3.556   4.281  0.2683  0.5632  1.0655
 2283SOL    HW218483   2.711   3.563   4.138 -1.0257 -0.4319  1.3316
 2284SOL     OW18484   3.515   3.202  17.337 -0.7805 -0.7548 -0.0332
 2284SOL    HW118485   3.594   3.226  17.289 -1.0520 -0.8855 -0.5390
 2284SOL    HW218486   3.450   3.195  17.268  0.1234 -2.8803 -0.6605
 2285SOL     OW18487   0.345   3.543  10.759  0.4406 -0.6441  0.0835
 2285SOL    HW118488   0.431   3.567  10.723  0.9581  0.9267  2.3748
 2285SOL    HW218489   0.312   3.470  10.707  0.8272  1.3176 -2.9617
 2286SOL     OW18490   0.881   3.706  11.396 -0.5767 -0.2285  0.1053
 2286SOL    HW118491   0.814   3.656  11.349 -0.5538  0.0879 -0.2599
 2286SOL    HW218492   0.929   3.745  11.324 -2.4594  0.6241 -0.6867
 2287SOL     OW18493   2.492   4.622  13.858  0.5831  0.0994  0.2515
 2287SOL    HW118494   2.574   4.587  13.823  0.2365 -0.7303  0.2782
 2287SOL    HW218495   2.533   4.697  13.901 -1.7094  0.2421  2.1912
 2288SOL     OW18496   3.264   0.542  11.506 -0.5721 -0.3540  0.2320
 2288SOL    HW118497   3.357   0.527  11.485 -0.9028  0.3755 -1.7444
 2288SOL    HW218498   3.252   0.554  11.600 -1.3474  2.0725 -0.1826
 2289SOL     OW18499   3.571   4.412   0.884 -0.1371 -0.4847 -0.2013
 2289SOL    HW118500   3.652   4.398   0.835  0.7877 -2.5072  1.9218
 2289SOL    HW218501   3.526   4.467   0.819 -2.7714 -1.2137  1.0081
 2290SOL     OW18502   4.710   4.294   8.430  0.1408  0.1986  0.8180
 2290SOL    HW118503   0.052   4.345   8.401 -0.0836 -0.3362 -0.7249
 2290SOL    HW218504   4.727   4.278   8.522 -0.2602 -2.5226  0.4098
 2291SOL     OW18505   4.371   2.538   7.639 -0.5953 -0.0291 -0.5551
 2291SOL    HW118506   4.383   2.569   7.550  1.2850  1.5695  0.2734
 2291SOL    HW218507   4.367   2.619   7.689 -0.5318 -1.8492  2.3839
 2292SOL     OW18508   1.528   1.421   1.536 -0.2536  0.4745 -0.4728
 2292SOL    HW118509   1.602   1.474   1.508 -0.8771  1.5542 -0.1148
 2292SOL    HW218510   1.478   1.415   1.455 -0.1386  2.4603 -0.6806
 2293SOL     OW18511   4.294   3.301   0.749 -0.7132 -0.1435 -0.2302
 2293SOL    HW118512   4.234   3.320   0.677 -0.6731  3.1263  0.6109
 2293SOL    HW218513   4.239   3.315   0.826 -0.1922  1.6868 -0.1937
 2294SOL     OW18514   2.952   2.405  15.155  0.3606  0.6050  0.5868
 2294SOL    HW118515   2.906   2.321  15.143 -1.5259  1.7698 -0.3480
 2294SOL    HW218516   3.041   2.386  15.125  0.2661  0.9609  0.0936
 2295SOL     OW18517   0.368   1.626   3.879 -0.8486 -0.0247  0.2957
 2295SOL    HW118518   0.324   1.581   3.807  1.6633 -2.2452  0.1657
 2295SOL    HW218519   0.364   1.719   3.856 -1.2414  0.4387  2.2124
 2296SOL     OW18520   3.210   0.282   7.038 -0.3914  0.7306 -0.2870
 2296SOL    HW118521   3.133   0.295   6.981  0.4513 -0.2200 -1.6412
 2296SOL    HW218522   3.185   0.352   7.098  0.0143  0.1080  0.6188
 2297SOL     OW18523   0.184   4.247  11.297  0.0296  0.2426 -0.1544
 2297SOL    HW118524   0.210   4.260  11.206  1.0462 -1.9333 -0.1752
 2297SOL    HW218525   0.169   4.154  11.286 -1.6227  0.3575  1.2157
 2298SOL     OW18526   4.099   3.650   0.058 -0.2285 -0.0109  0.2010
 2298SOL    HW118527   4.179   3.599   0.069  1.3201  2.7927  2.2241
 2298SOL    HW218528   4.039   3.575   0.063  1.3510 -1.2007  1.2610
 2299SOL     OW18529   0.292   3.171   0.303 -0.5021  0.2696 -0.7656
 2299SOL    HW118530   0.330   3.235   0.243 -2.7344 -0.1693 -2.6198
 2299SOL    HW218531   0.341   3.194   0.382 -0.6466 -0.3902 -0.4878
 2300SOL     OW18532   3.914   3.351   8.251  0.4138 -0.7844 -0.5156
 2300SOL    HW118533   4.005   3.346   8.223 -0.3780  0.8394 -3.3489
 2300SOL    HW218534   3.907   3.264   8.290  0.2696 -0.2644  0.6395
 2301SOL     OW18535   4.254   4.519  15.841 -0.4904  0.2929 -0.2557
 2301SOL    HW118536   4.346   4.533  15.817 -0.0682 -1.9293  0.0913
 2301SOL    HW218537   4.224   4.601  15.802  2.3299  1.0869 -0.8001
 2302SOL     OW18538   0.914   3.387  11.293 -0.4219 -0.3518 -0.2232
 2302SOL    HW118539   0.880   3.310  11.248  0.4001  1.1377 -3.4551
 2302SOL    HW218540   0.830   3.433  11.301 -0.1363  0.2005 -0.3369
 2303SOL     OW18541   1.996   3.547  14.318 -0.6676  0.4254  0.0299
 2303SOL    HW118542   1.925   3.507  14.268  1.4683 -0.3951 -2.2800
 2303SOL    HW218543   2.074   3.504  14.286 -1.2703 -0.0670 -0.7716
 2304SOL     OW18544   3.895   3.346   2.669  0.1224  0.0001  0.5686
 2304SOL    HW118545   3.974   3.373   2.716 -0.6832  0.3508  1.7052
 2304SOL    HW218546   3.910   3.252   2.655  0.2875 -0.4655  3.9277
 2305SOL     OW18547   2.846   2.705   2.515  0.3120  0.4659  0.6384
 2305SOL    HW118548   2.909   2.768   2.481  0.1438  1.6486  2.5148
 2305SOL    HW218549   2.832   2.651   2.438 -1.6017 -0.5012  1.6697
 2306SOL     OW18550   4.490   2.464   3.925 -0.8386 -0.4864 -0.0182
 2306SOL    HW118551   4.488   2.476   3.830  0.8626 -3.7654 -0.4664
 2306SOL    HW218552   4.560   2.399   3.930  1.8171  2.3141 -0.3950
 2307SOL     OW18553   1.477   0.355   8.887  0.2573  0.3696  0.0494
 2307SOL    HW118554   1.403   0.298   8.906 -1.5953  3.0696  0.9924
 2307SOL    HW218555   1.544   0.296   8.852 -0.4362 -0.0469 -0.5567
 2308SOL     OW18556   0.332   3.483   8.809  0.2343  0.0083 -0.3773
 2308SOL    HW118557   0.373   3.500   8.724  0.2673  0.7775 -0.2093
 2308SOL    HW218558   0.259   3.426   8.783 -0.4442  0.7692 -0.1300
 2309SOL     OW18559   2.109   2.232   1.147  0.3629  0.1712  0.0178
 2309SOL    HW118560   2.119   2.294   1.219 -0.6568 -0.6277  0.8417
 2309SOL    HW218561   2.014   2.226   1.150  0.3331  0.8408  0.2462
 2310SOL     OW18562   4.533   4.461   5.611 -0.3840  0.3632  0.0895
 2310SOL    HW118563   4.443   4.492   5.617 -0.3171  0.0639  2.8884
 2310SOL    HW218564   4.553   4.436   5.702 -1.5404  0.8664  0.4776
 2311SOL     OW18565   0.957   3.981   7.668  0.0849 -0.2475 -0.2938
 2311SOL    HW118566   1.042   4.020   7.685 -0.3577  0.4713  0.2553
 2311SOL    HW218567   0.935   4.015   7.581 -1.7173 -1.0221 -0.1421
 2312SOL     OW18568   4.237   0.843   6.828 -0.1446  0.7658  0.6346
 2312SOL    HW118569   4.258   0.853   6.735 -0.5303 -1.1039  0.3510
 2312SOL    HW218570   4.155   0.793   6.826  0.4373 -0.0611 -3.1606
 2313SOL     OW18571   1.405   3.053   2.254  0.2390  0.3556  0.2476
 2313SOL    HW118572   1.491   3.012   2.264 -0.6924 -1.6546  0.0835
 2313SOL    HW218573   1.346   2.983   2.282  0.6734 -0.7409 -1.5619
 2314SOL     OW18574   2.231   2.648   7.695 -0.5743 -0.1554  0.6401
 2314SOL    HW118575   2.183   2.666   7.614  0.0560  3.5941  1.1242
 2314SOL    HW218576   2.240   2.733   7.737 -1.2888  0.7594 -1.0723
 2315SOL     OW18577   4.451   2.316   3.058 -0.2963  0.0834 -0.0126
 2315SOL    HW118578   4.518   2.373   3.022  0.8042 -0.8235  0.5971
 2315SOL    HW218579   4.501   2.234   3.052  1.9742  1.4083  0.7380
 2316SOL     OW18580   0.895   2.885  12.361 -0.7878 -0.3874  0.4364
 2316SOL    HW118581   0.806   2.852  12.345 -0.7098 -0.2798 -0.2130
 2316SOL    HW218582   0.890   2.863  12.454 -1.1254  0.0552  0.5235
 2317SOL     OW18583   0.127   1.759   6.016  0.0499  0.1534  0.2902
 2317SOL    HW118584   0.122   1.663   6.012 -2.5078  0.3280 -0.6590
 2317SOL    HW218585   0.046   1.780   5.970 -0.0187 -0.0241  0.3303
 2318SOL     OW18586   0.574   1.483   9.464 -0.1779 -0.2527 -0.2772
 2318SOL    HW118587   0.652   1.511   9.512 -1.6964  3.0731  0.2250
 2318SOL    HW218588   0.521   1.468   9.542  1.1089 -0.7523  0.5123
 2319SOL     OW18589   3.294   1.342   4.254 -0.8415  0.2995  0.0265
 2319SOL    HW118590   3.291   1.437   4.265  0.9013  0.4518 -0.7762
 2319SOL    HW218591   3.219   1.326   4.196 -0.0340  1.0593 -1.2307
 2320SOL     OW18592   3.027   1.323   5.626 -0.2999 -0.1815 -0.0184
 2320SOL    HW118593   3.046   1.405   5.672 -1.8041  0.7952 -1.1483
 2320SOL    HW218594   3.019   1.367   5.542  0.1841 -0.5438 -0.2512
 2321SOL     OW18595   1.651   2.619  12.745  0.0696  0.4349  0.0100
 2321SOL    HW118596   1.733   2.584  12.710 -0.7466 -0.7405 -0.7135
 2321SOL    HW218597   1.599   2.635  12.667 -1.0010 -1.3041  0.3629
 2322SOL     OW18598   2.900   0.494   3.420 -0.2512 -0.0687  0.1959
 2322SOL    HW118599   2.945   0.578   3.428 -0.2877 -0.0062 -0.2631
 2322SOL    HW218600   2.828   0.524   3.363 -1.1004 -2.3899  0.0589
 2323SOL     OW18601   2.993   3.519   6.961  0.7850  0.2424 -0.1617
 2323SOL    HW118602   2.997   3.440   7.015  1.9363 -0.5088 -1.3629
 2323SOL    HW218603   2.918   3.566   6.998 -0.7347 -1.4451 -1.1111
 2324SOL     OW18604   1.230   0.474   6.062  0.2072  0.0481 -0.3367
 2324SOL    HW118605   1.306   0.416   6.055 -0.2422 -0.5871  0.0835
 2324SOL    HW218606   1.266   0.556   6.096 -0.0633 -0.3010  0.7722
 2325SOL     OW18607   4.335   4.296   7.839 -0.1252 -0.3174  0.2146
 2325SOL    HW118608   4.256   4.243   7.839  0.8178 -1.7292 -0.8884
 2325SOL    HW218609   4.303   4.381   7.870  0.7807  0.2275 -0.3446
 2326SOL     OW18610   2.785   3.543   6.466  0.0491 -0.3521  0.0600
 2326SOL    HW118611   2.791   3.459   6.420  4.4660  0.4322 -0.7644
 2326SOL    HW218612   2.808   3.515   6.555  2.1277  1.1528 -0.0045
 2327SOL     OW18613   3.808   1.369  12.247 -0.5294 -0.0326 -0.5960
 2327SOL    HW118614   3.760   1.348  12.167 -1.5366 -1.9627  0.4943
 2327SOL    HW218615   3.760   1.334  12.322 -1.7242  0.0463 -1.3256
 2328SOL     OW18616   4.216   3.430   5.799 -0.9455 -0.1031  0.1195
 2328SOL    HW118617   4.189   3.346   5.762 -0.5150 -1.2015  2.3060
 2328SOL    HW218618   4.267   3.408   5.877 -0.6181 -1.3340 -0.4352
 2329SOL     OW18619   1.948   1.441  10.995  0.1140  0.0467 -0.0116
 2329SOL    HW118620   1.878   1.488  11.040 -1.0741  0.4138 -2.2540
 2329SOL    HW218621   1.915   1.352  10.982  1.4125 -0.1299 -2.0834
 2330SOL     OW18622   4.243   2.313  11.465  0.1583  0.1757  0.2747
 2330SOL    HW118623   4.170   2.253  11.474 -1.3762  1.9049 -0.6471
 2330SOL    HW218624   4.294   2.303  11.545  0.5061  0.7226  0.1244
 2331SOL     OW18625   1.703   0.807   8.536 -0.0496 -0.1030 -0.0416
 2331SOL    HW118626   1.631   0.807   8.600  1.7360 -2.4267  1.9743
 2331SOL    HW218627   1.766   0.858   8.585 -1.7191  1.2596  0.6940
 2332SOL     OW18628   2.975   2.852  15.538  0.2313 -0.1845 -0.5500
 2332SOL    HW118629   3.037   2.853  15.465 -0.2007 -1.1010 -0.9278
 2332SOL    HW218630   2.900   2.809  15.499  0.3391 -0.1180 -0.8372
 2333SOL     OW18631   1.084   0.730   4.066  0.1076  0.0713 -0.1706
 2333SOL    HW118632   1.096   0.676   4.144  1.1368  0.8649  0.2072
 2333SOL    HW218633   1.017   0.673   4.028 -2.0167  1.7163  1.0944
 2334SOL     OW18634   0.741   3.137  12.379 -0.3598  0.9327 -0.5785
 2334SOL    HW118635   0.732   3.232  12.376 -2.6681  0.7491  0.7134
 2334SOL    HW218636   0.823   3.125  12.330  0.4593 -0.5519  1.1592
 2335SOL     OW18637   1.464   4.132   8.326 -0.2422  0.3017  0.1629
 2335SOL    HW118638   1.415   4.070   8.272  1.0859 -0.4663 -0.1374
 2335SOL    HW218639   1.410   4.209   8.305 -1.3886 -0.6518 -0.4053
 2336SOL     OW18640   3.320   0.569   6.094  0.3023 -0.0339 -0.0429
 2336SOL    HW118641   3.351   0.658   6.080 -1.9001  0.6730 -0.5377
 2336SOL    HW218642   3.381   0.510   6.050 -2.0613 -1.8799 -0.8649
 2337SOL     OW18643   4.068   1.386   9.647 -0.3367 -0.3575  0.9323
 2337SOL    HW118644   4.146   1.438   9.667 -0.4687  0.1474  0.1389
 2337SOL    HW218645   4.098   1.304   9.610  0.0752 -1.2625  3.3057
 2338SOL     OW18646   2.475   1.387   2.977  0.0620  0.1249  0.1976
 2338SOL    HW118647   2.386   1.386   2.941 -0.0174  1.3813  0.3382
 2338SOL    HW218648   2.508   1.298   2.968 -2.8776 -0.9218 -0.2877
 2339SOL     OW18649   1.033   2.156  17.334 -0.1528  0.0515  0.4009
 2339SOL    HW118650   1.037   2.166  17.238 -0.4006  1.5879  0.5571
 2339SOL    HW218651   0.944   2.190  17.344  0.6078  1.8989  0.7757
 2340SOL     OW18652   3.285   1.074   5.569  0.3316 -0.4266  0.5070
 2340SOL    HW118653   3.310   0.983   5.555  0.1172 -0.1395 -1.7413
 2340SOL    HW218654   3.191   1.069   5.555  0.7294  0.0930 -2.2724
 2341SOL     OW18655   1.047   2.281   7.058 -0.2066 -0.0873 -0.7458
 2341SOL    HW118656   1.058   2.279   7.154  0.0052  1.3997 -0.7476
 2341SOL    HW218657   1.124   2.229   7.034 -0.2397  0.2333 -1.5130
 2342SOL     OW18658   2.521   3.030   8.100  0.3398 -0.1215  0.3262
 2342SOL    HW118659   2.592   2.968   8.080  1.8082  0.8574  2.4815
 2342SOL    HW218660   2.498   2.990   8.183 -1.6865  0.3008 -0.0439
 2343SOL     OW18661   2.849   3.304   8.496 -0.2210  0.0006 -0.0400
 2343SOL    HW118662   2.795   3.271   8.567 -2.8609  0.0539 -2.0295
 2343SOL    HW218663   2.837   3.227   8.441  2.4459 -1.0038  0.7644
 2344SOL     OW18664   3.715   3.199   6.160 -0.1207  0.2271  0.2348
 2344SOL    HW118665   3.764   3.219   6.240 -0.8496  4.2120 -0.3298
 2344SOL    HW218666   3.658   3.125   6.182 -0.0274 -0.0478 -0.4573
 2345SOL     OW18667   0.215   4.084   2.293  0.5271  0.0081  0.2012
 2345SOL    HW118668   0.199   4.157   2.353 -1.0504  1.0505 -1.4724
 2345SOL    HW218669   0.135   4.099   2.242  1.8110  2.5550 -1.0789
 2346SOL     OW18670   3.468   1.207   5.951 -0.8979 -0.1038 -0.0521
 2346SOL    HW118671   3.453   1.245   5.865 -2.9194  1.6455  1.0741
 2346SOL    HW218672   3.475   1.294   5.992 -2.3915  1.5797 -3.3915
 2347SOL     OW18673   2.054   2.434   1.771 -0.4325  0.0892 -0.6585
 2347SOL    HW118674   2.132   2.444   1.716 -0.5589  0.6245 -0.7387
 2347SOL    HW218675   1.997   2.382   1.714 -0.7543  0.6902 -0.8789
 2348SOL     OW18676   1.361   4.219  12.040  0.2920 -0.2279 -0.5298
 2348SOL    HW118677   1.305   4.258  12.107  1.1538 -2.6079  1.6030
 2348SOL    HW218678   1.358   4.287  11.974  0.6880  0.2979 -0.0093
 2349SOL     OW18679   1.029   3.001   3.813  0.3850 -0.3800  0.3462
 2349SOL    HW118680   1.082   2.921   3.809 -1.3615 -1.4805 -0.7495
 2349SOL    HW218681   0.978   2.978   3.735  2.4348  0.7136 -1.3174
 2350SOL     OW18682   0.849   2.135   1.628  0.2439 -0.2495  0.3646
 2350SOL    HW118683   0.902   2.084   1.566 -0.2331 -1.6201  1.0876
 2350SOL    HW218684   0.921   2.195   1.650 -0.0366  0.0292  0.5094
 2351SOL     OW18685   2.925   4.262   2.671 -0.0923  0.0202  0.4451
 2351SOL    HW118686   2.898   4.262   2.579 -4.0489 -0.3934  1.6245
 2351SOL    HW218687   2.901   4.172   2.692 -1.2778  0.0305 -0.7959
 2352SOL     OW18688   3.230   4.008   6.375  0.0123 -0.5217 -0.0960
 2352SOL    HW118689   3.306   3.955   6.401 -0.7837 -0.9718  1.3428
 2352SOL    HW218690   3.155   3.967   6.417 -0.2349  0.2576  0.2386
 2353SOL     OW18691   0.682   1.359   4.315 -0.4707  0.0936  0.3160
 2353SOL    HW118692   0.628   1.298   4.264 -0.2249 -0.3466  0.5835
 2353SOL    HW218693   0.622   1.430   4.338 -0.8584  0.8704 -3.1355
 2354SOL     OW18694   2.735   4.732   6.364 -0.2715  0.2604 -0.0893
 2354SOL    HW118695   2.715   4.642   6.340 -0.8153  0.4376 -0.2955
 2354SOL    HW218696   2.801   4.726   6.434 -0.9189 -0.8965  0.4274
 2355SOL     OW18697   3.259   0.049   2.534 -0.6712  0.3282 -0.0497
 2355SOL    HW118698   3.227   0.109   2.466 -2.9859 -0.1625  0.5940
 2355SOL    HW218699   3.227   4.697   2.507 -1.5639  0.8298 -0.6115
 2356SOL     OW18700   2.296   2.737  13.800  0.0980  0.4572 -0.3046
 2356SOL    HW118701   2.341   2.681  13.863 -1.0025  0.7030  0.6998
 2356SOL    HW218702   2.206   2.724  13.828  1.0091 -3.0125  1.0680
 2357SOL     OW18703   0.189   0.339  14.223  0.0218 -0.1363 -0.7118
 2357SOL    HW118704   0.160   0.327  14.132 -0.9933 -1.5835 -0.2011
 2357SOL    HW218705   0.119   0.401  14.245 -0.1597 -0.6976  0.2842
 2358SOL     OW18706   3.259   4.259   3.301 -0.8280 -0.7055 -0.2763
 2358SOL    HW118707   3.206   4.248   3.381 -0.0629  1.5969  0.5417
 2358SOL    HW218708   3.335   4.208   3.328 -1.1578 -1.3544 -0.5890
 2359SOL     OW18709   0.782   4.128  12.685  0.2657 -0.1100  0.3663
 2359SOL    HW118710   0.854   4.080  12.727 -0.0620  0.7322  1.8822
 2359SOL    HW218711   0.816   4.216  12.666 -2.0507  0.7065  0.0340
 2360SOL     OW18712   3.982   1.053   8.911  0.1364  0.0523 -0.0158
 2360SOL    HW118713   4.008   1.068   8.820  4.9685 -0.1546  1.3381
 2360SOL    HW218714   4.033   1.117   8.961  2.4615 -0.7765 -1.3493
 2361SOL     OW18715   4.399   1.945   2.350  0.2245  0.3425  0.1625
 2361SOL    HW118716   4.363   1.967   2.435 -0.0960 -3.1301  0.9191
 2361SOL    HW218717   4.409   1.851   2.362 -2.4956  0.2145  1.3905
 2362SOL     OW18718   4.547   2.702  10.725  0.0485  0.4185  0.0147
 2362SOL    HW118719   4.513   2.784  10.760 -0.6121  1.2613 -2.5995
 2362SOL    HW218720   4.641   2.720  10.723  0.0244  0.3363 -1.7410
 2363SOL     OW18721   3.631   4.574   9.745  0.3018 -0.3989 -0.0081
 2363SOL    HW118722   3.626   4.508   9.814  0.9760  0.5100  0.9066
 2363SOL    HW218723   3.551   4.550   9.698 -0.4107  0.7413  0.6451
 2364SOL     OW18724   1.258   1.933   6.682  0.1035  0.1744 -0.2427
 2364SOL    HW118725   1.345   1.947   6.719 -0.0757  0.1102  0.2054
 2364SOL    HW218726   1.275   1.862   6.619 -0.4857 -1.0504  0.9928
 2365SOL     OW18727   3.437   1.643   5.045  0.1189  0.4659 -0.9019
 2365SOL    HW118728   3.343   1.664   5.047  0.3807  1.3527  2.1958
 2365SOL    HW218729   3.431   1.555   5.082  0.8609  0.3954 -0.9590
 2366SOL     OW18730   3.160   0.127  12.226 -0.0159  0.3108 -0.0658
 2366SOL    HW118731   3.172   0.202  12.285  2.4937 -0.5050  0.4662
 2366SOL    HW218732   3.097   0.173  12.169  2.8874  2.0281 -1.9108
 2367SOL     OW18733   0.188   2.852   1.900 -0.2207 -0.3559  0.1471
 2367SOL    HW118734   0.232   2.852   1.815 -2.6787 -1.5211 -1.1220
 2367SOL    HW218735   0.173   2.946   1.908  0.3018 -0.2173 -0.5250
 2368SOL     OW18736   4.548   1.900   3.840 -0.5280 -0.2707 -0.1512
 2368SOL    HW118737   4.539   1.853   3.757  1.9131  1.0676 -1.1673
 2368SOL    HW218738   4.505   1.983   3.819 -0.7266 -0.7709 -1.6876
 2369SOL     OW18739   1.473   2.137  14.634 -0.0628  0.3019 -0.0147
 2369SOL    HW118740   1.495   2.179  14.551  0.9766  1.3095  0.7595
 2369SOL    HW218741   1.530   2.194  14.685 -0.3639 -1.2021  2.0105
 2370SOL     OW18742   2.098   3.040   2.736  0.0564  0.8684 -0.1004
 2370SOL    HW118743   2.122   3.070   2.824  1.3157  0.3082 -0.2453
 2370SOL    HW218744   2.007   3.012   2.736 -0.0263  1.1372 -0.0366
 2371SOL     OW18745   2.329   1.785   8.776  0.4022  0.1314  0.3829
 2371SOL    HW118746   2.412   1.811   8.736 -1.5476  2.4972 -2.0512
 2371SOL    HW218747   2.349   1.809   8.866  1.2874 -0.3137  0.3136
 2372SOL     OW18748   4.237   2.838   4.812  0.0922  0.3115  0.3836
 2372SOL    HW118749   4.226   2.857   4.906 -0.0551 -2.6741  0.9595
 2372SOL    HW218750   4.322   2.794   4.816  0.6157  0.8801 -4.5151
 2373SOL     OW18751   2.008   1.871   4.034 -0.0199  0.4973  0.7723
 2373SOL    HW118752   2.078   1.816   4.069 -0.4827 -0.6372 -0.0891
 2373SOL    HW218753   2.012   1.937   4.104 -2.5690 -0.2669  1.6657
 2374SOL     OW18754   3.974   1.658  16.459 -0.2086  0.3633 -0.4629
 2374SOL    HW118755   4.035   1.725  16.429  0.7687 -0.9424 -1.3853
 2374SOL    HW218756   4.015   1.573  16.441 -0.8816 -0.0265 -0.1513
 2375SOL     OW18757   0.187   3.463   1.398 -0.2405  0.0574 -0.1140
 2375SOL    HW118758   0.161   3.371   1.407 -1.2763  0.4397  0.6636
 2375SOL    HW218759   0.142   3.502   1.472 -0.2748  1.3561 -0.8227
 2376SOL     OW18760   1.391   0.495   0.856  0.9340 -0.1527  0.2227
 2376SOL    HW118761   1.345   0.439   0.919  1.4859  0.4219  1.1398
 2376SOL    HW218762   1.330   0.565   0.833  0.1692 -0.2705  1.8884
 2377SOL     OW18763   0.740   2.042  11.277 -0.2042 -0.3052  0.3572
 2377SOL    HW118764   0.773   1.954  11.258 -1.8476 -0.8900  0.2083
 2377SOL    HW218765   0.754   2.049  11.371 -0.0762 -3.0782  0.5593
 2378SOL     OW18766   1.397   4.363   5.734  0.3052 -0.5863  0.4522
 2378SOL    HW118767   1.431   4.322   5.814 -0.3587 -0.0496  1.0163
 2378SOL    HW218768   1.350   4.287   5.699  1.1836 -1.3004  0.8410
 2379SOL     OW18769   2.046   3.569  16.372 -0.0451 -0.3255 -0.4172
 2379SOL    HW118770   2.043   3.523  16.456  3.9411 -1.9603 -1.1756
 2379SOL    HW218771   1.957   3.603  16.365  0.6855  2.0413  1.9601
 2380SOL     OW18772   1.201   1.429   1.545  0.1548 -0.0407  0.1777
 2380SOL    HW118773   1.192   1.485   1.469  1.6073 -1.0733 -0.7401
 2380SOL    HW218774   1.252   1.494   1.594 -0.9982  1.1727 -0.2323
 2381SOL     OW18775   2.616   3.220   0.069  0.2762  0.8453 -0.8865
 2381SOL    HW118776   2.583   3.132   0.084  0.8672  0.9244  0.9525
 2381SOL    HW218777   2.542   3.269   0.105  0.5632  2.1600 -2.0658
 2382SOL     OW18778   3.573   0.555   7.198 -0.3951  0.3925  0.0735
 2382SOL    HW118779   3.579   0.497   7.122 -0.5598  0.9847 -0.3993
 2382SOL    HW218780   3.606   0.636   7.159  0.6420 -0.1230 -0.1277
 2383SOL     OW18781   2.629   4.697   2.924  0.5715 -0.1344 -0.8130
 2383SOL    HW118782   2.544   4.654   2.939  0.9990  0.2424  2.4565
 2383SOL    HW218783   2.645   0.022   2.997 -0.8358 -2.8020  1.6357
 2384SOL     OW18784   0.687   1.294   2.700  0.2199  0.0731  0.8138
 2384SOL    HW118785   0.697   1.299   2.795  3.1864 -2.5490  0.6449
 2384SOL    HW218786   0.669   1.386   2.678  0.6677 -0.1886 -0.6465
 2385SOL     OW18787   2.598   3.688   2.691  0.3435 -0.0472  0.0887
 2385SOL    HW118788   2.590   3.775   2.729  0.5753  0.7070 -1.6079
 2385SOL    HW218789   2.518   3.686   2.639  1.5700  1.3398 -1.8277
 2386SOL     OW18790   3.796   3.779   6.492 -0.4049  0.3631  0.0880
 2386SOL    HW118791   3.841   3.836   6.554  0.8720  1.8020 -2.1665
 2386SOL    HW218792   3.708   3.789   6.528 -0.9130 -1.3575 -0.6543
 2387SOL     OW18793   0.702   3.211   6.110 -0.1914  0.4503  0.9562
 2387SOL    HW118794   0.750   3.261   6.176 -1.6346  2.0850  0.7896
 2387SOL    HW218795   0.764   3.140   6.094 -2.3726 -1.0608 -0.7447
 2388SOL     OW18796   4.218   2.047  11.655 -0.2356  0.3499  0.4152
 2388SOL    HW118797   4.184   2.000  11.731  1.2382  1.5318  1.8299
 2388SOL    HW218798   4.258   2.120  11.703  0.3601  0.3729 -0.1117
 2389SOL     OW18799   1.067   3.398   7.422  0.1801  0.2117 -0.0471
 2389SOL    HW118800   1.126   3.381   7.496  1.3478  2.4652 -0.4323
 2389SOL    HW218801   1.004   3.456   7.464  1.1468  0.4919  1.0087
 2390SOL     OW18802   4.018   2.696  10.987  0.1659  0.6275  0.2101
 2390SOL    HW118803   4.049   2.777  10.945  0.5762  0.1541 -0.4046
 2390SOL    HW218804   4.089   2.672  11.046 -0.6873 -0.2741  0.8489
 2391SOL     OW18805   3.416   3.071   9.381 -0.2954 -0.0901  0.0450
 2391SOL    HW118806   3.489   3.033   9.332  0.6920 -0.6773  1.9419
 2391SOL    HW218807   3.339   3.032   9.340  0.2725 -1.9547  0.7571
 2392SOL     OW18808   2.225   1.789   5.974 -0.3928 -0.1478  0.0755
 2392SOL    HW118809   2.224   1.695   5.959 -0.1502 -0.0634 -0.4810
 2392SOL    HW218810   2.316   1.802   5.948 -0.8036  0.1832 -1.2044
 2393SOL     OW18811   0.404   0.245  13.882  0.6809  0.2265 -0.4330
 2393SOL    HW118812   0.458   0.192  13.939 -0.8501 -0.6899  0.1747
 2393SOL    HW218813   0.473   0.256  13.816  0.7434 -0.2580 -0.4500
 2394SOL     OW18814   4.176   4.380  16.201 -0.2786 -0.0058  0.7411
 2394SOL    HW118815   4.206   4.297  16.239 -3.1173 -1.6124 -0.4700
 2394SOL    HW218816   4.251   4.438  16.213 -0.1998 -0.0699  0.5424
 2395SOL     OW18817   3.517   1.893   5.733 -0.0235  0.0542  0.4965
 2395SOL    HW118818   3.607   1.879   5.764  0.4769 -0.5880 -1.2165
 2395SOL    HW218819   3.527   1.937   5.648  0.5537 -2.0309 -0.5042
 2396SOL     OW18820   3.431   1.105  16.669 -0.0411  0.1752  0.3345
 2396SOL    HW118821   3.445   1.031  16.611 -1.0200 -1.0315  1.6504
 2396SOL    HW218822   3.517   1.109  16.711 -0.7971 -0.5395  1.9567
 2397SOL     OW18823   3.302   1.795  14.643  0.0641 -0.0707 -0.4169
 2397SOL    HW118824   3.295   1.861  14.712  2.4873 -0.8029  0.5371
 2397SOL    HW218825   3.357   1.727  14.682  0.3502  1.5205  1.9583
 2398SOL     OW18826   3.670   3.709   1.799  0.0852 -0.6867  0.1162
 2398SOL    HW118827   3.642   3.769   1.869 -0.4415 -1.5302  0.6221
 2398SOL    HW218828   3.642   3.623   1.829  3.9110 -1.5165  1.3682
 2399SOL     OW18829   1.622   3.253   4.889  0.0005 -0.4248 -0.6196
 2399SOL    HW118830   1.673   3.172   4.880 -0.8233 -1.0399  0.2172
 2399SOL    HW218831   1.550   3.222   4.944  2.4705 -1.7050  1.8706
 2400SOL     OW18832   1.769   2.287   4.445  0.1346  0.0369  0.2862
 2400SOL    HW118833   1.702   2.325   4.503  2.3149  0.3881  2.5702
 2400SOL    HW218834   1.847   2.286   4.501  1.8308  0.4303 -2.1141
 2401SOL     OW18835   1.417   1.379   1.810 -0.8477  0.2690 -0.3395
 2401SOL    HW118836   1.447   1.430   1.885 -1.6555  1.5895 -0.9123
 2401SOL    HW218837   1.398   1.448   1.747 -0.2532  1.0655  0.3597
 2402SOL     OW18838   3.860   1.959   7.040  0.0295 -0.5122  0.0891
 2402SOL    HW118839   3.852   1.896   7.111 -1.1950  0.9025  1.2111
 2402SOL    HW218840   3.773   1.951   7.001 -0.6442  0.6513  1.3615
 2403SOL     OW18841   1.534   3.031   6.841 -0.0801 -0.0391  0.0867
 2403SOL    HW118842   1.502   2.941   6.833  0.1920 -0.1918  0.6859
 2403SOL    HW218843   1.583   3.041   6.760  1.5389  0.8395  1.1585
 2404SOL     OW18844   0.549   3.840   0.568 -0.3473  0.2302  0.6008
 2404SOL    HW118845   0.548   3.907   0.499  3.0064 -0.3924 -0.0476
 2404SOL    HW218846   0.578   3.901   0.636  0.4133  0.0610  0.4280
 2405SOL     OW18847   3.847   1.767   3.275  0.0930  0.0384  0.5901
 2405SOL    HW118848   3.790   1.813   3.337 -0.7331  0.6456 -0.6191
 2405SOL    HW218849   3.866   1.841   3.218 -2.5050 -0.6815 -1.2343
 2406SOL     OW18850   2.923   3.812   4.224  0.0957 -0.5541  0.2025
 2406SOL    HW118851   2.947   3.769   4.307 -0.2757  2.9880  2.1573
 2406SOL    HW218852   2.848   3.755   4.212  0.1013 -0.4667 -0.2282
 2407SOL     OW18853   1.643   4.549  11.175  0.0285  0.0324 -0.0776
 2407SOL    HW118854   1.649   4.644  11.180  0.0215  0.0487 -0.3756
 2407SOL    HW218855   1.558   4.531  11.215  0.1197  1.6332  0.8529
 2408SOL     OW18856   1.600   2.656   2.090 -0.0959  0.2199  0.0460
 2408SOL    HW118857   1.593   2.611   2.174 -0.8707 -1.8872 -1.1740
 2408SOL    HW218858   1.678   2.617   2.051  1.5833  1.5051  2.0855
 2409SOL     OW18859   0.822   1.812   2.547  0.2531 -0.1480  0.2094
 2409SOL    HW118860   0.772   1.825   2.466 -0.0175 -0.2384  0.3603
 2409SOL    HW218861   0.804   1.899   2.580  1.2650  0.0436  0.2441
 2410SOL     OW18862   3.931   3.835   1.786  0.2376  0.1761 -0.4009
 2410SOL    HW118863   3.844   3.803   1.761  0.2040  0.4081 -0.5785
 2410SOL    HW218864   3.954   3.760   1.840 -1.2448  0.0082  0.0180
 2411SOL     OW18865   3.236   2.278   4.463 -0.4213 -0.2312 -0.0684
 2411SOL    HW118866   3.318   2.237   4.437 -0.6044 -0.7490  0.1728
 2411SOL    HW218867   3.261   2.370   4.474  0.5571 -0.5508  0.3650
 2412SOL     OW18868   2.437   1.768   5.733 -0.1652  0.1946  0.4387
 2412SOL    HW118869   2.497   1.774   5.659 -1.7604  1.9999 -0.7175
 2412SOL    HW218870   2.408   1.858   5.743  0.5373  0.5796 -0.9912
 2413SOL     OW18871   3.947   0.102  10.170  0.0490  0.2044  0.5725
 2413SOL    HW118872   3.960   0.179  10.226  1.3168  0.9264 -0.7172
 2413SOL    HW218873   3.854   0.086  10.159  0.1306 -0.2283  0.4952
 2414SOL     OW18874   1.533   1.526   7.194 -0.1944  0.3392  0.7765
 2414SOL    HW118875   1.503   1.581   7.121  2.5330  0.7051 -0.0401
 2414SOL    HW218876   1.465   1.538   7.260 -0.6252  1.1756  0.1783
 2415SOL     OW18877   4.445   3.283  13.329  0.6875  0.1693  0.2141
 2415SOL    HW118878   4.458   3.208  13.271 -1.1463 -0.2500  0.3561
 2415SOL    HW218879   4.517   3.279  13.392  3.0941 -0.8881 -2.6226
 2416SOL     OW18880   1.991   2.517   2.757  0.5549  0.6140 -0.3807
 2416SOL    HW118881   2.024   2.440   2.710  0.7419  0.5206 -0.0938
 2416SOL    HW218882   2.007   2.487   2.846  0.3859  0.7919 -0.2906
 2417SOL     OW18883   0.821   1.362   9.117 -0.5598 -0.0553 -0.2743
 2417SOL    HW118884   0.866   1.279   9.104 -0.1919  0.5753 -3.2405
 2417SOL    HW218885   0.807   1.350   9.210  1.0586 -1.5574 -0.2319
 2418SOL     OW18886   3.493   0.711   5.276  0.3138  0.2773 -0.0877
 2418SOL    HW118887   3.489   0.700   5.181 -1.8002  1.6596 -0.1651
 2418SOL    HW218888   3.460   0.627   5.309 -0.4876  1.5634  2.3790
 2419SOL     OW18889   0.853   1.111   7.173 -0.1853  0.0324 -0.0658
 2419SOL    HW118890   0.828   1.090   7.083 -2.8311 -0.7912  0.8455
 2419SOL    HW218891   0.769   1.101   7.219  0.2565 -1.6364  0.4017
 2420SOL     OW18892   4.731   4.430   2.727  0.2318 -0.3530 -0.5201
 2420SOL    HW118893   4.732   4.482   2.807 -0.2447 -0.2178 -0.5982
 2420SOL    HW218894   4.701   4.496   2.665  0.6842  0.1918 -0.1521
 2421SOL     OW18895   3.398   1.211   0.176  0.6441 -0.8011  0.3596
 2421SOL    HW118896   3.474   1.183   0.227  2.6364 -0.1787 -2.2388
 2421SOL    HW218897   3.362   1.278   0.235  0.8766 -0.5738  0.2457
 2422SOL     OW18898   3.262   3.696   1.902 -0.1638 -0.6142  0.3581
 2422SOL    HW118899   3.309   3.765   1.854  1.3921 -0.0238  2.7758
 2422SOL    HW218900   3.275   3.723   1.992  2.0715  0.2661 -0.2398
 2423SOL     OW18901   0.553   0.904   5.590 -0.4329 -0.7503 -0.4611
 2423SOL    HW118902   0.596   0.821   5.571  3.5859  1.4361 -1.0491
 2423SOL    HW218903   0.611   0.931   5.662 -0.0715 -0.0866 -1.0023
 2424SOL     OW18904   0.166   0.128   6.730  0.0529 -0.0145 -0.5606
 2424SOL    HW118905   0.089   0.186   6.730  0.0746  0.0144  0.4736
 2424SOL    HW218906   0.183   0.120   6.823 -3.1769 -2.2153 -0.1634
 2425SOL     OW18907   3.913   0.309   3.597  0.0086  0.1847  0.2427
 2425SOL    HW118908   3.899   0.402   3.613  0.2610  0.1095  0.9101
 2425SOL    HW218909   3.964   0.311   3.516 -0.1092  3.0818  0.2313
 2426SOL     OW18910   3.256   1.360  15.291 -0.0536  0.2061 -0.0940
 2426SOL    HW118911   3.234   1.441  15.245 -0.4657 -0.3001 -0.7937
 2426SOL    HW218912   3.322   1.393  15.352 -1.7648  1.5931  1.0293
 2427SOL     OW18913   1.739   2.536  11.018  0.2834 -0.9760  0.1004
 2427SOL    HW118914   1.821   2.548  11.066 -0.6570 -1.1120  1.7790
 2427SOL    HW218915   1.755   2.612  10.962 -2.5434 -0.3192  0.1680
 2428SOL     OW18916   1.453   3.355  10.806  0.0345 -0.4738  0.0959
 2428SOL    HW118917   1.382   3.301  10.840  0.0278  0.3365  1.3529
 2428SOL    HW218918   1.419   3.354  10.717  1.8381 -0.2294 -0.6024
 2429SOL     OW18919   3.044   3.869   6.537  0.0274  0.2240 -0.0735
 2429SOL    HW118920   3.080   3.784   6.512  2.3123  0.1333  3.3922
 2429SOL    HW218921   2.956   3.867   6.501 -0.3588 -1.1652  0.9408
 2430SOL     OW18922   0.146   1.007   6.006 -0.4124  0.1818  0.1576
 2430SOL    HW118923   0.061   0.966   6.021 -0.8338  1.2372  0.6203
 2430SOL    HW218924   0.191   0.955   6.072  0.5281  0.1468 -0.5168
 2431SOL     OW18925   2.773   0.144   1.630  0.0020 -0.7952 -0.5715
 2431SOL    HW118926   2.749   0.108   1.545 -0.1775 -0.6322 -0.5893
 2431SOL    HW218927   2.841   0.086   1.666  0.6404  0.9497  1.0148
 2432SOL     OW18928   4.390   4.414   4.600 -0.4278  0.2329  0.0156
 2432SOL    HW118929   4.463   4.460   4.557  0.8113 -2.8029 -1.1060
 2432SOL    HW218930   4.418   4.423   4.692 -0.3879  0.8608 -0.0550
 2433SOL     OW18931   2.123   3.925   5.276  0.8559  0.2473 -0.6783
 2433SOL    HW118932   2.072   3.921   5.358  2.0819  0.9620  0.1100
 2433SOL    HW218933   2.179   4.002   5.280  0.7021  0.2779  0.9641
 2434SOL     OW18934   3.794   4.364   8.329  0.0423  0.1489  0.0584
 2434SOL    HW118935   3.869   4.379   8.272  0.8360 -0.7313  0.8627
 2434SOL    HW218936   3.737   4.313   8.272 -0.2195  0.3516  0.1361
 2435SOL     OW18937   4.604   1.000   8.782  0.1080 -0.0434 -0.0546
 2435SOL    HW118938   4.696   1.017   8.799  0.7428 -3.7994  0.2479
 2435SOL    HW218939   4.577   1.082   8.824 -2.6438 -0.1550 -1.6278
 2436SOL     OW18940   1.035   2.105   8.926  0.1226  0.0222  0.4094
 2436SOL    HW118941   1.005   2.184   8.880  0.6159  0.6433  1.1538
 2436SOL    HW218942   1.008   2.047   8.855 -0.2556 -0.4249  0.9168
 2437SOL     OW18943   2.032   0.035   8.589  0.4230  0.0196  0.2542
 2437SOL    HW118944   2.102   0.070   8.644  1.1853 -0.0767 -0.6623
 2437SOL    HW218945   1.985   0.119   8.595  0.0287 -0.1724 -0.2208
 2438SOL     OW18946   2.985   3.981   2.090 -0.3420  0.2690  0.1612
 2438SOL    HW118947   2.945   3.894   2.083  0.2695  0.0619 -0.8124
 2438SOL    HW218948   2.998   3.989   2.185  1.0332 -0.5197  0.0436
 2439SOL     OW18949   4.025   3.625   9.507  0.0245 -0.4811  0.2314
 2439SOL    HW118950   4.116   3.653   9.498  0.5554 -2.9125 -1.7255
 2439SOL    HW218951   4.023   3.541   9.463  1.9669  0.7277 -2.1764
 2440SOL     OW18952   2.927   3.059   8.720 -0.2383 -0.1479 -0.3113
 2440SOL    HW118953   3.014   3.019   8.725  0.0527  0.4871 -0.2490
 2440SOL    HW218954   2.913   3.064   8.626 -0.0726  1.4048 -0.2482
 2441SOL     OW18955   3.930   3.981   6.982  0.2753  0.0135 -0.3923
 2441SOL    HW118956   3.888   3.899   7.007  0.8350 -0.2519 -0.3292
 2441SOL    HW218957   4.009   3.973   7.035  0.2529 -0.2894 -0.4026
 2442SOL     OW18958   3.988   4.121   3.818 -0.1425 -0.6917 -0.1816
 2442SOL    HW118959   3.972   4.172   3.738 -0.8609 -0.2799  0.2253
 2442SOL    HW218960   4.019   4.041   3.776  2.2721 -0.8887  2.0012
 2443SOL     OW18961   3.941   0.204   0.874 -0.7338 -0.5103 -0.2889
 2443SOL    HW118962   3.863   0.221   0.927 -1.3240  1.0309 -1.6678
 2443SOL    HW218963   3.978   0.126   0.917 -0.7181 -0.6060 -0.4750
 2444SOL     OW18964   1.240   3.537   2.008 -0.3212 -0.4423  0.3538
 2444SOL    HW118965   1.189   3.525   1.928  0.6208 -1.8265 -0.0301
 2444SOL    HW218966   1.201   3.613   2.051 -0.1214  1.0649 -2.1241
 2445SOL     OW18967   1.149   0.465  11.736 -0.1173 -0.4939 -1.0066
 2445SOL    HW118968   1.168   0.508  11.819  2.5054 -0.4775 -1.5855
 2445SOL    HW218969   1.097   0.387  11.755  1.2918 -1.7691 -2.3087
 2446SOL     OW18970   0.496   0.666  15.312  0.1702  0.3043  0.0110
 2446SOL    HW118971   0.507   0.616  15.393  0.2838  1.2007  0.5399
 2446SOL    HW218972   0.552   0.743  15.322  0.1562  0.1426  1.3396
 2447SOL     OW18973   1.699   4.049   8.418  0.4688 -0.0082  0.2336
 2447SOL    HW118974   1.612   4.085   8.402 -0.2095 -1.8350 -0.1469
 2447SOL    HW218975   1.720   4.018   8.330  2.1334 -0.8298  0.9069
 2448SOL     OW18976   1.380   2.074   2.309 -0.0909 -0.0596  0.4175
 2448SOL    HW118977   1.304   2.108   2.356  1.0706  2.4494  0.5050
 2448SOL    HW218978   1.438   2.075   2.385  0.2446  0.8126  0.1477
 2449SOL     OW18979   2.636   3.825  10.538 -0.0660  0.2293  0.0390
 2449SOL    HW118980   2.634   3.735  10.572  0.9298 -0.0011 -0.5243
 2449SOL    HW218981   2.701   3.866  10.595  0.0855 -0.2572  0.2199
 2450SOL     OW18982   0.308   3.631   6.250  0.6197  0.0683  0.4075
 2450SOL    HW118983   0.252   3.601   6.322  0.1503  0.7407  0.3161
 2450SOL    HW218984   0.262   3.591   6.177  1.3405 -0.9558  0.5079
 2451SOL     OW18985   4.535   4.181   2.316 -0.1642 -0.1424  0.0879
 2451SOL    HW118986   4.524   4.252   2.379  0.0001  2.0545 -2.3970
 2451SOL    HW218987   4.443   4.182   2.289  0.3708  2.5571 -1.5959
 2452SOL     OW18988   3.191   0.593  11.777  0.1882 -0.3333  0.5204
 2452SOL    HW118989   3.124   0.647  11.817 -0.4979 -0.9437  0.1996
 2452SOL    HW218990   3.238   0.556  11.852  1.4661  2.7588  1.2251
 2453SOL     OW18991   2.492   0.352   5.304  0.0519 -0.1359 -0.3848
 2453SOL    HW118992   2.509   0.387   5.392 -0.9003  1.7763 -0.9718
 2453SOL    HW218993   2.525   0.263   5.313  2.0925  0.5877 -0.5704
 2454SOL     OW18994   0.197   3.948   7.532  0.8003  0.2063 -0.1879
 2454SOL    HW118995   0.115   3.928   7.486  0.6908  2.8428 -1.1075
 2454SOL    HW218996   0.227   4.026   7.487  2.4141 -0.1585  0.2587
 2455SOL     OW18997   1.043   2.640   7.752  0.1630  0.1041 -0.1322
 2455SOL    HW118998   1.050   2.664   7.660  0.8780 -0.0496 -0.1234
 2455SOL    HW218999   1.062   2.546   7.752 -1.7541 -0.2887  1.0417
 2456SOL     OW19000   4.446   0.386   7.165  0.8899  0.2592  0.1716
 2456SOL    HW119001   4.455   0.468   7.214  0.3613 -0.5828  1.6783
 2456SOL    HW219002   4.363   0.353   7.199  0.0100  2.2417 -0.0614
 2457SOL     OW19003   1.533   4.467   7.151  0.8306  0.1942  0.0086
 2457SOL    HW119004   1.599   4.532   7.128  0.5438  0.6292  0.4244
 2457SOL    HW219005   1.482   4.466   7.070  2.6479  0.3046 -1.1398
 2458SOL     OW19006   4.022   4.260   3.010 -0.0635 -0.2386  0.3999
 2458SOL    HW119007   3.987   4.170   3.012  1.1642 -0.7364 -0.7307
 2458SOL    HW219008   3.936   4.300   2.994  0.4586  1.2835  1.5219
 2459SOL     OW19009   4.176   3.246   9.683 -0.2055  0.7111 -0.4091
 2459SOL    HW119010   4.207   3.280   9.767  0.8002 -1.8309  0.2509
 2459SOL    HW219011   4.105   3.309   9.675  1.5852  2.6174 -1.0846
 2460SOL     OW19012   0.123   2.917   3.965  0.0782  0.0478 -0.2131
 2460SOL    HW119013   0.062   2.879   4.028 -0.9907  0.1131 -1.2181
 2460SOL    HW219014   0.170   2.986   4.012 -3.0616  2.4484 -0.6225
 2461SOL     OW19015   2.763   4.551  10.886 -0.6868  0.0024 -0.4503
 2461SOL    HW119016   2.788   4.474  10.834  1.8929  0.2619  0.4105
 2461SOL    HW219017   2.715   4.508  10.957  1.7191 -1.4017  0.3379
 2462SOL     OW19018   3.950   0.882   6.067 -0.6716 -0.4601  0.5785
 2462SOL    HW119019   4.031   0.845   6.102 -0.8600 -2.7199 -1.3566
 2462SOL    HW219020   3.985   0.904   5.981 -0.0712 -1.9829  0.4249
 2463SOL     OW19021   3.515   0.338  11.800 -0.0848 -0.2660  0.0771
 2463SOL    HW119022   3.428   0.360  11.833 -0.4392  0.4789 -1.3691
 2463SOL    HW219023   3.552   0.426  11.805 -0.8751  0.1626 -1.7525
 2464SOL     OW19024   3.584   3.219   1.893 -0.3014  0.1118 -0.5350
 2464SOL    HW119025   3.496   3.184   1.904  0.8178 -2.6365 -0.0808
 2464SOL    HW219026   3.562   3.311   1.908 -0.9283 -0.2725  0.9301
 2465SOL     OW19027   2.704   4.734   0.264 -0.1835 -0.2240 -0.2890
 2465SOL    HW119028   2.724   0.093   0.275 -1.0011 -0.3215  1.9889
 2465SOL    HW219029   2.644   4.729   0.338 -1.9739 -2.9588 -1.8957
 2466SOL     OW19030   2.774   3.056   8.420 -0.3573  0.0651 -0.2608
 2466SOL    HW119031   2.800   3.054   8.328 -1.7450 -0.4434 -0.6383
 2466SOL    HW219032   2.733   2.969   8.427 -0.5724  0.0540 -1.8198
 2467SOL     OW19033   1.613   1.271   5.875 -0.3249 -0.5355  0.2544
 2467SOL    HW119034   1.697   1.234   5.902  1.0093  2.2741  0.0172
 2467SOL    HW219035   1.618   1.248   5.782  0.0157  0.5791 -0.0117
 2468SOL     OW19036   2.442   2.091   7.059  0.7069  0.2410  0.2038
 2468SOL    HW119037   2.479   2.003   7.070  0.7696  0.4699  1.8444
 2468SOL    HW219038   2.441   2.119   7.150  2.1657 -0.3280  0.3978
 2469SOL     OW19039   0.442   0.461   3.478  0.0796 -0.0926 -0.4821
 2469SOL    HW119040   0.525   0.501   3.501 -0.4443  0.8541 -0.2248
 2469SOL    HW219041   0.461   0.427   3.390 -2.4739  1.5857 -1.7273
 2470SOL     OW19042   4.480   3.212   5.759 -0.1983  0.4697 -0.1928
 2470SOL    HW119043   4.447   3.137   5.709  1.2549  1.3144 -2.4264
 2470SOL    HW219044   4.514   3.165   5.836 -1.5120  0.1068  0.1579
 2471SOL     OW19045   0.393   2.002   5.310  0.4878  0.1060 -0.1255
 2471SOL    HW119046   0.406   1.907   5.308  0.0279  0.0863 -2.3351
 2471SOL    HW219047   0.454   2.023   5.381 -1.5465  0.6137  1.4588
 2472SOL     OW19048   2.560   0.497  16.751 -0.0082  0.0629 -0.1686
 2472SOL    HW119049   2.653   0.497  16.774 -0.6136 -1.1964  2.2415
 2472SOL    HW219050   2.557   0.587  16.716  1.2473 -0.1717 -0.8941
 2473SOL     OW19051   3.180   2.398   7.889 -0.3223 -0.4206  1.2712
 2473SOL    HW119052   3.265   2.402   7.845 -1.3264 -0.9636 -0.7302
 2473SOL    HW219053   3.166   2.304   7.899 -0.2969 -0.7366 -1.6829
 2474SOL     OW19054   1.963   1.428   6.764  0.3129  0.5629 -0.0733
 2474SOL    HW119055   1.885   1.474   6.794 -0.7388 -0.5389 -1.1399
 2474SOL    HW219056   2.033   1.490   6.785  1.9270 -0.6575 -1.8517
 2475SOL     OW19057   1.683   4.471  10.480 -0.4851 -0.7625 -0.0820
 2475SOL    HW119058   1.667   4.520  10.399  0.0146  0.4375  0.5594
 2475SOL    HW219059   1.628   4.392  10.475 -0.5169 -0.7865  0.6337
 2476SOL     OW19060   3.320   3.177   2.049 -0.5532 -0.2083  0.0421
 2476SOL    HW119061   3.334   3.188   2.143 -0.3696  0.8606 -0.1061
 2476SOL    HW219062   3.279   3.091   2.041 -1.0632 -0.1386  1.9093
 2477SOL     OW19063   2.110   2.405   6.767 -0.3413  0.0794  0.1599
 2477SOL    HW119064   2.148   2.480   6.721  0.7794 -0.5593  0.0323
 2477SOL    HW219065   2.175   2.382   6.833 -0.9452 -0.1128  0.6892
 2478SOL     OW19066   0.893   1.414   8.851  0.3173  0.2854  0.0887
 2478SOL    HW119067   0.810   1.408   8.803  1.5899  1.6010 -2.2670
 2478SOL    HW219068   0.859   1.388   8.937 -1.3991  0.3627 -0.5632
 2479SOL     OW19069   4.172   1.213   6.993  0.0110 -0.6447 -0.1701
 2479SOL    HW119070   4.108   1.149   6.962 -0.6646 -0.1410  0.1843
 2479SOL    HW219071   4.207   1.242   6.909 -0.6050  0.0801 -0.1743
 2480SOL     OW19072   1.002   3.859   8.080 -0.2771  0.5496 -0.2256
 2480SOL    HW119073   0.941   3.817   8.020 -1.5852  0.4667  1.1497
 2480SOL    HW219074   1.087   3.827   8.049  0.8269  2.2263  1.0589
 2481SOL     OW19075   2.141   0.476   6.240 -0.5704  0.3262  0.7663
 2481SOL    HW119076   2.111   0.564   6.216 -0.7537 -0.3076 -1.2909
 2481SOL    HW219077   2.199   0.502   6.311  0.4878 -1.2551  0.4582
 2482SOL     OW19078   0.393   3.354   3.442 -0.1703 -0.2652 -0.5827
 2482SOL    HW119079   0.312   3.365   3.392  0.6503  1.4728 -1.5040
 2482SOL    HW219080   0.438   3.410   3.379 -0.2597 -3.0449 -3.1091
 2483SOL     OW19081   0.744   0.035   3.662  0.3167  0.0190  0.7156
 2483SOL    HW119082   0.780   0.020   3.750  2.4799  3.3264  0.4157
 2483SOL    HW219083   0.650   0.037   3.681 -0.1482 -0.2096 -1.6463
 2484SOL     OW19084   0.571   4.632   4.003 -0.0529 -0.3156  0.2024
 2484SOL    HW119085   0.610   4.552   4.036  0.4670  1.0208  2.7962
 2484SOL    HW219086   0.538   4.605   3.917  0.2800 -3.0999  0.9432
 2485SOL     OW19087   0.803   1.992   2.745 -0.9009  0.1364  0.4596
 2485SOL    HW119088   0.720   1.957   2.777 -1.4722 -1.5742 -2.8846
 2485SOL    HW219089   0.862   1.966   2.815 -3.2596 -0.3804  2.2769
 2486SOL     OW19090   4.116   4.591   9.532  0.0960  0.3328  0.0529
 2486SOL    HW119091   4.204   4.592   9.496  0.2479  1.9683  0.4940
 2486SOL    HW219092   4.116   4.515   9.590 -1.0839  0.3723  0.1007
 2487SOL     OW19093   3.025   0.858  15.675 -0.1899  0.5127  0.0927
 2487SOL    HW119094   2.959   0.819  15.732 -1.2096  1.0179 -0.7390
 2487SOL    HW219095   3.081   0.784  15.654 -0.7430  0.4256 -1.0544
 2488SOL     OW19096   1.265   3.688   6.577  0.2990 -0.0182  0.3346
 2488SOL    HW119097   1.207   3.745   6.527  0.5018 -1.3249 -1.3785
 2488SOL    HW219098   1.236   3.602   6.547  0.8015 -0.7355  1.9363
 2489SOL     OW19099   3.149   3.744   6.952  0.5306 -0.0520 -0.0186
 2489SOL    HW119100   3.090   3.668   6.956 -0.8628  1.0056 -0.6913
 2489SOL    HW219101   3.103   3.820   6.987 -0.0869 -0.5804  0.3159
 2490SOL     OW19102   0.752   2.655   7.454  0.1526  0.4726  0.0251
 2490SOL    HW119103   0.677   2.695   7.409  0.5396 -0.9447 -1.8822
 2490SOL    HW219104   0.803   2.610   7.386  1.0461  0.2938  0.8216
 2491SOL     OW19105   1.819   0.344   2.648 -0.4997 -0.1124 -0.0664
 2491SOL    HW119106   1.769   0.265   2.672  0.1888 -0.6759 -0.5190
 2491SOL    HW219107   1.743   0.399   2.629  0.5313  1.4795  0.4194
 2492SOL     OW19108   2.438   4.288   2.955 -0.0321  0.0073 -0.0067
 2492SOL    HW119109   2.411   4.368   3.001  1.5117  0.3271  0.3353
 2492SOL    HW219110   2.379   4.224   2.995  0.2939 -1.7087 -2.2823
 2493SOL     OW19111   0.564   0.142   4.105  0.0779  0.5464 -0.0996
 2493SOL    HW119112   0.600   0.136   4.194  2.1418  0.0207 -0.9590
 2493SOL    HW219113   0.572   0.051   4.075  0.2368  0.6283 -0.3082
 2494SOL     OW19114   2.330   4.082   8.746  0.7409  0.0703 -0.3266
 2494SOL    HW119115   2.418   4.075   8.710 -0.4510 -0.8821 -3.0323
 2494SOL    HW219116   2.310   3.991   8.766  2.6461  0.1398  1.8536
 2495SOL     OW19117   2.557   3.964  16.197  0.7230  0.4203  0.5666
 2495SOL    HW119118   2.585   4.030  16.134 -3.7022  0.8159 -0.9398
 2495SOL    HW219119   2.629   3.961  16.261 -0.6749 -0.5807  2.0715
 2496SOL     OW19120   2.061   1.362   9.164  0.0772 -0.7182  0.0302
 2496SOL    HW119121   2.080   1.359   9.257  0.6762 -0.6595 -0.0930
 2496SOL    HW219122   2.109   1.442   9.141 -0.2650 -0.4457  0.2654
 2497SOL     OW19123   0.513   0.446   5.318  0.5046  0.0679 -0.1998
 2497SOL    HW119124   0.418   0.445   5.319  0.5103 -0.8469 -0.6038
 2497SOL    HW219125   0.543   0.484   5.235 -0.5147 -1.2140 -1.1643
 2498SOL     OW19126   3.005   1.053   3.727  0.3538 -0.2516  0.1624
 2498SOL    HW119127   3.079   1.113   3.731  0.2568 -0.2746  2.7295
 2498SOL    HW219128   2.973   1.050   3.637 -2.5927  1.5102  1.1325
 2499SOL     OW19129   0.870   2.129  10.721  0.2102  0.0649 -0.7889
 2499SOL    HW119130   0.781   2.164  10.715  0.4343  0.3676 -2.5005
 2499SOL    HW219131   0.858   2.036  10.741  1.3553 -0.1878 -1.2915
 2500SOL     OW19132   4.444   3.722   4.422 -0.2119 -0.4332  0.7354
 2500SOL    HW119133   4.362   3.689   4.459 -0.0583 -0.9058  0.6469
 2500SOL    HW219134   4.489   3.639   4.438  1.2596  0.3524  0.6849
 2501SOL     OW19135   2.242   4.274   3.931  0.1792 -0.1972 -0.0420
 2501SOL    HW119136   2.336   4.266   3.942 -0.0914 -1.6065  1.2262
 2501SOL    HW219137   2.209   4.330   4.001 -0.6318 -0.4485 -0.2163
 2502SOL     OW19138   1.023   2.227  16.305  0.1809 -0.0377  0.0115
 2502SOL    HW119139   0.952   2.257  16.248  0.9266  0.8274 -0.4594
 2502SOL    HW219140   0.997   2.258  16.392 -0.3070 -0.7615  0.1261
 2503SOL     OW19141   1.115   1.164   7.258  0.1599  0.5268 -0.1763
 2503SOL    HW119142   1.183   1.166   7.191  0.3375 -0.5268 -0.0271
 2503SOL    HW219143   1.037   1.147   7.206  0.8780 -1.4353 -0.5795
 2504SOL     OW19144   1.841   2.382   0.897  0.3162  0.3150 -0.0437
 2504SOL    HW119145   1.918   2.434   0.877  2.1828 -2.5748 -0.3737
 2504SOL    HW219146   1.791   2.393   0.816 -3.5016 -0.7352  2.1498
 2505SOL     OW19147   1.755   4.363   7.276  0.7901  0.2035  0.7596
 2505SOL    HW119148   1.756   4.429   7.345 -1.5602  0.1969  0.8094
 2505SOL    HW219149   1.672   4.391   7.238  0.6085 -2.6295 -0.9728
 2506SOL     OW19150   1.411   3.977   5.318  0.0788 -0.2442 -0.2595
 2506SOL    HW119151   1.446   4.066   5.323  0.8701 -0.4568 -1.8950
 2506SOL    HW219152   1.366   3.970   5.402  0.9625 -0.6251  0.1814
 2507SOL     OW19153   0.020   2.208   9.132 -0.2053 -0.6254 -0.1296
 2507SOL    HW119154   0.032   2.262   9.211  1.8748  0.0878 -0.9324
 2507SOL    HW219155   0.108   2.169   9.128  0.7361  1.5515 -0.2990
 2508SOL     OW19156   2.755   4.516  11.500  0.1250 -0.1411 -0.1984
 2508SOL    HW119157   2.703   4.574  11.444 -0.6813 -0.9148 -0.2320
 2508SOL    HW219158   2.829   4.487  11.446 -0.4800 -1.0956 -0.5029
 2509SOL     OW19159   3.842   1.577   1.015  0.4077 -0.2904  0.2397
 2509SOL    HW119160   3.823   1.565   1.108 -1.3323  0.9205  0.0485
 2509SOL    HW219161   3.754   1.574   0.978  0.3826  1.3098  0.1569
 2510SOL     OW19162   0.789   1.987   3.111  0.0212  0.4933  0.6551
 2510SOL    HW119163   0.863   1.941   3.071 -0.1864  1.6450 -1.0257
 2510SOL    HW219164   0.800   2.072   3.070  0.1225  0.4751  0.6435
 2511SOL     OW19165   0.089   3.150  11.599  0.9563  0.3319 -0.3606
 2511SOL    HW119166   0.141   3.072  11.616 -1.4555 -1.4223 -1.0468
 2511SOL    HW219167   0.045   3.158  11.683 -1.5174 -2.9953 -1.3571
 2512SOL     OW19168   4.562   2.718   6.228 -0.3672  0.1641 -0.0739
 2512SOL    HW119169   4.567   2.623   6.223  1.8753  0.2336  0.7249
 2512SOL    HW219170   4.606   2.737   6.311 -1.5929  0.5737  0.4884
 2513SOL     OW19171   2.345   2.642   7.374 -0.1681  0.0871  0.1324
 2513SOL    HW119172   2.427   2.652   7.423  0.3284 -0.2593 -0.6302
 2513SOL    HW219173   2.313   2.732   7.378  1.1283  0.4358  3.1706
 2514SOL     OW19174   2.643   2.660  12.503 -0.3953 -0.1921 -0.6103
 2514SOL    HW119175   2.567   2.714  12.522 -0.2781 -1.0490  2.1736
 2514SOL    HW219176   2.708   2.711  12.552  0.0624 -2.0639  0.7216
 2515SOL     OW19177   2.399   1.455   6.354 -0.0999  0.3715 -0.4937
 2515SOL    HW119178   2.306   1.474   6.344  0.4229  2.1654 -1.8911
 2515SOL    HW219179   2.445   1.511   6.292 -2.6083  0.4113 -2.2736
 2516SOL     OW19180   0.469   4.487   8.743 -0.4660  0.1181  0.0004
 2516SOL    HW119181   0.383   4.446   8.742  0.3522 -1.5805 -0.7201
 2516SOL    HW219182   0.447   4.576   8.714  0.0458  0.2828  0.1119
 2517SOL     OW19183   2.043   3.889   2.806  0.0089 -0.1408  0.3105
 2517SOL    HW119184   2.050   3.956   2.738 -1.1810 -1.1195 -0.7587
 2517SOL    HW219185   2.092   3.814   2.772  1.0540  1.6380 -2.1344
 2518SOL     OW19186   3.959   3.472   6.099 -0.2042 -0.3584  0.4319
 2518SOL    HW119187   3.954   3.382   6.130  2.3364 -0.6324 -0.0164
 2518SOL    HW219188   3.888   3.511   6.150 -0.7362 -1.3555  0.4622
 2519SOL     OW19189   0.965   2.056   6.306  0.3093  0.0756  0.0565
 2519SOL    HW119190   0.899   2.033   6.372  1.0978  0.9835  1.1744
 2519SOL    HW219191   1.030   1.986   6.317  0.8680  0.8124  1.5169
 2520SOL     OW19192   2.442   2.795   4.778  0.2937 -0.0593  0.0629
 2520SOL    HW119193   2.382   2.759   4.713  0.3126 -0.5238  0.3068
 2520SOL    HW219194   2.516   2.787   4.717 -0.5805 -0.2308 -0.9775
 2521SOL     OW19195   3.805   0.514   0.926 -0.2480  0.1816  0.3884
 2521SOL    HW119196   3.857   0.549   0.997 -1.6860  0.5055  1.2787
 2521SOL    HW219197   3.718   0.542   0.955 -0.0623  1.4110 -0.2452
 2522SOL     OW19198   1.434   3.444   4.809  0.7110  0.2936 -0.2726
 2522SOL    HW119199   1.497   3.374   4.790  1.2344  0.4631  0.8114
 2522SOL    HW219200   1.365   3.417   4.748  1.7232 -0.3928 -1.1155
 2523SOL     OW19201   1.871   0.848   0.620 -0.4109  0.1629  0.0957
 2523SOL    HW119202   1.964   0.836   0.605 -0.7192 -0.1929 -1.5614
 2523SOL    HW219203   1.877   0.935   0.658 -3.3938  0.1565  0.5874
 2524SOL     OW19204   1.197   2.660   5.457 -0.4452 -0.6435  0.1397
 2524SOL    HW119205   1.182   2.634   5.366  0.8517 -1.7712  0.2310
 2524SOL    HW219206   1.286   2.696   5.451 -0.2413 -1.3592 -1.1379
 2525SOL     OW19207   2.157   2.407   7.789  0.4330 -0.4357  0.2106
 2525SOL    HW119208   2.079   2.398   7.734  1.5109 -3.5228 -0.8179
 2525SOL    HW219209   2.185   2.498   7.778  0.8681 -0.4359  1.2971
 2526SOL     OW19210   2.960   1.262   2.745 -0.0713  0.5365 -0.5798
 2526SOL    HW119211   3.035   1.316   2.770  0.7907 -0.9824  0.0769
 2526SOL    HW219212   2.999   1.175   2.741 -0.4266  0.2344  2.8245
 2527SOL     OW19213   4.478   4.155   1.181 -0.5639 -0.7984 -0.2512
 2527SOL    HW119214   4.392   4.116   1.192 -2.4247  3.2688 -0.6768
 2527SOL    HW219215   4.536   4.088   1.219  0.8861  1.3532  1.2816
 2528SOL     OW19216   1.768   2.498   9.194  0.2547 -0.1078  0.4962
 2528SOL    HW119217   1.776   2.593   9.185  2.3004 -0.2661  0.6025
 2528SOL    HW219218   1.690   2.490   9.248 -0.1507 -0.7496 -0.1938
 2529SOL     OW19219   4.676   4.124   7.780 -0.6346 -0.5954  0.2550
 2529SOL    HW119220   4.594   4.148   7.823  0.0608 -1.6538  2.1526
 2529SOL    HW219221   4.657   4.190   7.713 -0.8389 -0.4667  0.4357
 2530SOL     OW19222   3.039   3.745   8.236  0.0460  0.7575  0.2521
 2530SOL    HW119223   3.105   3.764   8.303  1.4459 -1.3095 -0.5297
 2530SOL    HW219224   3.086   3.695   8.169 -0.5853  0.2131  0.2180
 2531SOL     OW19225   2.013   1.465  17.473  0.0403 -0.3417 -0.0338
 2531SOL    HW119226   2.026   1.544  17.524  1.3759  0.3289 -1.3983
 2531SOL    HW219227   1.918   1.473  17.472 -0.0787 -1.4197  1.6774
 2532SOL     OW19228   4.518   2.419   5.216 -0.2843  0.3181 -0.2683
 2532SOL    HW119229   4.514   2.470   5.135 -0.1807  2.1168  0.8683
 2532SOL    HW219230   4.576   2.471   5.271  0.5882 -1.1255  0.2029
 2533SOL     OW19231   2.478   3.106   2.777 -0.3700  0.1496 -0.9239
 2533SOL    HW119232   2.470   3.020   2.735 -0.5886 -0.9513  1.3447
 2533SOL    HW219233   2.509   3.161   2.706 -0.4179  1.2790 -0.0732
 2534SOL     OW19234   3.453   0.278   0.234 -0.0466  0.6101 -0.3623
 2534SOL    HW119235   3.472   0.311   0.146  1.8043 -3.5370 -1.4940
 2534SOL    HW219236   3.520   0.320   0.288  0.0306 -1.0487  0.8049
 2535SOL     OW19237   3.722   1.375   1.951  0.0187 -0.0073  0.5849
 2535SOL    HW119238   3.701   1.319   2.026 -1.2048  2.0815  1.7833
 2535SOL    HW219239   3.635   1.396   1.918 -0.0695  1.9720  2.1109
 2536SOL     OW19240   3.300   0.784   1.261 -0.2014 -0.6250  0.3920
 2536SOL    HW119241   3.269   0.766   1.172  1.5805 -0.0668 -0.3470
 2536SOL    HW219242   3.384   0.740   1.255  1.3217  2.4760 -1.2077
 2537SOL     OW19243   0.410   3.987   1.767  0.3637  0.0701  0.1393
 2537SOL    HW119244   0.436   3.993   1.859  0.1882  4.9909 -0.1232
 2537SOL    HW219245   0.427   4.076   1.737 -2.2826  0.6116  0.2231
 2538SOL     OW19246   1.236   0.735   0.810  0.4305 -0.8506 -0.4289
 2538SOL    HW119247   1.195   0.778   0.886 -0.1258  2.1290 -2.4079
 2538SOL    HW219248   1.309   0.793   0.790  1.9647 -2.4651  0.5499
 2539SOL     OW19249   4.448   0.831   0.905 -0.5773  0.3049 -0.0354
 2539SOL    HW119250   4.511   0.857   0.972  0.0324  1.2245 -0.9730
 2539SOL    HW219251   4.468   0.738   0.903 -0.1104  0.3840  1.1620
 2540SOL     OW19252   1.047   4.368   7.180 -0.2898 -0.4550  0.1681
 2540SOL    HW119253   1.039   4.463   7.190 -1.2256 -0.6076  0.8492
 2540SOL    HW219254   1.011   4.352   7.092 -0.7790  1.1538  0.0671
 2541SOL     OW19255   3.398   1.507   3.162  0.0338  0.2356 -0.4841
 2541SOL    HW119256   3.426   1.572   3.225 -1.4705  0.6459 -0.2420
 2541SOL    HW219257   3.304   1.526   3.163  0.2478  0.9832  2.9976
 2542SOL     OW19258   4.724   0.945   7.871  0.3561 -0.5639 -0.3714
 2542SOL    HW119259   0.071   0.899   7.893  0.2319 -0.9253 -0.6716
 2542SOL    HW219260   4.686   0.943   7.959  0.0874 -0.7855 -0.4918
 2543SOL     OW19261   0.104   1.159   2.470 -0.8192  0.7775 -0.3760
 2543SOL    HW119262   0.188   1.157   2.516 -0.8360 -0.1383 -0.3837
 2543SOL    HW219263   0.100   1.065   2.451 -2.7622  0.5885  0.9709
 2544SOL     OW19264   2.861   2.034  12.974 -0.3984  0.2895 -0.7809
 2544SOL    HW119265   2.911   2.054  12.894  1.6125  0.0992  0.4328
 2544SOL    HW219266   2.875   2.111  13.028  1.9573  0.1555 -1.1908
 2545SOL     OW19267   4.285   1.368  11.657  0.1968  0.0141  0.4897
 2545SOL    HW119268   4.266   1.422  11.581  0.0126  0.1339  0.6209
 2545SOL    HW219269   4.364   1.320  11.631  0.1019  1.4011 -2.2668
 2546SOL     OW19270   0.408   4.278   4.583  0.9630 -0.6630 -0.0132
 2546SOL    HW119271   0.430   4.365   4.617  3.6628 -1.0093 -0.9131
 2546SOL    HW219272   0.374   4.294   4.495  2.6552 -0.1513 -0.5682
 2547SOL     OW19273   4.677   2.723  17.726 -0.4395  0.1260 -0.5634
 2547SOL    HW119274   0.030   2.703  17.692 -0.5908  1.7209 -1.8773
 2547SOL    HW219275   4.668   2.655   0.057  0.0690 -0.4274 -1.0574
 2548SOL     OW19276   3.405   1.765   6.626  0.6683  0.2236 -0.0241
 2548SOL    HW119277   3.340   1.835   6.623  0.6880  0.2874  1.4030
 2548SOL    HW219278   3.372   1.706   6.694  3.4247 -0.6745  0.5360
 2549SOL     OW19279   0.008   3.910  12.443 -0.2528  0.0456  0.6138
 2549SOL    HW119280   0.051   3.851  12.382 -1.5947 -1.2026  0.8872
 2549SOL    HW219281   4.717   3.982  12.385  0.7553 -0.8555 -0.9315
 2550SOL     OW19282   1.746   3.347   4.051  0.1858  0.7118 -0.6029
 2550SOL    HW119283   1.670   3.345   4.109  0.2399  2.3141 -0.4665
 2550SOL    HW219284   1.713   3.397   3.976 -1.9693 -1.7576 -1.2902
 2551SOL     OW19285   0.114   0.343  14.682  0.0833  0.1496 -0.8910
 2551SOL    HW119286   0.079   0.282  14.617  0.9475 -2.2960  0.9458
 2551SOL    HW219287   0.093   0.282  14.752 -1.7437  1.8278  0.0510
 2552SOL     OW19288   0.186   4.523  11.394  0.2010  0.3957  0.3052
 2552SOL    HW119289   0.259   4.523  11.456 -0.4380  1.2421  1.0624
 2552SOL    HW219290   0.193   4.430  11.373  1.1916  0.1915  1.5153
 2553SOL     OW19291   2.558   4.310   3.976  0.4719 -0.2048 -0.2393
 2553SOL    HW119292   2.589   4.220   3.981 -0.3018 -0.4587 -0.0389
 2553SOL    HW219293   2.596   4.351   3.898 -1.7133 -2.2735 -2.3576
 2554SOL     OW19294   1.802   2.839   5.790 -0.2896  0.9557 -0.6122
 2554SOL    HW119295   1.763   2.834   5.877  0.4339  2.4314 -0.2024
 2554SOL    HW219296   1.725   2.853   5.735 -0.9476  0.9479  0.3010
 2555SOL     OW19297   0.938   3.215   6.523 -0.1642 -0.0621  0.5600
 2555SOL    HW119298   0.856   3.186   6.564 -0.2112  1.3965  1.5198
 2555SOL    HW219299   0.993   3.156   6.574 -0.6748 -1.3188 -0.3639
 2556SOL     OW19300   3.911   0.221   7.151 -0.1257  0.6821  0.1619
 2556SOL    HW119301   3.859   0.184   7.080 -1.5775  2.3753  0.3382
 2556SOL    HW219302   3.851   0.211   7.225 -2.3238 -3.8409 -2.2160
 2557SOL     OW19303   2.299   1.535  17.703 -0.3302  0.3169 -0.6275
 2557SOL    HW119304   2.332   1.616  17.664  2.2078  0.1618  1.1684
 2557SOL    HW219305   2.214   1.569  17.732 -1.0172  0.3253 -2.6269
 2558SOL     OW19306   1.777   0.486  10.007  0.0673  0.0983  0.0785
 2558SOL    HW119307   1.869   0.501  10.029 -0.0019 -0.4809  0.7504
 2558SOL    HW219308   1.785   0.413   9.946  1.1452  1.7690 -1.7779
 2559SOL     OW19309   3.416   0.995   6.535  0.1367  0.1709 -0.3552
 2559SOL    HW119310   3.388   0.966   6.448  0.5914  2.4899 -1.2658
 2559SOL    HW219311   3.476   1.067   6.515 -0.8144  1.1471  0.2741
 2560SOL     OW19312   3.751   4.261   2.811  0.2335 -0.4080  0.2211
 2560SOL    HW119313   3.764   4.190   2.874  1.8662 -1.3782 -1.2161
 2560SOL    HW219314   3.724   4.332   2.869  1.7836  0.8146 -0.5435
 2561SOL     OW19315   1.568   3.034  11.582  0.9685  0.1545  0.1097
 2561SOL    HW119316   1.593   3.066  11.495  1.2127  0.0945  0.1566
 2561SOL    HW219317   1.629   3.078  11.642  1.7375  1.0860 -1.3543
 2562SOL     OW19318   0.056   4.313  15.367 -0.0286 -0.2137  0.4729
 2562SOL    HW119319   0.042   4.346  15.278  0.3982  1.0783  0.8774
 2562SOL    HW219320   0.002   4.234  15.376 -0.2239  0.0483  1.5836
 2563SOL     OW19321   2.777   4.692   4.397 -0.1816  0.6166  0.0917
 2563SOL    HW119322   2.829   0.036   4.378 -0.3574  0.7409  0.1169
 2563SOL    HW219323   2.733   4.670   4.315  1.7720 -2.1445 -0.2218
 2564SOL     OW19324   3.693   0.754  14.501  0.1898  0.3037  0.6996
 2564SOL    HW119325   3.610   0.714  14.523 -0.0074  0.5386  0.3911
 2564SOL    HW219326   3.713   0.715  14.416 -1.7527  0.0884  0.3426
 2565SOL     OW19327   0.590   3.927  17.254 -0.0864 -0.2892 -0.0733
 2565SOL    HW119328   0.637   3.893  17.330 -0.6436 -1.8522 -0.4447
 2565SOL    HW219329   0.508   3.878  17.262 -0.4968  0.0602 -2.1295
 2566SOL     OW19330   2.989   3.653   2.095 -0.1050 -0.0116  0.3661
 2566SOL    HW119331   2.962   3.561   2.095  1.6324 -0.5473  1.9318
 2566SOL    HW219332   3.062   3.657   2.158  0.6006  0.7162 -0.4906
 2567SOL     OW19333   2.150   2.883  13.203  0.4973  0.1093  0.0121
 2567SOL    HW119334   2.150   2.791  13.174  0.8102  0.0883  0.0832
 2567SOL    HW219335   2.109   2.934  13.133  1.6545  1.0525  0.0376
 2568SOL     OW19336   0.858   0.625  10.318 -0.2280 -0.3041  0.9800
 2568SOL    HW119337   0.845   0.604  10.410 -1.4977 -1.4308  0.5406
 2568SOL    HW219338   0.768   0.651  10.298 -0.0013 -0.5585 -0.4075
 2569SOL     OW19339   4.046   2.182   3.044  0.1908 -0.1499 -0.3814
 2569SOL    HW119340   4.088   2.236   3.111 -1.8777  1.6601 -0.5373
 2569SOL    HW219341   4.079   2.236   2.972 -1.5291  2.1931  0.5565
 2570SOL     OW19342   3.117   0.549   3.754 -0.4105  0.4878  0.3544
 2570SOL    HW119343   3.024   0.555   3.775  0.0277 -0.4192  2.5239
 2570SOL    HW219344   3.158   0.636   3.754  2.6145 -0.9136  2.6116
 2571SOL     OW19345   2.844   2.299   8.573  0.1704 -0.1101  0.1444
 2571SOL    HW119346   2.860   2.355   8.497  0.1348 -1.8774 -1.1504
 2571SOL    HW219347   2.902   2.337   8.640 -0.5328 -1.4190  1.4832
 2572SOL     OW19348   3.366   1.799  15.961  0.3384 -0.4547  0.4234
 2572SOL    HW119349   3.427   1.852  15.910 -1.1444 -0.0976 -1.0158
 2572SOL    HW219350   3.333   1.742  15.891  3.2636 -1.0646 -0.4515
 2573SOL     OW19351   3.815   0.130   6.902  0.5093 -0.3505  0.5797
 2573SOL    HW119352   3.880   0.060   6.906  2.7337  1.5769 -1.2770
 2573SOL    HW219353   3.734   0.080   6.900  0.1384  0.2636  0.0647
 2574SOL     OW19354   2.254   3.108   6.379  0.4338 -0.4206 -0.0823
 2574SOL    HW119355   2.306   3.057   6.440 -0.6798 -0.3630  0.9111
 2574SOL    HW219356   2.289   3.059   6.304 -0.5272  0.6848 -1.2592
 2575SOL     OW19357   1.285   3.385   6.307 -0.4499 -0.0918 -0.0677
 2575SOL    HW119358   1.290   3.439   6.228 -1.0834 -0.3735 -0.2962
 2575SOL    HW219359   1.215   3.423   6.360  1.3098  1.5794  1.0456
 2576SOL     OW19360   0.975   1.108   2.611 -0.3519  0.5199  0.0987
 2576SOL    HW119361   0.950   1.072   2.696 -0.6766  1.5849  0.4568
 2576SOL    HW219362   0.968   1.203   2.623 -1.0100  0.4206  0.4778
 2577SOL     OW19363   1.142   2.463   0.137 -0.0684 -0.4337  0.8625
 2577SOL    HW119364   1.096   2.389   0.177  2.0270 -1.8507  0.6477
 2577SOL    HW219365   1.083   2.532   0.166  0.2155  0.3039 -0.3462
 2578SOL     OW19366   0.757   3.942  16.727 -0.3079  0.4739 -0.0039
 2578SOL    HW119367   0.702   3.886  16.672 -0.5175  1.2245 -0.5630
 2578SOL    HW219368   0.704   3.957  16.805 -0.3783 -0.3715  0.1106
 2579SOL     OW19369   1.134   0.945   3.712  0.5672  0.1820 -0.0336
 2579SOL    HW119370   1.140   1.036   3.742  1.0969 -0.9153  3.2017
 2579SOL    HW219371   1.043   0.952   3.686  0.1615 -0.3995  1.2231
 2580SOL     OW19372   0.848   2.733   9.194  0.2585 -0.2256 -0.0025
 2580SOL    HW119373   0.839   2.688   9.278  4.5607  3.8186  2.6004
 2580SOL    HW219374   0.834   2.663   9.130  0.1081  0.5337 -0.8009
 2581SOL     OW19375   2.754   1.164  13.523  0.8031  0.2958  0.1209
 2581SOL    HW119376   2.806   1.104  13.469 -0.3448 -1.7082  1.2589
 2581SOL    HW219377   2.781   1.145  13.613 -0.1135  2.0817  0.7642
 2582SOL     OW19378   2.315   3.814   8.778 -0.3695 -0.1857 -0.2778
 2582SOL    HW119379   2.375   3.746   8.807  0.4044 -0.1677 -1.8098
 2582SOL    HW219380   2.302   3.780   8.689  2.6535 -0.3237 -0.6756
 2583SOL     OW19381   1.682   3.594   4.784  0.4906 -0.2004  0.2753
 2583SOL    HW119382   1.596   3.552   4.779 -0.2101  1.2052  0.3379
 2583SOL    HW219383   1.667   3.688   4.774  0.3995 -0.1906  0.5098
 2584SOL     OW19384   2.958   4.733   7.483 -0.9521 -0.2187  0.5902
 2584SOL    HW119385   2.955   0.025   7.575 -0.1289 -0.0420  0.5665
 2584SOL    HW219386   2.894   0.055   7.438  0.5549  2.0882  1.3499
 2585SOL     OW19387   0.729   2.810   6.098  0.0679  0.3870 -0.2005
 2585SOL    HW119388   0.747   2.903   6.084 -3.4933  0.5220 -3.8961
 2585SOL    HW219389   0.754   2.784   6.009  0.6877  2.0434 -0.5127
 2586SOL     OW19390   2.319   4.439   0.690 -0.3312 -0.4881 -0.2501
 2586SOL    HW119391   2.309   4.345   0.708 -0.1657  0.0923  2.8109
 2586SOL    HW219392   2.412   4.448   0.708 -0.7411  2.6470  0.2263
 2587SOL     OW19393   4.571   4.373  13.605 -0.1770 -0.0566  0.3164
 2587SOL    HW119394   4.493   4.427  13.592 -0.0812 -0.1752 -0.7826
 2587SOL    HW219395   4.557   4.322  13.525 -0.4061  1.2555 -0.4894
 2588SOL     OW19396   1.423   1.704  11.470 -0.1291 -0.9322  0.6778
 2588SOL    HW119397   1.382   1.625  11.433 -1.1117  0.5862 -1.4614
 2588SOL    HW219398   1.380   1.782  11.436  0.1185 -1.2249 -0.3106
 2589SOL     OW19399   0.331   4.660   6.946 -0.3269 -0.1809  0.3919
 2589SOL    HW119400   0.378   4.715   6.883  1.2835 -1.8608  0.1378
 2589SOL    HW219401   0.393   4.587   6.948 -2.2610 -1.7523  2.3704
 2590SOL     OW19402   3.574   4.724   0.057 -0.1134  0.2967  0.1093
 2590SOL    HW119403   3.556   0.036  17.711 -0.4721  0.2617  0.1719
 2590SOL    HW219404   3.484   4.693   0.062  1.0547 -3.0294  0.7921
 2591SOL     OW19405   1.797   2.421   7.974 -0.0495  0.0028 -0.5560
 2591SOL    HW119406   1.738   2.473   8.029  0.8688 -0.8260  1.2363
 2591SOL    HW219407   1.755   2.416   7.888 -1.2433 -1.2241  0.0887
 2592SOL     OW19408   4.697   0.406   3.945 -0.4008 -0.5846  0.1663
 2592SOL    HW119409   4.674   0.498   3.963  0.0023 -0.3786 -0.3743
 2592SOL    HW219410   4.618   0.375   3.989 -1.6592  1.0663 -0.9063
 2593SOL     OW19411   0.274   0.504   6.403  0.2609  0.6254 -0.3031
 2593SOL    HW119412   0.293   0.422   6.357  1.6542 -0.1578  1.6611
 2593SOL    HW219413   0.186   0.524   6.372  0.4368  1.3425 -0.3460
 2594SOL     OW19414   2.664   1.071   8.072 -0.4420 -0.4282  0.1250
 2594SOL    HW119415   2.706   1.060   7.987  2.7319  3.7925  1.1589
 2594SOL    HW219416   2.666   1.165   8.086 -1.5350  0.1547 -3.4314
 2595SOL     OW19417   4.243   0.280   2.061 -0.0742 -0.2229 -0.1456
 2595SOL    HW119418   4.210   0.356   2.013  1.1463 -0.5102 -1.4537
 2595SOL    HW219419   4.221   0.308   2.150  1.1361  2.3832 -0.6409
 2596SOL     OW19420   3.325   1.617   6.820  0.6352  0.1756  0.5176
 2596SOL    HW119421   3.314   1.663   6.903  0.8886  0.0793  0.6041
 2596SOL    HW219422   3.283   1.534   6.844 -2.4046  1.6054  0.1499
 2597SOL     OW19423   3.863   2.945   4.277 -0.6169 -0.1630 -0.4616
 2597SOL    HW119424   3.906   2.868   4.314 -1.0264 -0.8622 -1.4472
 2597SOL    HW219425   3.771   2.933   4.299  0.0960 -2.9942  1.0755
 2598SOL     OW19426   1.309   2.906  13.444 -0.2522 -0.2899  0.3845
 2598SOL    HW119427   1.295   2.951  13.360 -0.2963 -2.2247 -0.6465
 2598SOL    HW219428   1.315   2.980  13.504  3.7351  0.7107 -1.2817
 2599SOL     OW19429   3.025   0.341   9.350 -0.1713 -0.2691 -0.2436
 2599SOL    HW119430   2.994   0.282   9.418  1.7466  0.0373  0.8942
 2599SOL    HW219431   3.007   0.427   9.387  0.0117  0.6268 -2.2399
 2600SOL     OW19432   0.230   0.247   4.702 -0.4236 -0.3999  0.7437
 2600SOL    HW119433   0.183   0.201   4.771 -4.0822 -0.6111 -1.8411
 2600SOL    HW219434   0.309   0.283   4.741  0.8277 -1.1695 -1.0683
 2601SOL     OW19435   0.900   4.198  15.938 -0.7961 -0.6534  0.0677
 2601SOL    HW119436   0.849   4.161  15.866 -1.6925  0.2238  0.2531
 2601SOL    HW219437   0.931   4.280  15.901  0.7126 -0.2141  2.3017
 2602SOL     OW19438   2.988   1.963   9.223  0.3653  0.0769  0.1469
 2602SOL    HW119439   3.052   1.993   9.288 -1.5716  0.5678  1.8246
 2602SOL    HW219440   3.008   1.870   9.232 -1.1819  0.0142  3.0477
 2603SOL     OW19441   4.274   1.726   3.185  0.3163 -0.6205 -0.1784
 2603SOL    HW119442   4.191   1.703   3.143  0.6050 -2.9148  0.4759
 2603SOL    HW219443   4.262   1.703   3.277 -1.1944 -0.9279 -0.4577
 2604SOL     OW19444   1.022   3.908  16.270  0.2517  0.1551  0.3153
 2604SOL    HW119445   0.944   3.954  16.300 -0.1188 -0.1445 -0.1673
 2604SOL    HW219446   1.011   3.906  16.175  4.7522  1.7621 -0.2240
 2605SOL     OW19447   3.368   2.690   2.105  1.3235  0.3144  0.1183
 2605SOL    HW119448   3.365   2.627   2.033  0.3363  2.1242 -1.4014
 2605SOL    HW219449   3.464   2.696   2.114  1.2446  1.2125  0.3286
 2606SOL     OW19450   4.366   3.570  15.840 -0.1773 -0.6209 -0.4361
 2606SOL    HW119451   4.418   3.636  15.886 -1.3778  0.3499 -0.4601
 2606SOL    HW219452   4.276   3.584  15.868  1.6642  2.0435  4.1911
 2607SOL     OW19453   0.694   1.100   6.303  0.7257  0.0586 -0.5500
 2607SOL    HW119454   0.747   1.107   6.224  2.4722  0.6646  0.6838
 2607SOL    HW219455   0.750   1.154   6.359 -0.0781  0.8656 -0.5349
 2608SOL     OW19456   4.129   0.323   7.007  0.3716  0.3708  0.6323
 2608SOL    HW119457   4.154   0.348   7.096 -0.1610 -1.5687  1.3444
 2608SOL    HW219458   4.042   0.287   7.029 -0.2788  0.6154 -1.5090
 2609SOL     OW19459   3.728   3.360   3.248 -0.0962 -0.3413  0.0394
 2609SOL    HW119460   3.738   3.418   3.324  1.7177 -0.8407  0.1784
 2609SOL    HW219461   3.770   3.280   3.279 -0.2116  0.0053  1.1123
 2610SOL     OW19462   4.530   1.827   4.106  0.7568  0.2704  0.3361
 2610SOL    HW119463   4.543   1.862   4.018 -0.5193 -1.7425 -0.6476
 2610SOL    HW219464   4.622   1.801   4.112  0.9035  0.0835 -2.9795
 2611SOL     OW19465   0.257   4.616   7.425 -0.3799 -0.2104  0.3862
 2611SOL    HW119466   0.314   4.541   7.443  0.7253  0.8852  1.4646
 2611SOL    HW219467   0.216   4.584   7.345  1.8256 -0.7398 -0.5619
 2612SOL     OW19468   0.661   0.863   5.169 -0.1919  0.0718  0.0451
 2612SOL    HW119469   0.715   0.816   5.105 -0.2104  0.3894 -0.2026
 2612SOL    HW219470   0.728   0.898   5.227 -0.8074 -0.8924  1.3358
 2613SOL     OW19471   1.491   3.789  13.984  0.0305  0.0132 -0.3317
 2613SOL    HW119472   1.535   3.872  13.968  2.9192 -1.6715 -1.0166
 2613SOL    HW219473   1.404   3.802  14.023  0.4492  1.3789  0.1767
 2614SOL     OW19474   2.013   3.603   8.598 -0.1290 -0.1121 -0.4648
 2614SOL    HW119475   2.054   3.655   8.529 -0.3366 -0.0176 -0.5169
 2614SOL    HW219476   1.922   3.632   8.598 -0.4057 -0.9846 -1.1794
 2615SOL     OW19477   1.476   4.634   3.291  0.2152  0.2116  0.5795
 2615SOL    HW119478   1.524   4.713   3.266  1.0033 -0.7301 -0.8760
 2615SOL    HW219479   1.410   4.628   3.222  1.1503 -0.9317 -0.2036
 2616SOL     OW19480   1.866   4.670  11.539 -0.8616  0.3340  0.5052
 2616SOL    HW119481   1.795   4.651  11.600 -0.1314  0.4646  1.4028
 2616SOL    HW219482   1.920   4.712  11.606  1.0492  0.8195 -1.3252
 2617SOL     OW19483   2.566   1.638   7.754 -0.0886  0.1045  0.0787
 2617SOL    HW119484   2.503   1.577   7.716 -1.0889  0.7414  0.6986
 2617SOL    HW219485   2.522   1.710   7.799  2.2855  1.5368  0.0959
 2618SOL     OW19486   4.160   0.498   1.612 -0.2228  0.3343  0.5343
 2618SOL    HW119487   4.096   0.449   1.560  0.0225  0.1261  0.4301
 2618SOL    HW219488   4.162   0.572   1.552 -3.4301  0.6268  0.7448
 2619SOL     OW19489   0.705   4.584   3.426  0.1731 -0.1113  0.2388
 2619SOL    HW119490   0.791   4.547   3.405  0.3357  0.6984 -0.4969
 2619SOL    HW219491   0.726   4.636   3.504  0.4180  1.0201 -0.5879
 2620SOL     OW19492   3.912   1.287   7.248 -0.2110  0.0981  0.0117
 2620SOL    HW119493   3.864   1.204   7.244  2.4742 -1.4655 -0.0551
 2620SOL    HW219494   3.959   1.285   7.165 -1.0771 -1.5537 -0.4400
 2621SOL     OW19495   4.215   0.991  17.374 -0.1039 -0.7661 -0.3486
 2621SOL    HW119496   4.293   0.973  17.322 -0.4774  0.2364 -1.2485
 2621SOL    HW219497   4.137   0.983  17.319  1.0450 -3.8988 -1.5056
 2622SOL     OW19498   4.191   4.511   2.308 -0.3584 -0.7247 -0.1758
 2622SOL    HW119499   4.162   4.593   2.269  0.1816 -0.4618 -0.0129
 2622SOL    HW219500   4.258   4.547   2.365  0.3657 -1.6321 -0.4430
 2623SOL     OW19501   4.094   0.060   5.678  0.1469  0.0826  0.5080
 2623SOL    HW119502   4.037   0.004   5.627  2.7839 -1.3877 -0.8448
 2623SOL    HW219503   4.175   0.009   5.687  2.8303  3.7033 -2.9582
 2624SOL     OW19504   3.154   4.202   0.401 -0.0921 -0.5132 -0.2263
 2624SOL    HW119505   3.237   4.183   0.357 -0.9510 -1.9231 -1.2402
 2624SOL    HW219506   3.101   4.220   0.323  0.2145  1.8180  0.0993
 2625SOL     OW19507   1.725   3.382  15.190  0.6245 -0.1772 -0.2479
 2625SOL    HW119508   1.703   3.448  15.257 -0.2165 -0.5527 -0.1502
 2625SOL    HW219509   1.803   3.355  15.237 -0.4449 -1.8791  0.5431
 2626SOL     OW19510   0.545   3.169   1.258 -0.1528  0.1876 -0.1334
 2626SOL    HW119511   0.637   3.181   1.281 -0.0831  0.4234 -0.5264
 2626SOL    HW219512   0.515   3.255   1.229 -1.0782  0.3916  1.4457
 2627SOL     OW19513   2.455   0.963   7.718 -0.3350  0.4326  0.1356
 2627SOL    HW119514   2.363   0.961   7.742 -0.7638 -0.7535 -1.6068
 2627SOL    HW219515   2.500   0.885   7.752 -0.5049  0.3041  0.0672
 2628SOL     OW19516   3.562   1.562  16.074 -0.1585 -0.3893 -0.2352
 2628SOL    HW119517   3.540   1.647  16.110  1.8305  0.1718 -0.3312
 2628SOL    HW219518   3.629   1.530  16.135  1.0820  0.2484 -1.2627
 2629SOL     OW19519   3.847   4.080  12.870  0.4331 -0.1964  0.0467
 2629SOL    HW119520   3.871   3.988  12.871 -0.2018 -0.3993 -3.1380
 2629SOL    HW219521   3.871   4.098  12.779 -0.9472  1.2433 -0.0343
 2630SOL     OW19522   2.773   1.040   7.817  0.3253 -0.3160 -0.1266
 2630SOL    HW119523   2.788   0.945   7.815  1.7627 -0.0343 -2.5668
 2630SOL    HW219524   2.765   1.066   7.725  1.8730 -1.1476 -0.4892
 2631SOL     OW19525   3.728   0.699   4.456  0.5004 -0.1522  0.1379
 2631SOL    HW119526   3.748   0.705   4.550  1.5250  2.2580 -0.2454
 2631SOL    HW219527   3.803   0.744   4.418  0.8995 -1.6083 -0.8186
 2632SOL     OW19528   3.394   4.263   5.849 -0.1952  0.2727 -0.1547
 2632SOL    HW119529   3.465   4.218   5.894 -0.5199 -1.6006 -1.4888
 2632SOL    HW219530   3.337   4.268   5.925  2.2094  2.3012  1.4908
 2633SOL     OW19531   2.982   4.467   6.248 -0.0100 -0.0332  0.2420
 2633SOL    HW119532   2.989   4.412   6.170  2.6501  0.8159 -0.0977
 2633SOL    HW219533   3.021   4.400   6.305  0.0438 -1.9204 -1.9977
 2634SOL     OW19534   3.401   4.352   5.597 -0.0954 -0.4350 -0.1050
 2634SOL    HW119535   3.382   4.347   5.691  1.8584 -1.3316  0.2593
 2634SOL    HW219536   3.313   4.324   5.571 -0.6407  1.7381 -0.5660
 2635SOL     OW19537   2.191   3.260   8.859  0.4923 -0.1253  0.7171
 2635SOL    HW119538   2.183   3.355   8.872  0.4245 -0.0660  0.2519
 2635SOL    HW219539   2.245   3.232   8.932 -1.6632 -0.4422  2.1586
 2636SOL     OW19540   0.102   2.562   3.591  0.0965  0.1607  0.0879
 2636SOL    HW119541   0.165   2.528   3.527  1.1503 -0.5468  1.5146
 2636SOL    HW219542   0.103   2.487   3.649  0.3887  0.5972  0.6505
 2637SOL     OW19543   2.884   3.706   6.180 -0.1013 -0.3031  0.4259
 2637SOL    HW119544   2.864   3.772   6.247  1.9118 -0.1219  0.8410
 2637SOL    HW219545   2.818   3.732   6.116 -0.1127 -1.5209 -0.0717
 2638SOL     OW19546   0.106   2.973  17.620 -0.4697 -0.0067 -0.0011
 2638SOL    HW119547   0.147   2.967  17.706 -1.7014  0.4290  0.6031
 2638SOL    HW219548   0.031   2.922  17.651  1.2905 -3.4662 -1.3880
 2639SOL     OW19549   4.047   0.495   4.530  0.4959  0.6419 -0.2452
 2639SOL    HW119550   4.051   0.465   4.439  2.3113  0.1485 -0.0092
 2639SOL    HW219551   4.111   0.434   4.566  0.7263  0.7033 -0.5543
 2640SOL     OW19552   4.302   1.378   3.618  0.1446  0.6452  0.4791
 2640SOL    HW119553   4.275   1.469   3.629 -1.1892  0.6751 -2.7883
 2640SOL    HW219554   4.334   1.373   3.527  0.0052 -2.6674  0.6291
 2641SOL     OW19555   3.013   3.564  13.348  0.2727 -0.5596 -0.3565
 2641SOL    HW119556   2.924   3.586  13.320  0.6130 -0.4816 -1.3946
 2641SOL    HW219557   3.027   3.640  13.404  1.7220 -0.6052 -0.6700
 2642SOL     OW19558   2.844   4.514  15.120  0.0534  0.1380  0.5445
 2642SOL    HW119559   2.911   4.500  15.053 -0.4654 -2.4174  0.5663
 2642SOL    HW219560   2.792   4.586  15.086 -1.2446 -0.8754  0.4050
 2643SOL     OW19561   4.236   0.593  13.191 -0.0954 -0.2289  0.2180
 2643SOL    HW119562   4.226   0.516  13.134 -0.1725 -0.2223  0.2229
 2643SOL    HW219563   4.275   0.568  13.275  1.9513 -0.8891 -0.9150
 2644SOL     OW19564   0.553   0.692   9.228  0.9413 -0.5619 -0.3337
 2644SOL    HW119565   0.625   0.692   9.165  1.3453  0.7032  0.1352
 2644SOL    HW219566   0.512   0.606   9.215 -2.1839  1.2974 -2.9162
 2645SOL     OW19567   1.773   2.904   1.805 -0.2926  0.1427 -0.5470
 2645SOL    HW119568   1.700   2.905   1.866  0.0667 -2.6948 -0.0852
 2645SOL    HW219569   1.723   2.893   1.724 -0.7728  4.0475 -0.7498
 2646SOL     OW19570   0.766   4.722  17.355  0.3911 -0.2569  0.3029
 2646SOL    HW119571   0.768   0.080  17.330 -0.7154 -0.0434  0.9676
 2646SOL    HW219572   0.859   4.704  17.343  0.9370  2.5699  0.4758
 2647SOL     OW19573   1.640   2.870   9.730 -0.6680  0.2439  0.6155
 2647SOL    HW119574   1.638   2.928   9.654  1.1819 -1.3918 -0.6833
 2647SOL    HW219575   1.547   2.857   9.745 -0.9645  1.6773  0.0905
 2648SOL     OW19576   0.863   3.610   6.621 -0.2250  0.2964 -0.1785
 2648SOL    HW119577   0.833   3.699   6.638  1.9968  1.2825 -1.5467
 2648SOL    HW219578   0.794   3.575   6.564 -1.3788  1.6275  0.4097
 2649SOL     OW19579   3.516   2.068   6.998 -0.0912  0.8057 -0.4710
 2649SOL    HW119580   3.442   2.085   6.941 -0.7030 -0.1870  0.0306
 2649SOL    HW219581   3.583   2.068   6.930 -1.1129  1.9422 -1.4539
 2650SOL     OW19582   2.166   1.355   9.416  0.2366  0.7180 -0.0948
 2650SOL    HW119583   2.253   1.391   9.430  0.3547  0.3371  0.1421
 2650SOL    HW219584   2.176   1.275   9.468 -3.7938  0.3983  0.1899
 2651SOL     OW19585   1.722   3.577   6.976  0.6682  0.0638 -0.2246
 2651SOL    HW119586   1.697   3.507   7.036 -0.7233  1.6832  1.0438
 2651SOL    HW219587   1.654   3.574   6.909  0.3716 -3.0347  0.1972
 2652SOL     OW19588   1.845   4.153   1.293 -0.1330  0.2697  0.2947
 2652SOL    HW119589   1.918   4.157   1.231  1.3371  1.0593  2.0750
 2652SOL    HW219590   1.849   4.064   1.328 -0.7643  0.3511  0.5683
 2653SOL     OW19591   4.073   4.601   3.797  0.2049  0.4905 -0.1833
 2653SOL    HW119592   4.116   4.664   3.854  1.2848 -0.8372  0.4920
 2653SOL    HW219593   4.031   4.661   3.736 -1.4618  1.2145  1.7084
 2654SOL     OW19594   2.100   3.933   7.625  0.3744  0.3097 -0.2979
 2654SOL    HW119595   2.095   3.898   7.714 -1.0138  2.1567  0.3371
 2654SOL    HW219596   2.009   3.931   7.598  0.8382 -0.4528 -1.8174
 2655SOL     OW19597   2.908   0.468  16.426  0.1683 -0.5473  0.6243
 2655SOL    HW119598   2.970   0.518  16.478 -0.2544  1.2005 -0.5382
 2655SOL    HW219599   2.834   0.529  16.424 -0.5906 -1.4333  1.4088
 2656SOL     OW19600   1.853   4.313   7.625 -0.3422  0.1402 -0.5824
 2656SOL    HW119601   1.796   4.238   7.605  0.7955 -0.5814 -1.0875
 2656SOL    HW219602   1.930   4.281   7.578  0.9589 -0.9688  2.3308
 2657SOL     OW19603   0.760   1.831   7.692 -0.1459  0.2187  0.0266
 2657SOL    HW119604   0.746   1.802   7.782  1.2997  2.2033  0.8738
 2657SOL    HW219605   0.848   1.869   7.687 -0.4042  0.7965 -0.0853
 2658SOL     OW19606   2.915   3.358   0.039 -0.0233  0.2237  0.4038
 2658SOL    HW119607   2.897   3.330   0.129  3.7037 -1.4638  0.6336
 2658SOL    HW219608   2.882   3.278  17.733  1.4654  0.3529 -1.0164
 2659SOL     OW19609   4.682   1.589   3.293  0.2212  0.3242  0.3343
 2659SOL    HW119610   4.688   1.514   3.352 -0.1716 -0.3012 -0.4059
 2659SOL    HW219611   4.605   1.570   3.238 -0.5761  5.5497 -0.2775
 2660SOL     OW19612   1.315   0.161   8.946  0.2283  0.4824  0.0781
 2660SOL    HW119613   1.287   0.084   8.897 -1.5813 -0.1898  2.1640
 2660SOL    HW219614   1.254   0.167   9.019  2.8862  1.2690  2.2312
 2661SOL     OW19615   4.058   4.151   4.816 -0.2116 -0.0318  0.1644
 2661SOL    HW119616   4.046   4.061   4.844 -0.2149  0.8114  2.8599
 2661SOL    HW219617   4.078   4.186   4.903  0.4880  1.4291 -0.5836
 2662SOL     OW19618   1.025   0.363  13.312 -0.2587  0.4008  0.3355
 2662SOL    HW119619   1.044   0.355  13.218 -0.3887 -2.7610  0.5659
 2662SOL    HW219620   0.964   0.435  13.298 -0.6883 -0.2418 -1.0604
 2663SOL     OW19621   3.169   1.016   9.547 -0.4160  0.2055 -0.2321
 2663SOL    HW119622   3.261   1.014   9.522 -0.6084  0.2949 -0.9493
 2663SOL    HW219623   3.157   0.928   9.583 -1.6702  0.5748  0.2541
 2664SOL     OW19624   3.515   0.822   3.026  0.2791  0.7802  0.8815
 2664SOL    HW119625   3.483   0.875   2.952  1.0722 -0.1947 -0.1633
 2664SOL    HW219626   3.607   0.847   3.032  0.2811  1.4556 -1.8364
 2665SOL     OW19627   3.313   4.381   4.261  0.2219 -0.2496 -0.0710
 2665SOL    HW119628   3.259   4.320   4.211 -1.1339  0.0558  1.0260
 2665SOL    HW219629   3.332   4.462   4.214 -0.4500 -0.3541 -0.5276
 2666SOL     OW19630   0.514   2.077   3.077 -0.2024  0.4303 -0.2526
 2666SOL    HW119631   0.477   2.016   3.140  1.1276  0.6435  0.7328
 2666SOL    HW219632   0.564   2.020   3.018  0.2742  0.3387  0.2348
 2667SOL     OW19633   2.994   0.350   2.710  0.4814  0.6032 -0.3504
 2667SOL    HW119634   2.963   0.282   2.770 -0.8091  1.7623  0.2973
 2667SOL    HW219635   3.081   0.360   2.749 -0.0575  1.9223  0.4935
 2668SOL     OW19636   0.394   2.808  15.436 -0.1728  0.2287 -0.1776
 2668SOL    HW119637   0.470   2.791  15.492 -1.9932 -1.1553  1.8387
 2668SOL    HW219638   0.430   2.756  15.364 -0.2554 -0.7411  0.4837
 2669SOL     OW19639   4.167   2.627   8.602  0.1303 -0.0619  0.2851
 2669SOL    HW119640   4.141   2.565   8.670 -0.1358  0.0053  0.2456
 2669SOL    HW219641   4.240   2.577   8.565  0.8635  0.6327  0.8070
 2670SOL     OW19642   4.029   1.172   4.937  0.5555 -0.2728 -0.3548
 2670SOL    HW119643   3.981   1.251   4.910 -0.7889 -0.9529  0.0321
 2670SOL    HW219644   3.960   1.139   4.995  1.1311 -2.0166 -0.6727
 2671SOL     OW19645   4.165   0.428   7.297  0.8635 -0.0503 -0.6253
 2671SOL    HW119646   4.177   0.522   7.297  0.6780 -0.0276 -0.4146
 2671SOL    HW219647   4.124   0.414   7.383  1.2820  1.6754 -0.1530
 2672SOL     OW19648   3.451   4.330   4.479 -0.1278 -0.2513 -0.0248
 2672SOL    HW119649   3.397   4.349   4.402  0.5675 -1.1341 -0.7342
 2672SOL    HW219650   3.529   4.288   4.443  0.7980  0.7536  0.8264
 2673SOL     OW19651   2.908   1.469   1.473  0.9256  0.7528 -1.0382
 2673SOL    HW119652   2.936   1.491   1.562 -0.4739  0.8706 -0.6370
 2673SOL    HW219653   2.915   1.374   1.479 -1.7717  0.7409  1.6720
 2674SOL     OW19654   0.790   3.431  11.605 -0.0694 -0.1256 -0.1409
 2674SOL    HW119655   0.791   3.367  11.676 -0.8910 -0.3530 -0.3394
 2674SOL    HW219656   0.759   3.382  11.530  0.9850 -2.3534  0.8903
 2675SOL     OW19657   2.095   0.730   7.645  0.0752 -0.3212 -0.4087
 2675SOL    HW119658   2.012   0.727   7.693  1.7665  0.8080  2.6417
 2675SOL    HW219659   2.088   0.819   7.612 -0.1926 -0.9073 -1.9282
 2676SOL     OW19660   1.771   1.595   7.324 -0.3345  0.5294 -0.2954
 2676SOL    HW119661   1.713   1.652   7.373  1.3401  0.8613  1.2954
 2676SOL    HW219662   1.701   1.543   7.284 -0.6925  0.7573  0.0391
 2677SOL     OW19663   4.032   0.970   7.591 -0.2355 -0.3043  0.5155
 2677SOL    HW119664   4.055   0.878   7.604 -1.1967 -0.7461 -0.9768
 2677SOL    HW219665   4.017   0.998   7.682 -0.0128 -0.0592  0.4741
 2678SOL     OW19666   4.525   1.262   2.305 -0.1532  0.6687  0.5652
 2678SOL    HW119667   4.529   1.193   2.372  0.4584  0.8971  0.7623
 2678SOL    HW219668   4.618   1.285   2.298 -0.4969  2.0177  0.5099
 2679SOL     OW19669   3.614   2.848   4.422 -0.1962 -0.3239 -0.2426
 2679SOL    HW119670   3.572   2.778   4.373 -0.6917  1.0389 -1.7816
 2679SOL    HW219671   3.537   2.876   4.472 -0.4294 -0.6450 -0.4198
 2680SOL     OW19672   2.019   2.003   9.802 -0.1449 -0.2352  0.4377
 2680SOL    HW119673   1.943   2.044   9.842  0.5128  1.0261  0.3975
 2680SOL    HW219674   2.033   1.926   9.857 -0.1219 -2.4897 -2.6919
 2681SOL     OW19675   1.107   3.519  11.486  0.1494 -0.2651 -0.2452
 2681SOL    HW119676   1.018   3.555  11.483  0.1935  0.0802  2.2201
 2681SOL    HW219677   1.094   3.437  11.438 -2.5038 -2.0707  3.5089
 2682SOL     OW19678   1.045   3.791   9.537  0.1449 -0.4484  0.1703
 2682SOL    HW119679   1.089   3.872   9.511 -1.7050  0.4851 -0.0800
 2682SOL    HW219680   1.037   3.750   9.451  1.1542  1.0661 -0.6296
 2683SOL     OW19681   2.294   4.439  16.096 -0.1698 -0.3458  0.0684
 2683SOL    HW119682   2.377   4.456  16.140 -0.6614  0.3893  0.7129
 2683SOL    HW219683   2.249   4.395  16.168  2.0480  0.2972  1.8421
 2684SOL     OW19684   3.624   0.252   1.311 -0.3874  0.2587 -0.2441
 2684SOL    HW119685   3.647   0.299   1.391  1.1386 -1.0401  0.0849
 2684SOL    HW219686   3.658   0.166   1.337 -1.1220  0.0862  0.1423
 2685SOL     OW19687   1.846   1.510  10.072 -0.6491  0.5530  0.2094
 2685SOL    HW119688   1.775   1.451  10.050  1.1950 -1.5720 -0.0222
 2685SOL    HW219689   1.790   1.584  10.097 -2.1203 -1.1414  1.8809
 2686SOL     OW19690   0.743   0.833   8.104 -0.1190  0.4165 -0.0694
 2686SOL    HW119691   0.659   0.879   8.114 -0.1718  0.1971  0.5135
 2686SOL    HW219692   0.764   0.879   8.023 -1.4000  3.3502  1.2596
 2687SOL     OW19693   4.043   3.447  10.925  0.0361  0.8588 -0.0718
 2687SOL    HW119694   4.127   3.441  10.879  0.8105 -0.6966  1.5698
 2687SOL    HW219695   4.055   3.411  11.013  0.9449  2.0109  0.2906
 2688SOL     OW19696   2.124   3.070  11.297 -0.5894 -0.2141  0.5264
 2688SOL    HW119697   2.117   3.084  11.202 -4.4780 -2.4175  0.4854
 2688SOL    HW219698   2.141   3.161  11.323 -2.4609  0.4084 -0.3721
 2689SOL     OW19699   0.081   0.298   3.385 -0.0546 -0.3165 -0.0024
 2689SOL    HW119700   0.140   0.263   3.319  0.2554 -0.8689  0.5715
 2689SOL    HW219701   0.003   0.245   3.370  0.7029 -1.3719 -0.1806
 2690SOL     OW19702   1.953   0.508   3.707 -0.8254 -0.2666  0.0316
 2690SOL    HW119703   1.887   0.563   3.749 -1.9843 -1.5697 -0.0717
 2690SOL    HW219704   1.918   0.419   3.714 -2.4687  0.4911  1.3050
 2691SOL     OW19705   4.177   0.069   4.808 -0.2290  0.4462  0.0230
 2691SOL    HW119706   4.089   0.072   4.769 -0.5004 -3.3976  0.3588
 2691SOL    HW219707   4.211   4.734   4.752 -1.6044 -1.2784  1.3270
 2692SOL     OW19708   1.901   1.910   3.799 -0.5520  0.3619  0.6507
 2692SOL    HW119709   1.943   1.995   3.789  2.0395 -0.5757  3.6661
 2692SOL    HW219710   1.941   1.880   3.880  2.9183  1.7905 -0.5489
 2693SOL     OW19711   2.815   3.549   5.559  0.0274 -1.0668 -0.3141
 2693SOL    HW119712   2.788   3.568   5.469  0.7586 -1.6789 -0.6611
 2693SOL    HW219713   2.729   3.532   5.597  0.8702 -0.7252  1.7463
 2694SOL     OW19714   2.554   1.301   1.928 -0.5115  0.7025  0.2124
 2694SOL    HW119715   2.470   1.261   1.906 -0.3961 -0.7998  2.3920
 2694SOL    HW219716   2.592   1.312   1.841  1.5874  1.2104  1.1922
 2695SOL     OW19717   1.434   0.371   5.072 -0.0046  0.5136  0.1588
 2695SOL    HW119718   1.378   0.439   5.110 -0.7746  0.5196 -0.9919
 2695SOL    HW219719   1.515   0.407   5.110 -0.3540 -0.9415  2.2337
 2696SOL     OW19720   0.174   3.591  15.036  0.1498 -0.2367  0.0093
 2696SOL    HW119721   0.260   3.552  15.024  0.3781 -0.0606  1.1033
 2696SOL    HW219722   0.205   3.675  15.002 -1.6890  0.7858  0.7848
 2697SOL     OW19723   3.794   2.249   9.895  0.3820 -0.0542  0.0556
 2697SOL    HW119724   3.713   2.253   9.946  0.7370 -2.5476  0.8024
 2697SOL    HW219725   3.837   2.310   9.954 -0.0130 -0.9269  1.2489
 2698SOL     OW19726   4.345   0.100   3.117 -0.2198 -0.3026  0.4906
 2698SOL    HW119727   4.262   0.145   3.101  0.1738  0.1734 -0.2491
 2698SOL    HW219728   4.367   0.060   3.033  2.6756 -0.4058  1.2997
 2699SOL     OW19729   2.942   4.025   3.699 -0.0224  0.5193  0.2877
 2699SOL    HW119730   2.852   3.999   3.682  0.2123 -1.7568  2.4139
 2699SOL    HW219731   2.930   4.117   3.722 -0.9659  0.0870  1.5328
 2700SOL     OW19732   1.294   4.145   5.034 -0.3487  0.1939  0.1094
 2700SOL    HW119733   1.327   4.199   5.106 -0.7451  1.4253 -0.6488
 2700SOL    HW219734   1.252   4.214   4.984 -0.9508 -1.7723 -2.0949
 2701SOL     OW19735   4.043   2.885  17.235 -0.3546 -0.0203  0.3404
 2701SOL    HW119736   3.992   2.952  17.188  1.0385 -0.5677 -1.9533
 2701SOL    HW219737   3.998   2.809  17.197 -0.0779  0.1954 -0.4216
 2702SOL     OW19738   2.693   3.958   1.914  0.2330  0.0400 -0.1436
 2702SOL    HW119739   2.638   3.895   1.960  0.1394 -1.5433 -2.3976
 2702SOL    HW219740   2.778   3.913   1.913 -0.1446 -0.6622 -1.6708
 2703SOL     OW19741   1.785   0.210   8.160 -0.3247  0.0014  0.0849
 2703SOL    HW119742   1.864   0.160   8.180  1.5004  0.7180 -5.4928
 2703SOL    HW219743   1.809   0.299   8.187 -0.3916  0.4755 -1.4607
 2704SOL     OW19744   1.292   4.091  17.186  0.4201 -0.0267  0.1776
 2704SOL    HW119745   1.217   4.032  17.197  0.9404 -0.4281  1.5352
 2704SOL    HW219746   1.296   4.097  17.091  2.1264  0.5945  0.2951
 2705SOL     OW19747   1.556   3.489   5.241  0.2967  0.2289 -0.5972
 2705SOL    HW119748   1.500   3.566   5.251  0.8031  0.5584 -0.2593
 2705SOL    HW219749   1.644   3.517   5.268  0.6052 -0.9617 -0.3607
 2706SOL     OW19750   3.297   0.184   3.941 -0.1169  0.0802  0.2775
 2706SOL    HW119751   3.226   0.188   4.006 -0.2332 -1.8628  0.2636
 2706SOL    HW219752   3.290   0.096   3.905 -0.4307 -0.1834  0.9694
 2707SOL     OW19753   2.601   0.332  10.945 -0.2013  0.1963 -0.3958
 2707SOL    HW119754   2.545   0.344  10.868 -1.5501 -1.6651  0.3078
 2707SOL    HW219755   2.633   0.422  10.952  2.0119 -0.5859 -0.4689
 2708SOL     OW19756   0.702   3.581  14.844  0.2145 -0.4529  0.0680
 2708SOL    HW119757   0.767   3.629  14.792 -1.5652  2.6598  0.7465
 2708SOL    HW219758   0.714   3.497  14.800  0.9393 -0.7902  0.9095
 2709SOL     OW19759   3.885   1.919   2.079  0.5002 -0.2851 -0.0282
 2709SOL    HW119760   3.941   1.957   2.012  1.8402 -0.0430  1.2195
 2709SOL    HW219761   3.880   1.989   2.145 -0.8749 -0.4709  0.0636
 2710SOL     OW19762   0.198   2.134   7.235  0.3685 -0.4696 -0.3689
 2710SOL    HW119763   0.194   2.228   7.218 -1.4168 -0.4798  0.0286
 2710SOL    HW219764   0.244   2.138   7.319  0.8106 -1.7418 -0.5527
 2711SOL     OW19765   0.601   2.922   0.212 -0.3343 -0.5158  0.1930
 2711SOL    HW119766   0.615   3.016   0.225  0.7560 -0.6902  0.2652
 2711SOL    HW219767   0.621   2.916   0.119 -0.5169 -1.2603  0.2068
 2712SOL     OW19768   1.141   0.454   6.604 -0.6412  0.0569 -0.1956
 2712SOL    HW119769   1.199   0.522   6.639  1.4226 -0.0131 -3.4751
 2712SOL    HW219770   1.130   0.481   6.513  1.5723  0.7876 -0.2484
 2713SOL     OW19771   1.650   3.114   5.285 -0.8848  0.0859  0.6273
 2713SOL    HW119772   1.586   3.151   5.225 -0.1920  0.9308  0.4247
 2713SOL    HW219773   1.711   3.186   5.300 -0.1496 -0.4128  0.0140
 2714SOL     OW19774   1.880   4.493   6.502  0.3646  1.1383 -0.7995
 2714SOL    HW119775   1.916   4.545   6.574  3.0899 -0.4765 -0.9970
 2714SOL    HW219776   1.807   4.544   6.467 -0.3342  0.2994 -0.5638
 2715SOL     OW19777   2.289   4.281   8.409 -0.5409 -0.3577 -0.6361
 2715SOL    HW119778   2.310   4.198   8.452  0.4302  0.5754  0.7003
 2715SOL    HW219779   2.327   4.343   8.471  1.4084 -2.1520 -0.0460
 2716SOL     OW19780   3.378   3.068   3.346 -0.4063  1.0714 -0.1153
 2716SOL    HW119781   3.326   2.990   3.330  1.1457 -0.2159  1.1810
 2716SOL    HW219782   3.469   3.040   3.343 -0.8536 -0.4392  0.7688
 2717SOL     OW19783   1.031   3.075   1.151  0.4510 -0.3828 -0.0867
 2717SOL    HW119784   1.115   3.030   1.147 -0.0060 -1.1468 -0.8956
 2717SOL    HW219785   0.992   3.042   1.232 -1.2273 -0.2395 -0.8301
 2718SOL     OW19786   3.806   4.609   0.652  0.1610 -0.1352  0.3877
 2718SOL    HW119787   3.832   4.564   0.572 -3.1817 -0.8503 -0.2608
 2718SOL    HW219788   3.820   4.539   0.716 -1.8266 -1.4755 -0.6667
 2719SOL     OW19789   2.461   2.884   2.614 -0.0939  0.2194 -0.1557
 2719SOL    HW119790   2.403   2.875   2.539  0.5241 -1.1093 -0.4679
 2719SOL    HW219791   2.499   2.797   2.628 -0.1621  0.6490  2.7937
 2720SOL     OW19792   2.351   3.672   8.513 -0.0007 -0.3187 -0.5935
 2720SOL    HW119793   2.279   3.694   8.454 -2.8093 -2.3463  2.0636
 2720SOL    HW219794   2.419   3.727   8.475  0.7645 -1.2806 -0.6197
 2721SOL     OW19795   4.320   1.099  16.997  0.3540  0.3701  0.3221
 2721SOL    HW119796   4.367   1.133  17.073 -0.4496  1.4891  0.3246
 2721SOL    HW219797   4.348   1.155  16.924  0.1425  0.5935  0.4119
 2722SOL     OW19798   3.906   3.087   2.541  0.2543  0.3810  0.2244
 2722SOL    HW119799   3.999   3.090   2.564  0.2835 -1.3026  0.3353
 2722SOL    HW219800   3.885   2.995   2.558 -1.4667  0.9635  1.2353
 2723SOL     OW19801   0.714   2.777   4.449  0.0859 -0.3174 -0.4316
 2723SOL    HW119802   0.666   2.694   4.437 -2.4989  1.1066 -0.0682
 2723SOL    HW219803   0.691   2.823   4.368 -0.2125 -1.9978 -1.2972
 2724SOL     OW19804   0.478   1.206   4.602 -0.2014 -0.2168  0.0886
 2724SOL    HW119805   0.455   1.299   4.602 -0.7563 -0.3581  1.9956
 2724SOL    HW219806   0.480   1.196   4.697  0.8633  1.0685  0.2011
 2725SOL     OW19807   1.141   3.869  10.116  0.3217 -0.2305  0.1866
 2725SOL    HW119808   1.113   3.947  10.164  1.4673  1.7292 -2.3259
 2725SOL    HW219809   1.121   3.898  10.027 -0.4850  0.3182  0.5352
 2726SOL     OW19810   0.139   3.042   0.706  0.3244  0.5913 -0.1161
 2726SOL    HW119811   0.062   3.018   0.757  0.1693  0.8395 -0.2273
 2726SOL    HW219812   0.097   3.074   0.625 -1.7058  0.8013  1.0100
 2727SOL     OW19813   2.342   1.453   0.243 -0.0320 -0.0520 -0.0358
 2727SOL    HW119814   2.330   1.458   0.148  0.5878  0.6278 -0.0740
 2727SOL    HW219815   2.277   1.518   0.270  0.9046  0.6971  0.4118
 2728SOL     OW19816   3.197   0.368   5.513  0.3206  0.3189 -0.2927
 2728SOL    HW119817   3.171   0.420   5.590  0.9540 -1.2954  1.0211
 2728SOL    HW219818   3.126   0.304   5.511  1.5620 -1.0098 -1.0265
 2729SOL     OW19819   4.528   1.248   6.198 -1.2132  0.4691 -0.5409
 2729SOL    HW119820   4.516   1.173   6.141  0.5676  1.1401 -1.8156
 2729SOL    HW219821   4.512   1.206   6.282 -0.2921 -1.1118 -1.1672
 2730SOL     OW19822   2.973   0.620   8.974 -0.1962 -0.3975 -0.6355
 2730SOL    HW119823   3.049   0.669   8.942  0.8235  0.0077  2.4429
 2730SOL    HW219824   3.020   0.537   8.983 -1.7901 -1.1796  0.4072
 2731SOL     OW19825   2.475   4.207  11.458 -0.1055  0.0928 -0.3226
 2731SOL    HW119826   2.472   4.238  11.549  0.2287 -0.2769 -0.1859
 2731SOL    HW219827   2.418   4.276  11.423  0.0796 -0.0432 -0.8833
 2732SOL     OW19828   0.941   3.654   3.189  0.6757  0.1399  0.2606
 2732SOL    HW119829   0.887   3.581   3.218  1.0734 -0.3329 -0.1979
 2732SOL    HW219830   0.936   3.707   3.268  0.5411  0.0671  0.3008
 2733SOL     OW19831   3.160   0.739  10.230 -0.1359  0.0922  0.3658
 2733SOL    HW119832   3.212   0.808  10.271  0.6911  0.8672 -2.0109
 2733SOL    HW219833   3.100   0.731  10.304  0.3328  1.6479  0.9091
 2734SOL     OW19834   1.197   2.335   9.702 -0.2488  0.1053  0.5756
 2734SOL    HW119835   1.266   2.272   9.721  1.4750  2.4522  2.1862
 2734SOL    HW219836   1.240   2.368   9.623  1.1121  0.4769  1.4688
 2735SOL     OW19837   2.620   0.701  14.961 -0.5338 -0.1679 -0.1981
 2735SOL    HW119838   2.535   0.734  14.934  1.0604  3.5766 -0.6925
 2735SOL    HW219839   2.625   0.726  15.054 -1.6062  1.5286 -0.5952
 2736SOL     OW19840   4.670   2.089  16.884  0.5487 -0.0530  0.6429
 2736SOL    HW119841   0.020   2.043  16.894  0.9837  0.5464 -0.3126
 2736SOL    HW219842   4.623   2.078  16.967  0.9525 -0.6442  0.7943
 2737SOL     OW19843   4.600   2.523  10.501  0.6095  0.5660  0.2824
 2737SOL    HW119844   4.542   2.589  10.466 -0.8911 -0.6640  0.4651
 2737SOL    HW219845   4.596   2.543  10.594  2.7459  0.0320  0.5084
 2738SOL     OW19846   4.330   3.765   8.281  0.0463 -0.2773  0.3792
 2738SOL    HW119847   4.257   3.783   8.222 -0.6568 -0.6661  1.1273
 2738SOL    HW219848   4.360   3.855   8.293 -1.4406  0.6121 -2.6376
 2739SOL     OW19849   2.580   1.923   2.900 -0.3685  0.2151 -0.3151
 2739SOL    HW119850   2.598   1.832   2.875 -1.9898 -0.6765  1.7559
 2739SOL    HW219851   2.624   1.934   2.985 -0.8343  1.0563 -0.1850
 2740SOL     OW19852   3.446   1.927  14.458 -0.4133 -0.2182 -0.0007
 2740SOL    HW119853   3.474   1.871  14.386  1.6099  0.2176  0.4379
 2740SOL    HW219854   3.392   1.871  14.513  0.8292 -0.7131  0.7170
 2741SOL     OW19855   2.988   1.253   7.355 -0.0386 -0.1604 -0.3401
 2741SOL    HW119856   2.906   1.303   7.361  0.1955  0.1862 -0.0525
 2741SOL    HW219857   3.049   1.314   7.313  0.3520 -1.3648 -1.5181
 2742SOL     OW19858   3.340   3.602   5.546  0.7154  0.5893  0.5232
 2742SOL    HW119859   3.254   3.559   5.547  1.0530 -0.0671  1.4800
 2742SOL    HW219860   3.336   3.668   5.477  0.2912 -0.5071 -0.4994
 2743SOL     OW19861   0.544   2.472   7.240 -0.4967 -0.1742  0.1743
 2743SOL    HW119862   0.536   2.526   7.161  0.5538 -0.1448  0.0921
 2743SOL    HW219863   0.625   2.424   7.225 -1.2236 -1.2945 -0.1810
 2744SOL     OW19864   3.549   3.289  12.106 -0.4950 -0.0556 -0.0682
 2744SOL    HW119865   3.475   3.238  12.139  1.0341 -1.7830  0.6222
 2744SOL    HW219866   3.592   3.317  12.187  0.8011 -0.6847 -0.5515
 2745SOL     OW19867   3.263   3.132   5.348  0.3074  0.1234  0.5515
 2745SOL    HW119868   3.285   3.055   5.295  0.0552  1.7938 -1.9675
 2745SOL    HW219869   3.351   3.157   5.375 -0.0821  3.1163 -0.9798
 2746SOL     OW19870   0.703   0.294   3.395  0.2114  0.3122 -0.3446
 2746SOL    HW119871   0.671   0.381   3.374 -1.9706 -0.3895  0.0789
 2746SOL    HW219872   0.676   0.238   3.322 -3.4366  0.7671  0.6546
 2747SOL     OW19873   0.968   2.204   2.642 -0.0228 -0.3676  0.4998
 2747SOL    HW119874   0.997   2.252   2.720  0.8908 -1.0214  0.5539
 2747SOL    HW219875   0.933   2.128   2.687  3.0152 -1.9166  0.2030
 2748SOL     OW19876   0.605   2.644   7.781  0.8563  0.1715 -0.5859
 2748SOL    HW119877   0.554   2.693   7.847  1.4581 -1.0243  0.7608
 2748SOL    HW219878   0.668   2.713   7.762  0.0499  0.8111 -0.9453
 2749SOL     OW19879   1.435   0.429   6.437 -0.2556 -0.1307 -0.3424
 2749SOL    HW119880   1.433   0.503   6.497 -0.6945 -1.8531  1.7269
 2749SOL    HW219881   1.354   0.445   6.388 -0.4354 -0.9643 -0.3195
 2750SOL     OW19882   2.677   3.444  15.825 -0.1319  0.4608 -0.0063
 2750SOL    HW119883   2.658   3.362  15.779  0.2874  0.5950 -0.4164
 2750SOL    HW219884   2.591   3.464  15.861  0.7077  1.1243  1.6204
 2751SOL     OW19885   2.768   3.028   4.692 -0.5171 -0.4447 -0.0898
 2751SOL    HW119886   2.686   2.985   4.717 -0.7221 -0.1274 -0.1992
 2751SOL    HW219887   2.764   3.024   4.596 -1.0195  0.4866 -0.1196
 2752SOL     OW19888   0.651   2.532  17.063  0.0697 -0.1753  0.7296
 2752SOL    HW119889   0.572   2.575  17.031  0.3207 -0.1571  0.1345
 2752SOL    HW219890   0.615   2.459  17.114  0.3476 -1.7583 -1.3521
 2753SOL     OW19891   4.026   0.192   5.402 -0.0303  0.0298  0.2476
 2753SOL    HW119892   4.030   0.183   5.307 -1.1527 -2.2624  0.4125
 2753SOL    HW219893   4.023   0.103   5.437  1.7171 -0.8581 -1.8844
 2754SOL     OW19894   2.118   2.191   7.345  0.2719  0.1076 -0.2361
 2754SOL    HW119895   2.124   2.281   7.377  1.5851 -0.1315  0.1822
 2754SOL    HW219896   2.173   2.144   7.408 -1.2634 -0.5896  0.5840
 2755SOL     OW19897   4.349   0.034   8.238 -0.1193  0.0833 -0.1773
 2755SOL    HW119898   4.316   0.070   8.156  0.0140 -0.6802 -0.5618
 2755SOL    HW219899   4.443   0.036   8.218 -0.2295 -1.4283 -0.8308
 2756SOL     OW19900   4.040   1.776   6.908 -0.4521 -0.3225 -0.3017
 2756SOL    HW119901   4.134   1.788   6.916 -0.4259  0.8133 -2.1285
 2756SOL    HW219902   4.007   1.860   6.942  0.1489  0.4930 -1.7195
 2757SOL     OW19903   0.811   2.995   1.011 -0.4978  0.1062 -0.5653
 2757SOL    HW119904   0.891   3.043   1.028 -0.0225 -0.3343 -1.5581
 2757SOL    HW219905   0.784   3.056   0.942 -1.8699  0.6787  0.4663
 2758SOL     OW19906   1.060   3.854   7.074  0.0060 -0.1600  0.5600
 2758SOL    HW119907   0.981   3.835   7.125 -0.3190  0.2562  0.2078
 2758SOL    HW219908   1.118   3.833   7.148  0.4540 -0.5985  0.0818
 2759SOL     OW19909   0.059   1.045  10.823 -0.0509  0.0932  0.2405
 2759SOL    HW119910   0.090   1.132  10.795 -1.6854  0.3266 -0.8426
 2759SOL    HW219911   0.063   0.996  10.741  1.6039 -0.7878  0.8491
 2760SOL     OW19912   0.111   3.588   7.201  0.3723  0.4016 -0.0780
 2760SOL    HW119913   0.039   3.529   7.223  0.0339  1.2779  1.1732
 2760SOL    HW219914   0.075   3.661   7.150  3.4239  1.8251 -0.2672
 2761SOL     OW19915   3.029   1.309   4.772  0.2804 -0.0551 -0.5601
 2761SOL    HW119916   2.983   1.373   4.826 -0.7835 -1.5313  0.2451
 2761SOL    HW219917   3.062   1.359   4.696  0.7715 -1.5616 -1.3296
 2762SOL     OW19918   3.575   1.113   0.405 -0.0237  0.2055  0.2727
 2762SOL    HW119919   3.663   1.150   0.402  0.0081  0.0555 -0.5023
 2762SOL    HW219920   3.588   1.026   0.442 -0.9212 -0.7919 -1.7489
 2763SOL     OW19921   1.046   4.132   8.487 -0.4349 -0.2683 -0.3246
 2763SOL    HW119922   1.012   4.076   8.417 -0.1607  1.6644 -2.0233
 2763SOL    HW219923   1.049   4.073   8.562 -0.4178 -0.0543 -0.1553
 2764SOL     OW19924   3.850   4.258  15.040 -0.2951  0.8357  0.0051
 2764SOL    HW119925   3.893   4.237  14.957 -0.5440  0.7471 -0.1011
 2764SOL    HW219926   3.900   4.336  15.064  1.4926 -0.3808  0.2918
 2765SOL     OW19927   1.157   1.152   1.542 -0.0218 -0.3279 -0.2544
 2765SOL    HW119928   1.168   1.245   1.558 -1.1933 -0.0748 -0.8703
 2765SOL    HW219929   1.079   1.131   1.594 -0.3256 -1.2227 -1.0625
 2766SOL     OW19930   1.675   3.214  13.583  0.0224 -0.1329  0.4841
 2766SOL    HW119931   1.652   3.302  13.553 -0.2173  0.0902  1.3375
 2766SOL    HW219932   1.770   3.214  13.594  0.1170  1.5059 -0.2253
 2767SOL     OW19933   0.867   3.863  10.731 -0.3631  0.3027 -0.0764
 2767SOL    HW119934   0.867   3.914  10.650  0.1153  0.0999 -0.2040
 2767SOL    HW219935   0.819   3.918  10.793 -0.1710 -0.9741  1.2047
 2768SOL     OW19936   1.635   1.687  10.135 -0.4481 -0.6968  0.1183
 2768SOL    HW119937   1.569   1.749  10.166 -2.0257 -1.7585 -1.1550
 2768SOL    HW219938   1.664   1.743  10.064 -0.3566 -0.3748  0.4104
 2769SOL     OW19939   2.933   0.681   4.047 -0.1593 -0.3170 -0.0021
 2769SOL    HW119940   3.028   0.664   4.044  0.0933  1.3792 -1.4610
 2769SOL    HW219941   2.934   0.776   4.052 -0.7313 -0.2320 -1.6134
 2770SOL     OW19942   2.174   2.712   2.698 -1.0000 -0.4802 -0.1714
 2770SOL    HW119943   2.115   2.772   2.652 -0.9674  0.4738  1.0321
 2770SOL    HW219944   2.119   2.654   2.750 -1.3865  1.0450  1.1469
 2771SOL     OW19945   1.311   2.088   7.376 -0.1590 -0.5308 -0.2767
 2771SOL    HW119946   1.334   2.068   7.467 -2.1431  0.0197  0.3442
 2771SOL    HW219947   1.375   2.044   7.321 -0.6602 -0.7670 -0.6757
 2772SOL     OW19948   1.880   0.956   7.819  0.1740  0.2842  0.1478
 2772SOL    HW119949   1.955   1.015   7.816  1.4930 -1.3661  0.7102
 2772SOL    HW219950   1.852   0.981   7.907 -0.4756 -2.5643  0.7383
 2773SOL     OW19951   2.417   3.816   5.953 -0.5784  0.4784  0.0474
 2773SOL    HW119952   2.390   3.836   6.043  1.6718 -0.9695  1.0422
 2773SOL    HW219953   2.464   3.892   5.917 -1.3070  2.2695  2.8830
 2774SOL     OW19954   4.309   2.353  10.428  0.7006 -0.8731 -0.0748
 2774SOL    HW119955   4.378   2.336  10.492  1.8412  0.0641 -1.0536
 2774SOL    HW219956   4.307   2.448  10.417  0.0286 -0.6709  1.6650
 2775SOL     OW19957   2.347   1.708  13.817 -0.6047  0.2914  0.1970
 2775SOL    HW119958   2.402   1.728  13.741  1.5419 -1.8219  1.1754
 2775SOL    HW219959   2.299   1.630  13.790 -0.9475  0.6281 -0.1534
 2776SOL     OW19960   2.190   4.408   6.599  0.3883  0.1900  0.0342
 2776SOL    HW119961   2.117   4.347   6.607 -0.8100  1.9019  1.9729
 2776SOL    HW219962   2.218   4.433   6.687  1.2797  3.1153 -1.0839
 2777SOL     OW19963   0.246   4.093   5.544 -0.0632 -0.0409 -0.1670
 2777SOL    HW119964   0.253   4.119   5.636  0.2121 -1.1926  0.1411
 2777SOL    HW219965   0.160   4.050   5.547 -0.4612  0.7221 -0.5396
 2778SOL     OW19966   3.345   4.603   4.117  0.1801 -0.0644  0.5167
 2778SOL    HW119967   3.412   4.670   4.105 -0.8558  0.8956  0.0953
 2778SOL    HW219968   3.311   4.610   4.027  0.9634  1.1369  0.3190
 2779SOL     OW19969   1.940   2.452  14.548  0.7421  0.0457 -0.1532
 2779SOL    HW119970   2.012   2.512  14.527 -1.3018  2.5085 -0.1172
 2779SOL    HW219971   1.975   2.414  14.629  0.0110  0.6621  0.4528
 2780SOL     OW19972   1.130   4.038   8.748 -0.2026 -0.1899 -0.3548
 2780SOL    HW119973   1.076   4.006   8.820 -0.1621 -1.7660 -1.0238
 2780SOL    HW219974   1.193   3.966   8.745 -0.8160 -0.7234 -0.5145
 2781SOL     OW19975   1.228   3.404   7.985  0.4775  0.1550 -0.4468
 2781SOL    HW119976   1.136   3.381   7.998  0.8684 -1.5008 -0.6183
 2781SOL    HW219977   1.245   3.393   7.892  2.3408 -2.4044  0.1982
 2782SOL     OW19978   3.526   4.194   3.401  0.0259 -0.0127 -0.2520
 2782SOL    HW119979   3.523   4.235   3.487 -0.0353 -0.2278 -0.1521
 2782SOL    HW219980   3.612   4.153   3.408  0.2197  0.1173 -1.7413
 2783SOL     OW19981   1.746   1.454   5.207 -0.0822 -0.3581  0.1818
 2783SOL    HW119982   1.673   1.392   5.200 -0.2125 -0.2870  0.8978
 2783SOL    HW219983   1.683   1.526   5.201 -0.2710 -0.6139 -1.0265
 2784SOL     OW19984   4.715   0.647  10.363  0.2939  0.2278 -0.0804
 2784SOL    HW119985   4.632   0.603  10.341  1.9501 -1.4594 -2.8634
 2784SOL    HW219986   0.042   0.575  10.346 -0.2144 -0.6681  1.8590
 2785SOL     OW19987   3.156   4.702   4.656 -0.3237 -0.2710  0.1992
 2785SOL    HW119988   3.153   4.609   4.678  3.1534  0.0745  2.1443
 2785SOL    HW219989   3.108   4.711   4.574  1.1638  1.3395 -0.4890
 2786SOL     OW19990   2.415   1.778   9.758  0.2891 -0.5001  0.0848
 2786SOL    HW119991   2.342   1.725   9.727  0.2499 -0.9456  0.9393
 2786SOL    HW219992   2.384   1.868   9.744 -1.3108 -0.7723  1.8278
 2787SOL     OW19993   2.575   2.866   7.239  0.1742  0.3899 -0.2028
 2787SOL    HW119994   2.521   2.899   7.311 -0.4205 -1.0315 -0.0009
 2787SOL    HW219995   2.660   2.904   7.263  0.2478  0.4312 -0.5291
 2788SOL     OW19996   3.864   3.539  10.087  0.9940 -0.2188 -0.4674
 2788SOL    HW119997   3.810   3.507  10.159  0.7593  0.3198 -0.4035
 2788SOL    HW219998   3.820   3.507  10.009  1.6635  0.6503 -1.2036
 2789SOL     OW19999   3.050   4.698   6.883 -0.5428 -0.0715 -0.4208
 2789SOL    HW120000   2.986   4.627   6.888 -0.5865 -0.2107 -3.0977
 2789SOL    HW220001   3.070   4.692   6.789  1.2892 -0.6156  0.0012
 2790SOL     OW20002   1.390   0.629   5.659 -0.4265 -0.3035  0.3431
 2790SOL    HW120003   1.440   0.605   5.737 -1.0095 -1.5874  0.3288
 2790SOL    HW220004   1.302   0.618   5.695  0.3982  0.3789  2.5268
 2791SOL     OW20005   3.158   2.132   6.194 -0.1087  0.0035  0.0672
 2791SOL    HW120006   3.095   2.160   6.261  1.9048  0.5134  1.7249
 2791SOL    HW220007   3.155   2.205   6.132  2.9515 -0.1660 -0.2520
 2792SOL     OW20008   3.629   3.786  17.103  0.6005 -0.1831  0.0117
 2792SOL    HW120009   3.646   3.692  17.098  0.6387 -0.2905  2.1503
 2792SOL    HW220010   3.541   3.788  17.066  0.5274  0.6996  0.2293
 2793SOL     OW20011   2.946   2.653   8.893  0.2740  0.1524 -0.4811
 2793SOL    HW120012   2.925   2.667   8.800 -1.4002 -2.0696 -0.4458
 2793SOL    HW220013   2.866   2.608   8.920 -0.0219  0.6549 -0.5096
 2794SOL     OW20014   4.605   0.989   8.141 -0.1128  0.2338  0.0122
 2794SOL    HW120015   4.684   1.018   8.185  0.5078 -0.4098 -0.6929
 2794SOL    HW220016   4.588   0.915   8.199 -0.6325  1.2452  1.1332
 2795SOL     OW20017   3.639   1.251   5.261  0.6367 -0.5702 -0.2120
 2795SOL    HW120018   3.645   1.157   5.280 -1.5650 -0.6990 -0.2010
 2795SOL    HW220019   3.567   1.258   5.199  1.0194 -3.2202 -0.9594
 2796SOL     OW20020   3.281   2.559   0.495  0.3361 -0.0634 -0.1362
 2796SOL    HW120021   3.337   2.611   0.553 -1.4584  3.8399 -1.9027
 2796SOL    HW220022   3.274   2.470   0.527 -2.2681  0.0568 -0.4029
 2797SOL     OW20023   4.185   2.624   3.667 -0.1776 -0.1805  0.5437
 2797SOL    HW120024   4.202   2.694   3.605  1.3960 -0.4361  0.6860
 2797SOL    HW220025   4.193   2.657   3.757  1.9387  1.2802 -0.2139
 2798SOL     OW20026   2.939   3.370  11.143 -0.1448  0.3395 -0.5240
 2798SOL    HW120027   2.991   3.442  11.179  3.2187 -2.1911 -0.3120
 2798SOL    HW220028   2.946   3.320  11.224  0.0980  1.8063  0.3623
 2799SOL     OW20029   1.966   1.270  15.686 -0.1993 -0.4529  0.5955
 2799SOL    HW120030   1.990   1.360  15.664 -1.8948  0.0471  0.8161
 2799SOL    HW220031   1.876   1.262  15.654 -0.2319  0.9767  0.3422
 2800SOL     OW20032   0.955   4.154   5.695 -0.2825  0.2278  0.1471
 2800SOL    HW120033   0.964   4.171   5.788  1.9974  0.4228 -0.1099
 2800SOL    HW220034   0.920   4.066   5.703 -1.6567  0.5725 -1.8706
 2801SOL     OW20035   4.612   3.920   1.269 -0.2314 -0.2861 -0.1214
 2801SOL    HW120036   4.586   3.847   1.213 -0.7225 -0.1380 -0.0897
 2801SOL    HW220037   4.594   3.869   1.348  1.8148 -0.9043 -0.0636
 2802SOL     OW20038   1.490   2.361  12.800 -0.5754  0.0330 -0.7053
 2802SOL    HW120039   1.492   2.454  12.780  0.6086 -0.1457 -1.4009
 2802SOL    HW220040   1.400   2.333  12.779  0.3695 -3.1812 -0.5124
 2803SOL     OW20041   2.259   0.734   4.754  0.0522 -0.5471 -0.0516
 2803SOL    HW120042   2.278   0.698   4.841 -0.7160 -0.1404  0.2922
 2803SOL    HW220043   2.178   0.684   4.737 -1.7080  2.1765  0.3218
 2804SOL     OW20044   4.565   2.263   7.072 -0.0826  0.1884 -0.3070
 2804SOL    HW120045   4.532   2.287   7.158 -0.7107 -0.4406 -0.3676
 2804SOL    HW220046   4.481   2.258   7.027 -0.0180 -0.6536 -0.3529
 2805SOL     OW20047   2.823   0.179   3.422  0.0299  0.2255  0.3644
 2805SOL    HW120048   2.739   0.221   3.437  0.5734  1.3657  0.2002
 2805SOL    HW220049   2.888   0.242   3.453 -1.5752  0.7212  2.7439
 2806SOL     OW20050   3.887   4.705   1.868 -0.7028  0.3884  0.3660
 2806SOL    HW120051   3.838   0.009   1.940 -2.2225 -0.6337 -0.1241
 2806SOL    HW220052   3.972   0.004   1.895  0.7711 -2.2662 -1.0824
 2807SOL     OW20053   4.006   0.239   6.692 -0.1651  0.0858 -0.3211
 2807SOL    HW120054   3.944   0.219   6.762 -1.0820 -0.4448 -1.2973
 2807SOL    HW220055   4.023   0.149   6.662 -1.4967 -0.9361  1.9804
 2808SOL     OW20056   0.375   1.211  17.047 -0.8340  0.0473  0.0793
 2808SOL    HW120057   0.306   1.213  17.113 -0.8666  0.6425  0.0294
 2808SOL    HW220058   0.454   1.216  17.102 -1.7510  1.2323  1.3046
 2809SOL     OW20059   0.009   3.263  16.582 -0.2407 -0.3601  0.5445
 2809SOL    HW120060   4.716   3.283  16.671  0.8998 -2.9903  1.4488
 2809SOL    HW220061   0.091   3.217  16.597  0.1958  0.0932 -0.4607
 2810SOL     OW20062   4.359   1.390   5.389 -0.7614 -0.0018 -0.6790
 2810SOL    HW120063   4.382   1.400   5.297  1.2663  0.4181 -0.1282
 2810SOL    HW220064   4.369   1.295   5.391 -2.3495 -0.1612 -0.0996
 2811SOL     OW20065   1.155   0.899   6.494 -0.3124 -0.3280 -0.6226
 2811SOL    HW120066   1.239   0.879   6.536 -0.6253  1.7632  1.0499
 2811SOL    HW220067   1.111   0.816   6.511  1.5567 -1.4039 -0.9741
 2812SOL     OW20068   3.018   3.909   7.218 -0.2645 -0.3034  0.1960
 2812SOL    HW120069   2.994   3.955   7.298  1.6472  2.2507 -0.7157
 2812SOL    HW220070   2.928   3.902   7.186  0.2427 -1.5651 -0.9797
 2813SOL     OW20071   2.655   1.916   2.253 -0.0663 -0.3152  0.3201
 2813SOL    HW120072   2.715   1.980   2.214 -1.6122  0.5480 -0.6362
 2813SOL    HW220073   2.617   1.970   2.322  1.3093  0.6367  0.3343
 2814SOL     OW20074   0.768   2.512   4.256  0.3278  0.5442 -0.1439
 2814SOL    HW120075   0.727   2.513   4.343 -0.9452  2.3418 -0.7770
 2814SOL    HW220076   0.828   2.438   4.263  0.1961  0.3208 -1.3382
 2815SOL     OW20077   1.153   3.616  14.504 -0.3224  0.2202  0.1322
 2815SOL    HW120078   1.208   3.623  14.582 -0.1898  0.1370  0.0465
 2815SOL    HW220079   1.063   3.614  14.535  0.3979  0.5890  2.2700
 2816SOL     OW20080   1.337   1.002   5.002 -0.2696  0.2629 -0.5580
 2816SOL    HW120081   1.422   0.970   4.971 -0.4060  0.4558 -1.1450
 2816SOL    HW220082   1.279   0.979   4.928 -0.4344 -2.5797  0.4368
 2817SOL     OW20083   1.259   4.392   2.250 -0.1694 -0.2712 -0.5062
 2817SOL    HW120084   1.269   4.378   2.155  1.4935  0.6415 -0.4665
 2817SOL    HW220085   1.171   4.355   2.257  0.1650 -0.6170  1.6983
 2818SOL     OW20086   2.926   0.463   8.376 -0.0779  0.0586  0.1107
 2818SOL    HW120087   2.837   0.430   8.369 -0.1067  0.6131 -2.2036
 2818SOL    HW220088   2.968   0.379   8.361 -0.6573 -0.1865 -0.1537
 2819SOL     OW20089   1.562   1.829   9.745 -0.2700  0.0078  0.1365
 2819SOL    HW120090   1.651   1.842   9.711  0.1735 -3.1325  0.0755
 2819SOL    HW220091   1.587   1.840   9.836  0.5296 -2.9348  0.2498
 2820SOL     OW20092   0.316   0.901  10.013 -0.0489  0.8027  0.1823
 2820SOL    HW120093   0.311   0.993  10.040 -0.1123  0.6902  0.5558
 2820SOL    HW220094   0.406   0.897   9.981 -0.3819 -1.9155 -0.4052
 2821SOL     OW20095   1.152   2.531   2.761 -0.4944 -0.3778  0.2085
 2821SOL    HW120096   1.062   2.561   2.765 -0.1919  0.0024  3.8141
 2821SOL    HW220097   1.141   2.443   2.798  2.9927 -0.8412  0.1940
 2822SOL     OW20098   3.867   1.013   6.314 -0.0443  0.2016 -0.2381
 2822SOL    HW120099   3.936   1.079   6.308  1.8876 -1.6919  0.9217
 2822SOL    HW220100   3.890   0.956   6.241  0.5503  0.1541 -0.0174
 2823SOL     OW20101   3.451   1.789  13.617  0.2971  0.0363 -0.3302
 2823SOL    HW120102   3.376   1.847  13.626  0.9713  1.1225 -1.7357
 2823SOL    HW220103   3.473   1.771  13.708 -0.8341  3.7561  0.6957
 2824SOL     OW20104   4.633   1.642   7.671  0.2936 -0.2515  0.5382
 2824SOL    HW120105   4.606   1.638   7.762  2.3115 -1.3864  1.0963
 2824SOL    HW220106   4.555   1.610   7.627  0.6338 -0.0471 -0.2213
 2825SOL     OW20107   2.599   2.741   3.910  0.1448 -0.2875 -0.3400
 2825SOL    HW120108   2.643   2.705   3.833 -0.8393  1.8352 -1.8974
 2825SOL    HW220109   2.593   2.671   3.975  1.4339 -0.9572 -0.9207
 2826SOL     OW20110   2.767   0.767   9.029  0.3021  0.2328 -0.3219
 2826SOL    HW120111   2.794   0.839   9.086  2.4336 -1.2061  0.4945
 2826SOL    HW220112   2.845   0.713   9.014 -1.5076 -2.0555 -1.2952
 2827SOL     OW20113   2.641   2.208   2.369  0.8361 -0.2211 -0.0583
 2827SOL    HW120114   2.551   2.233   2.346 -0.0834 -1.5467  2.0491
 2827SOL    HW220115   2.690   2.281   2.330 -0.3295  0.4783 -0.2166
 2828SOL     OW20116   3.266   4.372   3.871  0.4113  0.1299  0.2667
 2828SOL    HW120117   3.269   4.297   3.812  2.2289  0.2591  0.1726
 2828SOL    HW220118   3.351   4.356   3.914 -0.1502  0.6064  1.5524
 2829SOL     OW20119   0.514   0.763   6.756 -0.3901 -0.1351 -0.2443
 2829SOL    HW120120   0.430   0.728   6.786  0.5551 -2.5495 -0.3865
 2829SOL    HW220121   0.502   0.757   6.661 -0.1787 -0.7418 -0.2315
 2830SOL     OW20122   2.426   4.004   2.155 -0.1727  0.1829  0.4808
 2830SOL    HW120123   2.331   3.993   2.151 -0.1906  0.0107  1.5177
 2830SOL    HW220124   2.466   3.926   2.118 -2.0298 -0.1216 -0.9305
 2831SOL     OW20125   2.336   1.789   4.382  0.2737  0.5130 -0.2259
 2831SOL    HW120126   2.401   1.750   4.441 -1.0727 -0.4593  0.6297
 2831SOL    HW220127   2.263   1.802   4.443  1.4216  0.1939  1.2465
 2832SOL     OW20128   0.380   4.537  12.424  0.4770  0.3262  0.0096
 2832SOL    HW120129   0.403   4.628  12.409  0.8170  0.1034 -0.8295
 2832SOL    HW220130   0.373   4.549  12.519 -0.2490  3.4404 -0.4390
 2833SOL     OW20131   3.094   4.627  10.645 -0.3354 -1.0522 -0.6675
 2833SOL    HW120132   3.183   4.627  10.609  0.6399  1.5005  1.7603
 2833SOL    HW220133   3.085   4.532  10.653  1.2305 -0.9952  1.6513
 2834SOL     OW20134   2.856   3.755   5.760 -0.0910 -0.5698  0.5968
 2834SOL    HW120135   2.948   3.735   5.777  0.5855  2.9592  1.2415
 2834SOL    HW220136   2.832   3.701   5.684 -0.4046  0.1720  0.1607
 2835SOL     OW20137   3.076   2.611   1.277 -0.4312  0.5566 -0.1216
 2835SOL    HW120138   3.055   2.562   1.198  0.2002  0.3375 -0.1587
 2835SOL    HW220139   3.021   2.689   1.264 -2.0760 -0.1924  2.3765
 2836SOL     OW20140   2.394   0.929   4.975  0.2569 -0.4942  0.5238
 2836SOL    HW120141   2.449   0.914   4.899 -0.5357  1.2995 -0.4019
 2836SOL    HW220142   2.405   0.846   5.022 -2.2258  0.3113  2.5918
 2837SOL     OW20143   3.613   3.007   8.015 -0.5594 -0.9231 -0.6189
 2837SOL    HW120144   3.619   3.070   8.088  0.8702 -3.7006  1.6626
 2837SOL    HW220145   3.519   2.990   8.007 -1.0427  1.5203 -0.1348
 2838SOL     OW20146   3.442   0.379   7.377  0.1348  0.5534  0.0015
 2838SOL    HW120147   3.409   0.386   7.467 -0.3742  1.1710 -0.2284
 2838SOL    HW220148   3.479   0.466   7.362  0.8099  0.0530 -1.1615
 2839SOL     OW20149   4.621   1.358   7.959 -0.2539  0.4918 -0.1302
 2839SOL    HW120150   4.682   1.399   8.020 -1.2672  3.3137 -1.0505
 2839SOL    HW220151   4.572   1.435   7.931  1.3191  1.0238 -1.3833
 2840SOL     OW20152   3.496   1.601   2.600  0.5799  0.4361  0.0695
 2840SOL    HW120153   3.569   1.661   2.616  1.3859 -0.2598 -1.0909
 2840SOL    HW220154   3.507   1.576   2.509 -1.0368 -0.8511  0.2209
 2841SOL     OW20155   3.336   0.447   8.902 -0.2015  0.0797  0.0543
 2841SOL    HW120156   3.393   0.445   8.826  0.5472  0.1894  0.6095
 2841SOL    HW220157   3.278   0.373   8.881  1.4001 -1.3128  0.5366
 2842SOL     OW20158   2.288   3.649  17.548  0.2726  0.3860  0.9918
 2842SOL    HW120159   2.211   3.691  17.587 -1.5719 -2.0579  0.0130
 2842SOL    HW220160   2.361   3.674  17.606  1.3306  1.3430 -0.7677
 2843SOL     OW20161   0.712   4.465  15.066  0.4100 -0.0501  0.0138
 2843SOL    HW120162   0.758   4.416  14.998 -1.7241  0.2954 -1.6987
 2843SOL    HW220163   0.627   4.425  15.048  1.0249  0.5502 -4.2282
 2844SOL     OW20164   4.353   3.787  14.332  1.1752  0.4588  0.3498
 2844SOL    HW120165   4.318   3.698  14.333 -0.1302  0.9323 -4.8956
 2844SOL    HW220166   4.445   3.763  14.345  1.0952 -0.2006 -0.3380
 2845SOL     OW20167   2.412   3.183   2.368 -0.0981 -1.0800  0.0720
 2845SOL    HW120168   2.404   3.261   2.313 -1.7032 -0.6176  0.9366
 2845SOL    HW220169   2.324   3.178   2.405  0.4140 -1.2432  1.2478
 2846SOL     OW20170   0.342   0.464   2.937 -0.0297  0.3484  1.1505
 2846SOL    HW120171   0.405   0.399   2.905  0.0784  0.4773  1.1011
 2846SOL    HW220172   0.263   0.417   2.912  1.0085 -1.2589  0.8402
 2847SOL     OW20173   2.383   4.051   8.183 -0.2906  0.0640 -0.4904
 2847SOL    HW120174   2.290   4.052   8.204 -0.5336 -2.1329 -1.4480
 2847SOL    HW220175   2.410   4.109   8.254  2.6021  1.1145 -2.4540
 2848SOL     OW20176   4.411   4.359   7.077 -0.6916 -0.4033 -0.1887
 2848SOL    HW120177   4.479   4.424   7.093 -0.9864 -0.4871  1.4211
 2848SOL    HW220178   4.402   4.373   6.983  0.7674 -0.5407 -0.3456
 2849SOL     OW20179   0.709   4.327   4.524 -0.0532  0.2221  0.9028
 2849SOL    HW120180   0.768   4.255   4.500 -0.0882  0.7859 -0.8787
 2849SOL    HW220181   0.639   4.312   4.460  0.8418 -0.8300  0.1601
 2850SOL     OW20182   2.265   3.777   3.087 -0.1106  0.0531 -0.6271
 2850SOL    HW120183   2.352   3.772   3.125 -0.4711 -1.9139 -0.1131
 2850SOL    HW220184   2.270   3.721   3.009 -0.2534  0.5463 -0.9974
 2851SOL     OW20185   3.017   0.830   7.427  0.2977  0.0116  0.0500
 2851SOL    HW120186   3.093   0.773   7.424  2.2280  2.5543  1.1330
 2851SOL    HW220187   2.999   0.856   7.336 -2.0973  0.5039  0.6453
 2852SOL     OW20188   1.025   0.914  16.828  0.0528  0.4335  0.0602
 2852SOL    HW120189   1.044   1.007  16.831 -0.0878  0.4192  1.1565
 2852SOL    HW220190   1.104   0.872  16.863 -0.0274  1.0313  0.9400
 2853SOL     OW20191   0.642   1.122  10.627 -0.0265 -0.2380  0.3480
 2853SOL    HW120192   0.669   1.211  10.645 -0.2927 -0.0290 -0.2721
 2853SOL    HW220193   0.548   1.134  10.610  0.1841 -1.5695 -1.8093
 2854SOL     OW20194   0.472   1.263   2.289 -0.4640  0.1264 -0.8557
 2854SOL    HW120195   0.421   1.183   2.275  0.4868 -0.6412  0.0187
 2854SOL    HW220196   0.541   1.236   2.228 -2.3982  0.7274 -3.3146
 2855SOL     OW20197   4.541   1.295   7.671  0.1314 -0.1146  0.1674
 2855SOL    HW120198   4.597   1.325   7.742 -0.4205  3.1179 -0.7346
 2855SOL    HW220199   4.498   1.369   7.627  0.7640  1.2197  1.8001
 2856SOL     OW20200   4.066   3.906   4.905  0.2796 -0.3054 -0.3463
 2856SOL    HW120201   4.108   3.831   4.863  0.7185  0.9858 -2.2124
 2856SOL    HW220202   4.096   3.892   4.995  0.6407 -1.4851 -0.6490
 2857SOL     OW20203   2.234   3.096   9.087  0.7350 -0.3763 -0.7389
 2857SOL    HW120204   2.310   3.050   9.124  0.8837  1.2696  1.0157
 2857SOL    HW220205   2.182   3.115   9.166  0.1030  0.7154 -1.4159
 2858SOL     OW20206   0.751   2.676   1.462 -0.1122 -0.4430 -0.1672
 2858SOL    HW120207   0.707   2.735   1.401  0.3239 -2.4626 -2.4455
 2858SOL    HW220208   0.715   2.589   1.442 -0.3088 -0.4458  0.2016
 2859SOL     OW20209   2.803   2.129   6.004  0.6422 -0.8864  0.4487
 2859SOL    HW120210   2.790   2.109   5.912 -0.9867 -1.3923  0.8058
 2859SOL    HW220211   2.880   2.187   6.002  0.4295 -0.6302 -0.2373
 2860SOL     OW20212   3.500   3.329  13.855  0.0185  0.3429  0.6349
 2860SOL    HW120213   3.565   3.303  13.789 -0.5262  0.3924  0.0834
 2860SOL    HW220214   3.545   3.305  13.936 -0.5949 -0.4572  0.7416
 2861SOL     OW20215   0.245   4.269   0.560  0.3685  0.4218 -0.1032
 2861SOL    HW120216   0.289   4.250   0.477  1.3925 -1.2919  0.8200
 2861SOL    HW220217   0.263   4.194   0.617  0.5251  0.9635  0.5653
 2862SOL     OW20218   0.803   2.994   6.829  0.2532  0.4404 -0.3571
 2862SOL    HW120219   0.779   2.924   6.768 -0.9771  1.3025 -0.8532
 2862SOL    HW220220   0.753   2.967   6.906 -2.4465 -1.1992 -2.6830
 2863SOL     OW20221   1.224   2.649   6.808  0.5219 -0.3721  0.1483
 2863SOL    HW120222   1.230   2.607   6.722  1.2657 -2.4006  1.1826
 2863SOL    HW220223   1.136   2.686   6.796 -0.1135 -1.8273  0.2295
 2864SOL     OW20224   4.260   1.086   4.764  0.8736 -0.1839 -0.0568
 2864SOL    HW120225   4.235   1.149   4.831  1.8406  0.5732 -0.4041
 2864SOL    HW220226   4.291   1.011   4.815  1.3165 -0.3126 -0.5116
 2865SOL     OW20227   0.459   2.367   9.278  0.2191 -0.4526  0.4657
 2865SOL    HW120228   0.499   2.325   9.355 -1.1832 -1.0803  0.8610
 2865SOL    HW220229   0.495   2.456   9.274  0.4639 -0.6209 -1.0357
 2866SOL     OW20230   0.496   3.758   3.068  0.5042 -0.0957 -0.1550
 2866SOL    HW120231   0.527   3.743   2.978 -1.9064  0.1664 -1.0225
 2866SOL    HW220232   0.404   3.763   3.041  0.2280 -1.1542  0.5775
 2867SOL     OW20233   3.795   2.757   5.396 -0.6234  0.4597 -0.2559
 2867SOL    HW120234   3.879   2.747   5.352  0.6930  0.3678  2.2748
 2867SOL    HW220235   3.801   2.800   5.482 -0.1828 -0.6824  0.2795
 2868SOL     OW20236   3.292   3.261   1.681 -0.2549 -0.2468  0.6068
 2868SOL    HW120237   3.204   3.275   1.717 -0.4499 -0.4319  0.2002
 2868SOL    HW220238   3.298   3.166   1.697  1.0218 -0.4531 -1.1593
 2869SOL     OW20239   2.816   4.339   6.608 -0.1753  0.3113  0.1992
 2869SOL    HW120240   2.766   4.320   6.687  1.5817  0.5473  1.3685
 2869SOL    HW220241   2.801   4.252   6.570 -0.4457  0.4433  0.0013
 2870SOL     OW20242   1.821   3.213   2.860 -0.0123 -0.2108  0.4268
 2870SOL    HW120243   1.826   3.117   2.862  0.4878 -0.2198 -1.3688
 2870SOL    HW220244   1.733   3.226   2.895  0.9483 -0.3129  2.8364
 2871SOL     OW20245   0.200   2.215   8.806  0.3605  0.3292 -0.6398
 2871SOL    HW120246   0.145   2.284   8.843  2.1619  0.7164  1.2732
 2871SOL    HW220247   0.278   2.259   8.774 -0.1077  0.1699 -1.9716
 2872SOL     OW20248   2.287   2.045   7.499  0.0960  0.6643 -0.2379
 2872SOL    HW120249   2.282   2.048   7.595 -1.8220 -0.6903 -0.3002
 2872SOL    HW220250   2.351   1.977   7.480  0.1677  0.8173 -0.5394
 2873SOL     OW20251   3.481   0.179   5.623  0.2875 -0.0263  0.3407
 2873SOL    HW120252   3.446   0.109   5.678 -0.5602 -0.9919 -1.4232
 2873SOL    HW220253   3.404   0.232   5.600  0.5129 -0.2789 -1.0164
 2874SOL     OW20254   1.932   2.104   1.803  0.3200  0.1901 -0.0724
 2874SOL    HW120255   1.905   2.155   1.726 -0.5943  0.0264  0.1497
 2874SOL    HW220256   1.867   2.035   1.795 -0.3573  0.9853 -1.4970
 2875SOL     OW20257   0.701   4.320  14.306  0.2115  0.1094  0.0454
 2875SOL    HW120258   0.683   4.407  14.343  2.4132  0.2010  0.8820
 2875SOL    HW220259   0.697   4.352  14.216 -1.5381  0.1312  0.1259
 2876SOL     OW20260   1.233   2.068   7.900 -0.3038  0.0408 -0.6370
 2876SOL    HW120261   1.304   2.108   7.949 -2.4381  3.1846 -0.1062
 2876SOL    HW220262   1.152   2.105   7.935 -0.7609  0.9019 -2.6070
 2877SOL     OW20263   1.965   2.742   7.212  0.3382  0.4985  0.6098
 2877SOL    HW120264   2.048   2.716   7.252  0.1510 -0.0648  0.6394
 2877SOL    HW220265   1.935   2.664   7.165  0.6419  1.2609 -0.8387
 2878SOL     OW20266   1.165   2.419   2.408  0.1778 -0.1450 -0.0866
 2878SOL    HW120267   1.130   2.431   2.320  1.6234  2.2304 -0.3243
 2878SOL    HW220268   1.169   2.324   2.425 -0.1840  0.2245  2.1483
 2879SOL     OW20269   1.508   2.505  15.727  0.2275 -0.0872 -0.5130
 2879SOL    HW120270   1.466   2.421  15.708 -0.9487  0.5065 -0.5267
 2879SOL    HW220271   1.519   2.502  15.822  1.7457  1.0825 -0.6528
 2880SOL     OW20272   0.595   3.698  16.608  0.1733 -0.8312 -0.4910
 2880SOL    HW120273   0.575   3.688  16.515  0.3633  1.2682 -0.7430
 2880SOL    HW220274   0.686   3.668  16.606  1.4422  2.9042  0.5141
 2881SOL     OW20275   0.202   3.881   3.292 -1.3397  0.1245  0.1334
 2881SOL    HW120276   0.215   3.837   3.208  1.3365 -2.0310  1.6527
 2881SOL    HW220277   0.269   3.838   3.346 -0.4973  1.5135  0.1865
 2882SOL     OW20278   3.955   4.225  13.063 -0.4204 -0.4529 -0.3874
 2882SOL    HW120279   3.997   4.154  13.111 -1.5960 -1.2712 -0.5687
 2882SOL    HW220280   3.919   4.163  12.999  2.1647 -2.4443  0.0569
 2883SOL     OW20281   0.034   4.333   4.774 -0.6489 -0.0031 -0.1959
 2883SOL    HW120282   0.081   4.411   4.805  0.9330 -0.6785 -0.8694
 2883SOL    HW220283   4.724   4.305   4.854  0.4914  1.6804  1.0427
 2884SOL     OW20284   2.120   1.143  12.652  0.2157 -0.9200 -0.5737
 2884SOL    HW120285   2.083   1.152  12.740  1.1029 -1.0449 -0.1914
 2884SOL    HW220286   2.159   1.230  12.642  0.2419 -0.9296 -0.5538
 2885SOL     OW20287   2.851   3.292   1.854 -0.3954  0.3669 -0.3558
 2885SOL    HW120288   2.942   3.313   1.836 -0.3318  0.4628  0.0861
 2885SOL    HW220289   2.819   3.374   1.891  1.2796 -0.0753  2.0644
 2886SOL     OW20290   0.957   1.522   1.954 -0.0506  0.6911 -0.4808
 2886SOL    HW120291   0.902   1.466   1.900 -0.3253 -0.2229  0.7465
 2886SOL    HW220292   0.974   1.597   1.898 -0.1350  0.8840 -0.2457
 2887SOL     OW20293   0.411   2.533   2.459  0.1302  0.7889 -0.0074
 2887SOL    HW120294   0.342   2.467   2.456 -1.4208  2.4514 -1.2589
 2887SOL    HW220295   0.386   2.592   2.531  0.5574  0.6208  0.2795
 2888SOL     OW20296   0.213   0.448  10.083 -0.3868 -0.1436 -0.4788
 2888SOL    HW120297   0.160   0.435  10.162  0.2418  1.6910  0.2427
 2888SOL    HW220298   0.278   0.508  10.119 -1.4214  1.2878 -1.0105
 2889SOL     OW20299   1.563   4.528   9.493 -0.2855  0.2116  0.1127
 2889SOL    HW120300   1.488   4.526   9.553 -0.2582  0.9192  0.1644
 2889SOL    HW220301   1.636   4.495   9.546  0.6467  0.1633 -1.2194
 2890SOL     OW20302   0.172   1.389   4.403  0.1403 -0.2023  0.0565
 2890SOL    HW120303   0.126   1.473   4.396 -0.5314 -0.3533  2.8302
 2890SOL    HW220304   0.204   1.384   4.312  0.6922 -0.2715  0.2518
 2891SOL     OW20305   0.034   2.848   6.835  0.1867  0.3624 -0.2787
 2891SOL    HW120306   4.682   2.812   6.812  0.7537 -1.2030  0.0553
 2891SOL    HW220307   0.099   2.778   6.840  0.1974  0.4046  0.1783
 2892SOL     OW20308   2.093   4.455   5.840  0.4715 -0.0094 -0.0560
 2892SOL    HW120309   2.043   4.432   5.762 -1.5245 -1.1224  1.5523
 2892SOL    HW220310   2.027   4.486   5.901  0.0415 -0.2705 -0.3899
 2893SOL     OW20311   4.711   2.687   1.280  0.4471  0.1001 -0.1221
 2893SOL    HW120312   0.055   2.637   1.258  0.5901  0.7147 -1.0231
 2893SOL    HW220313   0.011   2.732   1.357 -1.8271  1.5761  0.0297
 2894SOL     OW20314   2.268   3.710   6.680  0.0874 -0.9405 -0.2747
 2894SOL    HW120315   2.257   3.690   6.773 -0.2551  1.4759  0.2218
 2894SOL    HW220316   2.283   3.805   6.680  0.1828 -0.9595 -0.9750
 2895SOL     OW20317   3.849   3.961   2.358  0.2455 -0.4681 -0.1263
 2895SOL    HW120318   3.830   3.967   2.264 -0.2616 -1.7572 -0.1101
 2895SOL    HW220319   3.869   4.052   2.380 -1.0888 -0.3372  0.5577
 2896SOL     OW20320   0.128   1.750   1.498  0.1728 -0.2603 -0.2393
 2896SOL    HW120321   0.076   1.687   1.548  0.8624 -0.3749  0.3410
 2896SOL    HW220322   0.062   1.794   1.445  0.9637  2.1710  0.7803
 2897SOL     OW20323   0.833   2.027   2.188  0.1632  0.3877 -0.3450
 2897SOL    HW120324   0.809   2.116   2.217  0.5472  0.1557  0.6738
 2897SOL    HW220325   0.766   1.971   2.226  0.8989  0.5972  1.2652
 2898SOL     OW20326   2.169   1.021  15.278 -0.5308  0.6639 -0.1432
 2898SOL    HW120327   2.078   1.049  15.264 -0.1434  1.6723 -0.5666
 2898SOL    HW220328   2.184   1.050  15.368  0.0193 -0.5633  0.1598
 2899SOL     OW20329   3.425   0.839   5.518  0.1748 -0.2272 -0.2168
 2899SOL    HW120330   3.414   0.763   5.576 -0.1177  1.6257  2.1774
 2899SOL    HW220331   3.421   0.796   5.433  1.8546 -0.6987 -0.0555
 2900SOL     OW20332   1.050   0.915  12.672  0.2725 -0.3204 -0.2957
 2900SOL    HW120333   0.960   0.949  12.668  0.6941  0.3183 -4.8019
 2900SOL    HW220334   1.080   0.962  12.750  0.1574  1.4446 -1.2943
 2901SOL     OW20335   0.142   4.629   5.206  0.3348  0.6432  0.2141
 2901SOL    HW120336   0.075   4.690   5.177 -0.6861 -0.5706 -0.0161
 2901SOL    HW220337   0.094   4.571   5.266  0.7752  0.3249  0.2636
 2902SOL     OW20338   3.667   3.604  17.358  0.2595 -0.2685  0.3918
 2902SOL    HW120339   3.709   3.690  17.358  1.3492 -0.8020  0.2055
 2902SOL    HW220340   3.602   3.627  17.424 -0.9926 -0.6282 -0.7242
 2903SOL     OW20341   0.455   3.486   1.484  0.3401 -0.2627  0.3328
 2903SOL    HW120342   0.455   3.575   1.519 -1.1749  0.6452 -1.9912
 2903SOL    HW220343   0.369   3.472   1.445  0.7329 -0.8709 -0.3176
 2904SOL     OW20344   4.734   2.731   8.496  0.4496  0.0024  0.4105
 2904SOL    HW120345   0.026   2.688   8.577  0.4495 -0.8050 -0.0182
 2904SOL    HW220346   0.006   2.658   8.434 -3.5185 -0.8484  0.9972
 2905SOL     OW20347   3.874   4.456  12.137  0.2291 -0.0200 -0.1088
 2905SOL    HW120348   3.920   4.512  12.201 -1.6126  0.0318  1.1899
 2905SOL    HW220349   3.861   4.517  12.065  0.4578  1.4454  1.0663
 2906SOL     OW20350   0.319   4.525  16.500 -0.1940  0.1351 -0.2348
 2906SOL    HW120351   0.315   4.533  16.405  2.4109  2.5203 -0.1256
 2906SOL    HW220352   0.320   4.429  16.504  3.5837  0.1153 -1.0617
 2907SOL     OW20353   2.172   0.900  13.073 -0.3856 -0.4598 -0.3732
 2907SOL    HW120354   2.188   0.990  13.102  2.7864 -0.6259 -1.5691
 2907SOL    HW220355   2.234   0.849  13.126 -0.7987 -1.0673 -0.4771
 2908SOL     OW20356   3.776   4.048  10.989  0.7450 -0.3478  0.4249
 2908SOL    HW120357   3.850   4.042  11.050  0.6864 -2.1834  0.3169
 2908SOL    HW220358   3.736   3.961  10.996  0.8670 -0.3113  1.6780
 2909SOL     OW20359   4.522   0.337   0.740 -0.0384  0.0773 -0.3095
 2909SOL    HW120360   4.581   0.295   0.803  0.2695 -2.4984 -2.3307
 2909SOL    HW220361   4.579   0.406   0.706  0.7171 -0.7631 -0.7590
 2910SOL     OW20362   0.547   3.177   4.083 -0.2630  0.3529 -0.0927
 2910SOL    HW120363   0.596   3.126   4.018  1.3012  0.5772  0.9207
 2910SOL    HW220364   0.518   3.252   4.031 -0.6406  0.5599  0.4149
 2911SOL     OW20365   2.049   0.401   2.790  0.2042 -0.2773  0.4088
 2911SOL    HW120366   2.047   0.497   2.780 -2.0380 -0.1878  1.6861
 2911SOL    HW220367   1.963   0.382   2.751 -1.3997  3.9065  1.8930
 2912SOL     OW20368   0.819   0.787   2.537  0.2418 -0.0070 -0.1371
 2912SOL    HW120369   0.883   0.778   2.608  0.4342 -0.8809 -0.4169
 2912SOL    HW220370   0.872   0.815   2.462 -0.7201 -0.0988 -0.8537
 2913SOL     OW20371   1.195   1.931   3.161 -0.3609  0.5334  0.7367
 2913SOL    HW120372   1.204   1.836   3.172  1.6441  0.5588 -0.5601
 2913SOL    HW220373   1.147   1.951   3.241 -2.3816  0.2852 -0.4154
 2914SOL     OW20374   3.246   3.756   8.394  0.0776  0.8046 -0.2755
 2914SOL    HW120375   3.307   3.815   8.351 -0.7087  3.0845  1.7137
 2914SOL    HW220376   3.299   3.714   8.461 -1.0834 -1.7964 -1.0065
 2915SOL     OW20377   1.522   2.660   7.551 -0.1783 -0.0834 -0.0581
 2915SOL    HW120378   1.477   2.576   7.552  0.6075 -0.5050 -0.4764
 2915SOL    HW220379   1.610   2.629   7.571 -0.5570 -1.5383 -0.6724
 2916SOL     OW20380   3.264   1.244   7.949 -0.1855  0.4371 -0.2140
 2916SOL    HW120381   3.251   1.210   8.037  1.9553  1.6557  0.5613
 2916SOL    HW220382   3.345   1.294   7.956  0.5107 -0.5751 -0.9782
 2917SOL     OW20383   3.296   2.680   5.414  0.5155 -0.1171 -0.7498
 2917SOL    HW120384   3.327   2.766   5.444  2.8905 -1.0926 -0.3420
 2917SOL    HW220385   3.331   2.626   5.485 -2.3426 -2.1668 -0.9253
 2918SOL     OW20386   3.038   4.642  12.613  0.0592 -0.5394 -0.6618
 2918SOL    HW120387   3.110   4.589  12.646 -0.4465 -0.2518  0.9328
 2918SOL    HW220388   3.038   4.615  12.522  2.4754 -0.8018 -0.5703
 2919SOL     OW20389   1.260   3.864   5.525 -0.2610 -0.2947  0.2826
 2919SOL    HW120390   1.266   3.791   5.587 -2.7097 -0.0676  0.7811
 2919SOL    HW220391   1.190   3.834   5.467  0.3220 -1.1818  0.0233
 2920SOL     OW20392   1.987   3.837  13.276 -0.6426  0.1478 -0.0552
 2920SOL    HW120393   1.975   3.813  13.184  0.0316  2.1015 -0.6501
 2920SOL    HW220394   2.082   3.832  13.285 -0.9801 -0.6164  3.1245
 2921SOL     OW20395   3.794   1.708   6.285 -1.1427  0.2368  0.0110
 2921SOL    HW120396   3.815   1.712   6.192  2.1300  2.4277  0.8773
 2921SOL    HW220397   3.771   1.799   6.302 -0.0637  0.8003 -1.5821
 2922SOL     OW20398   3.086   0.774  17.376  0.6807 -0.6636  0.2467
 2922SOL    HW120399   3.150   0.723  17.327 -0.9983 -0.0997 -2.5465
 2922SOL    HW220400   3.147   0.820  17.433  0.4221 -1.1639  0.9238
 2923SOL     OW20401   3.167   1.791   8.638  0.1605  0.3897 -0.1016
 2923SOL    HW120402   3.114   1.712   8.646  0.7082 -0.0845 -1.1258
 2923SOL    HW220403   3.108   1.854   8.680  0.6314  0.3368  0.6486
 2924SOL     OW20404   2.400   1.127   9.322 -0.2794  0.0823 -0.3794
 2924SOL    HW120405   2.310   1.105   9.296  0.1498 -0.0120 -1.8197
 2924SOL    HW220406   2.400   1.089   9.410  1.0118  2.4268  0.6137
 2925SOL     OW20407   1.956   0.766   4.994 -0.6215  0.0892 -0.0548
 2925SOL    HW120408   1.913   0.798   4.915 -2.5453 -1.3274  0.4020
 2925SOL    HW220409   1.938   0.839   5.053 -2.9234 -1.3025  0.9889
 2926SOL     OW20410   3.989   4.195   6.857  0.0835 -0.0775  0.1535
 2926SOL    HW120411   3.967   4.118   6.911  1.3912 -0.7338 -0.2477
 2926SOL    HW220412   4.018   4.257   6.924 -0.5469 -0.5073  0.8268
 2927SOL     OW20413   4.063   0.402  12.173  0.4354  0.4629 -0.1345
 2927SOL    HW120414   4.031   0.382  12.261 -1.2226 -4.2325 -1.8131
 2927SOL    HW220415   3.980   0.404  12.125  0.4434  0.7087 -0.1354
 2928SOL     OW20416   0.077   2.445   5.463  0.0472  0.2804 -0.5025
 2928SOL    HW120417   0.121   2.468   5.381 -0.6038 -0.3311 -1.0256
 2928SOL    HW220418   0.106   2.356   5.484  2.2520  0.8119 -1.3166
 2929SOL     OW20419   0.952   3.759   2.911 -0.0204 -0.0259 -0.2469
 2929SOL    HW120420   0.887   3.723   2.850  2.6540 -0.3333 -2.9325
 2929SOL    HW220421   0.917   3.737   2.997  1.8891 -1.0131  0.2851
 2930SOL     OW20422   2.917   4.333  13.624 -0.0376 -0.2284 -0.5494
 2930SOL    HW120423   2.856   4.262  13.645  0.2509 -0.0853  0.7101
 2930SOL    HW220424   2.930   4.322  13.529  1.2119  1.1575 -0.5208
 2931SOL     OW20425   1.513   1.336   9.257  0.2278 -0.6885 -0.0253
 2931SOL    HW120426   1.466   1.419   9.248 -2.4058 -2.1956 -0.1901
 2931SOL    HW220427   1.588   1.348   9.199  0.3551  1.6756  0.6148
 2932SOL     OW20428   4.318   3.573  10.657 -0.3905  0.3015 -0.2921
 2932SOL    HW120429   4.352   3.492  10.693 -1.4749 -0.3360 -0.6883
 2932SOL    HW220430   4.381   3.581  10.586 -0.9629 -2.1927 -1.0763
 2933SOL     OW20431   2.018   4.410  16.909  0.3194 -0.4391  0.0251
 2933SOL    HW120432   2.037   4.497  16.874 -3.3618  0.1381 -0.5675
 2933SOL    HW220433   2.019   4.444  16.998 -2.7008  0.9164 -0.4677
 2934SOL     OW20434   0.689   0.549  11.747 -0.6808  0.1771 -0.1180
 2934SOL    HW120435   0.671   0.552  11.654  0.3968 -1.2569 -0.3726
 2934SOL    HW220436   0.737   0.467  11.753 -2.0320 -0.4555  2.1764
 2935SOL     OW20437   0.624   4.403   1.649  0.8793 -0.6052  0.0096
 2935SOL    HW120438   0.604   4.424   1.558 -1.1646  0.0218  0.6036
 2935SOL    HW220439   0.551   4.350   1.680  1.3943 -0.4234  1.5853
 2936SOL     OW20440   4.016   3.940   2.660 -0.5005 -0.2756  0.1836
 2936SOL    HW120441   3.943   3.999   2.641 -1.1674 -0.7272  1.3341
 2936SOL    HW220442   4.048   3.924   2.571  0.9453 -2.0349  1.0123
 2937SOL     OW20443   2.381   2.785   8.342 -0.0252 -0.0945 -0.2165
 2937SOL    HW120444   2.358   2.702   8.383 -0.0242  0.5326  1.0474
 2937SOL    HW220445   2.450   2.813   8.401  0.7739 -3.0168  0.2003
 2938SOL     OW20446   1.438   2.889   2.663  0.1192  0.2343 -0.1015
 2938SOL    HW120447   1.445   2.819   2.727  1.0525  0.2476 -0.1855
 2938SOL    HW220448   1.504   2.867   2.597 -1.0400 -1.0557 -0.8120
 2939SOL     OW20449   3.952   4.680   2.457 -0.2237  0.9599  0.2683
 2939SOL    HW120450   3.867   4.641   2.435  1.3315 -0.8225 -2.5758
 2939SOL    HW220451   3.982   4.600   2.501  0.5372  1.3956  0.5247
 2940SOL     OW20452   0.628   3.080  14.699 -0.4991  0.3286 -0.5170
 2940SOL    HW120453   0.576   2.999  14.707  0.7966 -0.6077 -1.6452
 2940SOL    HW220454   0.702   3.055  14.645 -0.4825 -0.1808 -0.2593
 2941SOL     OW20455   3.436   2.672   4.753 -0.5213 -0.4585 -0.3511
 2941SOL    HW120456   3.481   2.736   4.808 -1.6423 -0.6438  0.7781
 2941SOL    HW220457   3.385   2.736   4.704 -4.0272 -1.5709  1.7928
 2942SOL     OW20458   3.037   1.747   7.755  0.3861  0.4211 -0.0042
 2942SOL    HW120459   2.974   1.784   7.816 -0.0445  0.2712 -0.3594
 2942SOL    HW220460   3.037   1.815   7.688 -1.4026  1.0056  0.6029
 2943SOL     OW20461   2.280   1.164   4.125  0.2236 -0.5457  0.1092
 2943SOL    HW120462   2.218   1.238   4.126 -0.8805 -1.4884  2.0208
 2943SOL    HW220463   2.285   1.152   4.030  0.6807 -1.5813  0.2703
 2944SOL     OW20464   0.173   0.384  11.746 -0.5088  0.1721  0.3884
 2944SOL    HW120465   0.221   0.302  11.758 -2.0858 -0.6432  1.0633
 2944SOL    HW220466   0.248   0.432  11.709  0.8813 -1.1402  1.5216
 2945SOL     OW20467   1.223   2.416  16.278  0.0791 -0.4317 -0.5087
 2945SOL    HW120468   1.201   2.489  16.336  1.4509 -0.7983  0.4831
 2945SOL    HW220469   1.161   2.349  16.304 -1.6841  1.6129  0.5010
 2946SOL     OW20470   2.453   2.673   7.059 -0.0967 -0.0590 -0.5234
 2946SOL    HW120471   2.499   2.740   7.110 -0.3296  0.5729 -1.1573
 2946SOL    HW220472   2.450   2.606   7.128  1.0609 -0.6294 -1.0322
 2947SOL     OW20473   2.066   0.947   5.218 -0.0644  0.2047  0.1672
 2947SOL    HW120474   2.131   0.982   5.158  0.3198 -0.8818 -0.0563
 2947SOL    HW220475   1.983   0.988   5.195 -0.2026 -0.4067 -0.4343
 2948SOL     OW20476   1.820   0.658  10.252 -0.4892 -0.7224 -0.3513
 2948SOL    HW120477   1.808   0.675  10.159  2.7928  0.6508 -0.4949
 2948SOL    HW220478   1.831   0.747  10.285  0.8446 -0.9189 -0.2801
 2949SOL     OW20479   4.068   4.677   2.738  0.6914  0.4828  0.1416
 2949SOL    HW120480   4.004   0.001   2.696 -1.8496 -0.9619  2.0071
 2949SOL    HW220481   4.006   4.649   2.806 -2.0337  0.9736 -2.1258
 2950SOL     OW20482   1.718   2.189   8.089  0.0771 -1.1692  0.2755
 2950SOL    HW120483   1.768   2.255   8.041  1.7700 -0.7692  2.5909
 2950SOL    HW220484   1.741   2.108   8.043 -0.0755  0.6241 -2.8950
 2951SOL     OW20485   2.879   3.454  14.968 -1.0360 -0.1341 -0.4323
 2951SOL    HW120486   2.792   3.488  14.950 -1.2778 -0.4039  0.2277
 2951SOL    HW220487   2.854   3.391  15.035 -1.7885  0.9917  0.3377
 2952SOL     OW20488   2.587   0.467  10.631  0.2787  0.3843  0.6642
 2952SOL    HW120489   2.670   0.496  10.593  0.5861 -1.0574  0.2564
 2952SOL    HW220490   2.571   0.547  10.682  1.0360  0.6077  0.5580
 2953SOL     OW20491   1.518   0.820   7.784  0.1790 -0.6340  0.1709
 2953SOL    HW120492   1.522   0.748   7.848  2.9731 -1.3533 -0.8399
 2953SOL    HW220493   1.441   0.791   7.735 -1.4303  2.9215  0.5329
 2954SOL     OW20494   2.661   0.794   0.298 -0.4239  0.1643 -0.3953
 2954SOL    HW120495   2.579   0.804   0.250 -1.3410  1.5253  1.4802
 2954SOL    HW220496   2.713   0.745   0.234  0.2764  1.6076 -0.9472
 2955SOL     OW20497   4.094   1.710  15.298  0.1744 -0.5960 -0.1689
 2955SOL    HW120498   4.121   1.652  15.369 -1.2881  0.4203  1.2364
 2955SOL    HW220499   3.999   1.709  15.315 -0.2301  1.7164 -2.3160
 2956SOL     OW20500   0.161   0.888   6.412 -0.1891 -0.6425 -0.1281
 2956SOL    HW120501   0.149   0.924   6.500 -0.5007 -2.8154  0.6988
 2956SOL    HW220502   0.072   0.863   6.388 -0.4787 -0.2053  0.5011
 2957SOL     OW20503   0.337   1.762   9.868 -0.3945  0.0136  0.1078
 2957SOL    HW120504   0.309   1.718   9.948 -2.2230  2.8245  1.0465
 2957SOL    HW220505   0.320   1.854   9.891 -1.7810 -0.1858 -0.0985
 2958SOL     OW20506   1.431   1.305  13.695  0.0493 -0.5981 -0.1225
 2958SOL    HW120507   1.392   1.379  13.649 -3.0890 -2.4627 -0.5210
 2958SOL    HW220508   1.523   1.312  13.672 -0.1150 -0.8496 -0.8486
 2959SOL     OW20509   4.204   1.058   4.067  0.3969  0.0157  0.6590
 2959SOL    HW120510   4.300   1.051   4.074  0.5174 -1.1241 -2.3864
 2959SOL    HW220511   4.197   1.112   4.146  0.3067  0.6737  0.2053
 2960SOL     OW20512   1.399   2.637  13.358 -0.3522 -0.1338  0.2980
 2960SOL    HW120513   1.487   2.672  13.366  0.3596 -1.9088  0.1667
 2960SOL    HW220514   1.344   2.715  13.371 -0.0561  0.4523 -1.8672
 2961SOL     OW20515   0.382   0.378  12.860 -0.1396  0.3555 -0.1895
 2961SOL    HW120516   0.309   0.438  12.846  0.1654  0.2845 -2.0727
 2961SOL    HW220517   0.347   0.293  12.888  0.6091  0.3463  0.7388
 2962SOL     OW20518   3.769   0.767   5.667  0.3100 -0.1863 -0.5719
 2962SOL    HW120519   3.714   0.845   5.655  0.6608 -0.1877 -2.3147
 2962SOL    HW220520   3.721   0.702   5.616 -2.6751  0.8114  1.0205
 2963SOL     OW20521   0.499   4.069   2.327  0.0852  0.1835  0.2835
 2963SOL    HW120522   0.434   4.136   2.305 -0.1794 -0.1331  0.1020
 2963SOL    HW220523   0.493   4.059   2.422 -2.6100  2.7111  0.3815
 2964SOL     OW20524   1.528   3.346   0.898 -0.4897  0.1760  0.4929
 2964SOL    HW120525   1.610   3.304   0.873 -0.2440  1.1108 -0.2762
 2964SOL    HW220526   1.453   3.293   0.869 -1.0471  1.6681 -0.8090
 2965SOL     OW20527   1.270   2.341   5.591 -0.0174 -0.0953 -0.0782
 2965SOL    HW120528   1.192   2.347   5.535  0.8788 -2.3308 -1.5637
 2965SOL    HW220529   1.250   2.280   5.661 -0.4256 -0.6586 -0.6853
 2966SOL     OW20530   0.745   2.575  14.834  0.8123 -0.2754  0.1833
 2966SOL    HW120531   0.832   2.551  14.802  0.2012 -0.2370 -1.5391
 2966SOL    HW220532   0.718   2.487  14.861 -1.4725  0.6684  0.9943
 2967SOL     OW20533   0.569   0.192   8.305 -0.0767  0.5321  0.0396
 2967SOL    HW120534   0.575   0.286   8.322  0.8928  0.2707  1.1706
 2967SOL    HW220535   0.556   0.181   8.211 -0.3624 -0.3894  0.1832
 2968SOL     OW20536   0.321   4.179  15.205  0.1481 -0.2855  0.2916
 2968SOL    HW120537   0.402   4.148  15.246 -1.1064 -0.6390  2.5249
 2968SOL    HW220538   0.274   4.096  15.207 -2.8462  1.3629 -0.6818
 2969SOL     OW20539   1.460   0.369   3.936  0.0668  0.0731 -0.2545
 2969SOL    HW120540   1.433   0.398   4.022  1.5220 -1.1844  0.6337
 2969SOL    HW220541   1.374   0.356   3.894 -0.6132 -1.5697  1.6375
 2970SOL     OW20542   3.679   2.730   8.034 -0.5828 -0.2803  0.2440
 2970SOL    HW120543   3.654   2.822   8.041  1.8825  0.3978  0.3034
 2970SOL    HW220544   3.730   2.730   7.953 -1.6940 -1.4591 -0.4544
 2971SOL     OW20545   2.918   0.094  13.036 -0.0485 -0.0403 -0.1559
 2971SOL    HW120546   2.940   0.150  13.111 -0.6414 -0.2312  0.1580
 2971SOL    HW220547   3.009   0.088  13.006  0.8979  2.5436  2.1153
 2972SOL     OW20548   3.914   0.969  14.526  0.1311 -0.0353  0.2671
 2972SOL    HW120549   3.902   0.927  14.441  0.6271  0.9199 -0.2794
 2972SOL    HW220550   3.941   0.895  14.579 -3.2959 -3.0501 -2.1681
 2973SOL     OW20551   4.071   3.399  17.535  0.0152 -0.1621  0.1537
 2973SOL    HW120552   4.040   3.394  17.445  2.1549 -0.2953 -0.5850
 2973SOL    HW220553   3.993   3.366  17.580 -0.8580 -1.2281 -2.1570
 2974SOL     OW20554   2.421   1.958   1.240 -0.0726 -0.0955 -0.0485
 2974SOL    HW120555   2.452   2.027   1.182 -2.7009  1.2189  0.1127
 2974SOL    HW220556   2.444   1.878   1.193  3.8232 -0.4357  2.4761
 2975SOL     OW20557   0.937   0.090   2.640 -0.0225 -0.3284 -0.2579
 2975SOL    HW120558   0.908   0.026   2.575  1.7376 -0.2940 -1.0850
 2975SOL    HW220559   1.029   0.066   2.629 -0.1398 -1.4997  1.3265
 2976SOL     OW20560   0.416   1.564   3.014  0.0936 -0.3157  0.3028
 2976SOL    HW120561   0.329   1.540   3.046 -0.0042 -0.4390 -0.0517
 2976SOL    HW220562   0.407   1.548   2.920 -0.7768 -1.9057  0.6683
 2977SOL     OW20563   3.698   1.612   8.014  0.0458 -0.3426  0.4938
 2977SOL    HW120564   3.702   1.675   7.942 -1.1189 -3.8595 -2.6924
 2977SOL    HW220565   3.613   1.634   8.053  0.7054  2.6533  0.1877
 2978SOL     OW20566   2.834   0.115  14.246 -0.1071 -0.3486 -0.0069
 2978SOL    HW120567   2.820   0.207  14.226 -0.1070 -0.3899 -0.2009
 2978SOL    HW220568   2.783   0.085  14.170 -0.1127 -0.3125 -0.0174
 2979SOL     OW20569   3.912   2.138   9.161 -0.8433 -0.8107  0.4048
 2979SOL    HW120570   3.977   2.085   9.208 -0.9639  0.1686  1.6842
 2979SOL    HW220571   3.887   2.068   9.101 -1.3656  0.7835 -1.2105
 2980SOL     OW20572   2.270   0.881   5.389 -0.3652 -0.1121  0.5503
 2980SOL    HW120573   2.223   0.810   5.433  0.2855 -0.9572 -0.1213
 2980SOL    HW220574   2.212   0.891   5.313 -0.3597 -2.0150  0.3172
 2981SOL     OW20575   1.536   2.656   9.979  0.0574  0.1186 -0.4408
 2981SOL    HW120576   1.606   2.719   9.996 -1.5490  1.4308  1.2655
 2981SOL    HW220577   1.459   2.700  10.015  0.9563  1.4377 -0.1421
 2982SOL     OW20578   0.847   4.161   7.889  0.2623 -0.2803  0.3572
 2982SOL    HW120579   0.924   4.202   7.928  0.4719 -0.1299 -0.2240
 2982SOL    HW220580   0.868   4.167   7.796 -0.8426  0.3706  0.1511
 2983SOL     OW20581   0.290   0.211   4.079  0.2323 -0.1414  0.2899
 2983SOL    HW120582   0.276   0.269   4.154  0.2362  1.4044 -0.9080
 2983SOL    HW220583   0.386   0.209   4.075  0.2701  1.4302  0.5427
 2984SOL     OW20584   2.613   1.919  13.024  0.0434  0.1127  0.2207
 2984SOL    HW120585   2.675   1.984  12.992 -0.7007  0.0530 -1.3419
 2984SOL    HW220586   2.663   1.878  13.095 -0.3329  0.5552  0.7359
 2985SOL     OW20587   1.192   0.522   6.334  0.6780  0.2419 -0.0333
 2985SOL    HW120588   1.172   0.483   6.250  1.7901 -0.3075 -0.0362
 2985SOL    HW220589   1.122   0.586   6.348 -0.5323 -0.8040 -1.4069
 2986SOL     OW20590   4.417   3.513   1.236 -0.5713  0.3135 -0.0487
 2986SOL    HW120591   4.489   3.465   1.277 -1.2537  0.0340  0.8037
 2986SOL    HW220592   4.343   3.454   1.239 -1.5228  1.4562 -1.1213
 2987SOL     OW20593   3.790   1.162   4.258 -0.3495 -0.0030 -0.3991
 2987SOL    HW120594   3.860   1.212   4.300  0.8256 -1.5597 -0.5203
 2987SOL    HW220595   3.723   1.230   4.266 -0.9693 -0.4803 -1.5704
 2988SOL     OW20596   1.340   1.710   9.860  0.2850  0.4099  0.0504
 2988SOL    HW120597   1.415   1.708   9.800 -0.5034  1.6869 -0.9915
 2988SOL    HW220598   1.309   1.800   9.850  0.3140  0.4879  0.6791
 2989SOL     OW20599   2.227   2.527  12.935  0.0889  0.1107  0.1481
 2989SOL    HW120600   2.191   2.502  12.850  0.9834  0.9713 -0.4917
 2989SOL    HW220601   2.280   2.449  12.951  1.1933  1.1731  1.6345
 2990SOL     OW20602   0.343   1.145   5.193  0.0804 -0.9540  0.4193
 2990SOL    HW120603   0.387   1.128   5.276  1.3088 -0.0359 -0.0522
 2990SOL    HW220604   0.249   1.145   5.214 -0.1209 -0.8385 -0.4791
 2991SOL     OW20605   1.216   4.398   7.748 -0.6294 -0.3944 -0.1644
 2991SOL    HW120606   1.269   4.323   7.723  1.7616  0.4394  2.4751
 2991SOL    HW220607   1.183   4.428   7.663  1.2933 -1.6356 -1.3412
 2992SOL     OW20608   4.478   4.344   4.289  0.2682 -0.2804  0.2748
 2992SOL    HW120609   4.406   4.377   4.236 -0.9050 -1.5518  1.0638
 2992SOL    HW220610   4.439   4.260   4.313 -1.4701  0.5418  0.3600
 2993SOL     OW20611   0.692   4.153   6.617  0.0690 -0.1757  0.1769
 2993SOL    HW120612   0.716   4.241   6.589 -0.4946  0.2141  0.9077
 2993SOL    HW220613   0.618   4.129   6.560 -0.5799  2.2874 -0.0295
 2994SOL     OW20614   0.428   4.338   2.225 -0.9073  0.4463 -0.0941
 2994SOL    HW120615   0.496   4.403   2.210  1.0833 -1.3007  1.3995
 2994SOL    HW220616   0.354   4.371   2.174 -1.2683 -2.1382 -1.2289
 2995SOL     OW20617   2.694   3.707   5.976  0.4547 -0.0006 -0.5870
 2995SOL    HW120618   2.741   3.742   5.901  0.9562 -2.1843 -1.2606
 2995SOL    HW220619   2.609   3.751   5.968 -0.3928 -1.6826 -0.7901
 2996SOL     OW20620   1.934   1.888  13.649 -0.2200  0.4624  0.3008
 2996SOL    HW120621   1.890   1.810  13.615  0.2463  0.0564  0.6401
 2996SOL    HW220622   2.017   1.877  13.604 -0.3409 -2.6802  0.8902
 2997SOL     OW20623   4.527   3.144   0.691 -0.2131  0.4306 -0.7073
 2997SOL    HW120624   4.486   3.067   0.652 -1.3949  0.7369 -0.0829
 2997SOL    HW220625   4.447   3.181   0.728  0.4025  0.3621  0.6762
 2998SOL     OW20626   1.668   1.901   9.973 -0.1879 -0.1586  0.3508
 2998SOL    HW120627   1.614   1.935  10.044 -1.2615 -3.2529  0.9920
 2998SOL    HW220628   1.721   1.980   9.962  1.4453 -1.3714 -0.5408
 2999SOL     OW20629   1.960   0.612  14.448 -0.4967  0.1888  0.2974
 2999SOL    HW120630   2.004   0.628  14.531 -0.2839  2.9112 -0.3299
 2999SOL    HW220631   1.967   0.518  14.461 -2.8362 -0.0035  0.2168
 3000SOL     OW20632   1.654   1.319   7.422 -0.5455 -0.1997  0.6425
 3000SOL    HW120633   1.562   1.337   7.403  0.1263  2.8434  0.2654
 3000SOL    HW220634   1.669   1.367   7.503 -0.1840 -0.8147  0.9392
 3001SOL     OW20635   3.463   3.665   0.114  0.1500 -0.5355  0.5816
 3001SOL    HW120636   3.510   3.666   0.197  1.0434  1.7420  0.0335
 3001SOL    HW220637   3.385   3.624   0.150 -0.3095 -0.8702 -0.7863
 3002SOL     OW20638   1.356   0.635   6.652 -0.5031 -0.0902  0.2326
 3002SOL    HW120639   1.386   0.590   6.731  0.0261 -1.5606 -0.8145
 3002SOL    HW220640   1.427   0.697   6.638  0.0049 -0.1398  2.5130
 3003SOL     OW20641   3.234   2.743   6.728  0.1245 -0.0592 -0.3804
 3003SOL    HW120642   3.304   2.765   6.666 -0.9719  2.7307 -0.6272
 3003SOL    HW220643   3.290   2.720   6.802  0.1638 -0.3384 -0.4966
 3004SOL     OW20644   2.290   3.690   2.672 -0.1550 -0.0515  0.2358
 3004SOL    HW120645   2.270   3.616   2.615  0.5675 -0.7636  0.9201
 3004SOL    HW220646   2.283   3.651   2.759 -2.9384  0.7731  0.3693
 3005SOL     OW20647   1.581   2.563   6.667  0.0144 -0.2901  0.6778
 3005SOL    HW120648   1.643   2.557   6.594 -2.2272  0.1060 -1.2418
 3005SOL    HW220649   1.550   2.474   6.679 -1.2906  0.4360  2.8675
 3006SOL     OW20650   2.066   3.145   4.952  0.2609  0.8178  0.5974
 3006SOL    HW120651   2.089   3.169   5.042 -0.6839  1.1326  0.7514
 3006SOL    HW220652   2.065   3.227   4.902 -0.5740 -0.4832 -1.5114
 3007SOL     OW20653   0.414   2.462  10.218  0.2532  0.3014 -0.0749
 3007SOL    HW120654   0.393   2.373  10.245 -0.8185  0.8106  0.7788
 3007SOL    HW220655   0.328   2.504  10.224  0.1465  0.0369  0.2761
 3008SOL     OW20656   2.809   0.160   8.078 -0.1985 -0.0654  0.2672
 3008SOL    HW120657   2.724   0.168   8.122 -0.2503  0.2244  0.1158
 3008SOL    HW220658   2.784   0.200   7.995 -0.9215  1.0047  0.9922
 3009SOL     OW20659   2.554   3.608  12.143  0.7553 -0.2174  0.4134
 3009SOL    HW120660   2.625   3.593  12.081 -0.5013 -0.8800 -0.8509
 3009SOL    HW220661   2.608   3.667  12.196  0.7667 -0.4580  0.6701
 3010SOL     OW20662   0.655   3.819   4.232 -0.2972 -0.1379  0.1135
 3010SOL    HW120663   0.646   3.737   4.183 -1.6672  0.6900 -1.0309
 3010SOL    HW220664   0.603   3.813   4.312 -2.4631  1.2973 -1.1982
 3011SOL     OW20665   1.218   2.579  15.432 -0.5702 -0.1039 -0.3109
 3011SOL    HW120666   1.164   2.500  15.435 -0.0440 -0.4264  0.7135
 3011SOL    HW220667   1.157   2.638  15.389  0.4951  0.6477 -0.7737
 3012SOL     OW20668   1.375   3.938  17.409 -0.1571  0.1745 -0.5628
 3012SOL    HW120669   1.399   4.015  17.359 -0.5478  1.3579  1.0548
 3012SOL    HW220670   1.374   3.878  17.335 -1.3705  0.0537 -0.4503
 3013SOL     OW20671   1.385   3.954   3.097 -0.0182  0.2698  0.3263
 3013SOL    HW120672   1.450   3.963   3.028  0.4838 -0.2769  0.7376
 3013SOL    HW220673   1.369   3.861   3.085 -1.3777  0.4149  0.9707
 3014SOL     OW20674   2.001   3.583   6.913 -0.1700  0.2983  0.2720
 3014SOL    HW120675   1.909   3.557   6.926  0.3895 -0.6279  2.4032
 3014SOL    HW220676   2.002   3.574   6.818  1.1102  0.7849  0.2367
 3015SOL     OW20677   0.811   3.802   2.131  0.4118 -0.2858 -0.3022
 3015SOL    HW120678   0.896   3.831   2.164  0.3180 -0.6945  0.3069
 3015SOL    HW220679   0.813   3.709   2.151 -0.3827  0.2846  2.5047
 3016SOL     OW20680   3.704   2.183   3.654  0.0197  0.0416  0.1998
 3016SOL    HW120681   3.795   2.179   3.623  0.7148  2.1042  2.0121
 3016SOL    HW220682   3.712   2.145   3.741 -0.9471 -0.0517  0.2527
 3017SOL     OW20683   4.703   3.839   9.641  0.2896 -0.4472  0.0970
 3017SOL    HW120684   4.720   3.772   9.575  0.9124  0.1992 -0.4076
 3017SOL    HW220685   4.682   3.796   9.724  3.0230 -2.6259 -0.3568
 3018SOL     OW20686   2.936   4.589   2.452 -0.1395 -0.3943  0.5814
 3018SOL    HW120687   2.938   4.544   2.536  4.3178 -0.0662  0.6519
 3018SOL    HW220688   2.844   4.612   2.444  0.2589  1.5755  1.8037
 3019SOL     OW20689   4.549   1.888   2.000 -0.1494  0.7016  0.1969
 3019SOL    HW120690   4.619   1.824   1.988  0.0940  1.2067 -1.0575
 3019SOL    HW220691   4.498   1.841   2.066  0.3383  1.7161  1.2956
 3020SOL     OW20692   0.294   2.201   9.141 -0.2811 -0.2545  0.4822
 3020SOL    HW120693   0.316   2.288   9.174  2.3831 -0.0430 -1.9230
 3020SOL    HW220694   0.330   2.139   9.205  0.9851 -0.5072 -0.5028
 3021SOL     OW20695   3.497   1.492   5.518  0.4246  0.1479  0.1618
 3021SOL    HW120696   3.455   1.553   5.458  1.0452  0.4689  0.0530
 3021SOL    HW220697   3.584   1.472   5.483  0.5323  0.1363  0.4359
 3022SOL     OW20698   1.196   3.754   7.344 -0.6103 -0.3873  0.0943
 3022SOL    HW120699   1.131   3.738   7.412 -1.1160 -0.2917 -0.3603
 3022SOL    HW220700   1.201   3.669   7.300 -1.2530 -1.0583  1.3350
 3023SOL     OW20701   0.136   3.358   8.035  0.0412 -0.6856  0.1090
 3023SOL    HW120702   0.096   3.384   8.118  0.9450 -0.7993  0.5828
 3023SOL    HW220703   0.161   3.436   7.986  1.0276 -0.9578  0.1864
 3024SOL     OW20704   0.156   1.986   1.892 -0.3255  0.0575 -0.0273
 3024SOL    HW120705   0.109   1.902   1.885  0.4878 -0.5332  1.6044
 3024SOL    HW220706   0.206   1.984   1.810 -0.2228  1.0124  0.0190
 3025SOL     OW20707   4.549   1.950  11.679 -0.2070 -0.6250  0.1157
 3025SOL    HW120708   4.576   2.040  11.700  3.2378 -1.8878  0.9335
 3025SOL    HW220709   4.628   1.906  11.709  1.0439  1.0712 -0.6755
 3026SOL     OW20710   2.617   4.051   8.633 -0.3696 -0.2908 -0.3085
 3026SOL    HW120711   2.662   4.067   8.550 -0.4812  0.6236 -0.1884
 3026SOL    HW220712   2.682   4.089   8.692  0.6404 -0.4924 -1.2904
 3027SOL     OW20713   0.984   4.112  16.496  0.0023 -0.3085 -0.0262
 3027SOL    HW120714   1.044   4.148  16.430 -1.2658  1.1174 -0.4074
 3027SOL    HW220715   0.917   4.181  16.497 -0.9052 -1.1857  0.3096
 3028SOL     OW20716   3.052   4.347  17.601  0.0999  0.3805  0.3324
 3028SOL    HW120717   3.146   4.328  17.605 -0.5728 -2.8137  0.2646
 3028SOL    HW220718   3.038   4.312  17.513  1.3063 -0.2879  0.4042
 3029SOL     OW20719   1.794   1.406   4.652 -0.5798 -0.2421 -0.2832
 3029SOL    HW120720   1.801   1.427   4.746 -0.2652  0.7787 -0.5378
 3029SOL    HW220721   1.839   1.322   4.638  2.6030  1.4455 -0.1727
 3030SOL     OW20722   0.514   2.457   0.240  0.8281 -0.3191  0.0917
 3030SOL    HW120723   0.455   2.396   0.196 -1.3905 -0.4079  3.2220
 3030SOL    HW220724   0.595   2.424   0.201  1.4763 -0.0001  1.1669
 3031SOL     OW20725   4.010   2.744   4.376  0.0277  0.2103 -0.5361
 3031SOL    HW120726   4.104   2.733   4.369  0.0663  0.2269 -0.0533
 3031SOL    HW220727   3.992   2.719   4.467  0.5460 -1.9436 -1.0243
 3032SOL     OW20728   1.454   2.770   8.717  0.4087  0.0120 -0.4962
 3032SOL    HW120729   1.445   2.827   8.640  1.1084 -1.2329 -1.5160
 3032SOL    HW220730   1.430   2.687   8.675  3.0872 -1.2984  0.5560
 3033SOL     OW20731   0.388   1.946   4.654  0.1140  0.4246  0.4294
 3033SOL    HW120732   0.303   1.932   4.613  0.2292  1.1664 -0.0642
 3033SOL    HW220733   0.379   1.880   4.722 -0.6506 -0.1588 -0.2329
 3034SOL     OW20734   2.513   2.863   7.870 -0.2468  0.2215 -0.1182
 3034SOL    HW120735   2.423   2.861   7.904 -1.2295 -1.3807 -2.7773
 3034SOL    HW220736   2.551   2.929   7.927  1.2153  0.3193 -1.2055
 3035SOL     OW20737   2.478   1.177   3.261  0.1220  0.0491 -0.2660
 3035SOL    HW120738   2.540   1.113   3.227  0.2256 -0.4501  0.8637
 3035SOL    HW220739   2.403   1.163   3.203  1.0144 -0.6431 -1.2418
 3036SOL     OW20740   0.294   0.620   0.104  0.3037  0.6895  0.0972
 3036SOL    HW120741   0.276   0.537   0.060  1.9062 -0.4607  1.6173
 3036SOL    HW220742   0.367   0.600   0.162  1.3647 -1.2167 -1.8984
 3037SOL     OW20743   1.741   2.887   5.381  0.4992 -0.1311  0.3554
 3037SOL    HW120744   1.707   2.930   5.460  0.6993  1.2396 -0.3137
 3037SOL    HW220745   1.722   2.955   5.318  0.5484 -0.9851 -0.5857
 3038SOL     OW20746   3.573   0.999   8.556 -0.3300  0.0347 -0.0558
 3038SOL    HW120747   3.555   1.070   8.495  0.9586  0.2276 -0.2035
 3038SOL    HW220748   3.484   0.993   8.593 -0.7079  0.5672 -0.8981
 3039SOL     OW20749   1.716   0.949   6.796  0.5640 -0.3075  0.3174
 3039SOL    HW120750   1.714   1.043   6.780  0.9654 -0.3695 -0.0760
 3039SOL    HW220751   1.809   0.931   6.805  0.8973  0.0857 -2.1901
 3040SOL     OW20752   1.831   2.312   5.263  0.1860 -0.1335  0.2124
 3040SOL    HW120753   1.798   2.302   5.352 -0.4880 -0.3084 -0.0549
 3040SOL    HW220754   1.926   2.311   5.278  0.3296 -0.2463 -0.6876
 3041SOL     OW20755   1.341   0.624   9.638 -0.7400 -0.8561  0.0226
 3041SOL    HW120756   1.260   0.596   9.681 -1.2891 -1.1013 -1.1784
 3041SOL    HW220757   1.300   0.675   9.568  0.3765  0.7309  0.5539
 3042SOL     OW20758   3.122   4.313   2.289  0.1226 -0.5210  0.4686
 3042SOL    HW120759   3.116   4.408   2.295  1.9254 -0.3009 -1.1229
 3042SOL    HW220760   3.149   4.291   2.200  0.9189 -0.7083  0.7572
 3043SOL     OW20761   3.226   2.429   2.775  0.0924  0.2928 -0.2785
 3043SOL    HW120762   3.183   2.448   2.691 -1.8601 -0.1061  0.6388
 3043SOL    HW220763   3.306   2.378   2.763  0.0113  0.6957 -2.7123
 3044SOL     OW20764   0.679   0.460   1.800 -0.1541 -0.1937  0.3734
 3044SOL    HW120765   0.688   0.477   1.894  0.6574 -1.0440  0.4574
 3044SOL    HW220766   0.763   0.423   1.774 -0.3001  0.1822 -0.6391
 3045SOL     OW20767   3.142   4.600   2.298 -0.0936 -0.3214  0.1364
 3045SOL    HW120768   3.111   4.680   2.256  0.6097 -0.6121 -0.9359
 3045SOL    HW220769   3.067   4.590   2.357 -2.7630  1.1287 -2.9967
 3046SOL     OW20770   4.700   3.349   4.844  0.4468  0.4602 -0.1012
 3046SOL    HW120771   4.711   3.277   4.907  0.1495  1.2404  0.8441
 3046SOL    HW220772   0.024   3.411   4.889  1.5923 -0.6842  0.0194
 3047SOL     OW20773   1.136   4.532   4.488  0.4975 -0.6581 -0.3815
 3047SOL    HW120774   1.053   4.494   4.460 -1.0585  1.1457  1.8572
 3047SOL    HW220775   1.121   4.626   4.473  1.8086 -0.4499 -0.4277
 3048SOL     OW20776   0.814   4.046   4.680 -0.4576 -0.2783 -0.0449
 3048SOL    HW120777   0.845   4.079   4.596 -1.2832 -0.2777 -0.3497
 3048SOL    HW220778   0.720   4.037   4.668 -0.4181 -0.0563 -0.4873
 3049SOL     OW20779   2.038   3.873   4.167  0.3495  0.0251 -0.2584
 3049SOL    HW120780   2.125   3.884   4.205  0.9320 -1.5733 -1.1024
 3049SOL    HW220781   2.021   3.952   4.116  4.5440  1.8882  1.2763
 3050SOL     OW20782   2.811   1.205   0.638 -0.5394 -0.3511 -0.1922
 3050SOL    HW120783   2.826   1.146   0.564  0.8261  2.5989 -2.2501
 3050SOL    HW220784   2.720   1.200   0.666 -0.9875  1.1648 -1.3916
 3051SOL     OW20785   0.916   1.017   4.614  0.1255  0.4136 -0.2898
 3051SOL    HW120786   0.824   1.030   4.590 -0.3404  1.0834  1.8312
 3051SOL    HW220787   0.944   0.978   4.531 -1.7055  1.4454 -1.4168
 3052SOL     OW20788   1.178   3.763   3.823  0.1090  0.3882  0.0168
 3052SOL    HW120789   1.265   3.767   3.863  0.7368 -1.0196 -1.1960
 3052SOL    HW220790   1.142   3.846   3.852  1.3598  0.6839  0.7284
 3053SOL     OW20791   2.410   2.537   6.722 -0.1776 -0.3786 -0.4554
 3053SOL    HW120792   2.368   2.622   6.735  2.2736  0.7751  0.0207
 3053SOL    HW220793   2.384   2.495   6.805 -0.6577 -2.7687 -1.8090
 3054SOL     OW20794   3.658   1.266   2.601 -0.6207  0.5048 -0.0996
 3054SOL    HW120795   3.720   1.293   2.534 -0.8310 -2.3886 -1.4391
 3054SOL    HW220796   3.606   1.344   2.623 -2.4108 -0.6955 -0.0729
 3055SOL     OW20797   1.864   0.461   7.651  0.0858  0.1916 -0.2747
 3055SOL    HW120798   1.922   0.486   7.723  1.0938  2.2031 -1.7992
 3055SOL    HW220799   1.778   0.471   7.690  0.0800 -1.9061  0.2631
 3056SOL     OW20800   2.827   0.279   8.836  0.4038 -0.4920  0.2858
 3056SOL    HW120801   2.802   0.370   8.822  0.4009 -0.0877  2.9700
 3056SOL    HW220802   2.898   0.278   8.899  0.3634 -0.8069  0.3285
 3057SOL     OW20803   3.805   3.761   7.079 -0.6864 -0.0310  0.0871
 3057SOL    HW120804   3.731   3.723   7.128  0.1902 -1.9683 -0.0791
 3057SOL    HW220805   3.830   3.691   7.019  0.2336  1.7974 -1.6490
 3058SOL     OW20806   3.707   3.436   6.467  0.0705  0.2464  0.5619
 3058SOL    HW120807   3.756   3.365   6.508 -0.2835  0.4910  1.4189
 3058SOL    HW220808   3.622   3.393   6.467 -0.4412  1.2542  2.3111
 3059SOL     OW20809   2.646   3.715   4.537  0.4955 -0.5630  0.6379
 3059SOL    HW120810   2.572   3.697   4.479  0.3845  1.1897  0.2395
 3059SOL    HW220811   2.648   3.627   4.573 -0.5707 -1.0829 -0.5588
 3060SOL     OW20812   0.250   3.834   5.968 -0.2196  0.4227  0.2973
 3060SOL    HW120813   0.237   3.742   5.989 -0.2821  0.8478  2.1087
 3060SOL    HW220814   0.321   3.860   6.028  1.6018  0.3624 -1.8441
 3061SOL     OW20815   3.031   2.954   7.190 -0.2592 -0.1025 -0.4297
 3061SOL    HW120816   3.109   2.921   7.145  0.4810  1.9064 -0.6370
 3061SOL    HW220817   2.974   2.880   7.172  1.4570 -1.5492  0.1128
 3062SOL     OW20818   3.587   2.818   4.014 -0.1881  0.4734 -0.1035
 3062SOL    HW120819   3.531   2.834   3.938  2.3558 -0.8825 -2.2759
 3062SOL    HW220820   3.632   2.902   4.024 -0.2432  0.1592  2.6932
 3063SOL     OW20821   0.499   3.929  13.906  0.7010  0.3495 -0.4194
 3063SOL    HW120822   0.539   3.842  13.910 -0.5548 -0.1166  2.4741
 3063SOL    HW220823   0.476   3.955  13.817 -0.3170  2.5846  0.4695
 3064SOL     OW20824   4.263   2.391   6.197  0.2285  0.2455  0.0564
 3064SOL    HW120825   4.208   2.445   6.255 -0.2303  0.7162 -0.8107
 3064SOL    HW220826   4.217   2.307   6.195 -0.7367  0.7798 -0.4967
 3065SOL     OW20827   0.343   2.816   3.158  0.0413  0.0216 -0.1728
 3065SOL    HW120828   0.342   2.888   3.096 -1.8897  1.0845  1.0749
 3065SOL    HW220829   0.305   2.743   3.108  0.8282 -0.9671  0.6617
 3066SOL     OW20830   0.346   3.835   9.552 -0.3386 -0.1943 -0.0781
 3066SOL    HW120831   0.298   3.771   9.604  0.3187 -0.3823  0.2925
 3066SOL    HW220832   0.415   3.775   9.523 -1.3504 -1.6478  0.5126
 3067SOL     OW20833   2.239   3.013  12.964 -0.9584  0.0396 -0.1517
 3067SOL    HW120834   2.244   3.063  13.046 -0.7454  0.4700 -0.4271
 3067SOL    HW220835   2.232   3.085  12.901 -1.3880 -0.3793 -0.5768
 3068SOL     OW20836   2.488   1.569   5.059 -0.2585 -0.2203 -0.1257
 3068SOL    HW120837   2.492   1.609   4.972 -1.6783 -1.0566 -0.5683
 3068SOL    HW220838   2.570   1.520   5.063 -0.0005  0.0486 -2.1646
 3069SOL     OW20839   0.397   1.491   6.282 -0.2923 -0.0723  0.3978
 3069SOL    HW120840   0.375   1.563   6.223 -0.1356 -1.2338 -1.0524
 3069SOL    HW220841   0.453   1.447   6.218  1.1756 -0.8138  2.1878
 3070SOL     OW20842   0.053   0.594   9.902 -0.2841 -0.0014 -0.4130
 3070SOL    HW120843   0.083   0.529   9.965  1.3161  1.2762  0.1470
 3070SOL    HW220844   4.719   0.542   9.858  0.8323 -2.1669  0.4253
 3071SOL     OW20845   2.960   1.956   8.936  0.3079  0.4318 -0.1682
 3071SOL    HW120846   3.025   1.888   8.922  1.6571  1.7169 -0.1240
 3071SOL    HW220847   2.961   1.963   9.031  1.9079 -0.8624 -0.0880
 3072SOL     OW20848   3.628   0.160   6.079  0.0322 -0.0608  0.5352
 3072SOL    HW120849   3.668   0.115   6.153 -0.2570  0.0965  0.7880
 3072SOL    HW220850   3.620   0.077   6.031 -2.4485  0.2571  0.3932
 3073SOL     OW20851   1.562   3.186  15.541 -0.3526 -0.2979 -0.0600
 3073SOL    HW120852   1.556   3.102  15.496  1.2636  0.7834 -2.2724
 3073SOL    HW220853   1.476   3.229  15.536  0.0734  0.6757  1.1554
 3074SOL     OW20854   2.595   3.160  14.657 -0.0680 -0.3028 -0.4980
 3074SOL    HW120855   2.679   3.205  14.669 -0.3869  0.6287 -1.8839
 3074SOL    HW220856   2.571   3.186  14.569 -0.1899 -1.8776 -0.9249
 3075SOL     OW20857   1.676   1.409  15.904 -0.1453 -0.2846  0.7064
 3075SOL    HW120858   1.631   1.376  15.827  0.0524  1.4280 -0.1231
 3075SOL    HW220859   1.628   1.363  15.973 -0.7087 -1.5314 -0.5198
 3076SOL     OW20860   3.763   2.865   7.240  0.6476  0.1130  0.4365
 3076SOL    HW120861   3.827   2.849   7.171  0.1553  1.8806 -0.4336
 3076SOL    HW220862   3.689   2.808   7.219  2.8666 -2.3754 -0.5669
 3077SOL     OW20863   1.777   3.271   5.632 -0.3082 -0.1854 -0.1860
 3077SOL    HW120864   1.704   3.258   5.692 -0.4653  0.6756 -0.1846
 3077SOL    HW220865   1.743   3.242   5.547 -0.2776  0.9661 -0.5866
 3078SOL     OW20866   2.814   0.515   5.158 -0.4738 -0.2954  0.4419
 3078SOL    HW120867   2.751   0.588   5.163 -0.8945 -0.6547  0.4400
 3078SOL    HW220868   2.754   0.458   5.110 -0.9799 -1.1335  2.0669
 3079SOL     OW20869   0.163   1.803   9.448 -0.3250  0.1642 -0.1793
 3079SOL    HW120870   0.224   1.872   9.474 -0.1521 -0.1778  0.3207
 3079SOL    HW220871   0.186   1.734   9.510 -0.0731  0.6493  0.2607
 3080SOL     OW20872   1.110   0.618   7.490 -0.4382 -0.2247  0.1982
 3080SOL    HW120873   1.078   0.535   7.527  0.5901 -0.4491  0.5771
 3080SOL    HW220874   1.128   0.593   7.399  0.8018  1.9492 -0.1469
 3081SOL     OW20875   0.590   3.712  14.204  0.3191  0.1468  0.1582
 3081SOL    HW120876   0.546   3.632  14.174  1.1380 -0.2802  0.0847
 3081SOL    HW220877   0.526   3.768  14.247  1.9598  1.4015  0.9675
 3082SOL     OW20878   2.303   0.279  14.821 -0.0081  0.5219 -0.1888
 3082SOL    HW120879   2.306   0.193  14.863  0.5630  0.0920 -1.1220
 3082SOL    HW220880   2.346   0.338  14.883  0.1352 -0.3856  0.5931
 3083SOL     OW20881   0.166   4.220   4.265 -0.3766  0.4111  0.0830
 3083SOL    HW120882   0.172   4.152   4.333 -1.2299  0.9363  0.6758
 3083SOL    HW220883   0.244   4.195   4.215  0.1356  0.3755  0.8884
 3084SOL     OW20884   0.731   3.917   1.908  0.2787 -0.3790 -0.0345
 3084SOL    HW120885   0.759   3.849   1.847 -0.1089  1.0483 -1.7897
 3084SOL    HW220886   0.751   3.867   1.987 -1.6431 -2.4725 -0.8884
 3085SOL     OW20887   2.749   2.086   6.302  0.1516 -0.0590  0.6810
 3085SOL    HW120888   2.778   1.995   6.291  2.3900  0.7266  0.2637
 3085SOL    HW220889   2.836   2.124   6.310 -0.1413  0.3440  1.9161
 3086SOL     OW20890   3.812   2.222  11.231  0.0165 -0.0878  0.1157
 3086SOL    HW120891   3.749   2.155  11.257  1.1292 -0.7715  1.0416
 3086SOL    HW220892   3.897   2.181  11.249  0.1590 -0.4014 -1.3179
 3087SOL     OW20893   1.321   0.188   7.369 -0.4849 -0.2263  0.2512
 3087SOL    HW120894   1.315   0.274   7.326  0.2338  0.5724  1.7443
 3087SOL    HW220895   1.280   0.196   7.455 -0.3815  1.9373  0.1043
 3088SOL     OW20896   0.238   2.332   5.018  0.3513 -0.6274 -0.2998
 3088SOL    HW120897   0.266   2.390   5.089  0.8901 -1.5159  0.2179
 3088SOL    HW220898   0.154   2.370   4.991  0.9153  1.6609  1.2176
 3089SOL     OW20899   2.220   1.522   1.987 -0.0359 -0.3687  0.6507
 3089SOL    HW120900   2.254   1.527   2.076  3.3646 -3.1020 -0.4632
 3089SOL    HW220901   2.278   1.589   1.950 -2.8876  1.0415 -1.1984
 3090SOL     OW20902   4.243   0.748   2.633 -0.3515 -0.4516 -0.1509
 3090SOL    HW120903   4.170   0.686   2.633 -2.3820  1.9436  0.0996
 3090SOL    HW220904   4.211   0.815   2.573  0.0506  0.1841  0.3433
 3091SOL     OW20905   1.309   2.505   7.870 -0.3023  0.5366  0.3680
 3091SOL    HW120906   1.228   2.467   7.835  0.6007 -0.7230 -0.3486
 3091SOL    HW220907   1.281   2.525   7.960 -1.1845 -0.7544  0.3830
 3092SOL     OW20908   2.026   3.386   1.282  0.1375 -0.7581 -0.3041
 3092SOL    HW120909   2.110   3.340   1.278  0.5547  0.0050 -0.1617
 3092SOL    HW220910   1.972   3.316   1.245  0.4751 -0.9869 -0.3737
 3093SOL     OW20911   1.997   2.363   4.616  0.4760  0.5192  0.4004
 3093SOL    HW120912   2.059   2.355   4.687 -0.4940  1.3599  1.3386
 3093SOL    HW220913   1.926   2.401   4.667  0.4015  1.4385 -0.3769
 3094SOL     OW20914   4.467   3.708   2.582  0.4614 -0.3084 -0.2949
 3094SOL    HW120915   4.495   3.797   2.603 -1.0500  0.2502 -0.6558
 3094SOL    HW220916   4.409   3.687   2.655  3.5434 -1.2081  1.8772
 3095SOL     OW20917   4.016   2.630  11.447  0.3396  0.4635  0.7216
 3095SOL    HW120918   3.948   2.586  11.395  0.8221  0.8568 -0.2460
 3095SOL    HW220919   4.091   2.610  11.391  1.0557  1.9065  1.1727
 3096SOL     OW20920   2.570   2.150   4.720  0.3733  0.4183 -0.0684
 3096SOL    HW120921   2.480   2.130   4.691  0.8062 -2.1092  0.3476
 3096SOL    HW220922   2.620   2.102   4.654 -1.8264  1.7554 -2.7312
 3097SOL     OW20923   4.508   0.133   3.860  0.5464  0.1332 -0.1197
 3097SOL    HW120924   4.497   0.081   3.939  1.2146  0.8215  0.4256
 3097SOL    HW220925   4.483   0.220   3.891 -1.6945 -1.0231  1.3048
 3098SOL     OW20926   3.594   2.822   0.582  0.2123  0.6341  0.2199
 3098SOL    HW120927   3.522   2.761   0.600  0.4362 -0.1651 -1.6305
 3098SOL    HW220928   3.570   2.890   0.646 -1.2904  1.6512 -1.3921
 3099SOL     OW20929   1.951   1.592   6.054  0.3338  0.4747 -0.3835
 3099SOL    HW120930   2.010   1.574   5.982  1.7152  1.8824  0.3932
 3099SOL    HW220931   1.911   1.674   6.024 -0.6004 -0.2861 -1.2212
 3100SOL     OW20932   3.384   3.333   9.180  0.7341  0.1079 -0.1649
 3100SOL    HW120933   3.447   3.264   9.202  3.2814  2.7425  0.9566
 3100SOL    HW220934   3.403   3.350   9.088  2.7118 -0.5188  0.1130
 3101SOL     OW20935   1.381   2.951   5.723 -0.7609  0.0370  0.4560
 3101SOL    HW120936   1.364   3.028   5.777  3.5732 -0.3140  2.3157
 3101SOL    HW220937   1.316   2.954   5.652 -1.3513 -1.6955  0.9376
 3102SOL     OW20938   1.152   2.446  13.299  0.4059  0.5393  0.0528
 3102SOL    HW120939   1.240   2.451  13.262 -0.1306 -0.3720 -1.3258
 3102SOL    HW220940   1.132   2.540  13.305  0.7507  0.4991  1.6879
 3103SOL     OW20941   0.517   4.012  12.656  0.1890 -0.3953 -1.0371
 3103SOL    HW120942   0.544   3.921  12.657 -1.3414 -0.8474 -0.9773
 3103SOL    HW220943   0.604   4.051  12.645  0.8163 -1.3579  0.6586
 3104SOL     OW20944   4.277   4.158   8.608  0.0633 -0.2639 -0.5433
 3104SOL    HW120945   4.215   4.146   8.680  2.3290 -0.2448  1.3989
 3104SOL    HW220946   4.206   4.163   8.544  0.7499 -1.9993 -1.4296
 3105SOL     OW20947   3.313   2.495   8.949 -0.0565  0.0726 -0.6012
 3105SOL    HW120948   3.285   2.584   8.926  0.2271  1.0768  2.9330
 3105SOL    HW220949   3.402   2.514   8.979  0.4721 -1.8255 -0.9997
 3106SOL     OW20950   0.147   4.540   7.156  0.0802 -0.5424  0.4966
 3106SOL    HW120951   0.212   4.582   7.100 -0.9005  0.8853  0.4014
 3106SOL    HW220952   0.148   4.456   7.112  3.2654 -0.2517  0.0465
 3107SOL     OW20953   2.639   2.355   6.168  0.2831  0.2254 -0.5073
 3107SOL    HW120954   2.563   2.307   6.136 -0.0061  0.4471 -0.1488
 3107SOL    HW220955   2.706   2.289   6.150 -0.0126 -0.7632  2.0402
 3108SOL     OW20956   1.058   2.887   5.654  0.1997  0.4372  0.7913
 3108SOL    HW120957   1.058   2.826   5.580 -3.4940 -0.9960  1.9860
 3108SOL    HW220958   1.037   2.969   5.609 -0.7156 -0.0324  0.3599
 3109SOL     OW20959   2.657   3.809   6.753 -0.2055  0.1703  0.3735
 3109SOL    HW120960   2.603   3.734   6.729 -0.9176  0.3033  1.5320
 3109SOL    HW220961   2.717   3.762   6.811  0.2470 -1.2864 -1.2840
 3110SOL     OW20962   4.019   1.887   1.419 -0.7210 -0.3447 -0.3256
 3110SOL    HW120963   4.064   1.809   1.387 -1.3490 -0.8991  0.1530
 3110SOL    HW220964   4.015   1.944   1.341 -1.9733  0.0840  0.0663
 3111SOL     OW20965   2.856   1.121   5.944 -0.4328 -0.0460  0.0015
 3111SOL    HW120966   2.835   1.212   5.961  0.7552  0.2516 -0.0890
 3111SOL    HW220967   2.797   1.086   6.010 -1.1746  0.8183 -0.2130
 3112SOL     OW20968   1.906   4.704   5.666 -0.0934  0.3732 -0.8433
 3112SOL    HW120969   1.828   4.711   5.611 -1.1289  2.2554  0.8397
 3112SOL    HW220970   1.860   4.651   5.731 -1.6639  0.3664 -1.9507
 3113SOL     OW20971   3.104   2.072   0.167 -0.4462  0.3196  0.4331
 3113SOL    HW120972   3.115   2.003   0.102  1.7094 -0.5820  1.7301
 3113SOL    HW220973   3.189   2.068   0.212 -0.5360 -3.2961  0.2413
 3114SOL     OW20974   0.170   4.269   7.117  0.3037  0.1116  0.2942
 3114SOL    HW120975   0.177   4.248   7.024  0.7746 -1.3434  0.6594
 3114SOL    HW220976   0.210   4.193   7.159 -1.5673 -0.6691  0.6949
 3115SOL     OW20977   2.891   0.787   7.839 -0.3072  0.2493  0.6399
 3115SOL    HW120978   2.823   0.723   7.858  1.4839 -2.1239 -0.9225
 3115SOL    HW220979   2.965   0.737   7.803 -1.5419 -1.8155  0.9473
 3116SOL     OW20980   1.758   4.045   7.257  0.0703 -0.1925 -0.2315
 3116SOL    HW120981   1.732   4.065   7.167 -0.0554  1.3660  0.1630
 3116SOL    HW220982   1.731   4.125   7.302  0.9443 -1.3701  2.3840
 3117SOL     OW20983   1.039   3.766   4.835 -0.2889  0.4223 -0.0751
 3117SOL    HW120984   1.034   3.844   4.890  3.7409 -0.1360  1.0859
 3117SOL    HW220985   1.134   3.757   4.831 -0.4798 -0.9500 -1.5150
 3118SOL     OW20986   0.707   0.151   5.943  0.2266  0.2118  0.0306
 3118SOL    HW120987   0.664   0.135   6.027  0.5394 -2.0191 -0.2284
 3118SOL    HW220988   0.745   0.065   5.926  0.3309  0.5281 -1.3315
 3119SOL     OW20989   2.869   0.673   4.621 -0.4783  0.1695 -0.0111
 3119SOL    HW120990   2.822   0.611   4.678 -0.4070 -0.2965 -0.4616
 3119SOL    HW220991   2.839   0.634   4.539 -1.9487  0.1345  0.5285
 3120SOL     OW20992   1.897   2.837   6.817  0.2644 -0.4622 -0.2763
 3120SOL    HW120993   1.874   2.866   6.729 -0.3230 -3.2702 -1.0608
 3120SOL    HW220994   1.809   2.824   6.852  0.8541 -2.8028  0.3744
 3121SOL     OW20995   3.187   3.416  12.984 -0.3810 -0.2371  0.0435
 3121SOL    HW120996   3.109   3.470  12.998  0.7525  1.1910  0.8829
 3121SOL    HW220997   3.244   3.463  13.045 -0.7570  0.2520  0.0157
 3122SOL     OW20998   2.373   2.977   6.148  0.0605 -0.7537  0.0584
 3122SOL    HW120999   2.388   2.884   6.163  1.7440 -0.3341  1.0108
 3122SOL    HW221000   2.303   2.978   6.083  0.4327 -0.5622 -0.3449
 3123SOL     OW21001   2.146   3.807   3.596 -0.1480 -0.1919 -0.0653
 3123SOL    HW121002   2.121   3.718   3.573  1.5005 -0.5793 -0.3673
 3123SOL    HW221003   2.227   3.818   3.545 -0.2547  3.3263  0.4650
 3124SOL     OW21004   1.135   0.962  14.782 -0.0575  0.0629 -0.6000
 3124SOL    HW121005   1.064   0.929  14.835 -0.4612  0.0249 -1.1618
 3124SOL    HW221006   1.080   1.021  14.731 -0.9225 -1.4198 -1.3838
 3125SOL     OW21007   2.439   0.408  15.930 -0.7929 -0.2735 -0.2479
 3125SOL    HW121008   2.385   0.445  16.000  0.4070  1.2395 -0.1351
 3125SOL    HW221009   2.485   0.491  15.917 -0.2777 -0.4490  0.4400
 3126SOL     OW21010   4.176   3.594   0.547 -0.8955 -0.2141  0.1717
 3126SOL    HW121011   4.127   3.517   0.576  0.0949 -0.6008  0.8174
 3126SOL    HW221012   4.140   3.602   0.458 -0.4666 -1.2490 -0.1017
 3127SOL     OW21013   3.918   0.779   8.937  0.4625  0.0662  0.0437
 3127SOL    HW121014   3.990   0.732   8.896 -1.2816 -2.3661 -0.2316
 3127SOL    HW221015   3.947   0.868   8.915  1.0056  0.2847  1.5890
 3128SOL     OW21016   3.089   2.104   1.323  0.1368  0.0224  0.3986
 3128SOL    HW121017   3.134   2.024   1.296 -1.9210 -1.0904  0.2568
 3128SOL    HW221018   3.011   2.086   1.269  1.7797 -0.4303 -1.8394
 3129SOL     OW21019   0.687   1.357   3.442 -0.1881 -0.3554  0.3612
 3129SOL    HW121020   0.669   1.390   3.354 -1.5934 -0.5348  0.5798
 3129SOL    HW221021   0.632   1.409   3.500  2.4412  1.9045  0.8380
 3130SOL     OW21022   2.739   1.031   6.754 -0.8811 -0.3768 -0.3162
 3130SOL    HW121023   2.804   0.974   6.794 -0.6201  0.2949  0.2237
 3130SOL    HW221024   2.776   1.036   6.666  0.3715  0.0478  0.2450
 3131SOL     OW21025   4.662   1.503   2.623 -0.1764  0.3597 -0.1089
 3131SOL    HW121026   4.724   1.485   2.553 -0.7803  0.5281 -0.6940
 3131SOL    HW221027   4.576   1.512   2.582 -1.3619 -2.4132  1.8321
 3132SOL     OW21028   2.268   3.114   4.072 -0.0034  0.1529 -0.1996
 3132SOL    HW121029   2.257   3.020   4.088 -1.2071  0.4153  0.5029
 3132SOL    HW221030   2.202   3.132   4.005 -0.1498  0.3533  0.0002
 3133SOL     OW21031   2.493   4.535   9.905  0.1149  0.0351  0.0546
 3133SOL    HW121032   2.515   4.599   9.973  0.8249  0.3142 -0.4399
 3133SOL    HW221033   2.435   4.468   9.942  0.6663 -0.0727  0.7290
 3134SOL     OW21034   2.939   1.602   7.380 -0.1007  0.0288 -0.0270
 3134SOL    HW121035   2.849   1.580   7.404 -0.5773  0.1269 -1.6986
 3134SOL    HW221036   2.991   1.575   7.455  1.3239  0.4113 -0.8624
 3135SOL     OW21037   4.111   2.385   3.769  0.3846  0.1652 -0.2645
 3135SOL    HW121038   4.157   2.453   3.720 -0.9910  1.2455 -0.0683
 3135SOL    HW221039   4.055   2.455   3.803  1.3169 -1.0245  3.7481
 3136SOL     OW21040   1.059   1.351   5.928  0.2993 -0.5865  0.3081
 3136SOL    HW121041   1.020   1.427   5.886 -1.3129 -2.1675 -1.0222
 3136SOL    HW221042   1.027   1.368   6.017 -1.8077 -0.0079 -0.5750
 3137SOL     OW21043   1.256   2.653   2.520 -0.5625 -0.0767  0.2147
 3137SOL    HW121044   1.256   2.639   2.614 -4.0770  2.7750  0.6458
 3137SOL    HW221045   1.224   2.568   2.489 -0.3119  0.7319 -2.3131
 3138SOL     OW21046   4.213   0.054   6.560  0.1247  0.0058 -0.1996
 3138SOL    HW121047   4.288   0.030   6.614 -0.5051 -2.8546 -0.5856
 3138SOL    HW221048   4.244   0.123   6.501 -2.5475 -0.6646 -2.4356
 3139SOL     OW21049   1.219   0.447  14.684  0.4241 -0.1155 -0.2476
 3139SOL    HW121050   1.129   0.426  14.706  0.2450 -0.3360 -1.1778
 3139SOL    HW221051   1.217   0.542  14.673  2.4079  0.1818  2.0136
 3140SOL     OW21052   4.482   0.652   4.513 -0.7666 -0.7131 -0.1996
 3140SOL    HW121053   4.464   0.592   4.585  0.6044  0.1315  0.8434
 3140SOL    HW221054   4.577   0.644   4.504 -0.3457  0.8432  3.1019
 3141SOL     OW21055   3.356   1.106   3.235 -0.6821 -0.1130 -0.1599
 3141SOL    HW121056   3.374   1.134   3.325  0.1364  0.6189 -0.5583
 3141SOL    HW221057   3.441   1.102   3.192  0.2864  2.9710  1.4785
 3142SOL     OW21058   4.430   2.347   5.985  0.4925 -0.2285  0.0002
 3142SOL    HW121059   4.368   2.351   6.057  0.8411 -2.0584  0.4159
 3142SOL    HW221060   4.383   2.389   5.913 -0.0536 -0.5075  0.1929
 3143SOL     OW21061   0.665   3.384  14.114  0.5269  0.2239  0.2722
 3143SOL    HW121062   0.600   3.381  14.044  0.8014  2.4865 -0.0859
 3143SOL    HW221063   0.603   3.372  14.187  1.1279 -1.0520  0.5539
 3144SOL     OW21064   0.763   1.619  12.895  0.3288 -0.0178  0.1730
 3144SOL    HW121065   0.703   1.620  12.969  0.0343 -2.0618 -0.0216
 3144SOL    HW221066   0.734   1.705  12.865  1.2966 -0.7301 -2.9093
 3145SOL     OW21067   4.471   1.529   3.132  0.1255  0.4385 -0.3421
 3145SOL    HW121068   4.499   1.560   3.047  0.7990  2.1751  0.5209
 3145SOL    HW221069   4.416   1.606   3.146 -0.4770  0.2718 -1.8945
 3146SOL     OW21070   2.342   0.992  12.646  0.0569 -0.1108 -0.2530
 3146SOL    HW121071   2.367   0.987  12.554 -0.9590 -0.0080 -0.5349
 3146SOL    HW221072   2.261   1.041  12.635 -1.1738 -1.8314  1.0222
 3147SOL     OW21073   0.077   1.990   3.847  0.1695  0.1174  0.1247
 3147SOL    HW121074   4.719   1.973   3.831  0.8173 -0.5623 -3.0210
 3147SOL    HW221075   0.083   2.070   3.898 -0.1525  0.2849 -0.1066
 3148SOL     OW21076   4.063   3.482   6.395 -0.3797 -0.1156 -0.0538
 3148SOL    HW121077   3.979   3.508   6.433 -0.6385 -2.1370  0.7782
 3148SOL    HW221078   4.047   3.399   6.350 -0.4314  0.5013 -1.1597
 3149SOL     OW21079   2.591   3.994   6.983  0.1587 -0.5237  0.0137
 3149SOL    HW121080   2.600   3.935   6.908 -0.3878 -0.9401  0.2738
 3149SOL    HW221081   2.498   3.988   7.004  0.5586  0.1632  2.0352
 3150SOL     OW21082   1.187   2.661   8.393 -0.0554 -0.1787 -0.2215
 3150SOL    HW121083   1.277   2.694   8.390 -0.4546  0.8980 -0.4715
 3150SOL    HW221084   1.178   2.655   8.488 -1.3058  1.5152 -0.2374
 3151SOL     OW21085   0.895   4.560   5.317  0.6690 -0.2980 -1.0135
 3151SOL    HW121086   0.852   4.636   5.355  2.6788  0.9186 -1.1725
 3151SOL    HW221087   0.844   4.486   5.349  0.9281  0.1100  0.3384
 3152SOL     OW21088   4.045   2.903  13.122 -0.2387 -0.3092  0.0947
 3152SOL    HW121089   4.093   2.867  13.047 -0.2412 -1.4087  0.6224
 3152SOL    HW221090   4.011   2.821  13.158  0.0861  0.2897  1.7500
 3153SOL     OW21091   1.290   4.545   3.087 -0.6512  0.4134  0.0382
 3153SOL    HW121092   1.201   4.525   3.059 -0.7631 -0.7928  1.2396
 3153SOL    HW221093   1.339   4.478   3.039 -1.7674  1.6430 -2.7785
 3154SOL     OW21094   3.217   1.773   3.104  0.1373  0.4742 -0.1250
 3154SOL    HW121095   3.148   1.805   3.162 -0.2688 -1.2939  0.3854
 3154SOL    HW221096   3.175   1.692   3.075 -0.8114  0.0218  2.4971
 3155SOL     OW21097   1.398   1.913  14.746 -0.5691 -0.6950 -0.4715
 3155SOL    HW121098   1.432   1.992  14.704 -1.3849 -0.4661 -0.6936
 3155SOL    HW221099   1.388   1.953  14.833  0.9324  1.9367 -1.5152
 3156SOL     OW21100   4.239   2.927   1.449 -1.0684  0.6277  0.3013
 3156SOL    HW121101   4.200   2.842   1.469 -0.3037  0.4587  1.0685
 3156SOL    HW221102   4.294   2.912   1.372  0.7231 -1.4687  1.9983
 3157SOL     OW21103   4.154   2.986   3.977  0.1870 -0.1577  0.8129
 3157SOL    HW121104   4.075   3.034   3.951 -0.1851 -0.8456  0.6694
 3157SOL    HW221105   4.218   3.056   3.966 -0.5130  0.0293 -1.9402
 3158SOL     OW21106   3.114   3.361   9.366  0.2294 -0.3865 -0.5008
 3158SOL    HW121107   3.149   3.300   9.431 -0.6616 -0.5412 -0.1722
 3158SOL    HW221108   3.199   3.375   9.323  0.3572  0.2344 -0.0585
 3159SOL     OW21109   2.435   0.357   4.891 -0.4618  0.9407 -0.2602
 3159SOL    HW121110   2.518   0.370   4.936 -0.2217  2.4822 -1.1328
 3159SOL    HW221111   2.457   0.363   4.798 -0.4828 -0.0793 -0.3316
 3160SOL     OW21112   0.918   2.743   9.624 -0.3660 -0.4261  0.7419
 3160SOL    HW121113   0.996   2.711   9.671  0.0064  2.1556  1.9053
 3160SOL    HW221114   0.940   2.832   9.598  0.2185 -0.6442  0.4733
 3161SOL     OW21115   1.223   4.006   6.333 -0.6955  0.0273  0.3045
 3161SOL    HW121116   1.171   3.932   6.367  0.0783 -0.1565  1.0997
 3161SOL    HW221117   1.221   4.060   6.412 -1.0647 -0.9802  0.9828
 3162SOL     OW21118   0.689   3.050  13.068  0.2524 -0.3778 -0.4582
 3162SOL    HW121119   0.636   3.085  13.139  1.2509 -3.7724  1.9734
 3162SOL    HW221120   0.672   2.956  13.077 -0.2533 -0.3185 -0.7714
 3163SOL     OW21121   1.769   3.245   7.885 -0.4053 -0.4640  0.0788
 3163SOL    HW121122   1.841   3.297   7.920  0.5156 -1.8793  0.2684
 3163SOL    HW221123   1.807   3.158   7.872  2.7562  0.9973 -0.4446
 3164SOL     OW21124   3.046   1.778   3.752  0.2455 -0.5658  0.8046
 3164SOL    HW121125   3.062   1.687   3.725  0.8682 -0.1511 -0.2488
 3164SOL    HW221126   2.952   1.778   3.770  0.1025 -0.6324  0.0698
 3165SOL     OW21127   1.625   1.528   9.056 -0.3482  0.5671 -0.1130
 3165SOL    HW121128   1.593   1.492   8.973  1.4067  0.5933 -0.8149
 3165SOL    HW221129   1.670   1.603   9.017  1.2664  0.6783  1.9619
 3166SOL     OW21130   2.818   0.050   5.803  0.0926 -0.4198 -0.8694
 3166SOL    HW121131   2.791   4.727   5.875 -1.4079 -0.0042 -1.1126
 3166SOL    HW221132   2.851   0.120   5.859 -0.9670 -0.5585 -0.0671
 3167SOL     OW21133   1.279   1.908  11.352  0.3793 -0.1870  0.1464
 3167SOL    HW121134   1.231   1.928  11.272  2.3773 -2.6653 -1.6662
 3167SOL    HW221135   1.281   1.994  11.393 -0.8579  0.5908 -1.4249
 3168SOL     OW21136   1.698   3.007   4.815  0.3847  0.4402  0.4184
 3168SOL    HW121137   1.767   3.024   4.751  1.3906  0.1435  1.4051
 3168SOL    HW221138   1.732   2.937   4.871 -0.6222  0.2368  0.7777
 3169SOL     OW21139   4.246   1.183   6.471 -0.1915 -0.5586 -0.2057
 3169SOL    HW121140   4.273   1.267   6.432 -0.0579 -1.3934 -1.8999
 3169SOL    HW221141   4.179   1.158   6.408 -1.8703  1.0393  0.9430
 3170SOL     OW21142   0.937   1.920   5.932  0.3451 -0.1869 -0.1414
 3170SOL    HW121143   0.872   1.963   5.876  1.4850  1.6700 -0.0568
 3170SOL    HW221144   0.888   1.910   6.014 -0.9560  0.4757 -0.8418
 3171SOL     OW21145   0.861   3.498   0.213  0.1620  0.1513 -0.2617
 3171SOL    HW121146   0.939   3.496   0.157  0.6861 -2.2618  0.5392
 3171SOL    HW221147   0.840   3.591   0.217 -0.3338  0.0851 -1.5264
 3172SOL     OW21148   1.638   4.613  12.483  0.1661  0.5203  0.1575
 3172SOL    HW121149   1.615   4.705  12.474  0.3057  0.4699 -0.6561
 3172SOL    HW221150   1.715   4.606  12.427  0.0120  2.5448 -0.3136
 3173SOL     OW21151   4.667   2.785  14.199  0.5604  0.1683  0.0430
 3173SOL    HW121152   4.596   2.849  14.208 -1.3861 -1.9137 -0.6228
 3173SOL    HW221153   0.010   2.836  14.173 -1.0812  1.8280 -1.5861
 3174SOL     OW21154   1.455   2.671  15.486 -0.1016 -0.3018  0.0058
 3174SOL    HW121155   1.489   2.610  15.551 -2.0726 -0.8444  0.5274
 3174SOL    HW221156   1.368   2.634  15.472 -0.0508 -0.1809 -0.6309
 3175SOL     OW21157   1.553   3.174   7.778 -0.4136  0.6792 -0.0785
 3175SOL    HW121158   1.611   3.219   7.839  0.2258  0.4541 -0.5224
 3175SOL    HW221159   1.619   3.167   7.710  0.3235  0.1485  0.6924
 3176SOL     OW21160   3.551   0.659   1.269  0.0608  0.0657  0.1050
 3176SOL    HW121161   3.611   0.732   1.256  0.2828 -0.3477 -1.2021
 3176SOL    HW221162   3.600   0.602   1.328 -0.2022  0.1124  0.3712
 3177SOL     OW21163   3.796   0.623   2.930 -0.0999  0.1957 -0.0467
 3177SOL    HW121164   3.723   0.612   2.868  0.8149  1.5218 -1.3534
 3177SOL    HW221165   3.793   0.717   2.948  0.2267 -0.1576  1.8487
 3178SOL     OW21166   1.199   1.176  10.263  0.2383 -0.2021 -0.0524
 3178SOL    HW121167   1.141   1.236  10.309  0.0171 -0.3156 -0.1864
 3178SOL    HW221168   1.245   1.148  10.342 -1.4097  0.1076  1.0091
 3179SOL     OW21169   1.976   3.793   6.127  0.2959 -0.1012 -0.7038
 3179SOL    HW121170   1.956   3.703   6.102  2.7144 -0.8039 -0.0413
 3179SOL    HW221171   2.019   3.777   6.210 -1.2450 -0.9425 -0.0727
 3180SOL     OW21172   4.215   3.247  11.464  0.5327 -0.2363  0.1977
 3180SOL    HW121173   4.121   3.255  11.446  0.4088 -1.2950  0.3848
 3180SOL    HW221174   4.232   3.159  11.429 -1.2820 -0.5847  0.2270
 3181SOL     OW21175   3.230   0.702   0.981  0.1606  0.0653  0.3591
 3181SOL    HW121176   3.288   0.681   0.908 -1.2765 -1.3167 -0.4049
 3181SOL    HW221177   3.245   0.629   1.041 -0.3346  0.1362  0.5689
 3182SOL     OW21178   4.726   3.006   5.656 -0.3099 -0.1457  0.2007
 3182SOL    HW121179   4.720   2.911   5.666 -0.1076 -0.5387 -3.4676
 3182SOL    HW221180   4.636   3.032   5.636 -0.4045 -0.7660 -0.1921
 3183SOL     OW21181   1.065   2.943   6.873  0.0361 -0.1900 -0.0566
 3183SOL    HW121182   0.974   2.971   6.870  1.0621  2.9166 -1.2530
 3183SOL    HW221183   1.084   2.981   6.959 -2.8118 -1.7137  1.2644
 3184SOL     OW21184   3.033   4.252   1.580  0.1615  0.0942  0.0103
 3184SOL    HW121185   3.016   4.343   1.558  3.2822  0.6672 -0.0130
 3184SOL    HW221186   3.035   4.262   1.676 -1.8750 -3.9272  0.4800
 3185SOL     OW21187   1.067   1.691   2.697  0.2538 -0.1247  0.4335
 3185SOL    HW121188   1.012   1.694   2.618  2.2414  0.3995 -0.9448
 3185SOL    HW221189   1.136   1.751   2.669 -0.8204  0.1951 -1.5714
 3186SOL     OW21190   1.706   2.173   6.017 -0.0271  0.1954  0.0156
 3186SOL    HW121191   1.758   2.137   6.090  0.5776  1.2677  0.1146
 3186SOL    HW221192   1.652   2.103   5.980 -0.5141  0.6171 -0.0709
 3187SOL     OW21193   1.285   2.942  11.343  0.0835 -0.1111  0.2079
 3187SOL    HW121194   1.242   3.021  11.376 -0.8131 -0.8975  0.9260
 3187SOL    HW221195   1.310   2.905  11.428  1.4568  0.6945  0.1391
 3188SOL     OW21196   2.531   0.246   3.407 -0.4902 -0.0609 -0.3038
 3188SOL    HW121197   2.504   0.246   3.315 -2.4683  1.4220  0.2594
 3188SOL    HW221198   2.475   0.314   3.445  0.0228 -1.4498  2.8875
 3189SOL     OW21199   2.836   0.126   4.066 -0.2720 -0.3276 -0.2780
 3189SOL    HW121200   2.778   0.181   4.012  0.4649 -0.8880 -1.6355
 3189SOL    HW221201   2.838   0.045   4.014  4.6995  0.1566 -0.8075
 3190SOL     OW21202   1.419   0.365   9.583 -0.9410  0.6429  0.3740
 3190SOL    HW121203   1.454   0.370   9.494 -0.0809 -3.0041  0.5053
 3190SOL    HW221204   1.403   0.457   9.603 -1.1294  0.7573 -0.2809
 3191SOL     OW21205   3.305   1.562   2.055 -0.0220 -0.4402  0.0596
 3191SOL    HW121206   3.220   1.583   2.018 -0.3456 -0.8019  0.6041
 3191SOL    HW221207   3.283   1.472   2.079  0.2469 -0.4494  0.2726
 3192SOL     OW21208   0.213   3.553   8.259  0.0486  0.1667 -0.2862
 3192SOL    HW121209   0.245   3.566   8.170  1.4284 -1.4293 -0.0118
 3192SOL    HW221210   0.232   3.461   8.276 -1.3661 -0.1671 -0.5259
 3193SOL     OW21211   4.303   4.511   5.268 -0.2257  0.0320 -0.9064
 3193SOL    HW121212   4.250   4.543   5.195 -0.4908 -2.1609 -1.6701
 3193SOL    HW221213   4.243   4.470   5.331 -0.8742 -0.1708 -1.6585
 3194SOL     OW21214   3.182   1.418   9.169 -0.2993  0.1099  0.1777
 3194SOL    HW121215   3.199   1.325   9.186  1.9116  0.7154  1.3998
 3194SOL    HW221216   3.178   1.455   9.257 -0.6393  0.8345 -0.1448
 3195SOL     OW21217   0.612   4.411  12.265  0.5426 -0.1994  0.1660
 3195SOL    HW121218   0.544   4.446  12.321 -1.2236 -0.6617 -1.7041
 3195SOL    HW221219   0.568   4.327  12.252 -0.5851  0.7323 -2.0085
 3196SOL     OW21220   4.430   1.551  16.716  0.5121 -0.0868 -0.5860
 3196SOL    HW121221   4.376   1.553  16.637 -0.2357  0.5428 -0.0592
 3196SOL    HW221222   4.513   1.521  16.679  0.3915 -0.8263 -0.2613
 3197SOL     OW21223   1.940   3.477   5.674  0.8554  0.3319 -0.4204
 3197SOL    HW121224   1.883   3.402   5.661  0.2661  0.5048  1.1813
 3197SOL    HW221225   1.898   3.517   5.750  0.3252 -0.5600 -0.2512
 3198SOL     OW21226   0.860   0.269   8.387  0.6526  0.4007  0.0859
 3198SOL    HW121227   0.767   0.288   8.386  0.3063 -1.2532  1.2420
 3198SOL    HW221228   0.861   0.174   8.371  3.3275  0.0186  2.3937
 3199SOL     OW21229   3.001   3.815   5.270  0.0091 -1.1661 -0.6720
 3199SOL    HW121230   2.983   3.806   5.176 -2.1364 -0.1066 -0.3641
 3199SOL    HW221231   2.911   3.825   5.301  0.3591  0.8757 -0.3260
 3200SOL     OW21232   3.150   3.916   7.834 -0.0978 -0.1137  0.1965
 3200SOL    HW121233   3.119   3.933   7.745 -0.5803  1.0697  0.6018
 3200SOL    HW221234   3.218   3.852   7.813 -0.4021 -0.5470  0.5205
 3201SOL     OW21235   2.054   1.364   2.143 -0.1543  0.0331 -0.6004
 3201SOL    HW121236   2.102   1.404   2.070 -0.4369  1.5278  0.0467
 3201SOL    HW221237   1.964   1.396   2.142 -0.5125 -0.9885 -0.9557
 3202SOL     OW21238   0.764   4.551  10.344  0.5433  0.0002  0.3259
 3202SOL    HW121239   0.798   4.633  10.381  0.3373  0.1849  0.1029
 3202SOL    HW221240   0.851   4.517  10.320  0.6761 -0.0869  0.9388
 3203SOL     OW21241   1.587   0.536   2.624  0.6547 -0.3659 -0.3812
 3203SOL    HW121242   1.673   0.578   2.617 -0.6140  2.1410 -0.8954
 3203SOL    HW221243   1.537   0.596   2.679  0.1513 -0.4629 -0.7296
 3204SOL     OW21244   1.587   3.376   2.418 -0.0342 -0.1997 -0.3842
 3204SOL    HW121245   1.568   3.430   2.495  0.2810  0.0468 -0.4786
 3204SOL    HW221246   1.576   3.288   2.453  0.8562 -0.1241  0.0789
 3205SOL     OW21247   4.240   0.974   5.173  0.2648 -0.1336  0.4997
 3205SOL    HW121248   4.165   0.919   5.153 -0.0785  0.3705  0.4124
 3205SOL    HW221249   4.279   0.961   5.087 -0.2081 -2.1866  0.6004
 3206SOL     OW21250   1.383   2.488  13.134 -0.5851  0.4703  0.4161
 3206SOL    HW121251   1.403   2.536  13.215 -1.6958 -1.9151  2.0927
 3206SOL    HW221252   1.351   2.559  13.078 -4.2098  0.1702  2.1164
 3207SOL     OW21253   1.810   2.990   8.172 -0.3408 -0.2074 -0.0428
 3207SOL    HW121254   1.803   2.959   8.082 -0.4563  0.2028 -0.1743
 3207SOL    HW221255   1.897   3.029   8.180 -1.6945  2.8009 -0.2206
 3208SOL     OW21256   4.495   3.389  15.126  0.1122  0.2648  0.2269
 3208SOL    HW121257   4.513   3.400  15.219  0.8197  0.9886  0.0116
 3208SOL    HW221258   4.472   3.296  15.120  0.8870  0.0056  1.3157
 3209SOL     OW21259   0.628   0.530   2.529  0.4531  0.0225  0.1706
 3209SOL    HW121260   0.680   0.536   2.609  0.4119 -0.9482  0.2801
 3209SOL    HW221261   0.695   0.550   2.463 -0.0507  0.2633 -0.2638
 3210SOL     OW21262   2.023   1.715  16.208 -0.2703  0.4366 -0.0450
 3210SOL    HW121263   1.970   1.763  16.273 -0.1267 -0.3915  0.6896
 3210SOL    HW221264   2.032   1.786  16.145 -0.4819  0.9899  0.5441
 3211SOL     OW21265   2.411   3.275   8.086 -0.0679  0.3035  0.9187
 3211SOL    HW121266   2.346   3.245   8.149  1.4438 -3.7440  0.5347
 3211SOL    HW221267   2.457   3.192   8.074  0.6561  0.5445  2.0578
 3212SOL     OW21268   1.956   0.104   0.510  0.1144  0.1895 -0.0465
 3212SOL    HW121269   1.881   0.119   0.568  1.0261 -0.8508  1.3766
 3212SOL    HW221270   1.909   0.064   0.436  3.1397 -2.3608 -0.5799
 3213SOL     OW21271   1.855   4.142   2.058  0.3659  0.1291 -0.0206
 3213SOL    HW121272   1.846   4.049   2.079 -1.9048 -0.0759 -1.8652
 3213SOL    HW221273   1.802   4.138   1.979 -0.4030  2.7578  0.3610
 3214SOL     OW21274   2.820   2.955   7.393 -0.0177 -0.1936  0.1503
 3214SOL    HW121275   2.885   3.012   7.351 -0.8434  0.8719  0.3227
 3214SOL    HW221276   2.775   3.013   7.455 -1.7686  0.0071 -1.3007
 3215SOL     OW21277   2.511   4.715  10.113 -0.1165 -0.5771 -0.0922
 3215SOL    HW121278   2.598   4.691  10.143  0.1058 -0.1301 -0.3784
 3215SOL    HW221279   2.487   0.046  10.179  1.1897  2.0031 -2.1446
 3216SOL     OW21280   2.299   0.592   4.977 -0.2620  0.2365 -0.4794
 3216SOL    HW121281   2.324   0.510   4.935  0.0339 -0.8804  1.8600
 3216SOL    HW221282   2.253   0.570   5.058  1.1692  0.7076  0.4635
 3217SOL     OW21283   0.827   4.675  10.802 -0.2350 -0.0669 -0.0206
 3217SOL    HW121284   0.754   4.626  10.764 -1.6557  0.0221  2.6052
 3217SOL    HW221285   0.873   4.609  10.853 -0.0574  0.0047 -0.0857
 3218SOL     OW21286   3.578   3.681   8.379 -0.1031 -0.1009  0.5637
 3218SOL    HW121287   3.631   3.758   8.402 -0.4895  0.1268  0.6907
 3218SOL    HW221288   3.639   3.608   8.390 -0.0127 -0.0236  0.5817
 3219SOL     OW21289   1.280   3.947  12.815 -0.0133  0.2077 -0.3080
 3219SOL    HW121290   1.343   3.882  12.785  0.1378  0.4930 -0.6052
 3219SOL    HW221291   1.304   3.955  12.907  1.3574  1.1360 -0.7484
 3220SOL     OW21292   4.390   1.840   8.731 -0.1242  0.7360  0.7674
 3220SOL    HW121293   4.445   1.765   8.749  1.4471  1.3177 -1.6238
 3220SOL    HW221294   4.307   1.801   8.703  0.6434 -0.1421 -0.2591
 3221SOL     OW21295   2.052   3.486   4.041  0.0404  0.7435  0.1513
 3221SOL    HW121296   2.007   3.544   3.980  0.3809  1.1333  0.2688
 3221SOL    HW221297   2.013   3.509   4.125 -1.2101 -1.6324  0.2158
 3222SOL     OW21298   2.656   2.525  11.028 -0.3943  0.2783  0.0645
 3222SOL    HW121299   2.744   2.553  11.054 -0.2458 -0.3266  0.2049
 3222SOL    HW221300   2.625   2.605  10.984  0.8676  0.6416 -0.1476
 3223SOL     OW21301   0.762   0.006   8.203 -0.0955  0.0244 -0.1715
 3223SOL    HW121302   0.725   0.047   8.282 -0.8523 -0.9876  0.0051
 3223SOL    HW221303   0.689   4.685   8.175 -1.2429  0.9211  1.0329
 3224SOL     OW21304   1.914   0.890  10.348 -0.1455 -0.0757 -0.0070
 3224SOL    HW121305   1.886   0.943  10.274  0.4922  1.9358  1.1773
 3224SOL    HW221306   1.902   0.945  10.425 -1.0860 -0.7314  0.3135
 3225SOL     OW21307   3.580   3.986   0.278  0.3330 -0.1851  0.0669
 3225SOL    HW121308   3.634   4.026   0.347  0.5809  0.4674 -0.5021
 3225SOL    HW221309   3.638   3.937   0.221 -1.4555  0.1600 -2.0543
 3226SOL     OW21310   2.659   3.176   9.150  0.2935  1.1325 -0.7298
 3226SOL    HW121311   2.738   3.226   9.171  0.8938 -0.2941  0.4641
 3226SOL    HW221312   2.686   3.144   9.064  0.9832 -1.3870  0.4337
 3227SOL     OW21313   3.919   4.539  10.833  0.0213 -0.3997  0.0685
 3227SOL    HW121314   3.961   4.573  10.912 -0.3644 -0.0022  0.1037
 3227SOL    HW221315   3.991   4.562  10.774  0.7059 -0.6710  0.8013
 3228SOL     OW21316   4.208   2.735   7.404 -0.4190 -0.3519  0.4129
 3228SOL    HW121317   4.123   2.691   7.398 -0.4281 -0.5129  1.6524
 3228SOL    HW221318   4.198   2.782   7.487 -0.2749 -1.3016  0.9714
 3229SOL     OW21319   2.899   1.386   8.102  0.0525  0.4648  0.2113
 3229SOL    HW121320   2.841   1.414   8.031 -0.2788  4.5865  2.1269
 3229SOL    HW221321   2.906   1.459   8.164  1.1613 -1.2268  2.0704
 3230SOL     OW21322   0.723   0.293   0.085  0.3226  0.2202  0.2269
 3230SOL    HW121323   0.763   0.320   0.167 -0.6081  3.0692 -0.2782
 3230SOL    HW221324   0.784   0.340   0.028 -0.2160  0.0974 -0.4557
 3231SOL     OW21325   0.976   2.512  14.716 -0.3763 -0.2851 -0.5186
 3231SOL    HW121326   1.026   2.511  14.635  1.3999 -0.6316  0.5911
 3231SOL    HW221327   1.008   2.430  14.753 -0.8183 -0.2855 -0.1402
 3232SOL     OW21328   3.440   4.695   1.937  0.3582  0.7283  0.0219
 3232SOL    HW121329   3.490   0.042   1.953  1.2940  0.3608 -1.0248
 3232SOL    HW221330   3.387   4.732   1.867  1.2429  2.0347  0.0290
 3233SOL     OW21331   0.545   0.267   7.703 -0.4870 -0.2429  0.5937
 3233SOL    HW121332   0.581   0.181   7.723 -0.5181 -0.9298 -2.2808
 3233SOL    HW221333   0.457   0.243   7.675 -0.9534  0.1213  1.7249
 3234SOL     OW21334   0.020   0.530   6.291  0.0175  0.7010 -0.4036
 3234SOL    HW121335   4.697   0.548   6.365 -0.8206  0.0153 -0.8818
 3234SOL    HW221336   4.710   0.457   6.247  1.2855  0.4576 -1.2587
 3235SOL     OW21337   3.218   3.448  14.837 -0.2855 -0.0834 -0.1806
 3235SOL    HW121338   3.178   3.509  14.775  0.1652  1.3935  0.9837
 3235SOL    HW221339   3.252   3.377  14.782  1.4898 -0.0942  0.9352
 3236SOL     OW21340   3.318   1.024  11.228  0.0201  0.3024 -0.1055
 3236SOL    HW121341   3.254   1.030  11.157 -1.1496 -0.2164  0.9001
 3236SOL    HW221342   3.267   0.988  11.301  0.7287  2.4508  1.4474
 3237SOL     OW21343   1.919   1.422  16.022 -0.1964  0.0216 -0.2143
 3237SOL    HW121344   1.939   1.481  15.950 -0.6283 -0.3494 -0.6441
 3237SOL    HW221345   1.828   1.399  16.003 -0.4351  1.7021 -1.0358
 3238SOL     OW21346   4.709   3.663  14.829  0.8034 -0.7087 -0.1803
 3238SOL    HW121347   4.621   3.664  14.867  0.5800 -0.3153 -0.7069
 3238SOL    HW221348   0.029   3.645  14.905 -1.0862 -0.9028  1.1151
 3239SOL     OW21349   3.138   1.929   2.119  0.4555  0.4253 -0.3009
 3239SOL    HW121350   3.100   1.934   2.207  1.3095 -1.6834  0.1983
 3239SOL    HW221351   3.121   2.021   2.099 -3.5546 -0.5025 -1.2500
 3240SOL     OW21352   3.987   3.414  10.369 -0.3390 -0.3438 -1.1535
 3240SOL    HW121353   3.974   3.351  10.441 -1.3865 -0.5619 -1.5319
 3240SOL    HW221354   3.908   3.466  10.356  0.3305  1.0819  0.4906
 3241SOL     OW21355   3.967   4.326  17.531 -0.0107 -0.6568  0.0460
 3241SOL    HW121356   4.010   4.364  17.608 -0.9050 -0.9249  0.6824
 3241SOL    HW221357   3.954   4.235  17.556  0.0457 -0.8629 -0.6925
 3242SOL     OW21358   1.292   1.534  16.791 -0.8920  0.4831  0.1144
 3242SOL    HW121359   1.335   1.605  16.744  0.2035  0.0634  0.5024
 3242SOL    HW221360   1.335   1.451  16.769  0.3955  0.7683  1.6136
 3243SOL     OW21361   0.608   1.385   6.656  0.2791  0.2867  0.1539
 3243SOL    HW121362   0.583   1.323   6.724 -2.6826  1.7761  0.4136
 3243SOL    HW221363   0.642   1.451   6.717  2.1737 -1.7199  1.2540
 3244SOL     OW21364   3.474   1.556   3.858  0.7771 -0.3597 -0.5134
 3244SOL    HW121365   3.415   1.561   3.782  1.0321  1.2293 -0.5918
 3244SOL    HW221366   3.414   1.591   3.925 -0.3780 -0.9325 -1.2419
 3245SOL     OW21367   2.526   1.401   0.555  0.7561  0.1939  0.2506
 3245SOL    HW121368   2.509   1.307   0.545  0.4548  0.1369  1.2493
 3245SOL    HW221369   2.468   1.437   0.488  1.6223  2.2292  0.6030
 3246SOL     OW21370   2.413   3.462   3.506 -0.3544  0.0225 -0.4978
 3246SOL    HW121371   2.441   3.400   3.439 -1.6755 -0.8335 -0.2539
 3246SOL    HW221372   2.391   3.410   3.583  2.8025 -0.0146  0.3798
 3247SOL     OW21373   0.503   2.616   8.644  0.4024  0.6609  0.3801
 3247SOL    HW121374   0.597   2.632   8.651  0.1307  3.8379 -2.8591
 3247SOL    HW221375   0.456   2.672   8.705  0.0851  1.3259 -0.4611
 3248SOL     OW21376   4.439   0.995   3.574  0.6404 -0.6481  0.3237
 3248SOL    HW121377   4.350   1.031   3.579  1.1624  0.9720 -2.2908
 3248SOL    HW221378   4.413   0.913   3.615 -0.3573 -0.5558 -0.1257
 3249SOL     OW21379   2.349   3.426  16.909 -0.3254  0.0788 -0.3856
 3249SOL    HW121380   2.353   3.449  16.816  1.4810 -3.7750 -1.2216
 3249SOL    HW221381   2.431   3.469  16.933 -0.7118  0.6033  0.0082
 3250SOL     OW21382   1.773   2.322   5.532 -0.4193  0.1231 -0.3633
 3250SOL    HW121383   1.688   2.285   5.556  0.6126 -0.8901  1.6964
 3250SOL    HW221384   1.815   2.289   5.611 -0.5363  0.6634 -0.0811
 3251SOL     OW21385   3.454   4.451   9.600  0.8710  0.4128  0.5947
 3251SOL    HW121386   3.371   4.417   9.568  0.2555  0.8344  1.7220
 3251SOL    HW221387   3.522   4.430   9.537  0.3499  0.0566  0.1598
 3252SOL     OW21388   2.731   0.521   6.001 -0.2059  0.3435 -0.2890
 3252SOL    HW121389   2.701   0.508   6.091  2.3387  0.4566  0.5810
 3252SOL    HW221390   2.807   0.577   6.016 -1.6101  2.5893 -1.5163
 3253SOL     OW21391   2.150   0.004   8.358 -0.1184  0.0307  0.5278
 3253SOL    HW121392   2.113   4.732   8.447  0.1964  0.5450  0.6949
 3253SOL    HW221393   2.208   4.662   8.355 -1.4404 -0.9870  0.8025
 3254SOL     OW21394   1.048   1.587   2.966 -0.0359 -0.6159 -0.0690
 3254SOL    HW121395   1.083   1.498   2.971  0.1646 -0.5709 -0.6147
 3254SOL    HW221396   1.079   1.607   2.877 -0.4746 -0.4445 -0.1807
 3255SOL     OW21397   3.227   3.380  12.301 -0.0913 -0.2867 -0.0755
 3255SOL    HW121398   3.144   3.378  12.349 -0.7048 -0.1385 -1.1138
 3255SOL    HW221399   3.205   3.436  12.226  0.2125 -1.0269 -0.7148
 3256SOL     OW21400   4.300   1.341   5.834  0.3265 -0.0458  0.0757
 3256SOL    HW121401   4.231   1.345   5.768 -1.5719  1.8277  2.1535
 3256SOL    HW221402   4.367   1.288   5.792 -0.5265  0.0475 -1.3874
 3257SOL     OW21403   2.178   3.197   2.527  0.2344  0.0539  0.2168
 3257SOL    HW121404   2.093   3.229   2.559 -0.4849  0.2755 -1.9008
 3257SOL    HW221405   2.189   3.127   2.590 -0.6808  0.8545  1.2686
 3258SOL     OW21406   4.262   2.606  10.378 -0.2904  0.6570  0.4263
 3258SOL    HW121407   4.192   2.659  10.416 -1.0467 -1.3665  1.8091
 3258SOL    HW221408   4.343   2.656  10.370  0.4342 -0.5635  0.1464
 3259SOL     OW21409   3.410   0.883  16.497  0.2240 -0.1794  0.3561
 3259SOL    HW121410   3.496   0.840  16.498  1.8711  3.1315  0.9040
 3259SOL    HW221411   3.406   0.908  16.405  4.0860 -0.3723  0.1418
 3260SOL     OW21412   1.882   4.157  14.817 -0.6990  0.1763  0.5740
 3260SOL    HW121413   1.936   4.224  14.776 -1.3170  0.5993  0.4475
 3260SOL    HW221414   1.840   4.127  14.736 -0.5834  4.1883 -0.9509
 3261SOL     OW21415   1.606   0.583   7.953  0.3311  0.1988 -0.3874
 3261SOL    HW121416   1.602   0.580   8.049  0.1189 -0.0157 -0.4027
 3261SOL    HW221417   1.577   0.496   7.926  1.2387 -0.0193 -0.6602
 3262SOL     OW21418   3.209   1.984   3.650 -0.5137  0.1406  0.9480
 3262SOL    HW121419   3.129   1.942   3.681 -0.8780  0.9857  1.1362
 3262SOL    HW221420   3.185   2.004   3.560  0.7170  1.2507  0.8623
 3263SOL     OW21421   0.650   1.662   4.143  0.1572  0.1488  0.7000
 3263SOL    HW121422   0.673   1.751   4.169  0.7941  0.6725 -1.6597
 3263SOL    HW221423   0.659   1.625   4.231  1.1761 -0.4992  0.3315
 3264SOL     OW21424   2.643   0.423   8.380 -0.1733 -0.7771  0.2137
 3264SOL    HW121425   2.602   0.507   8.402  2.0626  0.4967 -0.4719
 3264SOL    HW221426   2.622   0.395   8.291  0.6366 -0.9486  0.0773
 3265SOL     OW21427   3.539   1.277   4.209  0.0625 -0.2739 -0.6676
 3265SOL    HW121428   3.551   1.361   4.164 -1.8640 -0.6970 -1.9413
 3265SOL    HW221429   3.448   1.284   4.237  0.4922 -0.9547  0.9136
 3266SOL     OW21430   4.103   2.262   1.419 -0.1753  0.1035  0.3270
 3266SOL    HW121431   4.017   2.229   1.393  0.0798 -0.0317 -0.3367
 3266SOL    HW221432   4.089   2.241   1.511 -0.3467  0.7423  0.4480
 3267SOL     OW21433   1.850   3.036   7.191 -0.7478 -0.5479  0.1711
 3267SOL    HW121434   1.903   3.065   7.116 -1.5860 -1.5253 -0.7978
 3267SOL    HW221435   1.860   2.941   7.184  1.8692 -0.3455  1.1439
 3268SOL     OW21436   1.144   0.670  10.314  0.0496 -0.0794  0.2335
 3268SOL    HW121437   1.057   0.634  10.330  0.5000 -0.6315  1.4358
 3268SOL    HW221438   1.114   0.761  10.314  0.3920  0.0279 -1.1544
 3269SOL     OW21439   1.151   0.967  13.882 -0.8232  0.4011 -0.2025
 3269SOL    HW121440   1.156   0.930  13.970  2.1070 -1.2443 -1.0670
 3269SOL    HW221441   1.099   0.902  13.834  0.0863 -0.6129  0.1771
 3270SOL     OW21442   2.039   4.381   8.342 -0.5417  0.0892 -0.2137
 3270SOL    HW121443   1.997   4.412   8.421 -1.2294  0.9117 -0.9055
 3270SOL    HW221444   2.132   4.370   8.365 -0.9042 -3.2835 -0.2886
 3271SOL     OW21445   3.492   4.312   8.944 -0.2384  0.0799 -0.0966
 3271SOL    HW121446   3.445   4.256   9.006  0.6246  1.9544  2.2215
 3271SOL    HW221447   3.577   4.321   8.987  0.1414  0.8657 -1.0118
 3272SOL     OW21448   4.538   3.935   1.725 -0.3951 -0.2205  0.5643
 3272SOL    HW121449   4.610   3.915   1.785  1.1197  0.1554 -1.1241
 3272SOL    HW221450   4.464   3.880   1.752  1.0908 -2.7214 -0.4467
 3273SOL     OW21451   2.649   0.411   9.535 -0.5093  0.0896 -0.1171
 3273SOL    HW121452   2.573   0.416   9.593 -0.5968 -2.3125 -0.0042
 3273SOL    HW221453   2.699   0.337   9.572  0.4705  1.1439  0.6593
 3274SOL     OW21454   0.237   3.332   7.241 -0.0810  0.1977 -0.0412
 3274SOL    HW121455   0.243   3.420   7.205 -1.9831  0.2423 -0.2165
 3274SOL    HW221456   0.161   3.339   7.298 -0.0621  0.8282 -0.0991
 3275SOL     OW21457   2.979   1.861   6.675 -0.2204  0.4218  0.2200
 3275SOL    HW121458   3.026   1.913   6.610  1.1215 -2.3596 -1.0263
 3275SOL    HW221459   2.936   1.801   6.614  0.6216  0.2152 -0.1587
 3276SOL     OW21460   0.211   3.316   4.282 -0.6064  0.4288  0.0535
 3276SOL    HW121461   0.138   3.367   4.249  0.1895 -0.1999 -2.6575
 3276SOL    HW221462   0.247   3.382   4.340 -0.2392  0.1155  0.1865
 3277SOL     OW21463   3.862   4.404   0.829  0.0825 -0.0500  0.0662
 3277SOL    HW121464   3.925   4.436   0.894  1.3721 -2.4236 -0.0118
 3277SOL    HW221465   3.905   4.324   0.798 -0.8512 -0.5124 -0.0365
 3278SOL     OW21466   4.594   1.645   6.079  0.4806  0.2106  0.3268
 3278SOL    HW121467   4.517   1.591   6.090  0.5766 -0.3546 -1.7825
 3278SOL    HW221468   4.661   1.608   6.137  1.5006  0.5920 -0.6132
 3279SOL     OW21469   2.308   1.186   1.612  0.5228  0.1555 -0.0716
 3279SOL    HW121470   2.289   1.240   1.688 -1.1965  0.7888 -0.9378
 3279SOL    HW221471   2.346   1.105   1.647  1.5597  0.2205 -1.0748
 3280SOL     OW21472   0.323   0.007   8.370 -0.0221 -0.2955 -0.0236
 3280SOL    HW121473   0.324   4.651   8.401 -1.6453 -0.7238 -1.2225
 3280SOL    HW221474   0.416   0.019   8.352 -0.4325  2.6079 -0.2048
 3281SOL     OW21475   2.639   4.219   9.736  0.1465 -0.7143 -0.2314
 3281SOL    HW121476   2.624   4.229   9.642  0.3098 -1.3701 -0.3265
 3281SOL    HW221477   2.579   4.152   9.769 -0.6541 -0.3598 -0.9660
 3282SOL     OW21478   0.303   0.142   4.478 -0.5598 -0.7938 -0.0976
 3282SOL    HW121479   0.215   0.136   4.440 -1.0489  0.0706  0.9061
 3282SOL    HW221480   0.276   0.182   4.560  1.1276 -0.8971  0.5022
 3283SOL     OW21481   4.080   3.428   7.161  0.4022  0.0047 -0.1354
 3283SOL    HW121482   3.990   3.436   7.129  0.4496 -3.6312 -1.1032
 3283SOL    HW221483   4.085   3.333   7.151  0.9227  0.2949 -2.6748
 3284SOL     OW21484   3.797   3.799   2.808  0.0723  0.1436  0.7209
 3284SOL    HW121485   3.715   3.780   2.852 -0.4514  2.1709  0.6345
 3284SOL    HW221486   3.768   3.789   2.717  0.7664  1.6233  0.3393
 3285SOL     OW21487   1.393   1.119  13.972 -0.0827  0.8839 -0.7737
 3285SOL    HW121488   1.385   1.155  14.061  1.4729 -1.8058  0.4487
 3285SOL    HW221489   1.312   1.070  13.961  1.4291 -1.9444  0.6926
 3286SOL     OW21490   1.732   2.621   8.714  0.0032 -0.1686  0.7759
 3286SOL    HW121491   1.663   2.680   8.743  1.4255  1.1751  1.4336
 3286SOL    HW221492   1.686   2.541   8.688 -0.8866  0.2458  1.0812
 3287SOL     OW21493   2.665   1.721   2.590  0.2670  0.2622  0.4770
 3287SOL    HW121494   2.713   1.800   2.562 -1.9472  1.6494  0.6243
 3287SOL    HW221495   2.744   1.669   2.599  0.5530  0.5017 -0.5716
 3288SOL     OW21496   1.214   4.287  10.832  0.1617 -0.1321  0.5387
 3288SOL    HW121497   1.254   4.325  10.910  2.9104 -0.4719 -0.6798
 3288SOL    HW221498   1.252   4.199  10.828 -0.9125 -0.5976  0.5239
 3289SOL     OW21499   1.213   4.578   5.597 -0.0919  0.0086  0.0342
 3289SOL    HW121500   1.283   4.623   5.550  0.2906 -0.3990  0.2157
 3289SOL    HW221501   1.263   4.556   5.675  0.3525  0.3938 -0.1433
 3290SOL     OW21502   0.048   0.122   3.017  0.1643  0.0735  0.0592
 3290SOL    HW121503   0.135   0.124   3.056  0.2279 -1.6141  0.0294
 3290SOL    HW221504   0.000   0.120   3.099 -0.0334 -1.4388 -0.0819
 3291SOL     OW21505   2.182   1.246  16.816 -0.2436 -0.9940 -0.1564
 3291SOL    HW121506   2.266   1.265  16.858 -1.3998  4.1117 -0.1600
 3291SOL    HW221507   2.128   1.216  16.889  0.4311 -1.1875  0.2665
 3292SOL     OW21508   0.280   3.700   5.171 -0.2394 -0.0184 -0.0155
 3292SOL    HW121509   0.238   3.714   5.256 -1.3695 -0.3348 -0.5221
 3292SOL    HW221510   0.314   3.789   5.162 -1.4559  0.5992  1.5239
 3293SOL     OW21511   0.825   0.753  12.998  0.2435 -0.0243  0.3975
 3293SOL    HW121512   0.911   0.793  12.998  0.7549 -1.1273 -0.1082
 3293SOL    HW221513   0.802   0.773  12.907 -0.9164  0.1249  0.7180
 3294SOL     OW21514   0.407   3.771   3.414 -0.6037 -0.1844  1.1340
 3294SOL    HW121515   0.446   3.693   3.374 -0.5366 -0.8051  2.4115
 3294SOL    HW221516   0.491   3.811   3.439 -0.9760  1.4480 -0.2208
 3295SOL     OW21517   1.506   1.850   5.044  0.0942  0.0004 -0.3821
 3295SOL    HW121518   1.542   1.898   4.970  1.6440  3.4446  2.6555
 3295SOL    HW221519   1.414   1.867   5.026  0.4099  0.0563 -1.8963
 3296SOL     OW21520   3.897   3.417   2.354  0.2415  0.1336 -0.2838
 3296SOL    HW121521   3.938   3.494   2.393  1.4246  0.1209 -1.5312
 3296SOL    HW221522   3.904   3.366   2.435  0.9948 -1.7125 -1.5216
 3297SOL     OW21523   2.458   0.057  11.532 -0.3670  0.0157  0.1340
 3297SOL    HW121524   2.502   4.732  11.594 -1.9693 -0.4750  0.7891
 3297SOL    HW221525   2.439   0.127  11.595  0.3842  1.3382 -1.0987
 3298SOL     OW21526   1.824   2.257   1.142  0.2216  0.2547 -0.1819
 3298SOL    HW121527   1.732   2.232   1.141  0.6659 -1.4602  1.5954
 3298SOL    HW221528   1.841   2.293   1.055 -2.4601 -0.8481 -1.1475
 3299SOL     OW21529   4.304   2.230   8.428 -0.0206 -0.2780  0.2833
 3299SOL    HW121530   4.329   2.182   8.507 -0.9182  0.3449  0.9334
 3299SOL    HW221531   4.219   2.194   8.403  0.3427 -1.1403  0.2792
 3300SOL     OW21532   3.565   2.843  12.278 -0.2885  0.9099  0.7075
 3300SOL    HW121533   3.512   2.814  12.352 -1.6670  0.9327 -0.2855
 3300SOL    HW221534   3.610   2.758  12.280 -1.6910  0.1590  0.5191
 3301SOL     OW21535   2.995   1.080   7.124  0.9020  0.0352 -0.1341
 3301SOL    HW121536   2.999   1.115   7.213 -2.2239 -1.0355  0.4479
 3301SOL    HW221537   2.901   1.089   7.110  1.0576  1.9349 -0.0121
 3302SOL     OW21538   1.182   4.286  14.479  0.0644 -0.2936  0.1922
 3302SOL    HW121539   1.118   4.240  14.425 -0.0526 -0.9685  0.9148
 3302SOL    HW221540   1.126   4.356  14.512 -1.8665 -1.0487 -1.4529
 3303SOL     OW21541   2.990   2.255   0.358  0.4931 -0.0440 -0.6583
 3303SOL    HW121542   3.019   2.180   0.306 -0.9061 -0.5073 -0.7878
 3303SOL    HW221543   3.067   2.308   0.339  1.2167 -1.3861 -1.4004
 3304SOL     OW21544   1.835   1.930   8.777 -0.2537  0.3727 -0.2998
 3304SOL    HW121545   1.915   1.918   8.726  1.1256 -1.1305  2.2228
 3304SOL    HW221546   1.854   1.983   8.855  0.2871 -0.0262 -0.1567
 3305SOL     OW21547   1.935   4.578   5.059 -0.1094 -0.1549 -0.1126
 3305SOL    HW121548   1.990   4.517   5.009  1.6261 -1.0793  2.9548
 3305SOL    HW221549   1.866   4.599   4.996  1.1663 -2.7640 -2.3930
 3306SOL     OW21550   3.928   3.757  16.886  0.0386 -0.2305 -0.2178
 3306SOL    HW121551   3.870   3.831  16.907 -0.9260 -0.4501 -2.1490
 3306SOL    HW221552   4.013   3.785  16.920  0.5861  0.5877 -2.2676
 3307SOL     OW21553   0.682   0.526   7.796  0.2138 -0.0468 -0.5625
 3307SOL    HW121554   0.627   0.453   7.767 -0.9126  0.7586 -0.4820
 3307SOL    HW221555   0.728   0.544   7.714  1.5152 -0.2181  0.1282
 3308SOL     OW21556   3.888   2.129   7.289  0.2156 -0.6835 -0.2676
 3308SOL    HW121557   3.888   2.090   7.201 -1.8179  0.4014 -0.7411
 3308SOL    HW221558   3.935   2.053   7.323  1.0492  0.2865  0.7162
 3309SOL     OW21559   1.375   2.060   3.942 -0.5686 -0.2420 -0.2345
 3309SOL    HW121560   1.397   2.007   3.865 -2.0456 -1.3081  0.0805
 3309SOL    HW221561   1.453   2.067   3.997  0.4303 -0.9267 -1.5439
 3310SOL     OW21562   0.040   1.338   6.136 -0.4767 -0.0699  0.4475
 3310SOL    HW121563   0.083   1.266   6.181 -0.8496 -1.1848 -0.9993
 3310SOL    HW221564   4.684   1.337   6.168 -0.6157  0.8376  0.1118
 3311SOL     OW21565   3.814   1.359   6.806 -0.1464  0.2201 -0.2893
 3311SOL    HW121566   3.886   1.395   6.858  0.4670  2.1050 -2.4359
 3311SOL    HW221567   3.856   1.280   6.773 -0.0755  1.3916 -2.9674
 3312SOL     OW21568   4.691   2.804  10.235 -0.2773 -0.0198 -0.0170
 3312SOL    HW121569   0.048   2.797  10.266 -0.4834 -2.2550  0.0444
 3312SOL    HW221570   4.679   2.897  10.217  2.8398  0.6672  1.4361
 3313SOL     OW21571   1.301   1.519  10.072 -0.1380  0.0239  0.1592
 3313SOL    HW121572   1.378   1.513  10.128 -0.1145 -1.3404 -0.0152
 3313SOL    HW221573   1.320   1.584  10.004  0.1861  0.8945  1.0878
 3314SOL     OW21574   1.911   4.180   8.207  0.4964  0.0572 -0.2484
 3314SOL    HW121575   1.952   4.257   8.246  0.3273  0.2298 -0.4072
 3314SOL    HW221576   1.842   4.219   8.153  0.6473 -0.1039 -0.5604
 3315SOL     OW21577   1.443   0.396   9.943 -0.2123 -0.7517 -0.3523
 3315SOL    HW121578   1.413   0.472   9.992 -0.4637 -0.0158 -1.6687
 3315SOL    HW221579   1.447   0.430   9.854  0.9936 -2.1136 -0.8161
 3316SOL     OW21580   4.147   4.262   4.033 -0.0636  0.1825 -0.3942
 3316SOL    HW121581   4.096   4.237   3.956 -1.3608 -1.0931  0.8761
 3316SOL    HW221582   4.201   4.186   4.051 -2.1063 -1.1258  0.1350
 3317SOL     OW21583   2.613   4.262   4.568  0.1610 -0.5510 -0.1124
 3317SOL    HW121584   2.599   4.176   4.608  1.8506 -0.8833 -0.2378
 3317SOL    HW221585   2.708   4.252   4.575  0.1396 -2.4526 -2.9367
 3318SOL     OW21586   0.417   1.168   4.907 -0.6190 -0.0243  0.6997
 3318SOL    HW121587   0.401   1.172   5.002  0.2927  0.1062  0.8517
 3318SOL    HW221588   0.326   1.176   4.879  0.1792  1.4235 -1.4237
 3319SOL     OW21589   2.080   3.345   7.720 -0.4003  0.1909 -0.4647
 3319SOL    HW121590   2.021   3.421   7.711  0.3405  0.8755  0.3964
 3319SOL    HW221591   2.149   3.385   7.773 -0.9518  1.4517 -0.6800
 3320SOL     OW21592   4.010   0.578   5.335 -0.6051 -0.2998  0.2961
 3320SOL    HW121593   3.929   0.533   5.312  1.2897 -2.8348 -1.4484
 3320SOL    HW221594   4.021   0.535   5.420  0.3628  1.0879  0.8719
 3321SOL     OW21595   0.628   1.748   3.138 -0.4783  0.6044  0.2580
 3321SOL    HW121596   0.549   1.801   3.152 -1.1138 -0.2993  0.0846
 3321SOL    HW221597   0.685   1.819   3.107 -1.5995  0.7897 -1.3754
 3322SOL     OW21598   4.025   3.684  17.238  0.6237  0.0321  0.1702
 3322SOL    HW121599   3.987   3.751  17.182  1.2957 -1.9972 -2.7439
 3322SOL    HW221600   4.001   3.710  17.327 -0.2295 -1.2432  0.3283
 3323SOL     OW21601   1.447   3.021  17.360  0.4088 -0.6009  0.2553
 3323SOL    HW121602   1.449   2.927  17.378  3.2009 -0.5174  0.3691
 3323SOL    HW221603   1.495   3.032  17.278  0.3929 -0.4433  0.2673
 3324SOL     OW21604   0.321   0.116  11.219  0.3112  0.4073 -0.0772
 3324SOL    HW121605   0.343   0.125  11.312  1.2369  0.9716 -0.3540
 3324SOL    HW221606   0.232   0.153  11.224  0.5033  1.1221 -1.8950
 3325SOL     OW21607   0.395   2.726   2.248 -0.9141 -0.1181  0.0304
 3325SOL    HW121608   0.408   2.690   2.336 -0.0068  0.4163  0.1223
 3325SOL    HW221609   0.389   2.645   2.196 -0.6161  1.5186 -2.5453
 3326SOL     OW21610   1.449   3.916  17.666 -0.4538  0.0209 -0.0723
 3326SOL    HW121611   1.398   3.977  17.720 -0.4138  0.1106 -0.1364
 3326SOL    HW221612   1.408   3.928  17.580 -0.7108 -0.6441 -0.0480
 3327SOL     OW21613   1.125   1.506  14.346 -0.5585 -0.0640  0.2283
 3327SOL    HW121614   1.118   1.541  14.257 -0.2075  1.1814  0.6953
 3327SOL    HW221615   1.216   1.526  14.367 -0.3741  0.0848 -0.7300
 3328SOL     OW21616   2.290   1.003  15.772 -0.4619 -0.0395 -0.0780
 3328SOL    HW121617   2.240   1.053  15.836  1.1375 -0.5705  1.6211
 3328SOL    HW221618   2.240   0.922  15.774  0.6722 -0.7448  0.0818
 3329SOL     OW21619   1.597   0.080  11.257 -0.1166 -0.5512 -0.5491
 3329SOL    HW121620   1.638   0.164  11.277  1.4675 -1.4335 -0.1022
 3329SOL    HW221621   1.544   0.059  11.334  3.4383  0.6061  2.1985
 3330SOL     OW21622   1.848   1.176   5.904 -0.2167  0.6110 -0.2828
 3330SOL    HW121623   1.870   1.157   5.995 -0.6163  0.9597 -0.1139
 3330SOL    HW221624   1.885   1.101   5.859  0.6672 -0.0272  1.4932
 3331SOL     OW21625   3.114   2.479   8.418 -0.3474  0.0033  0.6189
 3331SOL    HW121626   3.060   2.500   8.342  3.6950  1.8180 -1.7421
 3331SOL    HW221627   3.122   2.566   8.458  0.6148  0.5702 -0.7999
 3332SOL     OW21628   2.079   1.644   8.200  0.5463 -0.0066 -0.1877
 3332SOL    HW121629   2.113   1.634   8.289  0.8854  2.1174 -0.0758
 3332SOL    HW221630   1.990   1.612   8.210 -0.1347  2.0364  0.3257
 3333SOL     OW21631   0.350   0.097   5.676  0.4391  0.4567 -0.4561
 3333SOL    HW121632   0.352   0.021   5.618 -1.7064 -1.6016  2.1738
 3333SOL    HW221633   0.256   0.112   5.668  0.6838  1.4120 -1.5213
 3334SOL     OW21634   1.684   1.036   0.283 -0.3406 -0.3514 -0.3531
 3334SOL    HW121635   1.669   1.085   0.202  0.9289 -0.4102 -0.6269
 3334SOL    HW221636   1.609   1.068   0.334  0.4417  2.0608 -0.7168
 3335SOL     OW21637   3.121   2.164   7.991  0.1665 -0.3099  0.2062
 3335SOL    HW121638   3.192   2.108   7.959  0.1964  0.0290 -0.3049
 3335SOL    HW221639   3.044   2.147   7.938  1.0410  0.3845 -1.2741
 3336SOL     OW21640   2.286   1.893   3.558 -0.0834  0.0031 -0.1132
 3336SOL    HW121641   2.200   1.933   3.571 -0.0653 -0.5134  1.5553
 3336SOL    HW221642   2.283   1.857   3.469  0.7673  2.9699 -1.3307
 3337SOL     OW21643   0.675   4.558  15.318 -0.2780 -0.0422 -0.0868
 3337SOL    HW121644   0.688   4.520  15.231 -2.5163 -0.7551 -0.0982
 3337SOL    HW221645   0.618   4.489  15.350 -0.6327 -0.0229 -0.6842
 3338SOL     OW21646   0.453   1.722  11.220 -0.0085 -0.0488  0.0623
 3338SOL    HW121647   0.426   1.799  11.170  2.4497 -0.5196 -1.9747
 3338SOL    HW221648   0.400   1.660  11.170 -0.3871  0.6411 -0.3908
 3339SOL     OW21649   4.274   0.931   8.026  0.0311  0.5057  0.1015
 3339SOL    HW121650   4.367   0.928   8.050  0.3102  0.8484 -0.9203
 3339SOL    HW221651   4.255   1.025   8.018 -1.6149  0.2221  0.8382
 3340SOL     OW21652   2.552   3.781   2.072  0.0830 -0.1220 -0.0594
 3340SOL    HW121653   2.597   3.710   2.117  0.9730 -0.7356 -1.9031
 3340SOL    HW221654   2.476   3.733   2.041  0.1372 -0.2941  0.0744
 3341SOL     OW21655   3.012   0.904   3.166  0.2498  0.7463  0.0314
 3341SOL    HW121656   3.037   0.944   3.083  2.1771 -1.4796 -0.4896
 3341SOL    HW221657   3.084   0.925   3.225 -0.3387 -2.3862  1.8912
 3342SOL     OW21658   3.698   4.235   4.330  0.5672 -0.0926  0.4107
 3342SOL    HW121659   3.688   4.155   4.381  0.3807 -0.3468 -0.0182
 3342SOL    HW221660   3.793   4.249   4.330  0.3354  1.5039 -0.6270
 3343SOL     OW21661   2.677   2.878  17.583 -0.4288 -0.3486 -0.4762
 3343SOL    HW121662   2.664   2.901  17.675 -1.4082 -1.3633 -0.3649
 3343SOL    HW221663   2.585   2.889  17.558 -0.2921  1.3289 -0.2859
 3344SOL     OW21664   0.068   1.946   8.750  0.7923 -0.2176 -0.3254
 3344SOL    HW121665   0.146   2.001   8.753  0.9470 -0.4270 -0.4607
 3344SOL    HW221666   0.012   1.986   8.817  1.6441 -1.1419  0.9251
 3345SOL     OW21667   1.863   4.502  10.921  0.1725  0.0625 -0.4281
 3345SOL    HW121668   1.796   4.568  10.939 -0.0836 -0.8645  1.9526
 3345SOL    HW221669   1.855   4.488  10.826  1.2765 -3.4185 -0.0258
 3346SOL     OW21670   0.185   1.248   7.576 -0.0910 -0.5620  0.0325
 3346SOL    HW121671   0.168   1.235   7.669  0.8986 -0.2251  0.2564
 3346SOL    HW221672   0.098   1.238   7.536 -0.7110 -1.0607  1.5196
 3347SOL     OW21673   1.188   3.651  15.935  0.3191  0.1138  0.5114
 3347SOL    HW121674   1.247   3.724  15.917  2.1243 -1.3623  0.4261
 3347SOL    HW221675   1.112   3.693  15.975  1.0456  1.3899  0.5296
 3348SOL     OW21676   4.060   3.597   5.536 -0.0811  0.1945 -0.0437
 3348SOL    HW121677   4.073   3.691   5.527  0.0652  0.3413  1.6131
 3348SOL    HW221678   4.011   3.602   5.619  1.8435 -0.0991  1.1004
 3349SOL     OW21679   3.569   3.751   6.668  0.3458  0.1248 -0.0601
 3349SOL    HW121680   3.527   3.786   6.746  1.6178 -0.5117  0.9141
 3349SOL    HW221681   3.552   3.657   6.679 -0.6874  0.4125  0.7558
 3350SOL     OW21682   0.385   1.521   6.571 -0.2367 -0.1476 -0.3257
 3350SOL    HW121683   0.395   1.478   6.486 -0.4707  2.4303 -1.6261
 3350SOL    HW221684   0.477   1.515   6.596 -0.5343 -1.6067  0.4634
 3351SOL     OW21685   1.624   2.408   7.777 -0.0721  0.1150  0.1488
 3351SOL    HW121686   1.580   2.406   7.862 -0.0554  0.7714  0.1691
 3351SOL    HW221687   1.555   2.401   7.711 -0.9718 -1.0132  1.2051
 3352SOL     OW21688   3.508   0.873  11.465  0.0874  0.1754  0.3115
 3352SOL    HW121689   3.429   0.913  11.502  0.4988  2.6059 -1.4650
 3352SOL    HW221690   3.545   0.819  11.535  3.0443 -0.1343 -1.4986
 3353SOL     OW21691   4.188   4.541   8.257  0.4529  0.6445  0.6758
 3353SOL    HW121692   4.173   4.533   8.352  0.5392 -0.5818  0.5855
 3353SOL    HW221693   4.214   4.631   8.240 -0.5091  0.7771 -0.1077
 3354SOL     OW21694   0.016   0.135  16.773  0.0613 -0.4661  0.3030
 3354SOL    HW121695   4.734   0.135  16.679  1.4656  2.3257  0.0536
 3354SOL    HW221696   0.075   0.060  16.770  0.0787 -0.4644  0.5676
 3355SOL     OW21697   1.488   4.196   4.322 -0.0276  0.3743 -0.1479
 3355SOL    HW121698   1.435   4.268   4.357 -0.7348  0.3829 -1.2469
 3355SOL    HW221699   1.521   4.168   4.407  1.7475  1.1126 -0.5984
 3356SOL     OW21700   3.798   3.965  15.961  0.0226  0.5467 -0.0455
 3356SOL    HW121701   3.859   4.037  15.942 -1.1324  0.9016 -2.3892
 3356SOL    HW221702   3.741   4.018  16.016 -0.9826  1.6488 -2.1513
 3357SOL     OW21703   2.228   0.147   8.724  0.0794 -0.4273  0.2186
 3357SOL    HW121704   2.214   0.231   8.769 -2.7691 -0.5226 -0.4489
 3357SOL    HW221705   2.293   0.097   8.772 -2.4496 -1.9173  2.0680
 3358SOL     OW21706   0.823   4.399   7.417 -0.0144  0.5206 -0.3109
 3358SOL    HW121707   0.913   4.416   7.388  0.0461 -0.0152 -0.4404
 3358SOL    HW221708   0.774   4.464   7.367  0.8331 -0.3313 -2.2684
 3359SOL     OW21709   0.297   2.824   8.680  0.1881  1.2020 -0.3873
 3359SOL    HW121710   0.245   2.886   8.731  1.1945 -1.4145  3.7540
 3359SOL    HW221711   0.360   2.885   8.641  0.6806  1.0930  0.2338
 3360SOL     OW21712   4.211   2.323  10.728 -0.5352  0.4447 -0.3598
 3360SOL    HW121713   4.221   2.410  10.766 -1.4185  1.0205 -1.4552
 3360SOL    HW221714   4.185   2.353  10.640  0.5116 -0.1066 -0.8552
 3361SOL     OW21715   4.481   3.053  11.599 -0.4282  0.1936 -0.4441
 3361SOL    HW121716   4.531   2.994  11.655 -1.4997 -2.1740 -1.9742
 3361SOL    HW221717   4.472   3.139  11.640  0.3014 -0.2391  0.6271
 3362SOL     OW21718   0.307   3.020   6.004  0.4467  0.2405 -0.4648
 3362SOL    HW121719   0.340   3.110   6.006  0.6338  0.1335  0.8688
 3362SOL    HW221720   0.229   3.033   5.950  0.5014  1.3142 -0.2680
 3363SOL     OW21721   0.578   0.512   7.131 -0.2814 -0.1046 -0.1091
 3363SOL    HW121722   0.623   0.538   7.211  0.1304  1.9483 -0.9980
 3363SOL    HW221723   0.518   0.451   7.174 -0.6442  0.9594  0.8917
 3364SOL     OW21724   0.162   3.030   9.602 -0.0595 -0.0377 -0.5298
 3364SOL    HW121725   0.110   3.092   9.653 -0.5301  0.0507 -1.1092
 3364SOL    HW221726   0.253   3.044   9.627 -0.3845  1.5167 -0.2283
 3365SOL     OW21727   2.677   1.008   1.811  0.4444  0.4467  0.8361
 3365SOL    HW121728   2.734   0.934   1.791 -1.2773 -0.9521  1.0689
 3365SOL    HW221729   2.656   0.990   1.903  0.1753 -0.9348  0.5161
 3366SOL     OW21730   4.672   0.215   8.142 -0.2340 -0.2527  0.0103
 3366SOL    HW121731   4.690   0.259   8.225  0.9527 -0.0386 -0.3722
 3366SOL    HW221732   4.684   0.125   8.173 -1.1254 -0.4072 -0.0968
 3367SOL     OW21733   2.721   0.896   5.097  0.3657  0.1103 -0.2945
 3367SOL    HW121734   2.642   0.843   5.103  1.1587 -0.5876  4.3604
 3367SOL    HW221735   2.760   0.847   5.025  0.0002  0.3182 -0.6325
 3368SOL     OW21736   0.908   0.638   5.422 -0.2391  0.1885 -0.2851
 3368SOL    HW121737   0.817   0.652   5.447  0.0617  1.4666  0.0946
 3368SOL    HW221738   0.958   0.711   5.459  0.5337  0.2420 -1.4612
 3369SOL     OW21739   1.161   2.619   3.385 -0.3656  0.1682 -0.2105
 3369SOL    HW121740   1.224   2.549   3.403  0.2173  0.8416  0.3721
 3369SOL    HW221741   1.135   2.600   3.295 -0.4207 -0.9810  0.0506
 3370SOL     OW21742   4.574   2.876   1.043  0.2809  0.7887 -0.0192
 3370SOL    HW121743   4.605   2.797   0.999 -1.3432 -0.1195  0.4786
 3370SOL    HW221744   4.590   2.853   1.135 -1.4279  0.6738  0.2448
 3371SOL     OW21745   1.710   2.186  10.934  0.2646 -0.5440  0.1543
 3371SOL    HW121746   1.776   2.204  11.001 -2.0099 -0.1760  2.2667
 3371SOL    HW221747   1.637   2.142  10.978  1.0004 -0.4392  1.5044
 3372SOL     OW21748   0.901   1.515   5.173  0.0208  0.4285 -0.1198
 3372SOL    HW121749   0.971   1.449   5.180 -0.2068  0.4235  2.2850
 3372SOL    HW221750   0.832   1.461   5.135 -0.2951  0.8545 -0.1494
 3373SOL     OW21751   4.013   1.223   8.159  0.0908 -0.3302  0.3550
 3373SOL    HW121752   3.943   1.260   8.105  1.7311  0.8448 -0.9863
 3373SOL    HW221753   3.983   1.137   8.188  1.2585 -0.1555  2.0671
 3374SOL     OW21754   2.266   4.293  16.316  0.0295  0.1656 -0.6208
 3374SOL    HW121755   2.257   4.221  16.377  0.4750  0.9794  0.3986
 3374SOL    HW221756   2.361   4.306  16.318  0.0033  0.4059 -0.7940
 3375SOL     OW21757   0.325   1.347   8.206 -0.2880  0.1511 -0.0478
 3375SOL    HW121758   0.356   1.343   8.115 -0.3492 -2.4569  0.0543
 3375SOL    HW221759   0.379   1.413   8.249  2.0340 -1.5143 -0.4284
 3376SOL     OW21760   0.881   0.191  15.231 -0.0902 -0.3106 -0.1204
 3376SOL    HW121761   0.965   0.160  15.261  0.3589 -1.7852 -2.8876
 3376SOL    HW221762   0.859   0.264  15.290  0.4280  0.4706 -0.8868
 3377SOL     OW21763   4.265   3.738  10.892 -0.6243  0.1872  0.6467
 3377SOL    HW121764   4.261   3.688  10.810 -0.4821  0.1969  0.6332
 3377SOL    HW221765   4.217   3.819  10.874 -0.6261  0.1087  0.2893
 3378SOL     OW21766   3.641   3.386   4.385 -0.3109  0.2910  0.2493
 3378SOL    HW121767   3.674   3.386   4.475  0.7412  0.8295 -0.1299
 3378SOL    HW221768   3.570   3.323   4.393  0.2304 -0.1659  1.6482
 3379SOL     OW21769   3.266   0.363   6.588  0.0847  0.0081 -0.3039
 3379SOL    HW121770   3.191   0.324   6.543 -1.1449  1.8202  0.1919
 3379SOL    HW221771   3.333   0.329   6.529  0.3777  1.5773 -0.8532
 3380SOL     OW21772   2.232   0.344   7.708 -0.1025 -0.2200 -0.3101
 3380SOL    HW121773   2.194   0.262   7.740  2.0252 -0.3393  1.8463
 3380SOL    HW221774   2.192   0.408   7.767  0.5990 -0.4923  0.4613
 3381SOL     OW21775   4.131   1.192   4.293 -0.2403 -0.3591 -0.3808
 3381SOL    HW121776   4.060   1.224   4.349 -0.7384 -0.5458 -0.9049
 3381SOL    HW221777   4.199   1.167   4.356 -0.0493 -1.8051 -1.1798
 3382SOL     OW21778   3.654   2.244   2.135  0.5576  0.5355 -0.5112
 3382SOL    HW121779   3.569   2.207   2.158 -0.4754  1.6529 -2.5007
 3382SOL    HW221780   3.691   2.279   2.216  1.7472  0.2791 -0.9401
 3383SOL     OW21781   2.581   1.033  15.986 -0.4132 -0.3853  0.2662
 3383SOL    HW121782   2.561   1.113  16.034  1.1149  0.9811 -1.3799
 3383SOL    HW221783   2.510   0.972  16.006  0.0243 -1.6515 -2.1556
 3384SOL     OW21784   4.252   1.798   5.850  0.0763 -0.3873 -0.0650
 3384SOL    HW121785   4.166   1.760   5.834  0.5588 -1.4075 -0.1933
 3384SOL    HW221786   4.301   1.750   5.785  2.2929  2.3027 -0.3982
 3385SOL     OW21787   0.859   0.352  15.444  0.2993  0.1495 -0.2646
 3385SOL    HW121788   0.843   0.446  15.439 -0.0060  0.2052  1.5402
 3385SOL    HW221789   0.829   0.319  15.529  0.2643  0.1590 -0.2734
 3386SOL     OW21790   4.498   3.292   4.168 -0.6430 -0.1236  0.2327
 3386SOL    HW121791   4.568   3.289   4.234  0.0768 -0.6474 -0.5558
 3386SOL    HW221792   4.421   3.308   4.222  0.1313 -2.6241  2.0712
 3387SOL     OW21793   2.472   0.598   9.338 -0.3647  0.6070  0.0890
 3387SOL    HW121794   2.552   0.563   9.299 -1.0068 -1.1985  0.4157
 3387SOL    HW221795   2.417   0.520   9.343  1.1875 -0.4393  0.9523
 3388SOL     OW21796   1.327   2.335  16.017 -0.0398  0.4946 -0.6230
 3388SOL    HW121797   1.308   2.361  16.107  0.3835 -0.8783 -0.1403
 3388SOL    HW221798   1.243   2.298  15.992 -0.8468  0.6041  1.9485
 3389SOL     OW21799   1.511   3.845   7.063  0.0703 -0.1051 -0.2574
 3389SOL    HW121800   1.533   3.833   6.971 -1.4433  1.6990 -0.8578
 3389SOL    HW221801   1.446   3.916   7.062  1.6637  1.3511  1.0786
 3390SOL     OW21802   0.580   2.991   1.574 -0.2905 -0.5126 -0.1842
 3390SOL    HW121803   0.574   2.920   1.638  0.8047  0.3722  0.8673
 3390SOL    HW221804   0.614   2.943   1.498  0.5412 -0.8907  0.4326
 3391SOL     OW21805   2.945   3.031   8.182  0.3717 -0.6737 -0.0653
 3391SOL    HW121806   2.984   3.065   8.102 -0.6977 -0.0961 -0.3393
 3391SOL    HW221807   2.905   2.951   8.147  0.3168 -0.1966 -1.0620
 3392SOL     OW21808   3.865   2.610   8.823  0.5522 -0.0746  0.2867
 3392SOL    HW121809   3.796   2.561   8.778  0.5761  0.4227 -0.2858
 3392SOL    HW221810   3.878   2.686   8.767 -1.5544 -0.1683 -0.3094
 3393SOL     OW21811   1.096   3.777  13.956  0.3417  0.0921 -0.1099
 3393SOL    HW121812   1.079   3.727  13.876 -0.6188 -1.3365  0.9881
 3393SOL    HW221813   1.139   3.860  13.936  0.6137 -0.1923 -0.7006
 3394SOL     OW21814   3.446   1.241   6.322 -0.0385 -0.8884  0.0483
 3394SOL    HW121815   3.506   1.173   6.292 -0.5882 -1.5139  0.3476
 3394SOL    HW221816   3.463   1.247   6.416  2.3467  0.3264 -0.4823
 3395SOL     OW21817   0.013   3.438  11.729 -0.3327  0.1579  0.3311
 3395SOL    HW121818   0.034   3.357  11.775  0.7884 -0.6952 -1.7252
 3395SOL    HW221819   0.101   3.476  11.726  0.1899 -0.9601  1.6945
 3396SOL     OW21820   0.275   1.807   7.390  0.1371 -0.8516 -0.1479
 3396SOL    HW121821   0.222   1.818   7.469 -1.4742 -0.7835 -1.2564
 3396SOL    HW221822   0.364   1.809   7.425  0.3855 -1.8498 -0.7222
 3397SOL     OW21823   3.358   3.559   7.100  0.0705 -0.6510 -0.0964
 3397SOL    HW121824   3.318   3.474   7.078 -0.5465  0.1382 -2.0143
 3397SOL    HW221825   3.318   3.580   7.184 -0.1652 -2.0094  0.1364
 3398SOL     OW21826   3.204   2.976   1.364 -0.2735  0.3411  0.8234
 3398SOL    HW121827   3.279   2.957   1.420 -0.7526 -0.4597  1.1922
 3398SOL    HW221828   3.151   3.039   1.412 -0.2987  0.4213  0.6922
 3399SOL     OW21829   4.626   3.597   1.642  0.6593 -0.1284  0.9315
 3399SOL    HW121830   4.612   3.510   1.680 -1.4607  0.0893  0.6373
 3399SOL    HW221831   4.545   3.631   1.680 -0.4124 -2.2069  0.5161
 3400SOL     OW21832   1.637   0.944   3.983 -0.0233 -0.0949  0.4740
 3400SOL    HW121833   1.682   0.872   4.027 -0.9142 -0.8366  0.1703
 3400SOL    HW221834   1.708   0.975   3.927  0.3359  2.5299  2.4103
 3401SOL     OW21835   1.642   3.536   1.465  0.2554 -0.4724 -0.1839
 3401SOL    HW121836   1.618   3.595   1.393  0.3778  0.8073  0.8207
 3401SOL    HW221837   1.568   3.476   1.470  2.4176 -2.9525  2.2703
 3402SOL     OW21838   1.039   0.042   3.030 -0.1645  0.3051  0.0401
 3402SOL    HW121839   1.101   0.084   2.970 -1.5969  1.3626 -0.7011
 3402SOL    HW221840   1.072   0.066   3.117 -0.9495  1.7180 -0.0612
 3403SOL     OW21841   0.947   2.959  11.845  0.0484 -0.3134  0.1969
 3403SOL    HW121842   1.022   2.910  11.810  0.7017  2.3376 -2.0976
 3403SOL    HW221843   0.949   2.950  11.941  2.6383  2.3403  0.4068
 3404SOL     OW21844   1.428   4.269  14.337  0.1213  0.4206 -0.4425
 3404SOL    HW121845   1.439   4.355  14.295  1.6370  0.1959 -0.5062
 3404SOL    HW221846   1.350   4.285  14.390 -1.1377  1.5480 -2.6241
 3405SOL     OW21847   0.419   2.221   3.687  0.2660  0.5022  0.1859
 3405SOL    HW121848   0.491   2.159   3.697 -0.7994 -1.0095 -1.5190
 3405SOL    HW221849   0.461   2.295   3.731 -0.7894  0.1092  1.8119
 3406SOL     OW21850   1.871   3.630   2.229 -0.0525 -0.3257  0.8922
 3406SOL    HW121851   1.938   3.678   2.276 -1.1604  1.3103  0.8098
 3406SOL    HW221852   1.809   3.699   2.205 -0.2005 -0.2658  1.4285
 3407SOL     OW21853   2.426   3.432   8.584  0.0483 -0.4578 -0.5569
 3407SOL    HW121854   2.519   3.416   8.568  0.8094  3.3138  0.3784
 3407SOL    HW221855   2.418   3.518   8.544  3.8566 -0.6103 -1.6892
 3408SOL     OW21856   4.009   2.136  11.386 -0.3966 -0.4705  0.4874
 3408SOL    HW121857   4.053   2.051  11.387  0.6560  0.0472 -0.8653
 3408SOL    HW221858   3.959   2.131  11.468 -1.2520  0.7173  0.0494
 3409SOL     OW21859   1.984   4.314   6.298 -0.3363  0.4965  0.1141
 3409SOL    HW121860   1.890   4.327   6.294 -0.4288 -0.1972 -0.0934
 3409SOL    HW221861   2.006   4.375   6.368 -0.4205 -0.5518  1.0592
 3410SOL     OW21862   2.278   3.054   2.978 -0.2680 -0.1022 -0.1366
 3410SOL    HW121863   2.306   3.113   3.048 -3.1233  1.6803 -0.5023
 3410SOL    HW221864   2.340   3.078   2.909  0.0511  0.1041  0.2203
 3411SOL     OW21865   1.736   1.355  12.834 -0.4227 -0.4249  0.1134
 3411SOL    HW121866   1.645   1.329  12.846 -1.7900  4.0164 -0.5379
 3411SOL    HW221867   1.732   1.444  12.798  1.3951 -0.9888 -1.4765
 3412SOL     OW21868   0.399   0.788   5.856  0.3636  0.3644 -0.3370
 3412SOL    HW121869   0.487   0.798   5.821 -0.6239 -0.6715 -3.1589
 3412SOL    HW221870   0.352   0.856   5.807 -3.0584 -1.2590  0.6855
 3413SOL     OW21871   2.763   2.606  16.130  0.1956 -0.2491  0.2541
 3413SOL    HW121872   2.723   2.686  16.098  0.3599 -1.7049 -3.5355
 3413SOL    HW221873   2.694   2.564  16.182  1.1223 -0.7486  1.0980
 3414SOL     OW21874   4.324   1.219   8.758 -0.0088 -0.4908  0.1094
 3414SOL    HW121875   4.333   1.275   8.681 -0.9193 -0.1274  0.2663
 3414SOL    HW221876   4.414   1.196   8.780  0.4779  1.5715  0.2393
 3415SOL     OW21877   4.509   3.937   4.621 -0.2320 -0.2382 -0.4872
 3415SOL    HW121878   4.468   3.864   4.574  1.1753 -2.4829  1.7554
 3415SOL    HW221879   4.454   4.014   4.624  0.3659  0.1458  0.7702
 3416SOL     OW21880   2.085   3.641   1.264 -0.1872 -0.7856  0.1321
 3416SOL    HW121881   2.083   3.547   1.248  0.1852 -0.6264 -0.8525
 3416SOL    HW221882   2.100   3.650   1.358  1.0197  0.9193 -0.2273
 3417SOL     OW21883   1.979   3.691   7.204 -0.5952  0.0639  0.5476
 3417SOL    HW121884   1.899   3.670   7.252 -0.4155  0.3805  0.9846
 3417SOL    HW221885   1.972   3.667   7.111 -0.4268  0.3044  0.4731
 3418SOL     OW21886   0.756   2.222   7.029  0.0808 -0.3660 -0.0823
 3418SOL    HW121887   0.847   2.207   7.054 -0.7872 -1.8570  2.2487
 3418SOL    HW221888   0.762   2.301   6.976 -1.8735 -0.4348 -0.4140
 3419SOL     OW21889   3.910   1.064   9.537 -0.5131  0.2282  0.1358
 3419SOL    HW121890   3.937   1.089   9.449 -0.5504  2.9934  0.8954
 3419SOL    HW221891   3.973   0.997   9.563 -0.4671  0.5421  0.8534
 3420SOL     OW21892   0.220   0.143   5.385  0.1154  0.2447  0.1036
 3420SOL    HW121893   0.140   0.102   5.351  0.1315 -0.4517  0.8932
 3420SOL    HW221894   0.279   0.142   5.310 -1.1606 -2.6170 -0.8604
 3421SOL     OW21895   4.167   0.846  14.806 -0.3873 -0.5647  0.1169
 3421SOL    HW121896   4.261   0.833  14.794 -0.2178 -0.1722  0.9866
 3421SOL    HW221897   4.169   0.826  14.900  0.3490 -0.1422  0.1915
 3422SOL     OW21898   2.638   1.158   2.917 -0.2018  0.6854 -0.0779
 3422SOL    HW121899   2.731   1.179   2.929 -0.4389  1.3108  0.6541
 3422SOL    HW221900   2.650   1.120   2.830  1.4928 -0.7685  0.7586
 3423SOL     OW21901   3.841   0.029   6.556 -0.1739 -0.4802 -0.3520
 3423SOL    HW121902   3.845   0.124   6.554  0.4014 -0.5132 -0.6767
 3423SOL    HW221903   3.759   0.012   6.604  1.0484 -1.8910  1.2584
 3424SOL     OW21904   1.145   0.810   2.611  0.3574  0.0869 -0.3109
 3424SOL    HW121905   1.109   0.807   2.699 -0.3502  3.8114 -0.4555
 3424SOL    HW221906   1.230   0.848   2.632  1.2430 -1.4659 -1.0887
 3425SOL     OW21907   3.003   3.175  13.745 -0.6167 -0.1797  0.0123
 3425SOL    HW121908   3.085   3.214  13.774 -0.3292 -0.7552 -0.0329
 3425SOL    HW221909   3.033   3.111  13.681  1.7261  0.9214  0.0151
 3426SOL     OW21910   3.258   1.280  16.833  0.2563  0.0475  0.1811
 3426SOL    HW121911   3.178   1.312  16.792 -0.1653  2.2405  2.7539
 3426SOL    HW221912   3.289   1.231  16.756  2.0835 -0.2394  1.0845
 3427SOL     OW21913   1.872   0.131   3.890 -0.6692 -0.6282 -0.1317
 3427SOL    HW121914   1.809   0.109   3.959 -2.1352 -3.3843 -2.3373
 3427SOL    HW221915   1.919   0.048   3.889 -0.6253 -0.5989 -0.3490
 3428SOL     OW21916   1.350   4.191   7.631 -0.1500  0.1791  0.9217
 3428SOL    HW121917   1.351   4.117   7.570  2.5785  0.4673  0.6296
 3428SOL    HW221918   1.437   4.229   7.620  0.0109 -0.0957  1.2310
 3429SOL     OW21919   3.691   0.672  14.225 -0.2788  0.3622 -0.1315
 3429SOL    HW121920   3.674   0.758  14.187  1.0052  0.5864 -0.2119
 3429SOL    HW221921   3.609   0.625  14.240 -0.3473 -0.4002 -2.7987
 3430SOL     OW21922   3.519   4.503   1.768 -0.3399 -0.2726  0.2738
 3430SOL    HW121923   3.435   4.465   1.743 -0.7742 -0.4251  1.9621
 3430SOL    HW221924   3.495   4.575   1.826  2.5058  0.2842  0.7767
 3431SOL     OW21925   0.263   3.766   8.436  0.0316 -0.1600  0.5682
 3431SOL    HW121926   0.339   3.735   8.486 -0.4847 -1.5221  0.5182
 3431SOL    HW221927   0.265   3.700   8.366 -0.8028  0.0823  0.3210
 3432SOL     OW21928   0.201   3.395   2.132  0.1916  0.3567  0.1579
 3432SOL    HW121929   0.197   3.303   2.155 -0.4968  0.7124  1.4229
 3432SOL    HW221930   0.270   3.430   2.189 -0.0963  1.0617  0.0700
 3433SOL     OW21931   2.182   0.884   4.422 -0.7118 -0.7243 -0.2367
 3433SOL    HW121932   2.133   0.841   4.492 -0.7942 -1.1774 -0.5779
 3433SOL    HW221933   2.111   0.927   4.374  0.3489  0.0824 -1.0850
 3434SOL     OW21934   0.853   0.363   6.034 -0.8115  0.0076 -0.1450
 3434SOL    HW121935   0.904   0.335   6.109 -1.4279  1.0991  0.6882
 3434SOL    HW221936   0.812   0.282   6.003 -0.6365 -0.3226  0.4854
 3435SOL     OW21937   0.432   3.264   6.332 -0.6080  0.3788  0.0748
 3435SOL    HW121938   0.525   3.285   6.337 -0.8330  2.0088 -2.7269
 3435SOL    HW221939   0.432   3.178   6.375 -0.3091  0.6187  0.5477
 3436SOL     OW21940   1.855   3.331  16.393 -0.4166 -0.1294  0.2868
 3436SOL    HW121941   1.930   3.271  16.386  0.8984  1.6076 -0.3844
 3436SOL    HW221942   1.862   3.362  16.303 -2.1180  0.2453  0.2915
 3437SOL     OW21943   4.058   3.012  15.809 -0.0857 -0.0367 -0.2203
 3437SOL    HW121944   4.009   2.999  15.728  4.0485 -1.0055 -2.5254
 3437SOL    HW221945   4.089   3.102  15.797 -0.1446  0.1619  1.0699
 3438SOL     OW21946   2.057   1.770   9.917 -0.0086  0.0633 -0.0203
 3438SOL    HW121947   2.070   1.679   9.888  2.7370 -0.0104  1.3769
 3438SOL    HW221948   2.070   1.768  10.012  0.5532  1.2086 -0.0709
 3439SOL     OW21949   2.178   0.406  11.486 -0.5510 -0.4892  0.2133
 3439SOL    HW121950   2.237   0.411  11.561 -0.6544  1.1207  0.1924
 3439SOL    HW221951   2.219   0.332  11.442  1.5368 -0.6346  2.4118
 3440SOL     OW21952   2.296   3.600   8.112  0.3598  0.5681 -0.0939
 3440SOL    HW121953   2.354   3.533   8.148 -0.5380  0.9312  1.9983
 3440SOL    HW221954   2.351   3.678   8.119  2.7556 -1.1128 -0.0148
 3441SOL     OW21955   4.404   1.911  14.723 -0.3117  0.1191 -0.1064
 3441SOL    HW121956   4.482   1.861  14.751 -0.4075  0.1019  0.1302
 3441SOL    HW221957   4.335   1.858  14.763  2.0288 -1.3486  2.0408
 3442SOL     OW21958   0.413   0.675  13.074  0.4164 -0.3508 -0.5874
 3442SOL    HW121959   0.322   0.661  13.045  1.0543  0.5233 -3.0315
 3442SOL    HW221960   0.433   0.769  13.072 -1.4058  0.0332 -1.5622
 3443SOL     OW21961   0.465   0.310   7.278 -0.1904 -0.1441  0.2357
 3443SOL    HW121962   0.447   0.221   7.308 -2.4480  0.4252  0.5691
 3443SOL    HW221963   0.461   0.364   7.357 -0.3249  0.6419 -0.3049
 3444SOL     OW21964   1.115   2.763   2.205 -0.4389  0.2078  0.1185
 3444SOL    HW121965   1.112   2.667   2.200 -1.4374  0.0888  2.9724
 3444SOL    HW221966   1.103   2.793   2.115 -1.4937  0.5792  0.3871
 3445SOL     OW21967   0.356   2.077   1.715 -0.3321  0.4990 -0.0034
 3445SOL    HW121968   0.384   2.140   1.782  1.5974  0.8955 -1.2019
 3445SOL    HW221969   0.442   2.036   1.703 -0.7145 -0.0772 -0.7510
 3446SOL     OW21970   3.625   2.837   9.541  0.6963 -0.5511  0.0232
 3446SOL    HW121971   3.609   2.768   9.605 -2.6784 -0.4492 -0.7279
 3446SOL    HW221972   3.572   2.908   9.577  0.4307 -0.8299  0.1837
 3447SOL     OW21973   0.766   1.778   7.970  0.2172 -0.4319  0.2135
 3447SOL    HW121974   0.723   1.860   7.994 -1.1815 -1.2198  0.4261
 3447SOL    HW221975   0.703   1.711   7.996 -2.2814  1.7479 -0.2462
 3448SOL     OW21976   0.552   3.816   4.504 -0.2390 -0.5989  0.0055
 3448SOL    HW121977   0.523   3.886   4.563  0.0524 -0.1002 -0.4477
 3448SOL    HW221978   0.633   3.781   4.541  1.4214  1.4278 -1.6475
 3449SOL     OW21979   2.848   4.278   3.804  0.0494  0.1480 -0.0418
 3449SOL    HW121980   2.880   4.311   3.720 -1.5386  2.1152  0.1240
 3449SOL    HW221981   2.786   4.350   3.820 -0.6148 -0.0518 -1.6962
 3450SOL     OW21982   4.087   0.184   6.222  0.1274 -0.1705  0.5945
 3450SOL    HW121983   4.038   0.232   6.289  0.0724 -0.2810  0.6325
 3450SOL    HW221984   4.169   0.234   6.222  1.4954 -2.4288  0.8419
 3451SOL     OW21985   3.986   1.295   3.417  0.1262 -0.0368 -0.5536
 3451SOL    HW121986   3.985   1.225   3.352 -1.0788  0.7280 -1.3664
 3451SOL    HW221987   4.009   1.249   3.498 -0.3686  0.8453  0.0960
 3452SOL     OW21988   2.153   1.445   0.512  0.2510 -0.4312  0.0626
 3452SOL    HW121989   2.160   1.507   0.440 -0.2006 -0.1066  0.3012
 3452SOL    HW221990   2.193   1.494   0.583  0.6851 -1.4337  0.5085
 3453SOL     OW21991   4.665   3.316  16.856 -0.0402  0.2044  0.5545
 3453SOL    HW121992   4.721   3.311  16.933  1.1305 -2.1514 -0.4630
 3453SOL    HW221993   4.686   3.407  16.833 -1.7308  0.7901  1.3308
 3454SOL     OW21994   0.756   4.192  15.713  0.4054  0.3766 -0.3166
 3454SOL    HW121995   0.716   4.275  15.686  1.1281  0.6451 -0.5454
 3454SOL    HW221996   0.767   4.139  15.634  0.6566  1.2383 -0.8581
 3455SOL     OW21997   2.895   2.228   1.768  0.3685 -0.6193 -0.0541
 3455SOL    HW121998   2.846   2.276   1.701  1.0404  0.7358  0.4458
 3455SOL    HW221999   2.953   2.188   1.704  1.3190  2.1424 -0.9044
 3456SOL     OW22000   1.448   1.512  10.287  0.2024 -0.3773  0.2779
 3456SOL    HW122001   1.530   1.507  10.238  0.5723 -0.0483  0.8660
 3456SOL    HW222002   1.460   1.593  10.336 -1.4400 -0.7664  1.3073
 3457SOL     OW22003   0.374   2.868   3.583 -0.2959  0.3461 -0.2945
 3457SOL    HW122004   0.282   2.882   3.559 -0.2416 -0.4708 -0.9980
 3457SOL    HW222005   0.374   2.773   3.596  0.6342  0.5089  0.8656
 3458SOL     OW22006   4.018   3.416  17.211 -0.1680  0.0756  0.2420
 3458SOL    HW122007   4.027   3.512  17.214  0.2314  0.0884 -0.9907
 3458SOL    HW222008   4.037   3.393  17.120  1.2958  0.0353  0.5634
 3459SOL     OW22009   4.554   3.621   4.082 -0.0351  0.4317  0.5135
 3459SOL    HW122010   4.561   3.697   4.024  1.4299 -0.2866 -0.2433
 3459SOL    HW222011   4.464   3.632   4.115 -0.5305  1.0090 -1.0401
 3460SOL     OW22012   4.070   2.632   7.859 -0.2468  0.3416 -0.2834
 3460SOL    HW122013   4.146   2.670   7.815 -0.2466  0.4246 -0.2102
 3460SOL    HW222014   4.002   2.697   7.839  0.3242  1.3421  1.0537
 3461SOL     OW22015   3.123   3.512   6.692  0.1119 -0.1500 -0.3227
 3461SOL    HW122016   3.041   3.474   6.660  1.1831  0.0176 -3.2401
 3461SOL    HW222017   3.097   3.518   6.784  1.2159  0.4469 -0.0562
 3462SOL     OW22018   3.530   2.992   6.223 -0.1037  0.7499  0.1635
 3462SOL    HW122019   3.450   2.955   6.259  0.6022  0.9914  2.0102
 3462SOL    HW222020   3.572   3.018   6.305 -1.1524  0.2056  0.8726
 3463SOL     OW22021   3.589   0.137   4.721 -0.0431 -0.0284  0.0875
 3463SOL    HW122022   3.507   0.169   4.683  1.2370  2.0196 -0.9474
 3463SOL    HW222023   3.591   0.054   4.672  0.8572 -0.0116  0.1098
 3464SOL     OW22024   3.403   2.139   9.929 -0.2620 -0.0231 -0.1783
 3464SOL    HW122025   3.460   2.204   9.969 -1.2275  1.2783 -0.9008
 3464SOL    HW222026   3.402   2.063   9.988  0.7471 -0.0503 -0.1968
 3465SOL     OW22027   4.638   0.327   6.646 -0.0532  0.6521 -0.2455
 3465SOL    HW122028   4.659   0.295   6.558 -1.2638  1.9997 -1.0237
 3465SOL    HW222029   4.548   0.357   6.630 -0.9135 -1.6961  0.0767
 3466SOL     OW22030   3.596   1.291   7.000 -0.2980  0.0187  0.1182
 3466SOL    HW122031   3.585   1.385   7.018  4.5344  0.8670 -1.4507
 3466SOL    HW222032   3.687   1.286   6.973 -0.2722 -0.0322  0.2172
 3467SOL     OW22033   3.793   2.516   6.544  0.6012  0.1099  0.1154
 3467SOL    HW122034   3.762   2.567   6.470 -0.0041 -0.8989 -0.3221
 3467SOL    HW222035   3.740   2.549   6.616  0.4883 -2.0593  1.0316
 3468SOL     OW22036   0.551   0.525  14.021 -0.0863 -0.2745  0.2354
 3468SOL    HW122037   0.559   0.460  14.091 -0.5150  0.3847  0.9009
 3468SOL    HW222038   0.460   0.507  13.997  0.2433 -1.6768  0.0205
 3469SOL     OW22039   0.276   2.397   7.204  1.0370 -0.0549  0.4854
 3469SOL    HW122040   0.300   2.417   7.113  1.0999 -1.3763  0.2069
 3469SOL    HW222041   0.359   2.420   7.246  0.6351 -0.5038  1.5167
 3470SOL     OW22042   2.651   4.062   1.568  0.2592 -0.3691 -0.4551
 3470SOL    HW122043   2.647   4.143   1.619  2.0669  0.4620 -1.6068
 3470SOL    HW222044   2.746   4.052   1.562 -0.0370 -2.9618 -0.5881
 3471SOL     OW22045   3.818   2.501  11.024  0.2702 -0.1932 -0.0055
 3471SOL    HW122046   3.847   2.411  11.005 -0.6979 -0.1026 -1.9266
 3471SOL    HW222047   3.894   2.553  10.999 -0.3162  1.2416  1.2527
 3472SOL     OW22048   1.252   3.346   4.114  0.0062  0.3492 -0.5733
 3472SOL    HW122049   1.260   3.275   4.179  0.6044 -0.2545 -1.3021
 3472SOL    HW222050   1.254   3.286   4.040 -1.8989  1.4358 -1.5028
 3473SOL     OW22051   4.118   4.616  10.199  0.6463  0.2434  0.0971
 3473SOL    HW122052   4.088   4.705  10.179  1.6805  1.3256  3.3216
 3473SOL    HW222053   4.105   4.619  10.294  1.5212 -1.4044  0.2717
 3474SOL     OW22054   1.168   4.470  10.645  0.1630  0.4540  0.2192
 3474SOL    HW122055   1.120   4.414  10.585  0.8051 -0.7172  0.8081
 3474SOL    HW222056   1.193   4.408  10.714 -0.3694  0.3944  0.3576
 3475SOL     OW22057   0.527   0.324   4.654  0.0966 -0.6127  0.4137
 3475SOL    HW122058   0.619   0.329   4.627 -0.7929  1.8987 -2.1496
 3475SOL    HW222059   0.512   0.418   4.654 -0.0648 -0.6400 -2.2479
 3476SOL     OW22060   0.215   1.164  14.867  0.0230 -0.1375 -0.1091
 3476SOL    HW122061   0.166   1.139  14.788 -1.0884 -0.0364  0.5561
 3476SOL    HW222062   0.155   1.209  14.925  0.2708 -0.4715  0.4042
 3477SOL     OW22063   2.421   3.967   3.861  0.1901  0.2094  0.0769
 3477SOL    HW122064   2.415   3.990   3.953  0.5576  1.5801 -0.2402
 3477SOL    HW222065   2.361   3.895   3.841  0.6891 -0.1898 -0.0160
 3478SOL     OW22066   2.090   0.034   6.302 -0.1969 -0.3114 -0.7174
 3478SOL    HW122067   2.106   4.679   6.334 -0.0832  0.7855  2.3206
 3478SOL    HW222068   2.149   0.041   6.227  1.3592 -0.3479  0.5078
 3479SOL     OW22069   3.203   4.289  16.449  0.2047  0.4852 -0.0288
 3479SOL    HW122070   3.221   4.330  16.534 -0.7583  1.5408 -0.3302
 3479SOL    HW222071   3.265   4.342  16.401  0.6722  1.0182  1.1729
 3480SOL     OW22072   2.201   2.519   9.844  0.1782 -0.1323 -0.1804
 3480SOL    HW122073   2.174   2.449   9.785  1.4635 -0.4021 -0.4369
 3480SOL    HW222074   2.206   2.464   9.923 -0.4189 -0.1996 -0.1881
 3481SOL     OW22075   1.959   2.553  17.515 -0.1857  0.5658 -0.3363
 3481SOL    HW122076   1.892   2.491  17.484  1.1779 -2.0573  1.9129
 3481SOL    HW222077   1.940   2.626  17.456  3.1602  0.4044 -1.6145
 3482SOL     OW22078   0.695   3.398   9.084 -0.2425  0.1033  0.0117
 3482SOL    HW122079   0.699   3.368   9.175  0.8837  2.2685  0.6810
 3482SOL    HW222080   0.617   3.357   9.048 -1.7800  0.1258  3.3347
 3483SOL     OW22081   3.047   2.084   4.537  0.3163 -0.1805  0.2849
 3483SOL    HW122082   3.077   2.167   4.500  2.3457 -0.8193  0.4944
 3483SOL    HW222083   3.041   2.034   4.456 -0.0413  0.2106  0.0692
 3484SOL     OW22084   4.360   2.865   6.544 -0.2517  0.2793 -0.0776
 3484SOL    HW122085   4.331   2.806   6.613 -2.8276 -0.2413 -1.5958
 3484SOL    HW222086   4.388   2.945   6.588 -0.4524  2.5756 -4.0768
 3485SOL     OW22087   1.680   3.001  11.078  0.1715  0.3322  0.6775
 3485SOL    HW122088   1.731   2.933  11.034  0.3220  2.0770 -1.8527
 3485SOL    HW222089   1.717   3.082  11.044  1.3161 -0.4334  0.1119
 3486SOL     OW22090   3.562   0.269   0.798  0.0250 -0.0006 -0.5485
 3486SOL    HW122091   3.641   0.318   0.773  0.4655 -0.3050  0.2677
 3486SOL    HW222092   3.593   0.190   0.753 -0.9799 -0.0426 -1.1674
 3487SOL     OW22093   3.403   3.319   8.899  0.0391  0.9475 -0.4815
 3487SOL    HW122094   3.333   3.334   8.836 -2.2438  0.4892  1.9796
 3487SOL    HW222095   3.454   3.254   8.851  0.5741  1.6091 -0.8268
 3488SOL     OW22096   1.027   3.525   1.154  0.0714  0.4825 -0.1786
 3488SOL    HW122097   1.035   3.454   1.091  2.5943  0.7304 -0.1518
 3488SOL    HW222098   0.970   3.584   1.104 -1.3319 -1.4383 -0.8283
 3489SOL     OW22099   2.118   0.655   3.133  0.1420 -0.2892 -0.0866
 3489SOL    HW122100   2.134   0.639   3.040  2.5954  0.9479  0.1084
 3489SOL    HW222101   2.128   0.749   3.147  1.8890 -0.5213  0.2335
 3490SOL     OW22102   3.118   0.519   5.749  0.3205 -0.2840 -0.2734
 3490SOL    HW122103   3.193   0.566   5.713  0.7586  0.0300  1.0395
 3490SOL    HW222104   3.073   0.603   5.760 -0.9519 -0.9877 -0.0954
 3491SOL     OW22105   3.705   2.417   2.986 -0.4199 -0.5921 -0.4216
 3491SOL    HW122106   3.704   2.513   2.985 -1.8120 -0.6072  0.3976
 3491SOL    HW222107   3.624   2.391   3.030  0.6309 -0.6110  1.4971
 3492SOL     OW22108   1.143   1.521   4.338  0.7016 -0.6578  0.0984
 3492SOL    HW122109   1.171   1.488   4.253 -1.5151  0.5834 -1.1464
 3492SOL    HW222110   1.150   1.450   4.401  4.0712  0.2207  0.6676
 3493SOL     OW22111   3.809   1.909   4.029 -0.5736 -0.2283 -0.0565
 3493SOL    HW122112   3.745   1.839   4.015 -0.6566 -0.0474 -0.5921
 3493SOL    HW222113   3.866   1.875   4.097 -0.1197 -1.5787 -1.1126
 3494SOL     OW22114   0.562   2.422   4.717  0.5493  0.0564  0.2211
 3494SOL    HW122115   0.525   2.343   4.756  2.1810 -1.2709 -0.8884
 3494SOL    HW222116   0.485   2.477   4.730 -0.4987 -1.4305  0.3273
 3495SOL     OW22117   4.554   2.959   1.438  0.2820  0.7235 -0.0639
 3495SOL    HW122118   4.504   2.883   1.409  1.5982  0.1357 -0.7898
 3495SOL    HW222119   4.643   2.928   1.419  0.4550  3.5512 -4.1033
 3496SOL     OW22120   3.478   4.380   9.919  0.0061 -0.0923  0.2407
 3496SOL    HW122121   3.449   4.309   9.862 -1.5158  0.4338  0.3583
 3496SOL    HW222122   3.414   4.368   9.989  1.5069 -0.7432  1.4892
 3497SOL     OW22123   2.020   0.982   8.564 -0.6431 -0.1033 -0.4853
 3497SOL    HW122124   2.046   1.073   8.546 -0.7655  0.0240 -0.0266
 3497SOL    HW222125   2.054   0.945   8.482 -1.3301  1.4254 -1.4727
 3498SOL     OW22126   4.091   1.117  15.528 -0.2611  0.3772 -0.0745
 3498SOL    HW122127   4.160   1.164  15.576 -1.4508  0.8893  1.1122
 3498SOL    HW222128   4.137   1.095  15.447  1.7955  0.1451  1.1420
 3499SOL     OW22129   4.113   1.103  14.713  0.2719  0.0992 -0.2150
 3499SOL    HW122130   4.122   1.018  14.757  2.5591 -0.4558 -1.7542
 3499SOL    HW222131   4.049   1.075  14.647 -2.0005  1.1302  1.5328
 3500SOL     OW22132   3.507   3.472   6.703  0.3450  0.0176  0.8686
 3500SOL    HW122133   3.572   3.435   6.763 -0.3140  1.4688  2.4788
 3500SOL    HW222134   3.442   3.404   6.688  1.5615 -0.4476 -2.2035
 3501SOL     OW22135   3.856   1.394   7.988  0.7672 -0.2145  0.3056
 3501SOL    HW122136   3.816   1.480   7.978  0.8032 -0.0761  1.2974
 3501SOL    HW222137   3.830   1.367   7.900 -2.0382  2.3192  0.3602
 3502SOL     OW22138   3.965   1.278  11.003  0.0921  0.1711  0.5476
 3502SOL    HW122139   3.902   1.210  11.028  1.4598 -0.9787  0.8260
 3502SOL    HW222140   3.973   1.326  11.086  1.7283  0.6882  0.0817
 3503SOL     OW22141   2.792   1.320   3.910  0.3891 -0.2799 -0.3807
 3503SOL    HW122142   2.720   1.374   3.943  0.2385 -0.0385 -1.0946
 3503SOL    HW222143   2.760   1.233   3.932  0.3593 -0.1624  0.0399
 3504SOL     OW22144   0.630   1.066  14.432 -0.5281 -0.1395  0.8387
 3504SOL    HW122145   0.601   1.056  14.342 -0.8254 -0.0354  0.9231
 3504SOL    HW222146   0.724   1.052  14.416 -1.0881  2.0669 -4.4883
 3505SOL     OW22147   1.697   0.347  17.394  0.3801  0.1325  0.3754
 3505SOL    HW122148   1.611   0.347  17.352  0.5850 -0.7898 -0.0365
 3505SOL    HW222149   1.729   0.420  17.342  1.6747 -0.7474 -0.0467
 3506SOL     OW22150   4.184   0.686   8.854  0.7270  0.1866  0.3858
 3506SOL    HW122151   4.223   0.629   8.920  1.1161 -0.4930 -0.4357
 3506SOL    HW222152   4.261   0.740   8.834  0.7563  0.0196  0.0389
 3507SOL     OW22153   3.499   2.402   4.817  0.0755  0.0617  0.3573
 3507SOL    HW122154   3.479   2.414   4.910 -0.2244 -0.7184  0.3939
 3507SOL    HW222155   3.483   2.490   4.784 -1.4836 -0.6804 -0.8453
 3508SOL     OW22156   3.822   1.650   5.611  0.4060  0.0506  0.4049
 3508SOL    HW122157   3.836   1.722   5.673  0.4856 -0.5167  1.0416
 3508SOL    HW222158   3.764   1.592   5.661 -0.4074 -0.7922 -1.5400
 3509SOL     OW22159   3.174   1.513  15.058 -0.3309  0.1651  0.1270
 3509SOL    HW122160   3.103   1.477  15.111 -0.3593 -0.3331 -0.2497
 3509SOL    HW222161   3.138   1.511  14.970  0.7469  3.2244 -0.3726
 3510SOL     OW22162   4.208   2.348   4.579  0.4908  0.3519  0.5280
 3510SOL    HW122163   4.132   2.371   4.632  2.9161  3.3069  2.8135
 3510SOL    HW222164   4.227   2.429   4.532 -0.2469  0.4991  0.4855
 3511SOL     OW22165   0.009   1.460   4.762 -0.5466  0.1049 -0.4496
 3511SOL    HW122166   0.050   1.406   4.695  2.9987 -0.3456  2.0344
 3511SOL    HW222167   0.076   1.488   4.825  0.6687  0.7595 -2.0143
 3512SOL     OW22168   1.264   0.020   6.673 -0.2909  0.3036 -0.2236
 3512SOL    HW122169   1.329   0.085   6.647  1.8581 -1.3088  1.0225
 3512SOL    HW222170   1.251   4.720   6.585  0.8980 -1.4923  0.2925
 3513SOL     OW22171   2.801   0.584   3.827 -0.2924 -0.3110 -0.2959
 3513SOL    HW122172   2.843   0.619   3.906 -1.4390  1.1876 -0.3542
 3513SOL    HW222173   2.752   0.653   3.782 -0.4548 -0.2208  0.0226
 3514SOL     OW22174   4.577   1.476  13.511 -0.1859  0.5357  0.6779
 3514SOL    HW122175   4.533   1.417  13.450  2.9810  1.2242 -2.2522
 3514SOL    HW222176   4.646   1.414  13.535  0.4550  0.7172 -0.7043
 3515SOL     OW22177   0.342   1.968   2.842 -0.5719 -0.1009  0.4570
 3515SOL    HW122178   0.407   2.009   2.784 -1.7870  2.2030  0.7351
 3515SOL    HW222179   0.295   2.048   2.862  0.0272  0.0049  1.4240
 3516SOL     OW22180   3.166   3.488   8.343  0.7609  0.1784  0.1611
 3516SOL    HW122181   3.171   3.476   8.249  3.1134  1.1992  0.1784
 3516SOL    HW222182   3.089   3.543   8.358  0.5620 -0.2900  0.8999
 3517SOL     OW22183   4.372   3.324   6.994 -0.0277  0.3813  0.0224
 3517SOL    HW122184   4.354   3.233   7.019 -0.6092  1.0954  2.1847
 3517SOL    HW222185   4.367   3.320   6.899  1.3720  2.2804 -0.1347
 3518SOL     OW22186   4.375   4.454  10.143  0.0381 -0.4515 -0.3696
 3518SOL    HW122187   4.397   4.408  10.224  0.4329  0.4895  0.0476
 3518SOL    HW222188   4.303   4.514  10.163  0.2939 -0.5021  0.7264
 3519SOL     OW22189   4.075   3.803   0.300  0.3222 -0.0318  0.3970
 3519SOL    HW122190   4.111   3.772   0.217  0.4290  0.2174  0.3496
 3519SOL    HW222191   4.115   3.890   0.301  2.0800 -0.8165 -0.5096
 3520SOL     OW22192   1.713   2.205  10.200  0.4616  0.3468  0.2832
 3520SOL    HW122193   1.724   2.298  10.217  3.8785 -0.0931  0.4378
 3520SOL    HW222194   1.714   2.159  10.284  0.1231  0.6971  0.4797
 3521SOL     OW22195   4.704   4.698   8.513  0.2993  0.0722  0.0445
 3521SOL    HW122196   4.615   4.714   8.544  0.4302 -0.7447  0.8493
 3521SOL    HW222197   4.683   4.702   8.420  0.3129  0.0922  0.0424
 3522SOL     OW22198   3.546   0.777  10.490 -0.3397 -0.1887 -0.0479
 3522SOL    HW122199   3.533   0.857  10.541  0.1830  1.3012 -2.2377
 3522SOL    HW222200   3.615   0.726  10.533 -0.5853 -0.8041 -0.3912
 3523SOL     OW22201   4.627   1.414   3.809 -0.0387  0.1765  0.3186
 3523SOL    HW122202   4.615   1.332   3.856  3.4571 -0.7129 -0.3287
 3523SOL    HW222203   4.699   1.452   3.860  1.5571 -0.8263 -1.1928
 3524SOL     OW22204   3.514   4.492   2.528 -0.0527 -0.0435 -0.6302
 3524SOL    HW122205   3.485   4.415   2.577  3.7855 -0.9228  0.3330
 3524SOL    HW222206   3.562   4.542   2.594 -0.1891 -3.6194  2.1716
 3525SOL     OW22207   3.019   2.211   2.689 -0.2069  0.3728 -0.6944
 3525SOL    HW122208   2.942   2.154   2.683  1.0220 -1.4312  0.5085
 3525SOL    HW222209   2.991   2.290   2.736 -0.7451 -1.6519  2.4017
 3526SOL     OW22210   1.934   1.973   4.940 -0.1004  0.4317  0.3503
 3526SOL    HW122211   2.010   2.009   4.987 -0.7966  0.3147  1.5549
 3526SOL    HW222212   1.868   2.007   5.000  0.6204 -0.4048  1.6172
 3527SOL     OW22213   4.212   0.793   6.116 -0.2293  0.1947  0.6652
 3527SOL    HW122214   4.302   0.781   6.149 -0.4091  0.9313  1.4367
 3527SOL    HW222215   4.235   0.808   6.025 -3.5527  1.7031  0.1151
 3528SOL     OW22216   4.076   0.812   7.290  0.0296  0.1531 -0.0659
 3528SOL    HW122217   4.112   0.901   7.288 -0.1265  0.2773  2.5340
 3528SOL    HW222218   4.158   0.762   7.285 -0.6967 -1.1227  0.8847
 3529SOL     OW22219   4.380   0.967   7.019  0.0466 -0.6448 -0.3452
 3529SOL    HW122220   4.319   0.982   7.092  0.2291  1.3524 -0.5874
 3529SOL    HW222221   4.329   0.930   6.947 -0.5221 -0.5245 -0.0144
 3530SOL     OW22222   3.584   0.258   8.291 -0.2960  0.1633 -0.8780
 3530SOL    HW122223   3.672   0.284   8.266 -0.2475 -1.5532 -2.4981
 3530SOL    HW222224   3.529   0.323   8.248 -0.1142  1.5195  0.9465
 3531SOL     OW22225   1.606   2.214   8.375  0.0379  0.4489 -0.3917
 3531SOL    HW122226   1.669   2.284   8.393  0.2303  0.1935 -0.0690
 3531SOL    HW222227   1.660   2.154   8.322 -1.0040 -0.3191 -0.5943
 3532SOL     OW22228   0.205   0.915  10.548  0.2675  0.8312 -0.0060
 3532SOL    HW122229   0.125   0.863  10.559  1.4641 -0.6967  1.3901
 3532SOL    HW222230   0.223   0.904  10.454 -0.9765 -1.3298  0.0016
 3533SOL     OW22231   4.043   1.976  15.286 -0.5244  0.2533  0.1527
 3533SOL    HW122232   4.055   1.992  15.379 -4.4871 -2.4840  1.1127
 3533SOL    HW222233   4.041   1.880  15.291 -0.8137  0.3031  0.8936
 3534SOL     OW22234   1.586   3.249   3.022 -0.0123 -0.0875  0.0918
 3534SOL    HW122235   1.639   3.312   3.071  2.5405 -2.0129 -0.2006
 3534SOL    HW222236   1.553   3.193   3.092 -0.9370 -0.5752 -0.7381
 3535SOL     OW22237   2.352   1.464   7.714  0.0109 -0.2880 -0.9193
 3535SOL    HW122238   2.355   1.368   7.713 -0.5368 -0.2980 -1.8326
 3535SOL    HW222239   2.271   1.464   7.765 -0.1649 -1.2586 -1.2088
 3536SOL     OW22240   3.478   0.107   4.126 -0.7419 -0.4891 -0.1768
 3536SOL    HW122241   3.429   0.159   4.190  0.9415  1.3993 -0.4446
 3536SOL    HW222242   3.450   0.157   4.050  2.4544  0.6383 -0.5673
 3537SOL     OW22243   2.842   3.115  11.282 -0.2148 -1.1471  0.6301
 3537SOL    HW122244   2.842   3.143  11.190 -2.1872  3.0172  1.9249
 3537SOL    HW222245   2.759   3.148  11.316 -0.3797  0.6344 -1.4690
 3538SOL     OW22246   2.743   1.649   0.810  1.0443 -0.0021  0.1724
 3538SOL    HW122247   2.721   1.682   0.897 -1.5179 -1.9323  0.2398
 3538SOL    HW222248   2.672   1.687   0.757 -0.3328  0.2571  2.1980
 3539SOL     OW22249   4.480   0.656   6.816  0.2050  0.6325 -0.0203
 3539SOL    HW122250   4.455   0.576   6.863 -0.7879  1.1797  0.3836
 3539SOL    HW222251   4.407   0.716   6.829  0.0692  0.2854  0.7983
 3540SOL     OW22252   1.695   2.886  12.473  1.1625 -0.5853 -0.5161
 3540SOL    HW122253   1.714   2.913  12.563  0.4287  0.4132 -0.6590
 3540SOL    HW222254   1.692   2.791  12.483 -2.8153 -0.2528  1.1808
 3541SOL     OW22255   0.834   3.806   1.277 -0.1678  0.9213 -0.7658
 3541SOL    HW122256   0.815   3.899   1.261 -0.9615  1.0556  0.9629
 3541SOL    HW222257   0.801   3.765   1.197 -0.4675 -1.3979  0.5652
 3542SOL     OW22258   1.452   3.256   5.133 -0.0153 -0.3938  0.4536
 3542SOL    HW122259   1.387   3.309   5.086  0.6755  0.3012  0.2800
 3542SOL    HW222260   1.485   3.328   5.187  0.6164 -1.5362  1.5788
 3543SOL     OW22261   0.161   2.745   3.350  0.2609  0.5880 -0.0028
 3543SOL    HW122262   0.235   2.692   3.380  1.8765  3.8448  1.7513
 3543SOL    HW222263   0.189   2.774   3.263  0.2300 -0.7142 -0.4380
 3544SOL     OW22264   1.043   1.646  10.172 -0.2541  0.5219  0.2188
 3544SOL    HW122265   1.120   1.622  10.121  1.3835  1.5508  2.1819
 3544SOL    HW222266   0.976   1.658  10.105  0.6791  1.7134 -0.5075
 3545SOL     OW22267   0.372   0.654  10.140 -0.3500 -0.1950  0.0484
 3545SOL    HW122268   0.333   0.732  10.102 -0.3895  1.6579  3.8554
 3545SOL    HW222269   0.450   0.683  10.187 -0.2535  0.4599 -0.5387
 3546SOL     OW22270   2.098   3.932   2.171 -0.2539 -0.5654 -0.2602
 3546SOL    HW122271   2.018   3.909   2.217  0.7469  1.0821  2.3417
 3546SOL    HW222272   2.080   3.890   2.087  0.6290 -0.0109 -0.7329
 3547SOL     OW22273   2.134   1.439   7.872 -0.5138 -0.2037  0.0442
 3547SOL    HW122274   2.192   1.493   7.926 -2.7217  0.8855  1.3252
 3547SOL    HW222275   2.053   1.442   7.923  1.1759 -0.5282  2.7880
 3548SOL     OW22276   3.914   0.290   4.371  0.0765  0.3156  0.5015
 3548SOL    HW122277   3.904   0.349   4.296 -1.1376 -1.2268 -0.5629
 3548SOL    HW222278   3.839   0.318   4.425 -0.8820 -0.1041 -0.6049
 3549SOL     OW22279   3.490   2.697   4.241  0.4721  0.5819 -0.6382
 3549SOL    HW122280   3.498   2.609   4.205  2.4855  0.6636 -0.3862
 3549SOL    HW222281   3.507   2.744   4.160  0.8418 -0.0190 -0.9085
 3550SOL     OW22282   1.326   2.899  15.731  0.0718 -0.3943  0.0609
 3550SOL    HW122283   1.389   2.946  15.786  1.3252 -0.5711 -1.2431
 3550SOL    HW222284   1.360   2.909  15.643  1.0334  1.9694  0.7092
 3551SOL     OW22285   4.042   1.338   5.410  0.0196  0.1771 -0.2987
 3551SOL    HW122286   4.130   1.334   5.372 -0.0611  2.2429 -0.7033
 3551SOL    HW222287   4.003   1.260   5.372  0.7786 -1.2005  1.7352
 3552SOL     OW22288   2.028   3.574   4.966  0.1527 -0.2975 -0.0375
 3552SOL    HW122289   2.062   3.510   4.903 -1.6464 -1.4683  0.1681
 3552SOL    HW222290   1.950   3.522   4.987 -0.0344  0.2058  0.4840
 3553SOL     OW22291   4.430   0.074  13.765 -0.3246  0.0651  0.6071
 3553SOL    HW122292   4.475   0.067  13.681  0.1878 -0.9883  0.9786
 3553SOL    HW222293   4.496   0.082  13.833 -0.5341  2.2640  0.5737
 3554SOL     OW22294   3.747   4.099  13.810 -0.3578  0.2104  0.1856
 3554SOL    HW122295   3.747   4.016  13.859  0.3009 -0.5315 -1.0832
 3554SOL    HW222296   3.827   4.143  13.837 -0.8166  2.5323 -2.3293
 3555SOL     OW22297   2.144   1.931   2.871  0.1042 -0.0539 -0.9161
 3555SOL    HW122298   2.149   1.988   2.794  2.4242 -1.9884 -2.1749
 3555SOL    HW222299   2.178   1.849   2.835 -1.1585 -1.2243  0.5926
 3556SOL     OW22300   4.655   2.465   2.967  0.0355  0.2777  0.4628
 3556SOL    HW122301   4.664   2.545   3.018 -0.9234  1.3402 -1.0340
 3556SOL    HW222302   0.011   2.435   2.982 -0.4180 -1.1962  0.2576
 3557SOL     OW22303   1.785   3.916  16.194  0.1424 -0.1854  0.3651
 3557SOL    HW122304   1.734   3.986  16.235 -0.2390 -0.6426  0.6659
 3557SOL    HW222305   1.744   3.924  16.108  0.6353 -0.8665  0.0671
 3558SOL     OW22306   3.599   1.667   9.146  0.0632  0.0493 -0.4330
 3558SOL    HW122307   3.609   1.760   9.168  0.5436 -0.1039 -0.0080
 3558SOL    HW222308   3.641   1.618   9.217 -2.3321 -0.7573  0.4287
 3559SOL     OW22309   0.065   3.364   4.559  0.1461  0.2408 -0.1758
 3559SOL    HW122310   0.156   3.336   4.572 -0.7504 -1.7322  1.9324
 3559SOL    HW222311   0.045   3.372   4.652  0.8294 -1.7532  0.1498
 3560SOL     OW22312   3.728   3.294   4.070  0.0981  0.2637  0.3679
 3560SOL    HW122313   3.775   3.277   4.152 -1.8441 -0.3429  1.3602
 3560SOL    HW222314   3.694   3.383   4.076 -2.5304 -0.6131 -1.6965
 3561SOL     OW22315   4.102   0.191   3.032 -0.1190  0.4892 -0.0171
 3561SOL    HW122316   4.032   0.148   3.082  1.9595 -1.1319  1.4763
 3561SOL    HW222317   4.069   0.281   3.040  2.0435  1.0759  2.1855
 3562SOL     OW22318   4.708   3.746  17.600 -0.1736  0.0757 -0.3787
 3562SOL    HW122319   4.650   3.811  17.560 -2.3881 -2.7123 -1.7154
 3562SOL    HW222320   4.646   3.673  17.605  0.9602 -0.7515  1.6907
 3563SOL     OW22321   2.647   4.313   5.778  0.3100 -0.0872  0.5202
 3563SOL    HW122322   2.743   4.313   5.780  0.2698  0.4653  1.8603
 3563SOL    HW222323   2.642   4.272   5.691  0.0426  2.2568 -0.5588
 3564SOL     OW22324   3.082   1.927  16.622  0.3875  0.2784 -0.0039
 3564SOL    HW122325   3.100   1.947  16.531  1.8850  2.8395  0.8541
 3564SOL    HW222326   3.001   1.876  16.611  0.1333  1.2719 -2.6029
 3565SOL     OW22327   1.130   2.935  16.476  0.0298  0.1245  0.0796
 3565SOL    HW122328   1.168   2.858  16.518  1.0656 -0.6237 -2.2242
 3565SOL    HW222329   1.123   2.901  16.386  1.5965 -1.5128  0.5714
 3566SOL     OW22330   2.135   1.088   2.172  0.1267  0.5409 -0.0800
 3566SOL    HW122331   2.117   1.178   2.144 -1.1488 -0.4955 -2.6049
 3566SOL    HW222332   2.141   1.031   2.096  1.3631 -0.1244  0.5099
 3567SOL     OW22333   3.570   3.825   2.038 -0.0811  0.3807  0.1196
 3567SOL    HW122334   3.531   3.904   2.000 -1.1782 -0.1561  0.1343
 3567SOL    HW222335   3.517   3.814   2.116 -0.5043 -1.8914 -0.4780
 3568SOL     OW22336   1.855   3.339   5.243  0.3449 -0.7788  0.2560
 3568SOL    HW122337   1.843   3.394   5.165  0.1411 -1.9217 -0.5053
 3568SOL    HW222338   1.936   3.291   5.225  1.2592  0.7441  0.2706
 3569SOL     OW22339   0.822   3.728  14.651  0.1369  0.1979  0.1286
 3569SOL    HW122340   0.857   3.671  14.582  1.7138  2.0304 -0.5682
 3569SOL    HW222341   0.804   3.803  14.594  0.7512  0.0930 -0.2051
 3570SOL     OW22342   2.948   2.114   3.120 -0.4701 -0.7003 -0.4892
 3570SOL    HW122343   3.041   2.134   3.109 -0.1336 -0.8160  2.1320
 3570SOL    HW222344   2.935   2.052   3.048  2.4832  0.3366 -1.9064
 3571SOL     OW22345   0.353   1.840  10.774 -0.2143 -0.2916  0.3220
 3571SOL    HW122346   0.310   1.754  10.775 -0.5590 -0.1205  0.0520
 3571SOL    HW222347   0.303   1.880  10.845 -0.5888 -0.4628  0.1551
 3572SOL     OW22348   3.171   3.184  12.859 -0.1775  0.1408  0.1968
 3572SOL    HW122349   3.233   3.139  12.918 -0.7823  0.4780  1.0790
 3572SOL    HW222350   3.163   3.270  12.900  4.0710 -0.0482  1.4841
 3573SOL     OW22351   1.574   4.440   4.910 -0.3939  0.7541 -0.2109
 3573SOL    HW122352   1.652   4.492   4.889 -0.8428  0.4867 -2.4792
 3573SOL    HW222353   1.610   4.367   4.959 -1.5365  0.0060 -0.4880
 3574SOL     OW22354   1.044   3.755  13.667 -0.0352 -0.3132 -0.2299
 3574SOL    HW122355   1.102   3.721  13.600 -1.8373  0.1965 -2.0667
 3574SOL    HW222356   0.968   3.761  13.608 -0.6214 -3.9839  0.1859
 3575SOL     OW22357   1.921   0.839   2.013  0.2636 -0.0838  0.5038
 3575SOL    HW122358   1.866   0.817   1.937 -0.8869 -1.7562  1.8169
 3575SOL    HW222359   1.993   0.895   1.985 -0.1061 -0.4188 -1.1496
 3576SOL     OW22360   0.521   0.786   4.892  0.3129  0.2768  0.0753
 3576SOL    HW122361   0.528   0.877   4.920  0.0966  0.3410 -0.0783
 3576SOL    HW222362   0.474   0.805   4.811 -0.7871 -0.9018  0.4382
 3577SOL     OW22363   4.655   3.755  10.092  0.0259 -0.2290 -0.2883
 3577SOL    HW122364   4.581   3.773  10.151 -0.4933 -0.9956 -0.7182
 3577SOL    HW222365   4.696   3.841  10.104  0.6182 -0.4503 -0.7243
 3578SOL     OW22366   3.217   2.778   8.183  0.1518 -0.5186 -0.6204
 3578SOL    HW122367   3.198   2.685   8.168  0.6856 -0.6884 -0.2679
 3578SOL    HW222368   3.312   2.780   8.192 -0.0058 -0.8886  1.1147
 3579SOL     OW22369   2.379   3.566   1.957  0.1908 -0.2814  0.2474
 3579SOL    HW122370   2.432   3.508   1.902  1.0934  1.3500 -0.5898
 3579SOL    HW222371   2.319   3.613   1.900 -0.6424  0.8509  2.0558
 3580SOL     OW22372   3.356   4.455  16.619 -0.8372  0.3912  0.7792
 3580SOL    HW122373   3.308   4.537  16.627 -2.0118 -0.4858  2.5641
 3580SOL    HW222374   3.432   4.478  16.672  0.8192  0.8764 -1.7832
 3581SOL     OW22375   4.722   2.812   7.945  0.1540  0.2246 -0.0491
 3581SOL    HW122376   0.043   2.764   7.883  1.7314 -0.2962  1.7477
 3581SOL    HW222377   4.728   2.899   7.906 -0.2641  1.0351  1.6861
 3582SOL     OW22378   0.835   2.994   9.685 -0.0682 -0.0366  0.3861
 3582SOL    HW122379   0.873   2.965   9.769  2.2573  2.1861  0.0994
 3582SOL    HW222380   0.861   3.086   9.687 -0.6708  0.1428 -0.2782
 3583SOL     OW22381   3.006   2.365   3.415 -0.1829  0.0295 -0.2188
 3583SOL    HW122382   3.037   2.310   3.344 -0.6205  0.9788 -1.1429
 3583SOL    HW222383   2.977   2.317   3.493 -1.1953 -0.9628 -1.2147
 3584SOL     OW22384   2.518   1.740   3.401  0.3878 -0.4653 -0.6825
 3584SOL    HW122385   2.487   1.675   3.338 -1.2370  0.7049 -1.0951
 3584SOL    HW222386   2.509   1.819   3.348 -0.4922 -1.4175 -1.9683
 3585SOL     OW22387   3.182   3.403   7.369 -0.4201  0.0835  0.2228
 3585SOL    HW122388   3.148   3.323   7.407  0.3730 -1.3707 -2.1272
 3585SOL    HW222389   3.098   3.437   7.338  0.2726  1.9839  0.4153
 3586SOL     OW22390   0.153   1.133   6.298  0.2735  0.6342  0.6716
 3586SOL    HW122391   0.150   1.043   6.331 -2.2785  1.1460  1.8347
 3586SOL    HW222392   0.244   1.136   6.270  0.6800 -2.4061  1.6848
 3587SOL     OW22393   2.447   1.436   8.938 -0.0496  0.0798  0.7620
 3587SOL    HW122394   2.478   1.461   8.851 -3.2913  0.5758 -0.2239
 3587SOL    HW222395   2.415   1.346   8.927  0.9034  0.2117 -3.0960
 3588SOL     OW22396   1.808   0.932   6.335  0.4302  0.0475 -0.0364
 3588SOL    HW122397   1.741   0.989   6.373 -2.0565 -1.3646 -2.3668
 3588SOL    HW222398   1.826   0.874   6.409  2.9193  0.0183 -0.6676
 3589SOL     OW22399   4.370   1.894   8.309  0.4350 -0.2927 -0.3114
 3589SOL    HW122400   4.306   1.882   8.379 -2.4367  0.4763 -2.8380
 3589SOL    HW222401   4.447   1.851   8.347 -0.9067 -2.2863  0.1313
 3590SOL     OW22402   1.115   2.616   9.748  0.2018  0.5896  0.3036
 3590SOL    HW122403   1.177   2.668   9.799  0.2267 -0.6608  1.5513
 3590SOL    HW222404   1.158   2.531   9.741 -0.9562 -0.0304  0.6514
 3591SOL     OW22405   2.573   2.359   8.573  0.1578 -0.6993  0.2472
 3591SOL    HW122406   2.663   2.332   8.591  1.0308  0.7531 -2.0001
 3591SOL    HW222407   2.528   2.342   8.656 -0.9951 -1.3057 -0.5075
 3592SOL     OW22408   1.063   1.592   3.594 -0.3851 -0.3605  0.2174
 3592SOL    HW122409   0.970   1.602   3.573  0.1601 -1.8289 -2.7644
 3592SOL    HW222410   1.047   1.531   3.666  3.2338  1.3282  2.4561
 3593SOL     OW22411   3.579   2.914   2.449  0.1195 -0.4075 -0.0903
 3593SOL    HW122412   3.508   2.863   2.408 -0.9532 -0.0276  1.2676
 3593SOL    HW222413   3.554   2.899   2.540  0.8828 -1.6423 -0.0775
 3594SOL     OW22414   3.478   0.759  11.705 -0.2531 -0.7209 -0.6072
 3594SOL    HW122415   3.385   0.735  11.704 -0.2797 -0.6273 -0.2987
 3594SOL    HW222416   3.516   0.680  11.743 -1.2882 -0.5635  0.7438
 3595SOL     OW22417   4.313   1.939  15.698  0.2005  0.6358 -0.0286
 3595SOL    HW122418   4.333   2.032  15.689  1.7531  0.2663 -0.3981
 3595SOL    HW222419   4.378   1.905  15.636  0.3781  0.3555  0.3042
 3596SOL     OW22420   2.251   2.676   1.075 -0.4817 -0.8912  0.4688
 3596SOL    HW122421   2.292   2.685   0.989  0.7354 -0.0815  1.1224
 3596SOL    HW222422   2.258   2.583   1.096 -0.4921 -1.5500 -2.4596
 3597SOL     OW22423   2.444   1.334  13.027 -0.1820  0.3709  0.1274
 3597SOL    HW122424   2.445   1.407  12.965  0.0423 -0.3460 -0.7148
 3597SOL    HW222425   2.469   1.386  13.103  0.1840 -0.6909  0.7320
 3598SOL     OW22426   3.781   1.978  15.546 -0.2779  0.4266  0.6491
 3598SOL    HW122427   3.846   2.008  15.610 -0.2404  0.6893  0.4886
 3598SOL    HW222428   3.705   2.027  15.577 -0.8682 -0.2159  0.2236
 3599SOL     OW22429   1.219   0.749   4.517  0.0512 -0.0772  0.1243
 3599SOL    HW122430   1.149   0.805   4.482 -1.6890 -1.0122  2.1328
 3599SOL    HW222431   1.249   0.804   4.589  0.5389 -0.8831  0.5238
 3600SOL     OW22432   1.970   3.387   8.345 -0.3563  0.5150  0.1684
 3600SOL    HW122433   1.930   3.313   8.389 -1.4351  0.2248 -1.3116
 3600SOL    HW222434   2.055   3.379   8.387  0.4090  2.2007 -1.0402
 3601SOL     OW22435   1.948   2.465   8.230  0.3457 -0.0827 -0.0797
 3601SOL    HW122436   1.918   2.415   8.154 -1.1933  1.9537 -0.8187
 3601SOL    HW222437   1.908   2.426   8.308 -1.4293  0.5893 -0.6568
 3602SOL     OW22438   0.992   0.381   7.750 -0.1692  0.1624 -0.2506
 3602SOL    HW122439   0.963   0.351   7.837  1.4759 -3.1103 -0.8205
 3602SOL    HW222440   0.915   0.369   7.694  0.0423 -0.6743 -0.3605
 3603SOL     OW22441   4.385   0.949   2.937  0.4896 -0.2133  0.6101
 3603SOL    HW122442   4.334   0.870   2.917  0.4553 -0.6865  2.6192
 3603SOL    HW222443   4.463   0.944   2.880 -0.9927 -3.6665 -1.1825
 3604SOL     OW22444   0.077   0.836   4.353 -0.0169 -0.2269 -0.3197
 3604SOL    HW122445   0.107   0.926   4.340 -1.3710  0.4185  1.1043
 3604SOL    HW222446   4.719   0.857   4.340  0.4534  1.4314 -0.9256
 3605SOL     OW22447   0.792   3.445   3.005 -0.5853  0.0860 -0.3343
 3605SOL    HW122448   0.772   3.360   2.965  0.1824 -0.4924  0.5235
 3605SOL    HW222449   0.790   3.506   2.932 -0.1571 -1.7055 -1.8575
 3606SOL     OW22450   1.411   4.290   3.684  0.3884 -0.3743  0.3880
 3606SOL    HW122451   1.392   4.332   3.600  1.3588 -1.0324 -0.1581
 3606SOL    HW222452   1.341   4.327   3.739 -2.0080 -0.1800 -2.7662
 3607SOL     OW22453   1.306   0.102   3.680  0.3043 -0.0693  0.5357
 3607SOL    HW122454   1.231   0.081   3.624  0.5764  1.6258 -0.4629
 3607SOL    HW222455   1.328   0.184   3.636 -0.7037 -0.8448 -1.4396
 3608SOL     OW22456   1.894   0.181   7.864  0.2520  0.0534 -0.3032
 3608SOL    HW122457   1.889   0.212   7.954  1.6128  1.5763 -0.7527
 3608SOL    HW222458   1.958   0.109   7.870  0.6209  0.2438 -1.9446
 3609SOL     OW22459   0.473   2.668   1.274 -0.6456  0.2951  0.3229
 3609SOL    HW122460   0.460   2.726   1.349 -0.7566 -0.6449  1.0338
 3609SOL    HW222461   0.460   2.730   1.202 -1.0990  0.5357  0.6139
 3610SOL     OW22462   2.534   3.269   7.707 -0.5315  0.2056 -0.1140
 3610SOL    HW122463   2.510   3.336   7.771 -0.9645  0.9900 -1.0900
 3610SOL    HW222464   2.589   3.213   7.761  0.0502 -1.4369 -2.4147
 3611SOL     OW22465   2.611   2.335   0.840  0.4820  0.0751  0.2914
 3611SOL    HW122466   2.537   2.372   0.792 -0.0214 -0.6599  0.5158
 3611SOL    HW222467   2.679   2.368   0.782 -1.2084 -0.6894 -2.0901
 3612SOL     OW22468   2.027   0.305   7.095 -0.0462  0.0103 -0.6895
 3612SOL    HW122469   2.003   0.376   7.035 -1.7613 -0.9247 -1.0981
 3612SOL    HW222470   1.940   0.287   7.130 -0.5443  1.3809 -1.2132
 3613SOL     OW22471   3.490   2.218   4.429  0.8958 -0.0798 -0.5860
 3613SOL    HW122472   3.532   2.247   4.510 -2.3030  2.1368  0.3357
 3613SOL    HW222473   3.541   2.262   4.361 -0.4241 -1.1969 -2.3127
 3614SOL     OW22474   3.650   1.060  14.454  0.1838 -0.2883 -0.2337
 3614SOL    HW122475   3.709   1.134  14.441 -0.7448  0.3048 -1.0450
 3614SOL    HW222476   3.703   0.991  14.494 -1.5813 -1.4982  0.0055
 3615SOL     OW22477   3.670   2.813   1.628 -0.7770 -0.4164  0.3794
 3615SOL    HW122478   3.711   2.728   1.644 -0.3949 -0.6859 -2.0101
 3615SOL    HW222479   3.664   2.851   1.716 -0.4274  0.0254  0.2168
 3616SOL     OW22480   0.320   2.962   0.076 -0.2422 -0.2304 -0.0041
 3616SOL    HW122481   0.357   2.936   0.161  2.0402  2.2465 -0.2260
 3616SOL    HW222482   0.291   3.053   0.089  0.0085 -0.4104  1.8407
 3617SOL     OW22483   1.596   3.882   4.801  0.4746  0.4397 -0.2380
 3617SOL    HW122484   1.599   3.968   4.759 -0.0565  1.0288  0.9110
 3617SOL    HW222485   1.548   3.916   4.877 -2.3867 -0.0205 -1.8503
 3618SOL     OW22486   1.729   0.742   9.962 -0.0524  0.4595 -0.3454
 3618SOL    HW122487   1.718   0.648   9.975  2.1897  0.1449 -0.8029
 3618SOL    HW222488   1.774   0.753   9.879  1.2035  1.7196  0.4947
 3619SOL     OW22489   0.472   2.566   4.197 -0.1543 -0.0952  0.5006
 3619SOL    HW122490   0.540   2.596   4.137 -1.1260 -2.4071 -1.7773
 3619SOL    HW222491   0.522   2.548   4.276  0.8689  0.9843  0.1055
 3620SOL     OW22492   2.893   3.408   7.868 -0.5340  0.8132 -0.2637
 3620SOL    HW122493   2.863   3.497   7.887 -2.5538  0.0816  0.0337
 3620SOL    HW222494   2.861   3.356   7.942  2.9698 -2.8033 -1.2707
 3621SOL     OW22495   3.604   0.345   9.106  0.6892  0.1754  0.4836
 3621SOL    HW122496   3.690   0.314   9.135  0.4663 -0.0784  0.8804
 3621SOL    HW222497   3.542   0.273   9.124  1.6053 -0.8187 -0.2998
 3622SOL     OW22498   3.992   2.546   5.200 -0.1731  0.4956  0.1081
 3622SOL    HW122499   3.959   2.599   5.127  0.8210  0.6691 -0.2071
 3622SOL    HW222500   4.039   2.599   5.264 -1.2099  0.7793  0.6408
 3623SOL     OW22501   2.624   2.928  10.658 -0.0805 -0.1240 -0.3257
 3623SOL    HW122502   2.631   2.954  10.566  2.1113  1.6031  0.3529
 3623SOL    HW222503   2.569   3.002  10.684  0.5303 -0.3692  1.6517
 3624SOL     OW22504   0.515   3.001   8.610  0.1442 -0.0446  0.6477
 3624SOL    HW122505   0.572   2.986   8.535 -1.6926  2.0166 -1.1638
 3624SOL    HW222506   0.461   3.074   8.578  0.7695 -0.7801 -2.0780
 3625SOL     OW22507   3.313   0.086   1.719  0.2733  0.3398  0.2102
 3625SOL    HW122508   3.240   0.038   1.681 -0.9875  1.4373  1.2584
 3625SOL    HW222509   3.374   0.076   1.646 -0.9597  0.5575 -0.8397
 3626SOL     OW22510   4.632   3.372   7.158  0.0166  0.1121 -0.4350
 3626SOL    HW122511   4.546   3.356   7.122 -0.7602 -0.4053  1.6276
 3626SOL    HW222512   4.680   3.294   7.131  0.6819  0.5629 -0.5699
 3627SOL     OW22513   3.982   4.459   1.657 -0.2641 -0.1563  0.2947
 3627SOL    HW122514   3.905   4.472   1.714 -0.5809  1.6296 -0.5417
 3627SOL    HW222515   4.054   4.441   1.717  0.0698 -0.7013 -0.2805
 3628SOL     OW22516   3.615   2.206   5.302  0.7277 -0.1148  0.0551
 3628SOL    HW122517   3.653   2.252   5.377 -1.1908 -0.9064  1.5176
 3628SOL    HW222518   3.520   2.199   5.311  0.6201  1.1637 -0.1323
 3629SOL     OW22519   2.798   4.309   0.221 -0.1732  0.6254  0.2558
 3629SOL    HW122520   2.889   4.282   0.225 -0.4009 -0.6250 -2.7291
 3629SOL    HW222521   2.811   4.378   0.155  3.0810  0.3324  0.6158
 3630SOL     OW22522   4.621   3.396   3.444  0.0476 -0.5970 -0.0298
 3630SOL    HW122523   4.559   3.345   3.494 -0.6886  1.4687  1.1492
 3630SOL    HW222524   4.681   3.416   3.516  0.0451 -0.6770 -0.0056
 3631SOL     OW22525   2.770   2.608   3.702  0.0037 -0.4926  0.2451
 3631SOL    HW122526   2.865   2.608   3.694 -0.1442 -1.3114 -1.3810
 3631SOL    HW222527   2.736   2.624   3.614  0.9539 -0.2697 -0.0767
 3632SOL     OW22528   2.898   0.418  10.650  0.4457 -0.0956  0.5550
 3632SOL    HW122529   2.975   0.363  10.636 -0.7502 -0.8303 -3.1250
 3632SOL    HW222530   2.846   0.360  10.706 -0.3972  0.7631  0.6680
 3633SOL     OW22531   2.565   3.820   1.664  0.1158 -0.1559 -0.1529
 3633SOL    HW122532   2.532   3.846   1.750  0.2306  0.6758 -0.3586
 3633SOL    HW222533   2.573   3.903   1.617 -2.3524  0.0265 -0.2477
 3634SOL     OW22534   2.645   3.117   2.468  0.1058  0.3283  0.0110
 3634SOL    HW122535   2.576   3.154   2.415  1.5887  1.5780 -1.0411
 3634SOL    HW222536   2.593   3.067   2.531  0.0750  0.1635 -0.1460
 3635SOL     OW22537   2.697   2.589   8.134 -0.4227  0.3633 -0.2373
 3635SOL    HW122538   2.747   2.519   8.092 -0.0195  0.6120 -0.1611
 3635SOL    HW222539   2.608   2.558   8.113 -0.0095 -0.7981 -0.2706
 3636SOL     OW22540   1.648   2.532   3.485 -0.0400 -0.1641 -0.4593
 3636SOL    HW122541   1.741   2.509   3.487 -0.3138 -1.1044  1.8066
 3636SOL    HW222542   1.623   2.507   3.575  0.5618  0.2743 -0.1711
 3637SOL     OW22543   1.707   0.836  11.297  0.6035  1.1390 -0.6274
 3637SOL    HW122544   1.775   0.778  11.333 -0.9396 -0.5044 -0.3671
 3637SOL    HW222545   1.628   0.796  11.334  0.3343  2.1338 -0.1254
 3638SOL     OW22546   1.859   4.287  11.918 -0.5613  0.6270 -0.1203
 3638SOL    HW122547   1.834   4.200  11.952  1.3784  0.3724  0.6396
 3638SOL    HW222548   1.879   4.268  11.826  2.4847  0.6914  0.5559
 3639SOL     OW22549   4.533   1.308   4.840 -0.0978 -0.7463 -0.2144
 3639SOL    HW122550   4.591   1.357   4.782 -0.0205 -0.3844  0.1676
 3639SOL    HW222551   4.448   1.352   4.829  0.2879  0.1705  0.5111
 3640SOL     OW22552   2.140   1.078   9.177 -0.0746 -0.0095 -0.4278
 3640SOL    HW122553   2.109   1.168   9.173  2.5709  0.9689  1.6525
 3640SOL    HW222554   2.056   1.034   9.163 -0.3062  0.4887 -0.5813
 3641SOL     OW22555   1.337   0.738   7.608 -0.6988  0.3334  0.2888
 3641SOL    HW122556   1.372   0.761   7.522 -1.0091 -3.2641 -0.7855
 3641SOL    HW222557   1.260   0.693   7.572 -1.1958  0.7586  0.8076
 3642SOL     OW22558   1.819   1.009  11.101 -0.0223 -0.1138 -0.0050
 3642SOL    HW122559   1.789   0.941  11.161  0.9690 -1.2911 -0.8535
 3642SOL    HW222560   1.843   1.069  11.173 -2.7744  0.5101  0.3941
 3643SOL     OW22561   0.662   3.287   9.632 -0.0824 -0.2978 -0.3931
 3643SOL    HW122562   0.612   3.362   9.664  1.0876 -0.0853  0.9517
 3643SOL    HW222563   0.749   3.308   9.665 -1.1274 -0.7334  2.5914
 3644SOL     OW22564   3.390   0.007   6.511  0.2692  0.2711  0.3255
 3644SOL    HW122565   3.447   4.699   6.447 -3.2832 -0.2763 -2.4674
 3644SOL    HW222566   3.332   0.069   6.466 -1.4551  0.0549  2.2455
 3645SOL     OW22567   3.560   4.618   6.318 -0.0763 -0.6491  0.1183
 3645SOL    HW122568   3.638   4.671   6.303  0.7107 -1.4470  1.2923
 3645SOL    HW222569   3.508   4.648   6.244  0.2565 -0.3408  0.0110
 3646SOL     OW22570   2.309   4.278   5.807 -0.4571  0.2717 -0.2544
 3646SOL    HW122571   2.351   4.336   5.742 -0.1468  0.7910  0.4114
 3646SOL    HW222572   2.231   4.327   5.832  0.4026  2.1761 -1.2033
 3647SOL     OW22573   0.084   1.680   4.422 -0.3206  0.0278  0.7352
 3647SOL    HW122574   0.034   1.683   4.504  0.0559 -0.0329  0.9672
 3647SOL    HW222575   0.072   1.770   4.390  1.2388  0.2417  0.7422
 3648SOL     OW22576   3.401   0.323   4.340  0.3404 -0.1290  0.1659
 3648SOL    HW122577   3.374   0.289   4.425 -1.0810  0.5445 -0.0173
 3648SOL    HW222578   3.328   0.384   4.328 -0.3042 -0.3267  3.2284
 3649SOL     OW22579   4.384   1.447   6.081 -0.4483 -0.5243  0.0324
 3649SOL    HW122580   4.345   1.404   6.005 -2.7640  1.7510 -0.0594
 3649SOL    HW222581   4.432   1.378   6.127  0.2198  0.1304  0.3107
 3650SOL     OW22582   3.557   1.438   2.377 -0.1802 -0.3368  0.0085
 3650SOL    HW122583   3.506   1.387   2.314 -4.0167 -0.4864  3.1770
 3650SOL    HW222584   3.647   1.408   2.362 -0.3788  0.5332 -2.8751
 3651SOL     OW22585   0.763   3.619   1.463  0.3732  0.5210  0.0164
 3651SOL    HW122586   0.798   3.685   1.403  1.0855  1.4022  1.3996
 3651SOL    HW222587   0.678   3.663   1.470 -0.1753 -0.9225  2.5547
 3652SOL     OW22588   1.299   2.533   5.898 -0.9605 -0.6702 -0.5499
 3652SOL    HW122589   1.386   2.493   5.897  0.9249  3.4029 -1.2167
 3652SOL    HW222590   1.270   2.525   5.807 -3.0510 -1.2727  0.1548
 3653SOL     OW22591   4.147   0.113   1.886 -0.1465 -0.2724 -0.0978
 3653SOL    HW122592   4.145   0.200   1.845  0.5183 -0.0547  0.3368
 3653SOL    HW222593   4.193   0.133   1.967 -1.6743 -2.1458  1.2234
 3654SOL     OW22594   0.094   4.630  13.854  0.3028 -0.6014 -0.1491
 3654SOL    HW122595   0.170   4.624  13.796  0.7504  0.6716  0.2986
 3654SOL    HW222596   0.121   4.704  13.909 -0.3873  0.4150 -1.1803
 3655SOL     OW22597   0.742   1.562  11.508 -0.3224  0.2743  0.3401
 3655SOL    HW122598   0.826   1.587  11.467 -1.9675  3.8774 -0.8987
 3655SOL    HW222599   0.714   1.484  11.460  0.1088  0.4029 -0.1229
 3656SOL     OW22600   3.788   2.241  10.981  0.0499  0.0953 -0.1668
 3656SOL    HW122601   3.778   2.232  11.075 -0.0628 -0.4852 -0.2352
 3656SOL    HW222602   3.695   2.250  10.958  0.0099  1.2934  0.4396
 3657SOL     OW22603   3.400   2.918   7.726  0.5376 -0.4722 -0.2034
 3657SOL    HW122604   3.453   2.991   7.757 -0.6236  0.4990 -0.5151
 3657SOL    HW222605   3.357   2.899   7.809  0.0884 -1.0055 -0.5571
 3658SOL     OW22606   2.422   3.063   1.207 -0.7106 -0.5053 -0.4266
 3658SOL    HW122607   2.490   3.129   1.200 -0.5611 -0.6231 -0.0363
 3658SOL    HW222608   2.474   2.986   1.184 -1.3635 -1.1686  0.2762
 3659SOL     OW22609   1.620   4.360  17.479  0.6000 -0.1936  0.0178
 3659SOL    HW122610   1.533   4.340  17.444  1.2809  1.4686 -2.5945
 3659SOL    HW222611   1.615   4.306  17.558  0.6796 -0.3414 -0.0791
 3660SOL     OW22612   3.047   0.511   7.567 -0.2584 -0.4686 -0.5617
 3660SOL    HW122613   3.078   0.423   7.588  0.5512 -0.4344 -1.6013
 3660SOL    HW222614   2.970   0.491   7.514 -2.5880  3.2473  1.4469
 3661SOL     OW22615   2.499   2.128  16.877 -0.0412 -0.0083  0.7824
 3661SOL    HW122616   2.483   2.119  16.971 -3.2452 -3.3911 -0.1099
 3661SOL    HW222617   2.411   2.152  16.848 -0.6243 -0.1558  2.4072
 3662SOL     OW22618   3.893   4.517   8.007  0.1553 -0.4599  0.9996
 3662SOL    HW122619   3.940   4.515   7.923  0.0787 -1.0861  0.9737
 3662SOL    HW222620   3.798   4.516   7.997  0.0189 -1.8747  2.4868
 3663SOL     OW22621   0.780   2.985   7.525  0.9135 -0.3442 -0.6234
 3663SOL    HW122622   0.798   2.893   7.544  1.2992 -0.3094 -0.8043
 3663SOL    HW222623   0.869   3.020   7.526  0.3843  0.9366  2.5734
 3664SOL     OW22624   0.796   2.490   0.191 -0.1661 -0.1652 -0.0495
 3664SOL    HW122625   0.759   2.549   0.257 -1.0251 -0.8727  0.0956
 3664SOL    HW222626   0.872   2.542   0.164  1.1766 -2.3830 -0.4626
 3665SOL     OW22627   1.515   1.706   7.721 -0.0965  0.1864  0.4155
 3665SOL    HW122628   1.531   1.707   7.815 -0.3542  4.3274  0.4191
 3665SOL    HW222629   1.438   1.763   7.728  1.0018  1.3253  3.2673
 3666SOL     OW22630   0.549   1.472   9.003  0.1704 -0.4873 -0.5381
 3666SOL    HW122631   0.592   1.459   9.087  1.2901 -1.4652 -1.2496
 3666SOL    HW222632   0.476   1.532   9.013  0.7837 -0.0057  0.9245
 3667SOL     OW22633   0.466   2.022  11.521 -0.6723  0.7358  0.1586
 3667SOL    HW122634   0.517   1.942  11.510  3.2448  3.2515 -0.2586
 3667SOL    HW222635   0.538   2.080  11.546 -0.5206  0.3069  0.7114
 3668SOL     OW22636   4.133   2.703   5.360 -0.0795  0.0463 -0.5615
 3668SOL    HW122637   4.190   2.761   5.308 -0.0873  0.2913 -0.2981
 3668SOL    HW222638   4.196   2.655   5.413 -0.5421  0.8837  0.7335
 3669SOL     OW22639   0.887   2.975   6.334 -0.5599 -0.3139  0.0021
 3669SOL    HW122640   0.854   2.886   6.343 -0.0428 -0.4182  0.9433
 3669SOL    HW222641   0.910   3.000   6.245 -1.1498 -1.4173 -0.4546
 3670SOL     OW22642   0.285   2.577   8.025  0.2310  0.3001 -0.4843
 3670SOL    HW122643   0.239   2.627   8.093  0.3956 -1.8569  1.2502
 3670SOL    HW222644   0.248   2.491   8.046  1.4081 -0.2581 -0.6752
 3671SOL     OW22645   1.745   0.269   7.196 -0.0370  0.1877  0.0857
 3671SOL    HW122646   1.706   0.210   7.260 -0.6219  0.0820 -0.3753
 3671SOL    HW222647   1.765   0.355   7.233  0.7641  0.0266  0.0279
 3672SOL     OW22648   1.215   0.903   6.857 -0.0875 -0.3047 -0.3247
 3672SOL    HW122649   1.233   0.990   6.820  0.6587 -0.5197 -0.4603
 3672SOL    HW222650   1.298   0.856   6.856  0.0246 -0.0749 -2.0727
 3673SOL     OW22651   3.542   0.536  12.439 -0.1344  0.3411 -0.0541
 3673SOL    HW122652   3.503   0.479  12.372  0.6162  0.6605 -0.7530
 3673SOL    HW222653   3.590   0.597  12.383 -1.3457  1.7025  0.3806
 3674SOL     OW22654   2.246   2.878   7.868  0.4973  0.2508 -0.8418
 3674SOL    HW122655   2.204   2.944   7.812 -0.0226 -1.2434 -2.2007
 3674SOL    HW222656   2.223   2.907   7.956 -1.0900  1.4361 -1.6321
 3675SOL     OW22657   1.022   4.623  12.646 -0.2206 -0.1567  1.0032
 3675SOL    HW122658   1.103   4.600  12.691  0.7509  1.6572  0.1948
 3675SOL    HW222659   1.028   4.717  12.660  1.1420 -0.0262 -0.4597
 3676SOL     OW22660   1.119   0.225   6.922 -0.0656  0.0466  0.0005
 3676SOL    HW122661   1.173   0.148   6.939 -1.4259 -0.8224  0.4205
 3676SOL    HW222662   1.124   0.235   6.827 -0.6824  0.6960  0.0325
 3677SOL     OW22663   3.912   2.364   3.364  0.3018  0.0786 -0.1915
 3677SOL    HW122664   4.006   2.379   3.374  0.4197 -1.5378  1.1057
 3677SOL    HW222665   3.920   2.271   3.342 -0.7008  0.3033 -1.4753
 3678SOL     OW22666   1.698   4.391   6.861  0.0281 -0.2391 -0.2030
 3678SOL    HW122667   1.760   4.463   6.851 -1.0231  0.8992  1.4096
 3678SOL    HW222668   1.631   4.433   6.806  0.4442  0.9666  0.2234
 3679SOL     OW22669   4.438   0.786   7.528  0.0667  0.2365  0.1134
 3679SOL    HW122670   4.475   0.874   7.538 -1.0296  0.6786  0.2784
 3679SOL    HW222671   4.400   0.764   7.613  0.2440 -1.1171 -0.1562
 3680SOL     OW22672   1.089   2.251   1.349  0.1107 -0.2484  0.4204
 3680SOL    HW122673   1.088   2.263   1.444 -2.2736 -2.1139  0.6367
 3680SOL    HW222674   1.006   2.296   1.329  0.4099  1.2786  2.5605
 3681SOL     OW22675   1.329   0.611   7.852 -0.3193  0.1774  0.2548
 3681SOL    HW122676   1.303   0.543   7.790  0.8790  2.0890 -2.3584
 3681SOL    HW222677   1.249   0.664   7.844 -0.5432 -0.2214 -0.1291
 3682SOL     OW22678   3.758   3.902  17.325 -0.1637 -0.0484  0.1491
 3682SOL    HW122679   3.704   3.880  17.248  1.6534 -0.1259 -1.0961
 3682SOL    HW222680   3.838   3.922  17.276 -1.2265  1.4194 -1.0025
 3683SOL     OW22681   1.968   1.796   7.309  0.1171 -0.2715 -0.2404
 3683SOL    HW122682   1.897   1.735   7.290 -0.8604  0.1253  2.0655
 3683SOL    HW222683   2.009   1.803   7.223  0.3250  0.5465 -0.0801
 3684SOL     OW22684   0.631   1.977   1.601 -0.2174  0.8829 -0.1703
 3684SOL    HW122685   0.617   1.940   1.514  2.0463 -0.3049 -0.0340
 3684SOL    HW222686   0.702   2.040   1.587 -2.0879  3.1450  0.5342
 3685SOL     OW22687   2.685   4.466   7.416 -0.0290  0.0510  0.7340
 3685SOL    HW122688   2.780   4.478   7.404 -0.3468  0.1774 -1.6520
 3685SOL    HW222689   2.666   4.416   7.337 -1.7895 -0.8586  1.7537
 3686SOL     OW22690   1.555   0.500  11.239 -0.1069  0.3137 -0.6077
 3686SOL    HW122691   1.525   0.591  11.238 -3.2908 -0.6989  2.9511
 3686SOL    HW222692   1.582   0.473  11.151  2.2894  0.4096  0.0913
 3687SOL     OW22693   3.778   0.158   2.071 -0.4891  0.3090  0.1071
 3687SOL    HW122694   3.859   0.151   2.122 -1.0010 -0.7428  0.7873
 3687SOL    HW222695   3.714   0.131   2.136  1.2052  0.6374  1.9121
 3688SOL     OW22696   3.569   1.017  15.393 -0.0466 -0.6207  0.3273
 3688SOL    HW122697   3.561   1.043  15.484 -0.0494 -2.5795  0.8717
 3688SOL    HW222698   3.664   1.009  15.388 -0.0753 -0.3956 -0.7599
 3689SOL     OW22699   2.613   4.101  10.530 -0.5042 -0.6433 -0.5258
 3689SOL    HW122700   2.697   4.141  10.508 -1.1830 -0.5710 -3.0178
 3689SOL    HW222701   2.619   4.011  10.497 -0.0312 -1.0127  0.5651
 3690SOL     OW22702   4.047   3.776   6.220 -0.0214 -0.8101 -0.1501
 3690SOL    HW122703   4.063   3.761   6.127 -0.7162 -0.3109 -0.3441
 3690SOL    HW222704   3.954   3.796   6.227  0.4440  1.1796  0.5530
 3691SOL     OW22705   2.528   0.831  11.950 -0.2815 -0.1438 -0.4353
 3691SOL    HW122706   2.488   0.747  11.972  1.6551 -1.3313 -1.5047
 3691SOL    HW222707   2.583   0.841  12.028 -2.6051 -2.1337  1.4451
 3692SOL     OW22708   0.911   2.961   2.347 -0.3884  0.4713  0.7429
 3692SOL    HW122709   0.903   2.889   2.410 -0.6768  1.1739  1.5087
 3692SOL    HW222710   0.998   2.945   2.311 -1.0880 -0.9620 -0.3093
 3693SOL     OW22711   3.669   2.377   0.026 -0.0157 -0.0762  0.3852
 3693SOL    HW122712   3.631   2.464   0.041 -2.3186 -1.1609  0.9192
 3693SOL    HW222713   3.699   2.361   0.115 -1.6296 -3.1555  0.3764
 3694SOL     OW22714   2.503   4.376   5.240  0.1239  0.1703  0.9301
 3694SOL    HW122715   2.549   4.295   5.218  0.2670 -0.5960  3.9498
 3694SOL    HW222716   2.433   4.336   5.292 -0.1063  1.3209  1.5158
 3695SOL     OW22717   3.725   2.906   5.614  0.2047  0.2219  0.3661
 3695SOL    HW122718   3.666   2.941   5.681 -0.8740 -2.4584  0.8269
 3695SOL    HW222719   3.781   2.983   5.604 -1.1600  1.4881  2.5636
 3696SOL     OW22720   3.584   0.310   1.587  0.3121  0.4953  0.0498
 3696SOL    HW122721   3.553   0.221   1.571 -0.6072  0.8631 -0.2466
 3696SOL    HW222722   3.662   0.295   1.641  0.0344 -1.2103 -0.0130
 3697SOL     OW22723   1.045   4.470  13.189 -0.1607  0.2618 -0.3485
 3697SOL    HW122724   1.035   4.541  13.252 -0.0715  0.4311 -0.5256
 3697SOL    HW222725   1.072   4.521  13.113  1.5645  0.0227  0.1049
 3698SOL     OW22726   0.355   2.924  10.880 -0.0218 -0.3315 -0.4136
 3698SOL    HW122727   0.279   2.886  10.924 -0.0142  1.4298  1.0919
 3698SOL    HW222728   0.413   2.893  10.950 -0.7914  0.0128  0.3642
 3699SOL     OW22729   1.630   3.205   8.703  0.4864 -0.3632 -0.2608
 3699SOL    HW122730   1.644   3.298   8.720 -1.5153 -0.0290 -0.4346
 3699SOL    HW222731   1.648   3.165   8.788 -1.3987 -0.2919  0.1689
 3700SOL     OW22732   3.026   4.039  13.610 -0.0466  0.4918  0.5219
 3700SOL    HW122733   3.015   4.089  13.691  1.0532  1.4283  0.0750
 3700SOL    HW222734   3.056   4.111  13.555 -0.1315 -1.4351 -2.0601
 3701SOL     OW22735   0.548   4.066   2.610  0.1362 -0.0697  0.0705
 3701SOL    HW122736   0.615   3.998   2.618 -1.5427 -1.4663  2.3580
 3701SOL    HW222737   0.555   4.096   2.701 -1.2653 -1.8547  0.7691
 3702SOL     OW22738   4.070   1.267   7.701 -0.2501  0.1048  0.5921
 3702SOL    HW122739   4.058   1.206   7.774  2.0103 -0.9592  0.0953
 3702SOL    HW222740   3.993   1.323   7.702  0.5553  1.1978  0.2551
 3703SOL     OW22741   0.712   0.663   7.354  0.2701  0.5652  0.0277
 3703SOL    HW122742   0.736   0.741   7.403 -1.6875  1.7886 -0.9477
 3703SOL    HW222743   0.787   0.662   7.295  1.3402  0.7583  1.3898
 3704SOL     OW22744   0.806   4.272   8.473  0.1053 -0.4615  0.6965
 3704SOL    HW122745   0.805   4.286   8.378 -1.3317  2.0278  1.0801
 3704SOL    HW222746   0.895   4.240   8.490  0.2205  0.9802  2.8600
 3705SOL     OW22747   1.673   2.166   3.242  0.4812  0.3843  0.0382
 3705SOL    HW122748   1.661   2.242   3.185 -0.0540  1.7306  1.9266
 3705SOL    HW222749   1.641   2.206   3.324  1.8640 -0.7664  1.1427
 3706SOL     OW22750   3.217   4.150  10.853 -0.5048  0.0979 -0.0604
 3706SOL    HW122751   3.167   4.128  10.774 -0.5184 -0.0020 -0.0233
 3706SOL    HW222752   3.165   4.217  10.898 -2.5413 -0.0904 -2.1137
 3707SOL     OW22753   4.424   0.475  16.730  0.5109 -0.6627 -0.2740
 3707SOL    HW122754   4.459   0.434  16.808 -1.3709 -1.3938  0.1940
 3707SOL    HW222755   4.458   0.426  16.656  0.0943 -0.9680 -0.2648
 3708SOL     OW22756   0.979   1.042   8.858  0.0113  0.1128 -0.1099
 3708SOL    HW122757   1.031   1.105   8.808 -1.0784  1.3262  0.2833
 3708SOL    HW222758   0.980   1.085   8.943 -2.1325  0.2720 -0.1643
 3709SOL     OW22759   4.527   1.020  17.426  0.2189  0.2876 -0.2370
 3709SOL    HW122760   4.513   0.988  17.515 -0.6939 -0.3807 -0.6167
 3709SOL    HW222761   4.622   1.020  17.417  0.0734  0.4789 -1.9154
 3710SOL     OW22762   1.844   1.119   2.206 -0.0582 -0.7115  0.1062
 3710SOL    HW122763   1.874   1.113   2.115  0.2697 -1.9880  0.3014
 3710SOL    HW222764   1.924   1.095   2.252  0.5226  0.1617 -0.4699
 3711SOL     OW22765   2.498   2.454   1.519  0.3571  0.2363 -0.6990
 3711SOL    HW122766   2.437   2.432   1.590 -3.0298 -1.5334 -4.1375
 3711SOL    HW222767   2.444   2.503   1.456 -4.3367  0.5372  3.5781
 3712SOL     OW22768   4.020   0.461   3.333 -0.2554  0.0343 -0.3136
 3712SOL    HW122769   3.976   0.443   3.250  2.1850 -1.3065 -1.3364
 3712SOL    HW222770   4.096   0.403   3.323  0.6305  0.7548  2.4436
 3713SOL     OW22771   4.192   1.411   1.269 -0.3842 -0.0031  0.5594
 3713SOL    HW122772   4.174   1.324   1.305  0.4853  0.9465  3.3408
 3713SOL    HW222773   4.134   1.403   1.193 -0.3431 -0.1861  0.5468
 3714SOL     OW22774   0.085   0.017   3.573 -0.4905  0.0098  0.1368
 3714SOL    HW122775   0.110   4.728   3.662 -2.1043 -0.0037  0.5860
 3714SOL    HW222776   0.027   0.092   3.585 -1.0593 -0.3614 -0.3541
 3715SOL     OW22777   0.090   3.406   6.363  0.3242  0.2819 -0.1680
 3715SOL    HW122778   0.098   3.401   6.459 -0.5605 -1.6950 -0.2141
 3715SOL    HW222779   0.125   3.319   6.344  2.1383  0.4965  2.0915
 3716SOL     OW22780   0.306   3.501  14.493 -0.0891 -0.9195 -0.1021
 3716SOL    HW122781   0.379   3.544  14.538 -0.8908  0.7329 -0.3466
 3716SOL    HW222782   0.251   3.483  14.569  0.6708 -0.3481  0.5828
 3717SOL     OW22783   3.213   3.340   1.375 -0.1073 -0.3241  0.1786
 3717SOL    HW122784   3.250   3.421   1.342 -0.0920 -0.0422  0.8877
 3717SOL    HW222785   3.295   3.296   1.396  0.7692  2.1220  1.8918
 3718SOL     OW22786   2.855   2.344  13.956  0.6316 -0.1912 -0.0247
 3718SOL    HW122787   2.908   2.424  13.951 -0.3176  0.3948 -0.9451
 3718SOL    HW222788   2.863   2.319  14.048 -0.8937 -1.4519 -0.2391
 3719SOL     OW22789   3.440   1.435  15.470  0.0316  0.1883  0.8267
 3719SOL    HW122790   3.461   1.527  15.489  0.6291  0.5423 -1.5329
 3719SOL    HW222791   3.460   1.397  15.555  0.1765 -1.3098  0.1106
 3720SOL     OW22792   2.379   3.514  12.493 -0.0671  0.4029 -0.9403
 3720SOL    HW122793   2.464   3.470  12.502  0.2252  0.6913 -2.4084
 3720SOL    HW222794   2.348   3.505  12.404 -0.7059 -1.1137 -0.5667
 3721SOL     OW22795   2.117   3.695   1.530 -0.8319 -0.4241 -0.5793
 3721SOL    HW122796   2.088   3.625   1.589  2.2101  1.6375  3.3428
 3721SOL    HW222797   2.210   3.700   1.550 -1.0409  0.9656  0.0492
 3722SOL     OW22798   2.015   3.177   3.165  0.2476  0.3227 -0.1402
 3722SOL    HW122799   2.083   3.221   3.114  2.3967 -2.4187  0.3920
 3722SOL    HW222800   1.969   3.121   3.103 -0.1182  2.0501 -1.4331
 3723SOL     OW22801   2.103   1.152   7.823  0.5360  0.1455  0.0539
 3723SOL    HW122802   2.047   1.184   7.753  0.4282  0.2119  0.1711
 3723SOL    HW222803   2.155   1.231   7.835  1.5737 -0.4074 -0.7723
 3724SOL     OW22804   2.149   0.349   3.853  0.7635 -0.6279  0.8707
 3724SOL    HW122805   2.143   0.326   3.945  1.0014 -0.1335  1.0120
 3724SOL    HW222806   2.095   0.428   3.855  0.6343 -0.7444  1.9784
 3725SOL     OW22807   4.094   1.209   2.515 -0.0808 -0.1392  0.1152
 3725SOL    HW122808   4.017   1.172   2.556 -1.2229  0.7435 -1.2190
 3725SOL    HW222809   4.059   1.205   2.426  0.2094 -0.8873  0.0352
 3726SOL     OW22810   3.429   3.000   8.962 -0.2109 -0.0084  0.6393
 3726SOL    HW122811   3.448   3.011   8.869 -0.2191  1.0536  0.7581
 3726SOL    HW222812   3.481   3.070   9.001 -1.4341  2.5630 -2.4009
 3727SOL     OW22813   3.239   3.102   6.820 -0.1309  0.2778  0.2153
 3727SOL    HW122814   3.300   3.073   6.888  0.0400 -0.5043 -0.2799
 3727SOL    HW222815   3.166   3.041   6.823  1.2050 -1.2594  1.2252
 3728SOL     OW22816   2.366   1.855   8.433 -0.4505  0.0922 -0.1183
 3728SOL    HW122817   2.310   1.777   8.436 -0.3637 -0.0084 -1.0551
 3728SOL    HW222818   2.298   1.911   8.396 -1.2341 -0.1996  0.8776
 3729SOL     OW22819   1.126   4.013   6.860  0.1347 -0.0292  0.5321
 3729SOL    HW122820   1.056   4.078   6.855 -0.4274 -0.6417  0.2415
 3729SOL    HW222821   1.092   3.960   6.932 -0.4517 -0.0368  0.2543
 3730SOL     OW22822   0.864   2.562  16.896 -0.1661 -1.0878 -0.0903
 3730SOL    HW122823   0.909   2.645  16.910  0.1222 -1.2375 -0.1393
 3730SOL    HW222824   0.800   2.558  16.967  0.4424 -0.2249  0.5083
 3731SOL     OW22825   0.850   2.748   3.348 -0.7592  0.1217  0.2864
 3731SOL    HW122826   0.779   2.748   3.283 -0.9584  0.1135  0.5063
 3731SOL    HW222827   0.814   2.687   3.412 -0.4069  0.0134  0.3796
 3732SOL     OW22828   2.561   2.851   6.750 -0.7009  0.2231  0.3376
 3732SOL    HW122829   2.523   2.934   6.780  2.0422  1.4629  0.3528
 3732SOL    HW222830   2.478   2.810   6.723 -0.0994  0.8324 -2.4635
 3733SOL     OW22831   4.044   3.390   2.989  0.2642 -0.6191 -0.3555
 3733SOL    HW122832   4.044   3.471   3.041  0.8283  0.0816 -1.4483
 3733SOL    HW222833   4.018   3.326   3.055 -0.0374 -0.8788 -0.7270
 3734SOL     OW22834   1.748   4.076   9.999  0.7739 -0.3952  0.1263
 3734SOL    HW122835   1.751   4.166  10.030 -1.0999 -0.3152  0.0831
 3734SOL    HW222836   1.769   4.036  10.083 -0.1836  0.6647  0.8608
 3735SOL     OW22837   1.106   1.550  13.707  0.0128 -0.0691 -0.4162
 3735SOL    HW122838   1.175   1.492  13.676 -1.5126 -0.9864 -2.1407
 3735SOL    HW222839   1.055   1.569  13.628 -1.7182 -2.2285  0.1797
 3736SOL     OW22840   0.898   1.032   9.324 -0.3406  0.3128 -0.2211
 3736SOL    HW122841   0.855   1.106   9.368  2.0482  1.8810 -0.5227
 3736SOL    HW222842   0.957   0.997   9.392 -2.2376  0.0120  1.2697
 3737SOL     OW22843   0.787   2.044   3.385 -0.3630  0.3826  0.1002
 3737SOL    HW122844   0.799   2.138   3.372  1.9520  0.1345  0.4820
 3737SOL    HW222845   0.821   1.998   3.309 -0.5898 -2.5857  1.7802
 3738SOL     OW22846   2.701   1.401   5.100  0.2399 -0.0248 -0.0481
 3738SOL    HW122847   2.728   1.338   5.166  1.1493  1.3218  0.8511
 3738SOL    HW222848   2.756   1.381   5.024 -0.1525 -4.3689  0.7901
 3739SOL     OW22849   1.258   0.763  14.377 -0.0647  0.4040  0.0816
 3739SOL    HW122850   1.207   0.734  14.452  0.1914 -0.1450  0.0498
 3739SOL    HW222851   1.344   0.784  14.414  0.0624 -1.2072  0.7177
 3740SOL     OW22852   0.024   0.368   5.374  0.0275  0.1941 -0.3181
 3740SOL    HW122853   0.065   0.425   5.309 -0.3886  1.8302  0.8600
 3740SOL    HW222854   0.082   0.292   5.367  0.1647  0.1001  1.8164
 3741SOL     OW22855   0.301   2.690   6.673 -0.6926 -0.1048  0.6039
 3741SOL    HW122856   0.263   2.775   6.651  0.8368  0.2164 -0.8506
 3741SOL    HW222857   0.392   2.706   6.650 -0.9989  0.2237 -0.3797
 3742SOL     OW22858   2.671   3.633  15.056  0.5451  0.3275 -0.1405
 3742SOL    HW122859   2.645   3.640  14.964  1.8600  1.4168 -0.4266
 3742SOL    HW222860   2.586   3.646  15.100  0.8080  1.2101  0.1137
 3743SOL     OW22861   1.312   1.542   3.354 -0.1871  0.3433  0.4541
 3743SOL    HW122862   1.258   1.586   3.289  0.6527  0.2600 -0.3081
 3743SOL    HW222863   1.255   1.541   3.430 -2.0901  1.7089 -0.9448
 3744SOL     OW22864   2.741   3.519   1.046 -0.5298  0.3857  0.1683
 3744SOL    HW122865   2.695   3.603   1.048  0.8486  1.1180  0.8477
 3744SOL    HW222866   2.746   3.498   1.140  1.4821  0.7278  0.1228
 3745SOL     OW22867   2.915   1.083   8.799 -0.2320 -0.2690 -0.6508
 3745SOL    HW122868   2.884   1.022   8.733 -1.0391  2.0473 -2.3902
 3745SOL    HW222869   2.845   1.094   8.863  0.8696  2.5623  0.0850
 3746SOL     OW22870   1.391   4.489  14.173  0.0157  0.1041 -0.8079
 3746SOL    HW122871   1.406   4.583  14.180  1.2705 -0.0732 -1.2332
 3746SOL    HW222872   1.465   4.464  14.118 -0.3888 -1.4192 -0.6681
 3747SOL     OW22873   3.939   3.258  15.115  0.1266  0.9568  0.4197
 3747SOL    HW122874   4.011   3.316  15.091 -0.3567  1.4316  0.0921
 3747SOL    HW222875   3.862   3.315  15.124 -1.9846 -1.9904  0.8749
 3748SOL     OW22876   0.282   4.058  17.316  0.0485  0.3853 -0.0861
 3748SOL    HW122877   0.246   3.980  17.359 -1.9731  0.3661 -1.8315
 3748SOL    HW222878   0.227   4.130  17.347 -0.3032  0.1656 -0.1947
 3749SOL     OW22879   3.964   4.402   2.129 -0.4693  0.2005  0.0867
 3749SOL    HW122880   4.042   4.425   2.178 -0.4363 -0.4381  0.3356
 3749SOL    HW222881   3.971   4.307   2.120 -1.4698  0.2442 -1.2336
 3750SOL     OW22882   1.163   0.721   8.332 -0.4644 -0.1325  0.0484
 3750SOL    HW122883   1.209   0.758   8.407 -1.6831  1.1250  0.1860
 3750SOL    HW222884   1.138   0.636   8.369  0.6542  0.0054  1.1128
 3751SOL     OW22885   0.956   3.499   6.858 -0.1942 -0.4420 -0.0380
 3751SOL    HW122886   0.867   3.470   6.837 -0.4775  1.1790 -1.0587
 3751SOL    HW222887   0.957   3.564   6.787 -1.6501 -1.4793 -1.0007
 3752SOL     OW22888   2.212   1.105   6.753  0.5122 -0.2590  0.0002
 3752SOL    HW122889   2.237   1.169   6.819 -1.5692 -1.2919  1.7890
 3752SOL    HW222890   2.289   1.049   6.766  1.1111  0.4940 -0.2602
 3753SOL     OW22891   0.817   0.329  11.718  0.1371  0.0599 -0.2956
 3753SOL    HW122892   0.904   0.291  11.725  0.5126  0.7514 -1.1942
 3753SOL    HW222893   0.776   0.245  11.697  1.2449 -0.0530 -1.9644
 3754SOL     OW22894   0.450   3.003   7.326  0.1761 -0.1712  0.0879
 3754SOL    HW122895   0.449   2.989   7.421  0.0873  0.8097  0.2358
 3754SOL    HW222896   0.356   2.995   7.308  0.5207 -0.4266 -1.5838
 3755SOL     OW22897   2.435   1.168   8.749 -0.8872 -0.1839  0.1458
 3755SOL    HW122898   2.370   1.139   8.813 -0.7875 -0.7196  0.0043
 3755SOL    HW222899   2.415   1.088   8.699  0.5613 -0.1237 -0.5328
 3756SOL     OW22900   2.946   1.099  15.547  0.8443  0.1222  0.1990
 3756SOL    HW122901   2.999   1.091  15.468  1.2089  1.1861  0.3334
 3756SOL    HW222902   2.967   1.013  15.583 -2.6108 -1.4645 -1.5510
 3757SOL     OW22903   3.506   0.369  12.134 -0.2077  0.3737 -0.2930
 3757SOL    HW122904   3.598   0.344  12.131  0.7264  3.6643  1.5381
 3757SOL    HW222905   3.477   0.278  12.121 -2.3602  0.7358  2.1197
 3758SOL     OW22906   4.195   2.180  13.599 -0.0472  0.0309  0.1816
 3758SOL    HW122907   4.181   2.085  13.597 -1.3504  0.2273  0.0435
 3758SOL    HW222908   4.209   2.192  13.505  2.7081  1.3206  0.7400
 3759SOL     OW22909   2.555   3.450   6.260 -0.2781 -0.4270 -0.6842
 3759SOL    HW122910   2.623   3.452   6.192  0.1820  1.5582 -0.1473
 3759SOL    HW222911   2.536   3.356   6.251  0.6213 -0.7157  0.4062
 3760SOL     OW22912   4.017   1.588   4.413  0.3297 -0.3654  0.4392
 3760SOL    HW122913   3.940   1.643   4.402  0.5186 -0.1591  0.1319
 3760SOL    HW222914   4.071   1.658   4.450 -1.3955 -0.4848  3.1679
 3761SOL     OW22915   4.624   2.279   2.685  0.4199 -0.0764 -0.2712
 3761SOL    HW122916   4.572   2.229   2.747  0.1332  1.0653  0.4028
 3761SOL    HW222917   4.631   2.216   2.613  2.2861 -2.1818  1.7245
 3762SOL     OW22918   3.737   0.320   8.702  0.0388  0.3229 -0.1422
 3762SOL    HW122919   3.823   0.335   8.741  1.0888 -0.4416 -2.2422
 3762SOL    HW222920   3.719   0.397   8.648 -0.6088  1.5205  1.7453
 3763SOL     OW22921   3.383   0.601  10.369  0.6116  0.1902  0.3336
 3763SOL    HW122922   3.391   0.661  10.294  0.9097 -1.2301 -0.7639
 3763SOL    HW222923   3.439   0.649  10.431  0.9691  0.8905 -0.5330
 3764SOL     OW22924   2.376   3.347  16.611  0.1719  1.1515  0.3447
 3764SOL    HW122925   2.458   3.303  16.635  0.3957  1.1281 -0.4638
 3764SOL    HW222926   2.383   3.387  16.524  1.6395  1.5114  0.6325
 3765SOL     OW22927   0.859   1.782   5.553  0.0507  0.3936 -0.0059
 3765SOL    HW122928   0.953   1.798   5.559  0.6596 -3.3213  0.1983
 3765SOL    HW222929   0.835   1.778   5.646  3.7628  0.7598  0.9783
 3766SOL     OW22930   2.239   0.414   4.317  0.0506 -0.0877 -0.3509
 3766SOL    HW122931   2.153   0.420   4.359 -0.5792  2.8387 -2.0605
 3766SOL    HW222932   2.205   0.392   4.230  1.1596  0.1495 -0.8519
 3767SOL     OW22933   0.885   0.139  12.519 -0.0309 -0.6116  0.1542
 3767SOL    HW122934   0.918   0.137  12.609 -1.6598 -0.9960  0.7638
 3767SOL    HW222935   0.970   0.150  12.477 -0.6345  1.7086 -0.4517
 3768SOL     OW22936   2.149   2.387   4.375  0.7338  0.4400  0.3639
 3768SOL    HW122937   2.112   2.370   4.461 -0.6779  0.9798 -0.1322
 3768SOL    HW222938   2.154   2.482   4.365  0.7810  0.2948 -1.0942
 3769SOL     OW22939   3.141   4.514  11.158 -0.0745  0.1484 -0.2161
 3769SOL    HW122940   3.206   4.460  11.202 -0.7493 -0.2084  0.3295
 3769SOL    HW222941   3.188   4.575  11.101  0.0317  0.4253  0.1732
 3770SOL     OW22942   1.059   0.507   6.970  0.5968  0.3495 -0.2864
 3770SOL    HW122943   1.092   0.417   6.968 -1.5317 -0.4358  0.4616
 3770SOL    HW222944   1.057   0.522   6.876 -0.0780 -2.2808 -0.6860
 3771SOL     OW22945   2.055   3.862   5.002  0.1783 -0.3011 -0.2634
 3771SOL    HW122946   2.033   3.774   4.974 -1.9460  0.5133 -1.2026
 3771SOL    HW222947   2.039   3.858   5.096 -1.0269  1.1578 -0.3896
 3772SOL     OW22948   0.507   4.045   4.663 -0.0329  0.1496  0.5843
 3772SOL    HW122949   0.502   4.133   4.625  0.5482 -0.6887 -1.4280
 3772SOL    HW222950   0.434   4.056   4.725  0.8585  0.8421  1.5075
 3773SOL     OW22951   4.346   1.933  12.628 -0.2925 -0.3562  0.6456
 3773SOL    HW122952   4.320   1.853  12.674  2.9695 -1.0605  1.2959
 3773SOL    HW222953   4.342   1.907  12.536  0.9490 -0.5905  0.6565
 3774SOL     OW22954   1.263   4.388   6.604  0.3475  0.0183  0.4725
 3774SOL    HW122955   1.218   4.434   6.675 -2.0457 -0.5477 -0.6720
 3774SOL    HW222956   1.339   4.443   6.587  0.0069 -0.1705 -1.7194
 3775SOL     OW22957   0.875   2.467   3.840  0.0291  0.5984  0.1772
 3775SOL    HW122958   0.918   2.382   3.833  1.9013  1.5472  0.1939
 3775SOL    HW222959   0.955   2.516   3.824  0.2919 -0.5145 -1.9459
 3776SOL     OW22960   3.560   0.424  11.050 -0.1013 -0.2961  0.2782
 3776SOL    HW122961   3.486   0.365  11.064 -1.3042  1.4250  1.1392
 3776SOL    HW222962   3.599   0.378  10.975  1.5997  0.1976  0.8663
 3777SOL     OW22963   3.350   4.169   9.146  0.2815  0.3306  0.4783
 3777SOL    HW122964   3.254   4.177   9.146  0.0664 -2.0464  0.2501
 3777SOL    HW222965   3.378   4.164   9.238  0.3778 -1.2564  0.3656
 3778SOL     OW22966   1.612   0.308  10.163 -0.0332  0.3279  0.1938
 3778SOL    HW122967   1.672   0.368  10.120 -1.1547  1.2348 -0.0996
 3778SOL    HW222968   1.549   0.303  10.091  0.8386 -1.6982 -0.4321
 3779SOL     OW22969   2.792   2.014   5.707  0.1174  0.0793  0.1856
 3779SOL    HW122970   2.886   2.009   5.692  0.2346 -1.1770  1.4226
 3779SOL    HW222971   2.758   1.927   5.726  1.1125 -0.7426 -1.8619
 3780SOL     OW22972   3.287   3.181   2.607  0.2523  0.8404 -0.0094
 3780SOL    HW122973   3.263   3.142   2.691 -0.5600 -0.6586 -0.9390
 3780SOL    HW222974   3.301   3.272   2.634  0.0540  0.9423 -0.2548
 3781SOL     OW22975   0.038   1.739  11.776 -0.2325  0.6940 -0.3650
 3781SOL    HW122976   0.002   1.650  11.786  0.0720  0.5995 -0.1210
 3781SOL    HW222977   0.132   1.727  11.790 -0.0862 -0.9194 -2.5803
 3782SOL     OW22978   4.335   2.861  12.499  0.1333  0.2443 -0.4996
 3782SOL    HW122979   4.368   2.862  12.409  1.0040 -2.4005 -0.1940
 3782SOL    HW222980   4.405   2.908  12.545  0.8933  0.5506 -1.9574
 3783SOL     OW22981   0.740   4.030   8.100 -0.4932  0.2488 -0.5515
 3783SOL    HW122982   0.741   4.110   8.153  1.2021  0.4476 -0.8664
 3783SOL    HW222983   0.789   4.072   8.028 -2.9406  3.9993 -0.0329
 3784SOL     OW22984   3.313   4.543   1.176  0.0515 -0.7315 -0.5379
 3784SOL    HW122985   3.273   4.534   1.089  0.6727  1.1379 -1.0171
 3784SOL    HW222986   3.376   4.471   1.162  1.3502  0.6462 -1.8892
 3785SOL     OW22987   3.613   0.377   3.130  0.3675  0.4391 -0.2502
 3785SOL    HW122988   3.625   0.327   3.049 -2.3690  0.1678 -0.4900
 3785SOL    HW222989   3.576   0.459   3.097  0.9672  1.0120  0.5125
 3786SOL     OW22990   1.686   3.738   3.811 -0.3857  0.1010  0.1098
 3786SOL    HW122991   1.698   3.814   3.868 -0.3737  2.7365 -3.3833
 3786SOL    HW222992   1.687   3.780   3.725  1.8686 -0.4141 -0.1209
 3787SOL     OW22993   4.288   2.434   4.151 -0.4776 -0.4479  0.7747
 3787SOL    HW122994   4.253   2.427   4.062 -2.3717  2.5527  1.2584
 3787SOL    HW222995   4.379   2.445   4.124 -0.1431 -0.8512  1.7238
 3788SOL     OW22996   4.529   3.782   1.462 -1.0297 -0.3065  0.5791
 3788SOL    HW122997   4.569   3.717   1.521 -0.3231  0.9585  1.4926
 3788SOL    HW222998   4.464   3.826   1.517 -1.9325 -0.2951 -0.5032
 3789SOL     OW22999   0.695   1.245   7.936 -0.2804  0.0360  0.4139
 3789SOL    HW123000   0.778   1.249   7.889  0.0518  0.1822  1.0055
 3789SOL    HW223001   0.644   1.198   7.870  3.2644 -4.2089  0.6509
 3790SOL     OW23002   2.995   1.903   1.700 -0.2319  0.1963  0.0979
 3790SOL    HW123003   3.003   1.858   1.616  0.1380  0.6264 -0.0963
 3790SOL    HW223004   3.044   1.984   1.688 -0.5942  0.5670  1.1454
 3791SOL     OW23005   3.327   3.835   2.189 -0.5592 -0.4502 -0.2081
 3791SOL    HW123006   3.273   3.780   2.245 -0.5376 -0.5212 -0.2576
 3791SOL    HW223007   3.345   3.914   2.241  0.4828  0.2062 -1.5435
 3792SOL     OW23008   1.650   0.524   3.254  0.7237 -0.3854 -0.0050
 3792SOL    HW123009   1.730   0.553   3.297 -1.3742  2.0628  2.2769
 3792SOL    HW223010   1.672   0.514   3.161  0.1849 -1.4282 -0.0167
 3793SOL     OW23011   3.382   2.778  15.170 -0.3914 -0.1052  0.1746
 3793SOL    HW123012   3.355   2.863  15.135  2.5828 -0.0333 -1.9665
 3793SOL    HW223013   3.404   2.727  15.092  0.3918 -1.7011  1.4183
 3794SOL     OW23014   1.087   4.265   7.929 -0.3247 -0.3781  0.1293
 3794SOL    HW123015   1.153   4.197   7.945  0.7980  0.9554  1.1731
 3794SOL    HW223016   1.137   4.312   7.862 -2.1495  2.8962  1.0224
 3795SOL     OW23017   2.456   2.133   2.760  0.9814 -0.3841  0.2712
 3795SOL    HW123018   2.460   2.168   2.849 -5.1484 -1.7868  1.1287
 3795SOL    HW223019   2.494   2.049   2.787 -1.2954 -0.7742  2.3335
 3796SOL     OW23020   1.190   4.653  12.058  0.1605 -0.2001  0.4357
 3796SOL    HW123021   1.217   4.601  11.983 -0.9255  0.1748 -0.2053
 3796SOL    HW223022   1.267   4.635  12.113 -0.5667 -1.4903  1.0153
 3797SOL     OW23023   2.642   1.417   9.774  0.0948 -0.4128 -0.2055
 3797SOL    HW123024   2.721   1.471   9.770 -0.7624  0.8709 -0.0687
 3797SOL    HW223025   2.617   1.439   9.864 -1.6423 -0.7158 -0.5985
 3798SOL     OW23026   2.202   0.659   3.637  0.4773 -0.0135  0.2745
 3798SOL    HW123027   2.133   0.613   3.684 -0.2557  0.0273 -0.7605
 3798SOL    HW223028   2.157   0.668   3.553 -2.5587 -1.1309  1.7995
 3799SOL     OW23029   1.128   4.424   7.484 -0.1685  0.2822 -0.0077
 3799SOL    HW123030   1.098   4.515   7.485 -0.2387  0.2576  0.6831
 3799SOL    HW223031   1.210   4.430   7.435  0.5221 -2.2897  0.8376
 3800SOL     OW23032   2.667   2.525   2.875 -0.5673  0.3949  0.4572
 3800SOL    HW123033   2.632   2.440   2.899 -2.3965  0.8255 -0.6714
 3800SOL    HW223034   2.623   2.585   2.935 -0.9815  2.1956 -1.6496
 3801SOL     OW23035   0.233   0.799   5.517 -0.8704 -0.6639  0.2188
 3801SOL    HW123036   0.180   0.801   5.596 -1.9501  0.0595 -0.5274
 3801SOL    HW223037   0.307   0.745   5.547  0.1339  0.8705  0.5001
 3802SOL     OW23038   3.604   0.215   2.918 -0.4036  0.0477  0.1522
 3802SOL    HW123039   3.602   0.135   2.971  1.5246  0.1235  0.3543
 3802SOL    HW223040   3.537   0.197   2.852  2.2567  1.2245 -2.8692
 3803SOL     OW23041   3.107   0.540   4.658  0.1703 -0.2911 -1.0364
 3803SOL    HW123042   3.092   0.474   4.726  2.0150  1.4723  1.0905
 3803SOL    HW223043   3.022   0.584   4.646 -0.2706 -1.4904 -2.2836
 3804SOL     OW23044   3.509   4.235  17.193  0.1782 -0.2324 -0.1007
 3804SOL    HW123045   3.573   4.208  17.127  2.9946  2.2394  1.5765
 3804SOL    HW223046   3.426   4.216  17.150  0.2367  2.3037 -1.3437
 3805SOL     OW23047   1.090   2.797   5.114  0.1713 -0.5569 -0.5967
 3805SOL    HW123048   1.027   2.842   5.170 -0.5205 -1.7235 -0.4453
 3805SOL    HW223049   1.159   2.862   5.131 -1.6629  1.0566  0.6192
 3806SOL     OW23050   1.886   0.987  10.729  0.3087  0.1376  0.1587
 3806SOL    HW123051   1.853   0.898  10.727  1.5758 -0.3028 -1.2941
 3806SOL    HW223052   1.829   1.007  10.655 -0.2441 -0.9458  0.3024
 3807SOL     OW23053   2.736   3.053   8.906  0.3119  0.1222  0.0115
 3807SOL    HW123054   2.787   3.028   8.829  2.1829  0.0662  1.2510
 3807SOL    HW223055   2.666   2.989   8.914  0.3845  0.1327  0.7347
 3808SOL     OW23056   3.568   1.004   4.611  0.1240  0.4587 -0.2075
 3808SOL    HW123057   3.498   1.038   4.666 -1.3103 -0.7484 -1.2996
 3808SOL    HW223058   3.639   0.991   4.675 -0.2828 -1.3001 -0.1147
 3809SOL     OW23059   4.147   0.344   8.400  0.0280  0.0008  0.1033
 3809SOL    HW123060   4.190   0.420   8.439 -2.5028  1.4907 -0.0045
 3809SOL    HW223061   4.150   0.366   8.307 -1.7977 -1.7887 -0.4075
 3810SOL     OW23062   2.333   4.449   4.643  0.3739 -0.4269 -0.5488
 3810SOL    HW123063   2.347   4.385   4.573  1.8227  1.0460 -1.6320
 3810SOL    HW223064   2.391   4.517   4.608 -0.7681  0.0072 -1.6123
 3811SOL     OW23065   3.835   4.152   9.391  0.4219  0.2611 -0.5612
 3811SOL    HW123066   3.826   4.219   9.458 -3.1301  1.3176 -2.1111
 3811SOL    HW223067   3.920   4.111   9.410  1.2714  2.1419 -0.2531
 3812SOL     OW23068   2.467   2.257   1.890  0.3575 -0.3458 -0.2550
 3812SOL    HW123069   2.383   2.217   1.866  0.4590 -2.3324  2.6961
 3812SOL    HW223070   2.530   2.186   1.879  1.4642  0.4764  0.7751
 3813SOL     OW23071   3.582   3.314   5.136  0.3342  0.1154 -0.0553
 3813SOL    HW123072   3.581   3.358   5.052 -2.9564 -1.3351 -0.7951
 3813SOL    HW223073   3.494   3.332   5.169 -0.3555 -0.7829 -1.4072
 3814SOL     OW23074   3.773   0.730   7.569 -0.2564  0.1414  0.3029
 3814SOL    HW123075   3.854   0.741   7.519 -0.8405  0.9201 -0.4699
 3814SOL    HW223076   3.792   0.649   7.616  1.2348  0.5383  0.3890
 3815SOL     OW23077   4.053   3.680   0.789  0.5373  0.2580 -0.2765
 3815SOL    HW123078   4.047   3.662   0.695 -0.7719  0.1721 -0.1792
 3815SOL    HW223079   4.136   3.640   0.816 -0.4670 -2.6550 -1.5003
 3816SOL     OW23080   3.149   1.134   0.113  0.0937  0.1137  0.8096
 3816SOL    HW123081   3.146   1.101   0.203 -5.1462 -1.0147  0.2230
 3816SOL    HW223082   3.241   1.162   0.109 -0.0898  0.4694 -0.9257
 3817SOL     OW23083   2.829   4.308   6.072 -0.6662 -0.2786 -0.4222
 3817SOL    HW123084   2.863   4.306   5.983  0.9462 -2.6963  0.2653
 3817SOL    HW223085   2.864   4.234   6.122  1.9128  1.2974  0.1036
 3818SOL     OW23086   3.982   3.201   1.658 -0.5918  0.0044 -0.3806
 3818SOL    HW123087   3.955   3.116   1.691 -2.7961  0.9405  0.2351
 3818SOL    HW223088   3.955   3.261   1.728  0.6713  0.0633  0.0460
 3819SOL     OW23089   0.266   2.736   9.169 -0.2847  0.0832  0.0568
 3819SOL    HW123090   0.305   2.691   9.094  1.0069  0.9210  0.2381
 3819SOL    HW223091   0.266   2.826   9.138  2.8391  0.1677  0.3614
 3820SOL     OW23092   2.780   3.817   8.240  0.1485  0.9280 -0.2974
 3820SOL    HW123093   2.788   3.813   8.145  0.6469  0.8220 -0.2501
 3820SOL    HW223094   2.872   3.805   8.266  0.0305 -0.4844 -0.5525
 3821SOL     OW23095   2.027   0.058  10.877  0.7847 -0.3962 -0.1110
 3821SOL    HW123096   1.931   0.051  10.883  0.5634  2.7632 -0.1266
 3821SOL    HW223097   2.033   0.151  10.854 -0.6891 -0.0029  1.0410
 3822SOL     OW23098   3.999   0.008   9.311  0.1364  0.1694 -0.0557
 3822SOL    HW123099   4.089   0.017   9.280 -0.0456  0.6538 -0.4492
 3822SOL    HW223100   4.017   4.701   9.396  0.5227  0.9030  0.2236
 3823SOL     OW23101   2.180   3.455   7.171 -0.0252 -0.3947  0.6767
 3823SOL    HW123102   2.201   3.493   7.086 -2.0660 -1.7967 -0.4567
 3823SOL    HW223103   2.096   3.414   7.152 -0.2252  0.8985 -1.1479
 3824SOL     OW23104   3.094   4.369   6.648 -0.1039 -0.2569  0.3491
 3824SOL    HW123105   3.120   4.372   6.555 -1.1682 -2.1696  0.0068
 3824SOL    HW223106   3.002   4.345   6.645  0.4201 -2.2161  0.3962
 3825SOL     OW23107   0.747   3.359  14.449 -0.5814 -0.4751 -0.4177
 3825SOL    HW123108   0.658   3.363  14.414 -0.3043 -0.0685 -1.0725
 3825SOL    HW223109   0.789   3.438  14.416 -0.0361 -0.6101 -0.0379
 3826SOL     OW23110   1.300   3.511  10.591 -0.0435 -0.1010 -0.1904
 3826SOL    HW123111   1.252   3.552  10.663 -0.0320 -2.2908  1.0498
 3826SOL    HW223112   1.371   3.575  10.596  0.3344 -0.7138  2.5028
 3827SOL     OW23113   3.371   0.672   7.674  0.4701 -0.4925  0.2732
 3827SOL    HW123114   3.400   0.727   7.601 -1.3288  1.1883  0.7867
 3827SOL    HW223115   3.390   0.587   7.637 -0.2191  0.0050 -1.2226
 3828SOL     OW23116   2.479   4.296   2.151  0.1949  0.2924 -0.7508
 3828SOL    HW123117   2.386   4.277   2.165 -0.5044  3.0642 -1.6945
 3828SOL    HW223118   2.507   4.208   2.126 -0.2343 -0.4250  1.2708
 3829SOL     OW23119   1.526   2.302   5.646  0.7348  0.5095  0.2242
 3829SOL    HW123120   1.512   2.308   5.741  0.6273  0.3026  0.2207
 3829SOL    HW223121   1.440   2.332   5.618 -0.2204 -0.6748  1.8867
 3830SOL     OW23122   2.598   0.911   6.424  0.1422  0.6985 -0.0447
 3830SOL    HW123123   2.673   0.868   6.465 -0.7502 -0.9974 -0.1749
 3830SOL    HW223124   2.617   1.005   6.425  1.2134  0.4895 -0.5548
 3831SOL     OW23125   2.023   3.317  11.464  0.0966  0.5024  0.0293
 3831SOL    HW123126   1.939   3.343  11.424 -1.5065 -4.1838  0.4071
 3831SOL    HW223127   2.001   3.347  11.552 -0.4030 -2.1328  0.7813
 3832SOL     OW23128   2.771   0.737   4.896  0.0952  0.7456  0.1239
 3832SOL    HW123129   2.783   0.643   4.887  1.5939  1.2535 -3.1909
 3832SOL    HW223130   2.694   0.753   4.841 -0.7846  0.5656  1.2869
 3833SOL     OW23131   1.360   2.517   8.611  0.5504 -0.3688 -0.3752
 3833SOL    HW123132   1.277   2.470   8.620 -0.3173  0.9145 -1.7385
 3833SOL    HW223133   1.419   2.465   8.665  1.0297  1.2969  0.7040
 3834SOL     OW23134   2.546   0.164   8.908  0.3218 -0.2864 -0.6175
 3834SOL    HW123135   2.550   0.221   8.831 -0.4284  0.3460 -0.1798
 3834SOL    HW223136   2.626   0.188   8.954 -1.5211  1.3491  1.7556
 3835SOL     OW23137   3.501   2.604   3.856  0.1328  0.1779 -0.5404
 3835SOL    HW123138   3.577   2.570   3.808  2.0287  3.1609  0.2997
 3835SOL    HW223139   3.553   2.667   3.906  0.9954 -1.0883  0.1581
 3836SOL     OW23140   4.067   0.340  14.094  0.0489 -0.0083 -0.0221
 3836SOL    HW123141   3.974   0.363  14.097 -0.1174 -0.7704  0.5545
 3836SOL    HW223142   4.080   0.251  14.063 -0.5083  0.0943 -0.5455
 3837SOL     OW23143   0.732   3.063   0.516  0.5501 -0.5501 -0.4098
 3837SOL    HW123144   0.738   3.151   0.479 -0.5816  0.1187  0.9887
 3837SOL    HW223145   0.810   3.018   0.486  0.2749 -1.1701 -0.1945
 3838SOL     OW23146   2.178   1.385   2.896 -0.0810  0.5390  0.0228
 3838SOL    HW123147   2.107   1.444   2.871  0.3568  1.5662  1.1468
 3838SOL    HW223148   2.182   1.333   2.817  1.6143 -1.6575  1.5528
 3839SOL     OW23149   3.702   0.333   9.688  0.3327 -0.7593  0.0780
 3839SOL    HW123150   3.629   0.288   9.645 -0.0418 -0.8953  0.8615
 3839SOL    HW223151   3.646   0.401   9.725  0.2196 -0.1476 -1.2141
 3840SOL     OW23152   3.658   3.136  14.152  0.2175 -0.0702  0.4598
 3840SOL    HW123153   3.680   3.045  14.171  1.0194  0.4503  1.9750
 3840SOL    HW223154   3.728   3.166  14.094 -1.0827  0.9252 -0.6057
 3841SOL     OW23155   3.622   0.102  14.254  0.1826  0.0729 -0.2472
 3841SOL    HW123156   3.597   0.029  14.310  2.0889 -0.3823  0.0157
 3841SOL    HW223157   3.637   0.177  14.312 -1.1597  1.0315 -1.1256
 3842SOL     OW23158   0.208   1.156  13.296 -0.1361  0.1595 -0.1710
 3842SOL    HW123159   0.271   1.122  13.359  1.3239  0.0645 -1.6884
 3842SOL    HW223160   0.256   1.165  13.214 -0.1546 -1.4202 -0.3551
 3843SOL     OW23161   1.648   3.060   8.956 -0.2322 -0.1609  0.1988
 3843SOL    HW123162   1.717   3.001   8.925 -0.7945 -1.6409  1.7892
 3843SOL    HW223163   1.627   3.038   9.046  1.3230 -0.5540  0.4558
 3844SOL     OW23164   1.754   3.676  16.640  0.2535  0.4348 -0.1076
 3844SOL    HW123165   1.745   3.680  16.545  2.6059  1.9356 -0.2678
 3844SOL    HW223166   1.677   3.722  16.673  0.6182  1.2229 -0.3702
 3845SOL     OW23167   0.336   2.341   1.910  0.5736 -0.6013  0.0542
 3845SOL    HW123168   0.348   2.408   1.842  1.1474 -0.7722 -0.0162
 3845SOL    HW223169   0.258   2.293   1.883 -0.2310  1.3805 -1.0828
 3846SOL     OW23170   3.836   1.263  15.436 -0.0385 -0.3710 -0.1589
 3846SOL    HW123171   3.784   1.290  15.361 -0.8330  2.7100  1.4901
 3846SOL    HW223172   3.899   1.196  15.409  0.2897 -1.3055  3.0044
 3847SOL     OW23173   3.661   4.203   7.953 -0.2252 -0.7563  0.0936
 3847SOL    HW123174   3.576   4.170   7.924  0.8742 -2.7377 -0.8943
 3847SOL    HW223175   3.694   4.250   7.876 -0.3699  0.4312  0.7629
 3848SOL     OW23176   1.748   3.821   4.195  0.1715  0.0349 -0.1627
 3848SOL    HW123177   1.706   3.874   4.127  2.1853 -0.0982 -1.5040
 3848SOL    HW223178   1.834   3.861   4.200  1.5049 -2.5933 -2.0493
 3849SOL     OW23179   3.994   0.876   0.708 -0.5581  0.4437  0.3111
 3849SOL    HW123180   3.993   0.788   0.669  1.5016  0.3015  0.5822
 3849SOL    HW223181   4.083   0.902   0.731 -0.5594 -0.2791  1.1490
 3850SOL     OW23182   3.175   0.796  11.963  0.1253  0.0791 -0.0741
 3850SOL    HW123183   3.109   0.841  12.016  0.6332  1.4941 -0.6518
 3850SOL    HW223184   3.220   0.758  12.038  0.7903  0.0986 -0.4608
 3851SOL     OW23185   2.203   4.111   4.572  0.3059  0.3169  0.5021
 3851SOL    HW123186   2.258   4.175   4.525 -0.4069 -0.2427 -1.0952
 3851SOL    HW223187   2.272   4.054   4.606 -0.6936 -0.8214  0.5855
 3852SOL     OW23188   0.044   4.028   5.046  0.8267 -0.1953  0.3181
 3852SOL    HW123189   0.039   3.977   4.966  3.1178 -1.6344  1.0889
 3852SOL    HW223190   4.686   4.052   5.055  0.9270 -0.2014  1.4126
 3853SOL     OW23191   3.788   1.780   7.237 -0.5771 -0.2186 -0.3575
 3853SOL    HW123192   3.813   1.689   7.226 -0.8158 -0.1465 -1.5083
 3853SOL    HW223193   3.736   1.768   7.317 -0.2289  1.3142  0.1076
 3854SOL     OW23194   3.415   0.771   3.300  0.2355 -0.3241 -0.1528
 3854SOL    HW123195   3.450   0.789   3.213 -1.0573 -2.5527 -1.1150
 3854SOL    HW223196   3.469   0.697   3.328  1.5484  0.9844  0.8153
 3855SOL     OW23197   4.065   1.788   3.444 -0.5379  0.2261 -0.0672
 3855SOL    HW123198   3.993   1.798   3.382 -1.0974 -1.4730  0.2923
 3855SOL    HW223199   4.084   1.694   3.442  1.5894  0.6273  0.8108
 3856SOL     OW23200   4.245   0.636  16.544 -0.4618 -0.1027 -0.4057
 3856SOL    HW123201   4.250   0.720  16.590 -2.7442 -0.7862  1.0556
 3856SOL    HW223202   4.320   0.591  16.585 -0.1285 -0.0887 -1.0024
 3857SOL     OW23203   1.599   0.105   4.550  0.2372 -0.3161 -0.5339
 3857SOL    HW123204   1.553   0.023   4.531  1.2777 -1.2415  0.9869
 3857SOL    HW223205   1.611   0.105   4.645 -0.3066 -0.5788 -0.4654
 3858SOL     OW23206   4.698   3.879   4.824 -0.0628 -0.1892  0.0699
 3858SOL    HW123207   4.630   3.918   4.768  1.3897  0.7062 -1.0610
 3858SOL    HW223208   4.641   3.824   4.878 -0.0696  0.2690  0.5349
 3859SOL     OW23209   4.182   3.375   8.175 -0.3939  0.0717 -0.0778
 3859SOL    HW123210   4.169   3.445   8.111 -1.2714 -0.5828 -0.6174
 3859SOL    HW223211   4.276   3.377   8.196 -0.2141  1.8414 -1.0812
 3860SOL     OW23212   0.809   2.325  17.242 -0.1650  0.3352 -0.1851
 3860SOL    HW123213   0.714   2.325  17.254 -0.2665  1.2011 -1.0181
 3860SOL    HW223214   0.812   2.297  17.150 -0.4646  0.6119 -0.2806
 3861SOL     OW23215   1.767   3.590   3.560  0.1537 -0.9186 -0.1661
 3861SOL    HW123216   1.817   3.620   3.484 -0.2356 -1.1949 -0.5289
 3861SOL    HW223217   1.685   3.638   3.552 -0.1822 -1.5114 -0.3156
 3862SOL     OW23218   1.071   4.143  10.017  0.7042 -0.5070 -0.6458
 3862SOL    HW123219   1.053   4.074   9.953 -0.9821  0.7759 -1.5634
 3862SOL    HW223220   1.066   4.223   9.964 -0.2038  0.8113  1.4179
 3863SOL     OW23221   1.003   2.252   7.555  0.3440 -0.0590 -0.3997
 3863SOL    HW123222   1.062   2.260   7.480 -0.5706  0.0197 -1.1095
 3863SOL    HW223223   0.919   2.254   7.509  0.1076  0.4281  0.0591
 3864SOL     OW23224   3.210   3.328  13.803  0.0495 -0.3098  0.2389
 3864SOL    HW123225   3.154   3.404  13.814 -0.6052 -0.8991  1.0247
 3864SOL    HW223226   3.293   3.347  13.847  0.7874 -2.4073 -0.2338
 3865SOL     OW23227   1.598   4.104  12.102 -0.7714 -0.0382 -0.6551
 3865SOL    HW123228   1.606   4.181  12.157  0.5036  1.1373 -2.4905
 3865SOL    HW223229   1.506   4.121  12.082 -1.8932 -0.5574  4.0411
 3866SOL     OW23230   1.367   1.689   4.173 -0.5401  0.8967  0.1191
 3866SOL    HW123231   1.426   1.691   4.248 -2.0275 -0.4362  1.3411
 3866SOL    HW223232   1.307   1.761   4.189 -0.4900  1.0524 -0.3912
 3867SOL     OW23233   3.632   3.736   3.348 -0.2501  0.4945 -0.3543
 3867SOL    HW123234   3.724   3.711   3.338  0.2987  2.8868 -1.2028
 3867SOL    HW223235   3.606   3.676   3.418 -0.9712 -0.6975 -1.6498
 3868SOL     OW23236   3.229   2.705  16.809  0.0970  0.4864 -0.1145
 3868SOL    HW123237   3.274   2.686  16.891  0.7361  1.4852 -0.2322
 3868SOL    HW223238   3.263   2.786  16.771 -0.6674  0.3843 -1.0061
 3869SOL     OW23239   3.827   4.677  17.684 -0.1189 -0.4065 -0.1838
 3869SOL    HW123240   3.880   0.020  17.706  0.6272 -1.1798  0.7530
 3869SOL    HW223241   3.753   4.670   0.008 -0.7854  0.6682 -0.9019
 3870SOL     OW23242   1.939   3.588  15.070  0.2054 -0.8102  0.2395
 3870SOL    HW123243   1.862   3.532  15.060  1.5303 -2.1695 -2.5614
 3870SOL    HW223244   1.999   3.539  15.126 -2.2502 -0.4127  3.1926
 3871SOL     OW23245   2.091   2.166  15.014 -0.5694 -0.3352 -0.0146
 3871SOL    HW123246   2.106   2.085  14.966  2.9360 -0.1759  0.7719
 3871SOL    HW223247   2.169   2.169  15.069 -0.9237 -1.1177  0.5220
 3872SOL     OW23248   2.831   2.894   5.959 -0.8655  0.1465  0.4095
 3872SOL    HW123249   2.844   2.904   5.864 -1.2115  0.3472  0.3823
 3872SOL    HW223250   2.793   2.977   5.988  0.8502  1.1977 -0.3137
 3873SOL     OW23251   2.454   1.247  10.583  0.0556  0.1042 -0.4849
 3873SOL    HW123252   2.451   1.305  10.659 -0.2701 -1.2321  0.5138
 3873SOL    HW223253   2.540   1.210  10.604 -0.0069  1.0543  1.4446
 3874SOL     OW23254   1.045   0.927   5.677  0.3002 -0.0173 -0.3236
 3874SOL    HW123255   1.102   0.977   5.735 -0.2623  0.1294  0.0979
 3874SOL    HW223256   1.102   0.927   5.600  1.5775  0.7431  0.6359
 3875SOL     OW23257   2.963   1.559  14.076 -0.3858 -0.0909 -0.0416
 3875SOL    HW123258   2.877   1.593  14.099 -0.0926  0.1739  0.6613
 3875SOL    HW223259   3.016   1.601  14.144 -0.1189  0.2012 -0.4294
 3876SOL     OW23260   4.340   0.391  16.282  0.6318 -0.1132  0.0792
 3876SOL    HW123261   4.340   0.323  16.349 -2.7944  0.6743  0.8701
 3876SOL    HW223262   4.422   0.437  16.297  0.1659  0.4218  1.0013
 3877SOL     OW23263   4.517   3.580   6.056  0.0657  0.4765  0.2873
 3877SOL    HW123264   4.474   3.666   6.061  0.0013  0.4680 -0.0999
 3877SOL    HW223265   4.531   3.577   6.150  0.2376  0.6149  0.2652
 3878SOL     OW23266   1.575   0.250   6.960  0.0157 -0.4868 -0.0603
 3878SOL    HW123267   1.617   0.308   6.897 -0.3461 -0.9888 -0.7538
 3878SOL    HW223268   1.633   0.244   7.036 -0.8695  0.6002  0.6953
 3879SOL     OW23269   1.858   1.475   7.976  0.9121  0.0649 -0.2900
 3879SOL    HW123270   1.816   1.397   7.940 -0.7796  0.8652 -0.0538
 3879SOL    HW223271   1.817   1.489   8.062  1.0699  0.0961 -0.2210
 3880SOL     OW23272   3.417   0.995  17.338  0.0730 -0.0288  0.0965
 3880SOL    HW123273   3.432   1.089  17.347  2.6355 -0.4024 -0.2761
 3880SOL    HW223274   3.370   0.968  17.417 -0.4776 -4.0406 -1.6051
 3881SOL     OW23275   2.761   3.666   6.984 -0.2477  0.0167  0.0203
 3881SOL    HW123276   2.707   3.591   7.009 -1.7173  0.8999 -0.4709
 3881SOL    HW223277   2.747   3.728   7.056 -0.6030 -0.9350  0.7781
 3882SOL     OW23278   1.517   3.158   1.632  0.4649  0.0050  0.2354
 3882SOL    HW123279   1.596   3.202   1.662  1.9176 -1.6510 -1.1456
 3882SOL    HW223280   1.467   3.165   1.713 -0.1985  0.0691 -0.1823
 3883SOL     OW23281   3.439   3.622   4.674  0.5769  0.5897 -0.6787
 3883SOL    HW123282   3.411   3.617   4.583  0.2324 -0.7278 -0.4939
 3883SOL    HW223283   3.504   3.553   4.690  2.6053  1.8058 -3.6361
 3884SOL     OW23284   3.255   2.797   7.139  0.6664 -0.0598 -0.1300
 3884SOL    HW123285   3.283   2.756   7.221  0.0075 -1.6030 -0.6707
 3884SOL    HW223286   3.179   2.741   7.123  0.8195 -0.5515  0.8269
 3885SOL     OW23287   1.265   0.847  10.546  0.3201 -0.3546  0.1410
 3885SOL    HW123288   1.207   0.842  10.471 -0.1066 -1.5142  0.5483
 3885SOL    HW223289   1.237   0.775  10.602 -0.6871 -0.2967 -0.3013
 3886SOL     OW23290   2.765   0.242   6.921  0.0520  1.0409  0.3929
 3886SOL    HW123291   2.720   0.299   6.859  1.2565  0.3736 -1.1098
 3886SOL    HW223292   2.732   0.155   6.899 -2.2871  1.9313  0.3812
 3887SOL     OW23293   1.634   0.847  16.809  0.0329 -0.5180  0.3547
 3887SOL    HW123294   1.670   0.916  16.753 -0.4570 -2.4973 -2.4164
 3887SOL    HW223295   1.659   0.768  16.761  1.9493  0.6830 -0.6504
 3888SOL     OW23296   3.506   0.291   1.914  0.0821  0.5214 -0.5312
 3888SOL    HW123297   3.601   0.299   1.918  0.0486  0.7485 -0.1503
 3888SOL    HW223298   3.486   0.367   1.859 -0.7932  1.4578  1.0900
 3889SOL     OW23299   3.499   2.137   4.975 -0.0757  0.0922  0.3350
 3889SOL    HW123300   3.452   2.128   4.892  0.3360 -0.2752  0.1435
 3889SOL    HW223301   3.541   2.053   4.990 -3.1116 -1.0976  2.0512
 3890SOL     OW23302   1.166   1.338   3.052  0.9966  0.7367 -0.4979
 3890SOL    HW123303   1.090   1.330   3.110  0.9036  0.1260 -0.7015
 3890SOL    HW223304   1.237   1.305   3.108  0.8705 -1.4248 -1.6300
 3891SOL     OW23305   0.098   0.202   8.578 -0.4358  0.6215 -0.1919
 3891SOL    HW123306   0.077   0.111   8.559  0.7136  0.4848 -0.8307
 3891SOL    HW223307   0.045   0.204   8.657  0.4203  0.1378  0.3967
 3892SOL     OW23308   2.174   1.209   5.442 -0.1904  0.2349  0.1625
 3892SOL    HW123309   2.261   1.170   5.438  0.1845  1.2073 -1.0770
 3892SOL    HW223310   2.146   1.202   5.351 -0.9119  3.5240  0.1344
 3893SOL     OW23311   3.345   0.636   5.696 -0.0447  0.0663 -0.2421
 3893SOL    HW123312   3.402   0.573   5.653 -1.2773 -0.6130 -0.8713
 3893SOL    HW223313   3.405   0.691   5.747 -0.1194  0.2224 -0.3235
 3894SOL     OW23314   1.741   2.695  12.986 -0.1819 -1.0457 -0.1638
 3894SOL    HW123315   1.702   2.655  12.909  1.7065  0.2274 -1.7649
 3894SOL    HW223316   1.764   2.612  13.027 -0.1582 -0.3119  1.3289
 3895SOL     OW23317   4.460   0.743  17.611  0.1557 -0.7782 -0.9670
 3895SOL    HW123318   4.510   0.732  17.692  1.8747 -0.9896 -2.0387
 3895SOL    HW223319   4.435   0.833  17.631 -2.8364 -1.3829 -2.0215
 3896SOL     OW23320   0.615   3.119   8.843 -0.1453  0.0353 -0.2351
 3896SOL    HW123321   0.564   3.086   8.769 -1.1161  0.6523  0.1683
 3896SOL    HW223322   0.554   3.169   8.897  3.1342  1.9624  1.7301
 3897SOL     OW23323   1.707   2.899   0.551  0.7217  0.0026  0.7311
 3897SOL    HW123324   1.692   2.990   0.574 -0.9293 -0.3223  0.9520
 3897SOL    HW223325   1.761   2.858   0.618  3.4665  1.9767 -0.2653
 3898SOL     OW23326   2.203   4.703   2.568  0.2758 -0.0094  0.1752
 3898SOL    HW123327   2.264   0.015   2.625 -0.5826  0.9143  0.3306
 3898SOL    HW223328   2.158   4.645   2.630 -0.8384  0.1396 -0.5031
 3899SOL     OW23329   0.935   2.931   0.397 -0.0734  0.3543 -0.2901
 3899SOL    HW123330   1.025   2.961   0.399 -0.0760  0.3464  0.0738
 3899SOL    HW223331   0.924   2.923   0.303 -2.1410 -1.1368  0.0643
 3900SOL     OW23332   1.664   4.330   8.167 -0.3262 -0.1047 -0.1770
 3900SOL    HW123333   1.674   4.379   8.248 -0.5322 -1.1588  0.4958
 3900SOL    HW223334   1.618   4.250   8.194  1.2072 -0.9451 -0.0383
 3901SOL     OW23335   0.948   3.159  12.204  0.2077  0.0261  0.3727
 3901SOL    HW123336   1.027   3.154  12.151 -1.4015 -0.0304 -2.0106
 3901SOL    HW223337   0.894   3.212  12.145  0.3349 -0.6301 -0.3319
 3902SOL     OW23338   0.277   1.571  11.082  0.3484 -0.4140  0.1976
 3902SOL    HW123339   0.227   1.561  11.002  2.2178  0.9903 -1.1422
 3902SOL    HW223340   0.231   1.510  11.140 -0.0405 -0.8293 -0.5548
 3903SOL     OW23341   4.279   3.595   0.966  0.2720  0.3016  0.3511
 3903SOL    HW123342   4.362   3.558   0.936 -0.1332  0.0940 -0.5247
 3903SOL    HW223343   4.261   3.536   1.040  1.9783 -0.8589 -0.1575
 3904SOL     OW23344   2.889   2.326   6.956  0.0320 -0.1353 -0.2224
 3904SOL    HW123345   2.931   2.333   7.042 -1.7166 -1.1261  0.7394
 3904SOL    HW223346   2.878   2.232   6.940 -0.6235  0.4297 -2.9979
 3905SOL     OW23347   0.860   4.347  14.902 -0.0310  0.8551 -0.0894
 3905SOL    HW123348   0.909   4.265  14.895 -2.1753 -0.4765  0.5848
 3905SOL    HW223349   0.932   4.409  14.913 -0.1881  0.9244  0.5564
 3906SOL     OW23350   4.663   3.524   7.912  0.3491 -0.2602 -0.4619
 3906SOL    HW123351   4.639   3.441   7.954  1.3895 -0.0631  0.5367
 3906SOL    HW223352   4.678   3.581   7.987  1.0758 -0.0103 -0.7908
 3907SOL     OW23353   3.881   0.326   8.356 -0.1722  0.4395  0.1473
 3907SOL    HW123354   3.971   0.336   8.387 -0.0614  1.7102 -0.5781
 3907SOL    HW223355   3.855   0.243   8.397 -1.9049  0.7345 -0.3629
 3908SOL     OW23356   3.362   2.190   1.721 -0.3648  0.1688  0.3125
 3908SOL    HW123357   3.386   2.184   1.813  1.8875 -0.7729 -0.3215
 3908SOL    HW223358   3.423   2.131   1.676  1.0093 -0.5360  3.0884
 3909SOL     OW23359   1.455   1.509   6.672 -0.1547 -0.0021 -0.5993
 3909SOL    HW123360   1.526   1.503   6.608 -1.0166  1.3694 -1.6904
 3909SOL    HW223361   1.389   1.543   6.611 -0.1339  1.8219  0.3999
 3910SOL     OW23362   3.433   1.968   2.632 -0.0921 -0.2260  0.1480
 3910SOL    HW123363   3.426   1.908   2.706  0.8403 -1.5917 -0.8715
 3910SOL    HW223364   3.343   1.956   2.601 -0.2596 -1.1270  0.9820
 3911SOL     OW23365   3.086   4.682   5.485  0.6222 -0.3225  0.6762
 3911SOL    HW123366   3.174   4.673   5.449 -0.3628  0.8882 -1.9752
 3911SOL    HW223367   3.025   4.681   5.412  0.5772 -1.8597  0.7211
 3912SOL     OW23368   0.479   0.540   7.468 -0.1174 -0.7563 -0.5926
 3912SOL    HW123369   0.574   0.553   7.456  0.3542 -0.3571  3.4932
 3912SOL    HW223370   0.445   0.616   7.420 -3.0819 -2.3789 -0.9948
 3913SOL     OW23371   3.542   2.901   4.867  0.4360  0.0279 -0.1747
 3913SOL    HW123372   3.464   2.953   4.889  1.4437  2.2420 -1.8474
 3913SOL    HW223373   3.600   2.924   4.940 -2.1353 -1.8472  2.4707
 3914SOL     OW23374   2.194   0.699   6.509 -0.5095 -0.0879  0.6103
 3914SOL    HW123375   2.281   0.719   6.544  0.3595 -3.3731  0.3015
 3914SOL    HW223376   2.190   0.776   6.452 -1.5757  2.3360  3.9118
 3915SOL     OW23377   3.950   3.271  11.383  0.0031  0.1590 -0.8776
 3915SOL    HW123378   3.923   3.228  11.301 -3.1183 -0.2818  0.4107
 3915SOL    HW223379   3.890   3.234  11.447  0.0182  3.4065  1.0030
 3916SOL     OW23380   3.862   3.504  16.851 -0.3377  0.0174  0.3619
 3916SOL    HW123381   3.876   3.596  16.833 -0.2015 -0.2873 -1.1529
 3916SOL    HW223382   3.801   3.505  16.924 -1.8581  1.7955 -0.9315
 3917SOL     OW23383   1.106   3.785  16.734  0.0975  0.2816 -0.2537
 3917SOL    HW123384   1.173   3.846  16.704 -1.5708  2.2057 -0.0518
 3917SOL    HW223385   1.051   3.843  16.787  0.7800 -0.3345  1.1317
 3918SOL     OW23386   2.782   0.388   3.648  0.4238  0.3392 -0.2326
 3918SOL    HW123387   2.830   0.436   3.581  1.8170 -0.4353  0.1977
 3918SOL    HW223388   2.750   0.457   3.706  3.0749  0.5453  0.9844
 3919SOL     OW23389   1.181   3.531   3.641 -0.1177  0.0193 -0.5904
 3919SOL    HW123390   1.168   3.625   3.641 -0.5508 -0.0407  0.1730
 3919SOL    HW223391   1.173   3.501   3.732  0.6825  0.0024 -0.5233
 3920SOL     OW23392   4.720   3.908   1.926  0.1255  0.5113 -0.2981
 3920SOL    HW123393   0.054   3.857   1.971 -0.7808 -0.9988 -0.6504
 3920SOL    HW223394   4.685   3.968   1.993 -1.4297 -0.0887 -0.5787
 3921SOL     OW23395   1.524   4.415  12.624 -0.2041  0.2155  0.1160
 3921SOL    HW123396   1.451   4.436  12.682 -0.4322  0.4351 -0.2508
 3921SOL    HW223397   1.520   4.486  12.560  2.2413  0.6934  0.5273
 3922SOL     OW23398   0.407   0.458  17.440 -0.0227  0.3849 -0.3415
 3922SOL    HW123399   0.316   0.452  17.467  0.2780 -2.8846 -0.0249
 3922SOL    HW223400   0.447   0.417  17.516 -1.9057 -0.1207  0.3778
 3923SOL     OW23401   3.859   1.226  15.703  0.0435 -0.2373 -0.4768
 3923SOL    HW123402   3.852   1.274  15.621 -1.4092 -1.9829 -1.3644
 3923SOL    HW223403   3.952   1.225  15.727 -0.4678 -0.6036  1.5448
 3924SOL     OW23404   3.771   4.457  14.726  0.0798  0.3335  0.2257
 3924SOL    HW123405   3.731   4.460  14.814 -0.2234 -0.2207  0.1067
 3924SOL    HW223406   3.800   4.547  14.740 -0.4331  0.3153  1.4602
 3925SOL     OW23407   2.348   3.212  16.268  0.3934  0.6972 -0.3061
 3925SOL    HW123408   2.296   3.162  16.330 -0.9662  0.4864 -1.6249
 3925SOL    HW223409   2.357   3.298  16.308 -0.6579 -0.8025  3.0957
 3926SOL     OW23410   4.281   4.641   6.955  0.6520 -0.4746  0.4005
 3926SOL    HW123411   4.295   4.677   7.043  2.0760  0.4880 -0.2131
 3926SOL    HW223412   4.309   4.717   6.904  1.2984 -0.0535  1.3892
 3927SOL     OW23413   2.072   4.104   7.067  0.0580 -0.0267 -0.3714
 3927SOL    HW123414   1.997   4.134   7.016  0.3614  3.8044  1.3820
 3927SOL    HW223415   2.073   4.170   7.137 -1.4208 -1.8091  1.3142
 3928SOL     OW23416   2.682   2.762   6.261 -0.3952 -0.2270 -0.0703
 3928SOL    HW123417   2.675   2.714   6.178 -0.8205  0.5031 -0.4629
 3928SOL    HW223418   2.650   2.695   6.321 -0.3688 -0.1760  0.0008
 3929SOL     OW23419   2.296   3.213  15.833  0.5412  0.1548  0.4236
 3929SOL    HW123420   2.255   3.287  15.877 -1.1533 -0.3477 -0.3317
 3929SOL    HW223421   2.216   3.174  15.798  1.7707 -1.4231 -0.5943
 3930SOL     OW23422   1.556   1.200  11.046 -0.3725 -0.1971 -0.1332
 3930SOL    HW123423   1.540   1.111  11.077 -0.8296 -0.4987 -1.2473
 3930SOL    HW223424   1.607   1.238  11.118  1.1803 -0.3740 -1.1284
 3931SOL     OW23425   2.264   2.258   8.315 -0.3043 -0.4050 -0.4165
 3931SOL    HW123426   2.234   2.306   8.391  2.8031  0.0002  0.5775
 3931SOL    HW223427   2.229   2.173   8.341 -1.5300 -0.4125 -2.0903
 3932SOL     OW23428   4.051   2.694  14.635  0.9559 -0.0197  0.4233
 3932SOL    HW123429   4.141   2.663  14.646  0.1178 -2.7153 -0.1396
 3932SOL    HW223430   4.012   2.612  14.603 -0.0372  1.0199 -0.9981
 3933SOL     OW23431   3.669   2.729  11.239 -0.5212 -0.6695  0.2130
 3933SOL    HW123432   3.735   2.794  11.261  0.3743 -0.6373 -2.5753
 3933SOL    HW223433   3.706   2.655  11.287  1.6832 -0.1317 -0.6443
 3934SOL     OW23434   2.497   3.057   7.003  0.6189 -0.1490  0.4408
 3934SOL    HW123435   2.501   2.962   7.010 -2.0596 -0.3312 -0.4813
 3934SOL    HW223436   2.513   3.080   7.094 -2.5603  4.8226 -0.2838
 3935SOL     OW23437   4.370   4.225  14.571  0.2268  0.2994 -0.0209
 3935SOL    HW123438   4.285   4.258  14.600 -0.8224 -2.4196 -0.0229
 3935SOL    HW223439   4.421   4.306  14.562 -0.0737  0.3590 -1.2263
 3936SOL     OW23440   4.089   1.271   6.026 -0.1672  0.5135 -0.7464
 3936SOL    HW123441   4.067   1.205   5.961 -0.9805  0.9961 -0.9582
 3936SOL    HW223442   4.162   1.305   5.974  0.8994  0.8929  0.9660
 3937SOL     OW23443   2.990   0.080   2.181  0.0154 -0.1452  0.3251
 3937SOL    HW123444   2.902   0.043   2.184  1.1805 -2.8320  1.8897
 3937SOL    HW223445   2.995   0.119   2.094 -0.0784 -1.9404 -0.4856
 3938SOL     OW23446   2.016   0.223  11.256 -0.0757 -0.3661  0.8126
 3938SOL    HW123447   2.109   0.221  11.275  0.1240  0.9850  0.0046
 3938SOL    HW223448   2.012   0.128  11.244  1.3232 -0.4553  1.1150
 3939SOL     OW23449   0.286   0.788   2.851  0.0050  0.1529  0.2120
 3939SOL    HW123450   0.300   0.712   2.907 -0.5725 -1.3489 -1.6676
 3939SOL    HW223451   0.367   0.806   2.803  0.2768  1.3736  1.1195
 3940SOL     OW23452   2.305   3.875   4.274 -0.4294 -0.0547  0.3052
 3940SOL    HW123453   2.345   3.858   4.359  0.5603  1.9483  0.2735
 3940SOL    HW223454   2.382   3.872   4.216 -0.7653 -0.6640 -0.0989
 3941SOL     OW23455   0.667   1.557   7.721  0.2208 -0.1564  0.4787
 3941SOL    HW123456   0.627   1.644   7.716  1.5189  0.4251  0.3061
 3941SOL    HW223457   0.625   1.517   7.797  0.2621  1.4935  1.3708
 3942SOL     OW23458   1.606   1.210  17.428 -0.0339  0.2363  0.1936
 3942SOL    HW123459   1.663   1.154  17.481  0.2126  0.9369  0.6733
 3942SOL    HW223460   1.618   1.184  17.337 -1.1182 -1.1635  0.4379
 3943SOL     OW23461   1.945   2.295   8.488 -0.4044  0.3702  0.2396
 3943SOL    HW123462   2.032   2.304   8.525  0.2854 -0.1922 -1.2579
 3943SOL    HW223463   1.888   2.301   8.566 -1.0711 -1.1973 -0.1159
 3944SOL     OW23464   2.737   3.207   4.057  0.1714 -0.4733 -0.1147
 3944SOL    HW123465   2.679   3.136   4.085 -0.1995  0.1996  0.7983
 3944SOL    HW223466   2.808   3.162   4.011  1.3199  0.0298  1.1618
 3945SOL     OW23467   3.306   4.655   6.219 -0.0811 -0.5664 -0.1962
 3945SOL    HW123468   3.280   4.583   6.277  0.3239  0.3069  1.0636
 3945SOL    HW223469   3.243   4.651   6.147  1.7001  0.5324 -1.8025
 3946SOL     OW23470   4.352   3.387   6.714  0.4918 -0.3063  0.0006
 3946SOL    HW123471   4.270   3.357   6.674  1.3565 -1.7864 -0.6852
 3946SOL    HW223472   4.348   3.481   6.729 -1.9931 -0.3870 -0.1659
 3947SOL     OW23473   1.132   1.324   5.198 -0.0343  0.1000  0.5128
 3947SOL    HW123474   1.149   1.257   5.265  1.2175  2.1621  2.2619
 3947SOL    HW223475   1.124   1.274   5.117 -0.2173  0.2233  0.4565
 3948SOL     OW23476   2.043   2.777   5.557 -0.2791 -0.9233 -0.0429
 3948SOL    HW123477   1.982   2.709   5.528 -1.2262 -0.3532  0.6035
 3948SOL    HW223478   2.008   2.809   5.640  1.9245  0.5652  0.2979
 3949SOL     OW23479   3.367   2.920   4.513  0.4065 -0.0139 -0.2695
 3949SOL    HW123480   3.299   2.872   4.466  1.9805 -1.6590 -0.8608
 3949SOL    HW223481   3.326   2.933   4.598 -1.1525  1.4611 -1.2375
 3950SOL     OW23482   2.654   0.326   3.075 -0.6122  0.9110  0.3650
 3950SOL    HW123483   2.712   0.252   3.097 -1.7968  0.2689  1.3503
 3950SOL    HW223484   2.683   0.352   2.988 -1.5005  0.0754 -0.1874
 3951SOL     OW23485   0.583   3.550  17.294 -0.4201 -0.1583  0.4567
 3951SOL    HW123486   0.571   3.535  17.388  2.0203 -0.0051  0.7744
 3951SOL    HW223487   0.515   3.616  17.277  1.6272  2.0016  0.6737
 3952SOL     OW23488   3.474   2.690   8.218  0.0535 -0.2980  0.1824
 3952SOL    HW123489   3.460   2.598   8.241  2.7034 -0.4808  1.0112
 3952SOL    HW223490   3.534   2.674   8.145 -1.1752 -0.5412 -0.7831
 3953SOL     OW23491   1.309   1.523   3.931  0.4626  0.1162  0.1832
 3953SOL    HW123492   1.328   1.589   3.998  1.6025 -1.6352  1.6038
 3953SOL    HW223493   1.279   1.454   3.990 -0.6268 -0.1955 -0.7439
 3954SOL     OW23494   2.765   0.568   7.204  0.4268 -0.3444  0.1815
 3954SOL    HW123495   2.745   0.521   7.285  2.2079  0.8770  1.2964
 3954SOL    HW223496   2.685   0.603   7.164  0.6742  0.4455  0.3838
 3955SOL     OW23497   2.872   0.736  15.253  0.4715  0.4456 -0.1360
 3955SOL    HW123498   2.897   0.798  15.184 -0.1130 -0.0716 -0.8061
 3955SOL    HW223499   2.778   0.745  15.244  0.7196  2.5041 -0.7178
 3956SOL     OW23500   4.282   3.335   2.880 -0.0950  0.7695  0.3972
 3956SOL    HW123501   4.341   3.394   2.926 -1.1283  1.6726  0.5542
 3956SOL    HW223502   4.193   3.347   2.912 -0.7325 -1.9063 -0.3524
 3957SOL     OW23503   0.890   2.013   5.244 -0.7810  0.1950 -0.5850
 3957SOL    HW123504   0.975   2.017   5.199 -0.1691  1.4231  0.6613
 3957SOL    HW223505   0.862   1.922   5.243  0.0107 -0.0679  0.5713
 3958SOL     OW23506   0.915   4.356  16.224 -0.5817 -0.2116 -0.0356
 3958SOL    HW123507   0.849   4.300  16.264 -0.5588  1.0161  1.7362
 3958SOL    HW223508   0.984   4.348  16.291 -1.6722  0.3512  1.1550
 3959SOL     OW23509   3.268   4.655   3.853 -0.4176  0.2785  0.6180
 3959SOL    HW123510   3.290   4.565   3.827  0.6582  0.6447  0.2784
 3959SOL    HW223511   3.173   4.649   3.859 -0.3707  2.0951  3.2079
 3960SOL     OW23512   4.361   1.086   3.327  0.1798  0.8231  0.2875
 3960SOL    HW123513   4.388   1.006   3.282  2.2421  1.0850  1.0556
 3960SOL    HW223514   4.420   1.085   3.402  0.2186 -0.6472  0.2287
 3961SOL     OW23515   0.990   1.438  12.903 -0.3132  0.1704  0.5097
 3961SOL    HW123516   1.057   1.476  12.960  0.1141  0.8829 -0.4657
 3961SOL    HW223517   0.917   1.500  12.908 -0.6663 -0.0626 -1.9836
 3962SOL     OW23518   2.783   0.433   7.449 -0.1971  0.0100  0.5734
 3962SOL    HW123519   2.744   0.349   7.427 -0.1483  0.0394  0.3690
 3962SOL    HW223520   2.769   0.453   7.542  0.2911  1.6437  0.2978
 3963SOL     OW23521   4.318   2.140  10.922 -0.1289 -0.1204 -0.3480
 3963SOL    HW123522   4.363   2.104  10.845  1.4932 -1.1188  1.0660
 3963SOL    HW223523   4.300   2.226  10.884  2.1048  0.2085 -0.6902
 3964SOL     OW23524   0.807   1.657   2.834 -0.6020 -0.4745 -0.2056
 3964SOL    HW123525   0.874   1.694   2.776 -0.1487  0.4103  0.8674
 3964SOL    HW223526   0.868   1.616   2.896 -1.0814 -1.1172 -0.1569
 3965SOL     OW23527   2.240   1.825  15.390  0.3600  0.3028  0.0120
 3965SOL    HW123528   2.292   1.848  15.467  0.3491  1.4286 -0.3142
 3965SOL    HW223529   2.198   1.752  15.436  1.8196 -1.8019 -1.9699
 3966SOL     OW23530   0.770   4.033  15.503 -0.0332 -0.0719 -0.0200
 3966SOL    HW123531   0.789   4.019  15.410  0.4149 -0.6642  0.1624
 3966SOL    HW223532   0.772   3.945  15.542  1.0945 -0.1519 -0.2744
 3967SOL     OW23533   1.010   1.530  10.406  0.4140 -0.2756  0.2248
 3967SOL    HW123534   1.013   1.563  10.316  0.1893  1.3889  0.8351
 3967SOL    HW223535   0.947   1.588  10.448 -0.7578 -0.1589 -1.6830
 3968SOL     OW23536   1.577   1.054   8.190  0.1543  0.0052  0.2285
 3968SOL    HW123537   1.608   1.061   8.099  2.9607 -1.3701  1.0653
 3968SOL    HW223538   1.654   1.005   8.220  1.2405  2.2147  1.0479
 3969SOL     OW23539   2.497   0.786   8.669  0.2154  0.1152 -0.5012
 3969SOL    HW123540   2.522   0.764   8.759  1.3091  0.0996 -0.8041
 3969SOL    HW223541   2.413   0.832   8.676 -0.2395 -0.5625 -1.5207
 3970SOL     OW23542   4.008   3.720  17.509 -0.3985  0.3587  0.4008
 3970SOL    HW123543   4.039   3.642  17.556 -0.7692 -0.7751 -1.2349
 3970SOL    HW223544   3.947   3.754  17.575 -0.4537  1.5110 -0.2473
 3971SOL     OW23545   4.550   3.501   9.009  0.4455  0.1815  0.0701
 3971SOL    HW123546   4.541   3.546   8.924 -1.0759  0.9750  0.6482
 3971SOL    HW223547   4.499   3.424   8.982 -0.2591  1.6686 -2.9313
 3972SOL     OW23548   4.056   2.092  11.046  0.2603 -0.0197  0.4473
 3972SOL    HW123549   4.140   2.094  11.000  0.4683 -0.6830  0.7864
 3972SOL    HW223550   4.001   2.157  11.003  0.4605  0.4491  0.9157
 3973SOL     OW23551   1.121   0.652  13.470 -0.0221 -0.4154  0.3475
 3973SOL    HW123552   1.124   0.746  13.449  0.1635 -0.7860 -1.3333
 3973SOL    HW223553   1.032   0.641  13.502  0.8836 -1.3015  2.5681
 3974SOL     OW23554   4.229   3.690   7.742 -0.3598  0.3338  0.0978
 3974SOL    HW123555   4.286   3.628   7.787  0.5046 -0.1768 -1.6760
 3974SOL    HW223556   4.269   3.696   7.655 -1.0005 -0.6783 -0.2679
 3975SOL     OW23557   0.359   3.040  13.797  0.7320  0.0464 -0.0069
 3975SOL    HW123558   0.436   3.008  13.844  0.9983  2.5762  1.2875
 3975SOL    HW223559   0.296   2.970  13.812  0.8376 -0.0477 -0.0011
 3976SOL     OW23560   2.941   1.308   6.720  0.0089  0.2626 -0.0435
 3976SOL    HW123561   2.994   1.268   6.788 -1.5223 -1.1199  0.3478
 3976SOL    HW223562   2.854   1.320   6.759 -0.0038  1.1148 -0.3357
 3977SOL     OW23563   0.353   1.667   8.970  0.2206 -0.2564  0.0741
 3977SOL    HW123564   0.263   1.675   9.001 -0.3880 -0.2842 -1.7304
 3977SOL    HW223565   0.382   1.749   9.009  1.2103  0.6056 -2.4649
 3978SOL     OW23566   3.914   1.853  11.147 -0.5707 -0.1659 -0.7546
 3978SOL    HW123567   3.976   1.924  11.133  0.2166 -1.0610 -1.8382
 3978SOL    HW223568   3.967   1.774  11.164  1.7033  1.3287 -0.8814
 3979SOL     OW23569   2.444   4.492   7.578  0.5519  0.3615 -0.3677
 3979SOL    HW123570   2.424   4.586   7.581  0.8867  0.4096  0.3091
 3979SOL    HW223571   2.510   4.488   7.509  0.6404 -0.2910 -0.2423
 3980SOL     OW23572   3.664   4.705   0.964  0.3983 -0.1697 -1.3870
 3980SOL    HW123573   3.642   0.012   0.880  0.3521 -0.4280 -1.5037
 3980SOL    HW223574   3.660   4.616   0.928 -0.5324 -1.1383  1.1144
 3981SOL     OW23575   0.353   1.658   4.337  0.3168  0.5533 -0.1702
 3981SOL    HW123576   0.270   1.694   4.367  1.7423  1.7547  2.3212
 3981SOL    HW223577   0.408   1.734   4.319  0.7032  0.6377  1.3995
 3982SOL     OW23578   3.103   4.355   7.145  0.1375 -0.1642 -0.3923
 3982SOL    HW123579   3.061   4.291   7.087 -2.1693  0.6905  0.3144
 3982SOL    HW223580   3.050   4.334   7.221 -0.0488 -0.4736 -0.6068
 3983SOL     OW23581   3.647   0.189  14.568 -0.1434  0.1981 -0.3699
 3983SOL    HW123582   3.735   0.208  14.601 -0.2794  1.6101 -0.8141
 3983SOL    HW223583   3.598   0.193  14.650  0.1829 -2.7951 -0.0328
 3984SOL     OW23584   4.669   3.897   7.469  0.0817  0.3315  0.3626
 3984SOL    HW123585   4.622   3.883   7.551  1.6520  2.3204  1.6009
 3984SOL    HW223586   4.602   3.892   7.401 -1.0324  1.4794  1.3801
 3985SOL     OW23587   1.591   0.971   9.568  0.1158  0.1409  0.6571
 3985SOL    HW123588   1.561   0.989   9.657 -1.1376 -0.6350  0.3893
 3985SOL    HW223589   1.517   0.979   9.507  0.4788 -1.8152 -0.0170
 3986SOL     OW23590   0.828   0.055   5.498 -0.5949  0.3027  0.7462
 3986SOL    HW123591   0.777   0.006   5.562  0.6800 -2.0708 -0.0639
 3986SOL    HW223592   0.760   0.119   5.475  0.2592  0.5770 -1.0036
 3987SOL     OW23593   2.433   0.934   4.486 -0.5219  0.1923  0.6966
 3987SOL    HW123594   2.344   0.913   4.457  0.0074 -1.5690  0.3001
 3987SOL    HW223595   2.433   1.026   4.511  0.9586 -0.0779  1.6829
 3988SOL     OW23596   1.182   3.164   9.086 -0.1233 -0.0004 -0.1718
 3988SOL    HW123597   1.095   3.152   9.048  0.1650  0.7858 -1.0727
 3988SOL    HW223598   1.234   3.130   9.014  0.3992 -1.6348  0.9766
 3989SOL     OW23599   0.279   3.380  12.253 -0.0966 -0.0892 -0.1182
 3989SOL    HW123600   0.265   3.296  12.297 -0.5998 -0.6595 -1.3630
 3989SOL    HW223601   0.191   3.409  12.228 -0.0473  1.5147  1.5695
 3990SOL     OW23602   3.994   4.420   7.775 -0.4201 -0.6871  0.3345
 3990SOL    HW123603   3.989   4.400   7.682  0.7988 -0.8051  0.2891
 3990SOL    HW223604   4.018   4.339   7.819 -1.5437  0.2993  2.7573
 3991SOL     OW23605   2.673   3.830  10.259  0.1361 -0.4523  0.1003
 3991SOL    HW123606   2.609   3.900  10.250  1.8437  0.9076 -1.4895
 3991SOL    HW223607   2.661   3.813  10.352 -0.8243  1.0536  0.2572
 3992SOL     OW23608   2.037   4.166   6.618  0.1728  0.1863  0.2145
 3992SOL    HW123609   2.012   4.084   6.575  3.0209 -0.8488  0.5322
 3992SOL    HW223610   1.950   4.206   6.622 -0.0345 -0.2373  0.0113
 3993SOL     OW23611   4.174   3.070  12.650  0.2147 -0.4472  0.1734
 3993SOL    HW123612   4.211   3.156  12.630  2.7171 -2.2319 -2.9401
 3993SOL    HW223613   4.237   3.004  12.620  0.4498 -0.0566 -0.1985
 3994SOL     OW23614   1.369   3.675   6.172 -0.0636  0.0790 -0.1765
 3994SOL    HW123615   1.319   3.754   6.192  0.0674  0.5962 -1.8606
 3994SOL    HW223616   1.430   3.665   6.245  0.2080  0.2816 -0.3717
 3995SOL     OW23617   2.581   4.586   5.834  0.1204 -0.0632  0.1959
 3995SOL    HW123618   2.656   4.592   5.893  0.5893 -2.3527 -0.1777
 3995SOL    HW223619   2.595   4.504   5.787  0.7402  0.3060 -0.2732
 3996SOL     OW23620   1.485   0.172   6.586  0.1548  0.4490  0.3282
 3996SOL    HW123621   1.574   0.196   6.615 -0.6332  0.7220  2.5486
 3996SOL    HW223622   1.454   0.240   6.526  0.9490  1.1881  0.7546
 3997SOL     OW23623   2.883   0.536   2.557 -0.2305 -0.1852 -0.2467
 3997SOL    HW123624   2.930   0.464   2.599  0.4213  0.2106 -0.3001
 3997SOL    HW223625   2.933   0.544   2.476  0.4919 -0.4500  0.1717
 3998SOL     OW23626   3.091   4.121   8.388  0.3865 -0.1647  0.2085
 3998SOL    HW123627   3.122   4.130   8.478  0.5015 -0.7969  0.2334
 3998SOL    HW223628   3.163   4.069   8.351  0.1980  2.2439 -3.6518
 3999SOL     OW23629   4.625   0.596   6.536  0.1309 -0.2765 -0.4268
 3999SOL    HW123630   4.642   0.536   6.609  0.8890  0.6957  0.1917
 3999SOL    HW223631   4.569   0.664   6.575 -1.6808 -1.4857 -0.9088
 4000SOL     OW23632   1.793   0.930   8.320 -0.1500  0.4456 -0.4619
 4000SOL    HW123633   1.756   0.908   8.406 -0.4351  1.1077 -0.4121
 4000SOL    HW223634   1.880   0.895   8.339 -0.1429 -0.2366 -1.7666
 4001SOL     OW23635   0.031   2.672   4.934  0.6026 -0.3976 -0.0135
 4001SOL    HW123636   0.094   2.697   5.002  1.5860  0.5931 -1.3034
 4001SOL    HW223637   4.724   2.593   4.969 -0.6668 -0.7679 -2.3731
 4002SOL     OW23638   0.710   1.052  13.796  0.0056 -0.0639 -0.0817
 4002SOL    HW123639   0.792   1.052  13.746  0.7040  0.7448  1.0642
 4002SOL    HW223640   0.652   1.116  13.756  0.0745  0.0916  0.0659
 4003SOL     OW23641   1.224   3.477  10.193 -0.2772 -0.2284  0.5684
 4003SOL    HW123642   1.300   3.435  10.153 -1.9241 -1.5166 -1.1889
 4003SOL    HW223643   1.164   3.482  10.119 -0.2424  2.3663  0.7275
 4004SOL     OW23644   2.305   3.272   6.696  0.1858  0.1435 -0.4395
 4004SOL    HW123645   2.379   3.254   6.637  0.5135 -0.6863  0.2370
 4004SOL    HW223646   2.268   3.347   6.650 -3.2590 -1.3835 -0.1266
 4005SOL     OW23647   4.197   1.838  16.405  0.0694 -0.4852  0.5638
 4005SOL    HW123648   4.216   1.815  16.496  0.7118  0.5254  0.6729
 4005SOL    HW223649   4.284   1.826  16.367  0.0947  0.9501  0.1731
 4006SOL     OW23650   2.348   4.482   4.917  0.0346 -0.4795  0.2810
 4006SOL    HW123651   2.442   4.465   4.925  0.0494 -1.1468 -1.4462
 4006SOL    HW223652   2.326   4.450   4.830 -1.4211 -0.0020  0.4677
 4007SOL     OW23653   4.371   0.391   6.901 -0.3230  1.3886  0.1991
 4007SOL    HW123654   4.276   0.389   6.913 -0.6128 -1.0276 -2.4934
 4007SOL    HW223655   4.395   0.391   6.993  3.6622  0.3894 -0.8307
 4008SOL     OW23656   0.616   0.918  14.012 -0.0875  0.3250  0.0184
 4008SOL    HW123657   0.604   0.996  14.065 -0.3866  0.0905  0.2983
 4008SOL    HW223658   0.650   0.955  13.930  1.4141  2.2938  1.5508
 4009SOL     OW23659   3.260   0.100   7.216  0.1242  0.2586 -0.2402
 4009SOL    HW123660   3.181   0.047   7.203 -0.1414 -0.5981  4.9609
 4009SOL    HW223661   3.237   0.175   7.161 -0.2823 -0.1684 -0.6496
 4010SOL     OW23662   3.967   2.600   7.368 -0.3488 -0.1638 -0.4693
 4010SOL    HW123663   3.926   2.537   7.427 -0.2067 -2.6345 -3.0436
 4010SOL    HW223664   3.984   2.536   7.299  0.5663  0.9342 -1.2630
 4011SOL     OW23665   2.489   1.900  17.136 -0.0708  0.0278 -0.3779
 4011SOL    HW123666   2.422   1.968  17.141 -0.6847 -0.6467  0.6423
 4011SOL    HW223667   2.440   1.826  17.171 -1.8644  0.5107 -1.8744
 4012SOL     OW23668   3.344   3.951   3.963 -0.2458  0.2032 -0.4747
 4012SOL    HW123669   3.290   3.952   3.884 -0.1329 -0.1484 -0.5574
 4012SOL    HW223670   3.270   3.934   4.022 -0.3058 -1.5251 -1.0410
 4013SOL     OW23671   0.897   3.100   4.096  0.2168 -0.3895  0.0833
 4013SOL    HW123672   0.848   3.169   4.053  2.0649  0.5530 -0.5319
 4013SOL    HW223673   0.949   3.064   4.024 -0.7613 -0.1465 -0.7384
 4014SOL     OW23674   3.365   1.611   5.752  0.5216  0.1741  0.0581
 4014SOL    HW123675   3.407   1.579   5.672  2.3077 -1.4589  1.6571
 4014SOL    HW223676   3.379   1.706   5.751  0.8936  0.1233  0.5682
 4015SOL     OW23677   0.199   3.848  16.494  0.3660 -0.3187 -0.1730
 4015SOL    HW123678   0.171   3.764  16.458 -2.6927 -0.1069  1.6954
 4015SOL    HW223679   0.123   3.904  16.474  0.6709 -0.4248 -1.6652
 4016SOL     OW23680   0.341   0.581   7.722 -0.3785 -0.5466 -0.4283
 4016SOL    HW123681   0.377   0.572   7.633 -0.6883  0.1694 -0.6319
 4016SOL    HW223682   0.398   0.644   7.766 -1.5461 -1.5388  2.4315
 4017SOL     OW23683   4.422   2.258   8.136  0.7046  0.6840 -0.0827
 4017SOL    HW123684   4.364   2.208   8.079 -1.3440  0.1631  2.4741
 4017SOL    HW223685   4.405   2.228   8.225 -0.6596 -0.9533 -0.8899
 4018SOL     OW23686   0.386   1.641   1.521  0.0990  0.2112 -0.6896
 4018SOL    HW123687   0.389   1.595   1.605 -0.6867 -0.2826 -0.9332
 4018SOL    HW223688   0.297   1.677   1.521  0.2748  0.6591  1.6242
 4019SOL     OW23689   0.107   3.450   3.050 -0.4657  0.3240  0.1039
 4019SOL    HW123690   0.015   3.459   3.023 -0.5811 -0.6283  0.1898
 4019SOL    HW223691   0.104   3.415   3.139  1.8854  0.1435  0.1041
 4020SOL     OW23692   3.905   1.560  15.473  0.0437  0.0295  0.2663
 4020SOL    HW123693   3.816   1.596  15.475 -0.5580 -1.2694 -1.9667
 4020SOL    HW223694   3.877   1.480  15.428  1.6648 -0.4386  0.0889
 4021SOL     OW23695   3.791   0.514  15.321 -0.1428  0.6845 -0.2973
 4021SOL    HW123696   3.771   0.433  15.369  0.4950  0.1080 -1.0184
 4021SOL    HW223697   3.704   0.553  15.333 -0.3687  0.1358 -0.1733
 4022SOL     OW23698   2.829   1.821   7.197 -0.3932  0.1662 -0.0461
 4022SOL    HW123699   2.875   1.757   7.143 -0.1227 -0.7027  1.1992
 4022SOL    HW223700   2.748   1.836   7.148 -0.0016  2.5271  0.0278
 4023SOL     OW23701   2.311   1.320   3.675 -0.3188  0.3260 -0.5501
 4023SOL    HW123702   2.395   1.279   3.694 -1.1307 -0.3951  1.4926
 4023SOL    HW223703   2.327   1.407   3.712  1.8203 -0.4920  0.4673
 4024SOL     OW23704   2.046   0.991  16.131  0.0894  0.2016 -0.4386
 4024SOL    HW123705   2.111   0.921  16.131  1.7713  1.7599  0.8399
 4024SOL    HW223706   2.092   1.066  16.092  0.3604  1.1727  1.7375
 4025SOL     OW23707   1.436   4.195  13.933 -0.3985 -0.4767 -0.1488
 4025SOL    HW123708   1.487   4.115  13.916 -1.6260 -1.3350  0.2542
 4025SOL    HW223709   1.507   4.256  13.956 -0.6008  0.0481 -0.8977
 4026SOL     OW23710   1.673   0.562  12.651 -0.1808  0.1201  0.5154
 4026SOL    HW123711   1.737   0.584  12.719  1.1556 -0.1162 -0.6543
 4026SOL    HW223712   1.685   0.628  12.583  0.1967 -0.7612 -0.2901
 4027SOL     OW23713   1.710   3.951  12.843  0.1826  0.0729  0.0007
 4027SOL    HW123714   1.650   4.023  12.863 -0.4109 -0.5261  0.3982
 4027SOL    HW223715   1.634   3.894  12.835 -1.0076  1.6432  0.1115
 4028SOL     OW23716   0.472   1.629   9.254  0.0089  0.2213  0.3486
 4028SOL    HW123717   0.510   1.583   9.329  1.9965  0.0188 -0.7842
 4028SOL    HW223718   0.393   1.576   9.240  0.9694 -1.1953  0.2943
 4029SOL     OW23719   4.655   0.274   2.243  0.1247  0.4286  0.6425
 4029SOL    HW123720   4.676   0.347   2.300  0.5038  1.3798 -0.7188
 4029SOL    HW223721   0.007   0.249   2.209 -0.4131 -0.6984  0.0711
 4030SOL     OW23722   1.974   2.862   2.479 -0.4102  0.2569 -0.6491
 4030SOL    HW123723   1.917   2.831   2.549 -0.2234 -1.6193 -1.3288
 4030SOL    HW223724   1.938   2.811   2.407  1.5227 -0.5076 -1.0656
 4031SOL     OW23725   3.190   2.774   4.379  0.2694  0.3502  0.2024
 4031SOL    HW123726   3.220   2.688   4.408 -1.0183  0.1926  1.0537
 4031SOL    HW223727   3.104   2.791   4.417 -1.0984  0.1478 -2.8002
 4032SOL     OW23728   4.632   1.726   4.600  0.5729  0.2112 -0.3558
 4032SOL    HW123729   4.665   1.668   4.668 -1.8678 -1.2063 -0.3858
 4032SOL    HW223730   4.584   1.791   4.651  2.3539  1.4824 -0.2888
 4033SOL     OW23731   4.128   1.727   7.596 -0.1190  0.4030  0.0344
 4033SOL    HW123732   4.185   1.664   7.553 -2.0372 -1.4064  0.1344
 4033SOL    HW223733   4.105   1.675   7.673 -0.0923 -0.1680 -0.3443
 4034SOL     OW23734   3.082   2.127   5.475  0.4820 -0.7401 -0.0177
 4034SOL    HW123735   3.072   2.205   5.529  0.6832 -0.2267 -0.7214
 4034SOL    HW223736   2.998   2.115   5.430 -0.7514  0.0672  2.0805
 4035SOL     OW23737   0.127   4.409   5.749 -0.7038  0.2686  0.7234
 4035SOL    HW123738   0.135   4.319   5.781  3.4558  0.3280 -0.1634
 4035SOL    HW223739   0.200   4.402   5.688 -0.7820 -0.5549  0.7224
 4036SOL     OW23740   1.367   3.250   8.148  0.5317  0.2962 -0.0397
 4036SOL    HW123741   1.378   3.321   8.211 -0.1868  0.3056  0.0678
 4036SOL    HW223742   1.328   3.305   8.080 -0.0919  0.5658  0.5431
 4037SOL     OW23743   2.415   0.843  14.270 -0.1778 -0.5765 -0.4006
 4037SOL    HW123744   2.320   0.855  14.272 -0.0767  0.0194  0.9141
 4037SOL    HW223745   2.432   0.839  14.176  1.8287 -0.0184 -0.0539
 4038SOL     OW23746   0.427   4.577  11.530  0.2667 -0.9078 -0.2288
 4038SOL    HW123747   0.492   4.549  11.465  1.2739  1.6888 -0.3811
 4038SOL    HW223748   0.412   4.502  11.586  1.1532 -1.1466 -0.3060
 4039SOL     OW23749   4.666   3.833   4.274  0.3495 -0.2127 -0.0437
 4039SOL    HW123750   4.585   3.795   4.309  1.1162 -1.9132 -0.0998
 4039SOL    HW223751   4.666   3.912   4.329  0.0978  0.5450 -1.1417
 4040SOL     OW23752   2.305   0.140   7.407 -0.1719  0.0248  0.2717
 4040SOL    HW123753   2.218   0.167   7.437  0.5113  1.6912  0.7709
 4040SOL    HW223754   2.278   0.068   7.350  0.1307 -0.3012  0.5387
 4041SOL     OW23755   0.038   4.429  11.090 -0.1576 -0.0626 -0.0414
 4041SOL    HW123756   4.710   4.502  11.088 -1.0722 -0.8167  0.5934
 4041SOL    HW223757   0.113   4.474  11.129  1.0516 -0.7531 -1.5779
 4042SOL     OW23758   3.030   4.376   3.990  0.0921  0.2774  0.7638
 4042SOL    HW123759   3.108   4.367   3.935 -0.5035 -0.4873  0.0409
 4042SOL    HW223760   2.963   4.367   3.922  1.4648 -1.8924 -0.3373
 4043SOL     OW23761   0.815   2.306   9.680 -0.6125 -0.2036  0.5052
 4043SOL    HW123762   0.825   2.379   9.741 -0.6319 -0.2899  0.6101
 4043SOL    HW223763   0.740   2.264   9.722 -2.0526  0.6519 -1.2073
 4044SOL     OW23764   1.415   1.155   3.487  0.2378 -0.2399 -0.5878
 4044SOL    HW123765   1.368   1.215   3.544 -2.1537 -1.1471 -1.5896
 4044SOL    HW223766   1.495   1.139   3.536  0.0227 -0.1245 -0.1953
 4045SOL     OW23767   2.802   2.701   7.081  0.7657  0.0784  0.2657
 4045SOL    HW123768   2.785   2.699   6.987 -1.2563 -0.5892  0.6451
 4045SOL    HW223769   2.715   2.697   7.121  1.3530  0.7274  1.6061
 4046SOL     OW23770   0.928   0.427  17.721 -0.2622 -0.0770 -0.0114
 4046SOL    HW123771   0.918   0.501  17.661 -0.1400  0.4387  0.6029
 4046SOL    HW223772   1.024   0.421  17.717 -0.0296  2.0578  1.7145
 4047SOL     OW23773   0.743   4.058   6.063 -0.6811  0.0305  0.8629
 4047SOL    HW123774   0.778   4.015   6.141  0.4958 -0.5187  0.0429
 4047SOL    HW223775   0.783   4.144   6.079  0.8341 -0.5953  0.4547
 4048SOL     OW23776   4.407   3.419   6.273 -0.5094  0.1585 -0.0811
 4048SOL    HW123777   4.329   3.450   6.319 -0.5834  0.2324 -0.2556
 4048SOL    HW223778   4.479   3.474   6.304  2.1401 -3.1600 -0.2576
 4049SOL     OW23779   0.739   2.271   4.031 -0.1587 -0.6286  0.2978
 4049SOL    HW123780   0.820   2.291   3.983 -0.2130 -3.1157 -0.7964
 4049SOL    HW223781   0.774   2.272   4.120  0.0990 -1.6394  0.2025
 4050SOL     OW23782   2.560   3.356   2.637  0.0597  0.3964  0.1689
 4050SOL    HW123783   2.630   3.397   2.584 -0.9725  1.9968  0.0403
 4050SOL    HW223784   2.481   3.365   2.585  1.6778 -2.1288 -2.7451
 4051SOL     OW23785   1.264   4.524  12.785 -0.5444  0.6931 -0.1701
 4051SOL    HW123786   1.208   4.550  12.858 -2.2598 -0.3172 -1.1416
 4051SOL    HW223787   1.267   4.429  12.801  1.0323  0.7279 -0.2651
 4052SOL     OW23788   1.937   1.237   7.615 -0.5115 -0.4354 -0.2002
 4052SOL    HW123789   1.844   1.237   7.637 -0.0929  2.1657  1.6349
 4052SOL    HW223790   1.941   1.300   7.543 -0.4589 -0.2203 -0.0112
 4053SOL     OW23791   0.359   3.242   0.029  0.1255 -0.6070 -0.0183
 4053SOL    HW123792   0.379   3.211  17.676 -0.0392  0.6181 -0.4755
 4053SOL    HW223793   0.287   3.304   0.022  0.2320 -0.1259  2.8684
 4054SOL     OW23794   3.110   4.571   8.220 -0.6176 -0.5210  0.2030
 4054SOL    HW123795   3.106   4.476   8.226  1.7415 -0.6418 -0.0988
 4054SOL    HW223796   3.015   4.582   8.230 -0.6274 -0.3160 -0.1177
 4055SOL     OW23797   0.405   2.966   1.360  0.2602 -0.2747 -0.3065
 4055SOL    HW123798   0.410   3.001   1.449 -1.3596 -1.3026  0.1840
 4055SOL    HW223799   0.465   3.023   1.312  0.7635  0.0949  0.7557
 4056SOL     OW23800   3.810   0.299   0.642  0.1371 -1.0659  0.3623
 4056SOL    HW123801   3.868   0.374   0.650  0.8909 -1.7303  1.1551
 4056SOL    HW223802   3.865   0.229   0.678 -0.7448 -2.1333 -0.3491
 4057SOL     OW23803   2.537   1.029  15.693  0.2155  0.2066 -0.8867
 4057SOL    HW123804   2.444   1.016  15.712  0.1603 -1.1143 -2.0462
 4057SOL    HW223805   2.568   1.063  15.777  0.5510  3.2698 -2.2495
 4058SOL     OW23806   3.060   3.970   7.564  0.2376  0.5267 -0.7254
 4058SOL    HW123807   2.970   4.003   7.571 -0.7937 -1.9742 -1.9537
 4058SOL    HW223808   3.054   3.876   7.548 -3.4232  0.6644 -0.2693
 4059SOL     OW23809   2.228   1.827   9.503 -0.4992  0.5879 -1.0438
 4059SOL    HW123810   2.186   1.763   9.560 -1.3917  2.4207  0.3747
 4059SOL    HW223811   2.292   1.775   9.455  0.8768 -1.1770  2.7732
 4060SOL     OW23812   1.261   4.601   6.392 -0.1815  0.0922 -0.0218
 4060SOL    HW123813   1.284   4.579   6.302 -1.3971 -0.8739 -0.0979
 4060SOL    HW223814   1.172   4.568   6.401  0.1338 -0.3653  1.4292
 4061SOL     OW23815   3.986   4.468   3.293 -0.7317 -0.2440 -0.1355
 4061SOL    HW123816   4.046   4.448   3.365 -1.4433  1.2129  0.8605
 4061SOL    HW223817   4.016   4.411   3.222  1.6407  0.5282  0.2374
 4062SOL     OW23818   0.880   2.535  15.845  0.9379  0.9362  0.0155
 4062SOL    HW123819   0.921   2.593  15.780  0.8162  0.1943 -0.7321
 4062SOL    HW223820   0.808   2.594  15.866 -1.1928 -1.6781  0.0999
 4063SOL     OW23821   0.861   2.059  16.765  0.4509 -0.6893 -0.5203
 4063SOL    HW123822   0.872   1.969  16.735 -0.3511 -0.9228 -0.1156
 4063SOL    HW223823   0.946   2.087  16.799  0.4161 -0.6058 -0.5015
 4064SOL     OW23824   2.664   4.535  11.977 -0.6059 -0.2791 -0.3999
 4064SOL    HW123825   2.754   4.505  11.960  0.4683  2.3033  0.8353
 4064SOL    HW223826   2.658   4.547  12.072  0.6678  0.6426 -0.4367
 4065SOL     OW23827   2.807   0.609   6.667 -0.4076  0.1466  0.0177
 4065SOL    HW123828   2.901   0.595   6.673 -0.4795  0.1309  1.2917
 4065SOL    HW223829   2.792   0.549   6.594  1.5812 -3.5014  2.5869
 4066SOL     OW23830   2.988   1.207  11.236 -0.3837 -0.7605 -0.0056
 4066SOL    HW123831   3.066   1.258  11.257 -1.3409  0.7300 -0.0177
 4066SOL    HW223832   3.014   1.122  11.200  1.5690 -0.4137  0.6243
 4067SOL     OW23833   1.070   3.830   6.453  0.0402  0.0426 -0.4726
 4067SOL    HW123834   1.024   3.791   6.378  0.8488 -0.8630 -0.5049
 4067SOL    HW223835   0.999   3.818   6.516  1.3540  0.2962  1.0313
 4068SOL     OW23836   1.470   1.791  14.204  0.2679  0.0192 -0.0098
 4068SOL    HW123837   1.484   1.831  14.118 -1.0250  0.7029  0.0955
 4068SOL    HW223838   1.493   1.862  14.264 -0.1023 -0.8852  1.1896
 4069SOL     OW23839   2.077   2.658   4.699  0.4291  0.3500 -0.0772
 4069SOL    HW123840   2.155   2.614   4.666 -0.0850  0.1866 -1.0678
 4069SOL    HW223841   2.093   2.741   4.655  1.7007 -0.3379 -0.9143
 4070SOL     OW23842   0.133   4.338   6.069  0.5145 -0.2095 -0.4117
 4070SOL    HW123843   0.197   4.266   6.075 -1.1471 -1.7351 -1.0080
 4070SOL    HW223844   0.197   4.405   6.093 -0.6467  1.1066 -1.0844
 4071SOL     OW23845   2.788   2.568  15.284 -0.3005 -0.0812 -0.3027
 4071SOL    HW123846   2.835   2.485  15.283  0.6437  0.4452  0.7247
 4071SOL    HW223847   2.841   2.614  15.218 -0.6016  0.8626  0.1153
 4072SOL     OW23848   0.025   2.218   8.312  0.2369 -0.4023 -0.4173
 4072SOL    HW123849   0.016   2.178   8.226  1.0158 -2.1927  0.3211
 4072SOL    HW223850   4.718   2.151   8.367 -0.1311 -0.0119 -0.2138
 4073SOL     OW23851   2.805   3.472   8.268  0.1821 -0.2748  0.2831
 4073SOL    HW123852   2.870   3.541   8.267  0.1509 -0.2740 -1.8059
 4073SOL    HW223853   2.829   3.411   8.338 -1.2058 -0.0270  0.9742
 4074SOL     OW23854   4.166   0.477   3.971 -0.0670 -0.4006 -0.2079
 4074SOL    HW123855   4.117   0.556   3.947 -1.0958 -1.1687 -0.6485
 4074SOL    HW223856   4.111   0.408   3.935 -0.9772 -1.1840  2.7433
 4075SOL     OW23857   0.144   0.417  15.120  0.1412 -0.1404  0.3329
 4075SOL    HW123858   0.236   0.425  15.142  0.7086 -5.9443 -0.0514
 4075SOL    HW223859   0.152   0.383  15.031  0.3360  2.5519 -0.6862
 4076SOL     OW23860   0.878   2.468   7.305 -0.1093  0.3358  0.5206
 4076SOL    HW123861   0.853   2.384   7.344 -2.0915  1.1568  1.0222
 4076SOL    HW223862   0.935   2.446   7.231 -0.9488  0.6679 -0.2266
 4077SOL     OW23863   2.086   2.596  16.494  0.2597 -0.0658 -0.0119
 4077SOL    HW123864   2.104   2.580  16.586 -0.7366 -1.8967 -0.1177
 4077SOL    HW223865   2.007   2.543  16.482 -0.5834  1.3705 -0.8807
 4078SOL     OW23866   1.673   2.864   3.121  0.4913 -0.6763  0.5247
 4078SOL    HW123867   1.645   2.955   3.122  1.5520 -0.3255 -2.0337
 4078SOL    HW223868   1.610   2.832   3.185  1.6366 -1.2506  1.3807
 4079SOL     OW23869   1.481   1.264   4.630  0.2736 -0.3471  0.2839
 4079SOL    HW123870   1.463   1.347   4.587  1.5412 -0.3080 -0.1657
 4079SOL    HW223871   1.472   1.291   4.721  1.5903 -0.5976  0.4855
 4080SOL     OW23872   0.852   3.140   7.143 -0.1581  0.0756 -0.2180
 4080SOL    HW123873   0.800   3.074   7.097  1.1951 -2.0491  1.3126
 4080SOL    HW223874   0.919   3.156   7.077 -0.2280 -0.8434 -0.5043
 4081SOL     OW23875   1.663   2.315   6.327 -0.2708 -0.1940 -0.4395
 4081SOL    HW123876   1.610   2.236   6.339  0.6790 -0.6447  0.8342
 4081SOL    HW223877   1.752   2.282   6.316  0.1873 -0.3020  3.4568
 4082SOL     OW23878   1.055   3.108  17.093 -0.1972  0.1221  0.2709
 4082SOL    HW123879   0.989   3.068  17.036 -1.6952  1.0219  1.3550
 4082SOL    HW223880   1.073   3.194  17.055 -1.1762 -0.2106 -0.9298
 4083SOL     OW23881   0.180   4.681  16.686 -0.4922 -0.1073  0.4177
 4083SOL    HW123882   0.254   4.629  16.654 -0.4738 -0.0018  0.2914
 4083SOL    HW223883   0.178   0.022  16.627  2.4349 -1.0418 -0.8413
 4084SOL     OW23884   3.087   0.826   5.287 -0.1766 -0.0903 -0.2727
 4084SOL    HW123885   3.080   0.733   5.309  2.3646 -0.1106  0.4039
 4084SOL    HW223886   3.164   0.826   5.231  0.9393 -1.3758  1.2575
 4085SOL     OW23887   0.719   2.056  12.359  0.1957 -0.6373  0.3802
 4085SOL    HW123888   0.759   2.019  12.280 -1.7528  0.1699 -0.9834
 4085SOL    HW223889   0.669   1.981  12.391 -2.0780 -0.0522 -1.8160
 4086SOL     OW23890   1.023   4.110   9.657 -0.1690 -0.3559 -0.6159
 4086SOL    HW123891   0.937   4.119   9.616 -0.3415 -3.0279 -0.8302
 4086SOL    HW223892   1.075   4.182   9.621 -2.3956  1.2073 -0.7047
 4087SOL     OW23893   3.848   0.163   2.724 -0.3022 -0.7916 -0.3543
 4087SOL    HW123894   3.807   0.185   2.640  0.2853  2.1897  0.1483
 4087SOL    HW223895   3.875   0.249   2.754 -0.9150 -1.3558  1.8454
 4088SOL     OW23896   3.516   0.934   0.819  0.1469 -0.1051  0.5143
 4088SOL    HW123897   3.493   0.978   0.901 -1.3767  0.2481 -0.0965
 4088SOL    HW223898   3.431   0.922   0.775  0.0230  0.5172  0.5849
 4089SOL     OW23899   3.359   1.972  12.262 -0.2299 -0.2902  0.1500
 4089SOL    HW123900   3.442   1.929  12.285 -0.1500  0.0072  0.4200
 4089SOL    HW223901   3.294   1.906  12.285  0.9879 -2.1031 -1.5450
 4090SOL     OW23902   3.509   0.091   9.808 -0.3046 -0.0244 -0.3035
 4090SOL    HW123903   3.546   0.002   9.806 -1.6831 -0.5561 -2.1285
 4090SOL    HW223904   3.492   0.108   9.715  1.5975 -0.4355 -0.7505
 4091SOL     OW23905   1.210   0.217   4.323 -0.8233  0.4173  0.1364
 4091SOL    HW123906   1.201   0.129   4.359  2.3035 -0.0597 -0.2530
 4091SOL    HW223907   1.255   0.200   4.240  1.5588  1.1081  1.3030
 4092SOL     OW23908   3.125   2.523  10.109 -0.0556 -0.2726 -0.0039
 4092SOL    HW123909   3.062   2.458  10.140  1.0205 -2.5702 -2.6643
 4092SOL    HW223910   3.124   2.503  10.015  1.6569 -1.5615  0.2554
 4093SOL     OW23911   4.371   0.157   6.338  0.5386  0.0305 -0.2626
 4093SOL    HW123912   4.424   0.146   6.259 -1.1901  0.1459 -1.4359
 4093SOL    HW223913   4.325   0.074   6.349  0.4224  0.1794  0.3430
 4094SOL     OW23914   1.310   1.689   3.691  0.0429  0.3973 -0.1368
 4094SOL    HW123915   1.288   1.670   3.782 -2.2587 -1.0131 -0.9575
 4094SOL    HW223916   1.241   1.637   3.650  1.1921 -0.1718 -1.3375
 4095SOL     OW23917   4.319   1.177  11.880  0.1573 -0.4081 -0.0270
 4095SOL    HW123918   4.286   1.210  11.796 -0.4240  0.6677  0.6125
 4095SOL    HW223919   4.407   1.150  11.854  1.1222  0.8068  2.0188
 4096SOL     OW23920   1.000   3.017   7.815 -0.3106  0.3464 -0.1819
 4096SOL    HW123921   1.094   3.031   7.821 -0.2444 -1.1266  2.2981
 4096SOL    HW223922   0.965   3.090   7.866  1.8977  0.6143  0.9309
 4097SOL     OW23923   0.311   2.588  13.734  0.5151  0.7584 -0.0390
 4097SOL    HW123924   0.234   2.595  13.678 -0.3062  0.2070  1.0131
 4097SOL    HW223925   0.294   2.501  13.770  2.2575  0.4251 -0.0299
 4098SOL     OW23926   1.010   2.748  10.123  0.0369  0.1905 -0.2723
 4098SOL    HW123927   0.983   2.785  10.207  0.7438 -0.7659  0.3806
 4098SOL    HW223928   1.006   2.652  10.124  0.1802  0.1784 -0.9690
 4099SOL     OW23929   4.468   3.883   7.997 -0.7557  0.1907  0.2889
 4099SOL    HW123930   4.451   3.797   8.035  0.3777 -0.2096 -0.1408
 4099SOL    HW223931   4.472   3.941   8.074  2.4839  0.1423  0.1345
 4100SOL     OW23932   2.917   1.081   9.604 -0.4333  0.0506  0.1972
 4100SOL    HW123933   3.009   1.061   9.591 -0.2330  0.4903  0.9264
 4100SOL    HW223934   2.883   1.053   9.519 -0.4763  1.5601 -0.2809
 4101SOL     OW23935   3.351   1.598   3.619  0.3507  0.2668 -0.4937
 4101SOL    HW123936   3.283   1.593   3.551 -0.8300  0.8093  0.6542
 4101SOL    HW223937   3.412   1.657   3.574 -2.1916  2.3509 -1.2196
 4102SOL     OW23938   2.160   0.358   8.874 -0.5222 -0.1358 -0.5372
 4102SOL    HW123939   2.237   0.415   8.878  0.3317 -1.2875 -0.9060
 4102SOL    HW223940   2.122   0.356   8.962  0.0295 -0.2352 -0.2998
 4103SOL     OW23941   2.701   3.575   2.193 -0.0665 -0.6546  0.3797
 4103SOL    HW123942   2.755   3.503   2.225 -0.1468 -0.3330  1.2552
 4103SOL    HW223943   2.738   3.585   2.105  0.4662  0.0632  0.6875
 4104SOL     OW23944   2.664   1.572   6.803 -0.0937  0.0205 -0.5514
 4104SOL    HW123945   2.662   1.490   6.752 -1.1431 -2.2507  3.1310
 4104SOL    HW223946   2.708   1.547   6.884 -1.7833  0.0403  0.3665
 4105SOL     OW23947   3.040   2.409   5.509 -0.1268  0.3069  0.1116
 4105SOL    HW123948   3.004   2.490   5.473  2.1308  0.2635 -2.2770
 4105SOL    HW223949   3.094   2.448   5.578  1.5021  0.6132 -1.3058
 4106SOL     OW23950   3.695   2.626   6.771 -0.1514 -0.3196  0.4474
 4106SOL    HW123951   3.601   2.646   6.774 -0.0117  0.2145  1.2797
 4106SOL    HW223952   3.697   2.558   6.838  0.2429 -1.6766 -0.9507
 4107SOL     OW23953   1.048   4.064   6.135  0.0892  0.2162 -0.7877
 4107SOL    HW123954   0.989   4.061   6.210  1.0320 -0.2920 -0.0656
 4107SOL    HW223955   1.133   4.057   6.179  0.2544  0.2074 -1.1028
 4108SOL     OW23956   3.655   1.270   3.405 -0.0946 -0.0034  0.1123
 4108SOL    HW123957   3.649   1.228   3.491 -1.0248  0.0076  0.0521
 4108SOL    HW223958   3.743   1.308   3.407  0.5751 -1.5881  0.5196
 4109SOL     OW23959   1.893   1.292  15.256  0.0752 -0.2679 -0.0902
 4109SOL    HW123960   1.923   1.291  15.347 -0.2894 -2.2082  0.0005
 4109SOL    HW223961   1.857   1.203  15.250  0.3483 -0.5313  2.2807
 4110SOL     OW23962   4.524   2.092  10.401 -0.0759  0.7323  0.0479
 4110SOL    HW123963   4.528   2.152  10.476  0.6473 -0.2845  0.8185
 4110SOL    HW223964   4.596   2.132  10.352  0.6625  0.5756  1.0032
 4111SOL     OW23965   3.285   0.880   2.620  0.0738 -0.5139 -0.3429
 4111SOL    HW123966   3.367   0.929   2.618  0.1825 -0.6844 -0.0114
 4111SOL    HW223967   3.281   0.850   2.529 -2.7797 -1.1504 -0.0113
 4112SOL     OW23968   0.779   4.724  11.926  0.0072  0.1502 -0.0248
 4112SOL    HW123969   0.836   0.012  11.999 -0.1005 -1.8917  0.6762
 4112SOL    HW223970   0.718   4.669  11.976  0.9578  0.0899  1.0631
 4113SOL     OW23971   0.990   3.769  14.225  0.2104 -0.6344 -0.0274
 4113SOL    HW123972   1.023   3.847  14.268 -2.2176  0.0043  0.6881
 4113SOL    HW223973   1.043   3.776  14.145  1.4576  0.4904  0.9215
 4114SOL     OW23974   4.158   3.146   1.286 -0.3499 -0.1156 -0.2419
 4114SOL    HW123975   4.162   3.075   1.351  1.8938  0.2487  0.0404
 4114SOL    HW223976   4.132   3.095   1.210  0.6758 -0.8685 -0.0871
 4115SOL     OW23977   1.265   4.641   8.533  0.3658  0.5155  0.0003
 4115SOL    HW123978   1.222   4.556   8.521  1.4393  0.1261 -1.0935
 4115SOL    HW223979   1.254   4.685   8.449 -1.1217 -0.6714 -0.4428
 4116SOL     OW23980   2.181   1.593   6.797 -0.1421 -0.1839  0.6450
 4116SOL    HW123981   2.260   1.586   6.744 -0.1265  3.2281  0.1992
 4116SOL    HW223982   2.214   1.559   6.880 -2.9146 -1.7419  1.1154
 4117SOL     OW23983   2.865   4.488   0.026  0.4230  0.1891 -0.1320
 4117SOL    HW123984   2.921   4.544   0.080 -0.4506  0.2926  0.6811
 4117SOL    HW223985   2.926   4.452  17.698  1.8781  1.7402  0.3697
 4118SOL     OW23986   3.096   1.516   6.282 -0.0635  0.2207  0.1240
 4118SOL    HW123987   3.143   1.452   6.229  1.1733  0.8103  0.5114
 4118SOL    HW223988   3.061   1.450   6.343  0.6951  0.5840  0.9554
 4119SOL     OW23989   3.514   1.760   4.544  0.3557 -0.4624 -0.1807
 4119SOL    HW123990   3.484   1.821   4.612  1.2237 -0.0639 -0.1562
 4119SOL    HW223991   3.508   1.671   4.580 -0.9704  0.4719  1.8809
 4120SOL     OW23992   1.426   1.777  13.603 -0.2896 -0.3300  0.0747
 4120SOL    HW123993   1.426   1.858  13.653  0.9002 -0.7454  0.7216
 4120SOL    HW223994   1.519   1.774  13.581 -0.9516 -4.1341 -2.2402
 4121SOL     OW23995   0.209   0.306  11.425 -0.5536  0.3739  1.1116
 4121SOL    HW123996   0.234   0.220  11.459  0.4364 -0.3581 -1.4877
 4121SOL    HW223997   0.118   0.322  11.453 -0.5212 -0.6968  1.8258
 4122SOL     OW23998   0.211   4.249   6.844 -0.1728 -0.4359  0.8674
 4122SOL    HW123999   0.236   4.262   6.753 -1.1788 -2.1793  0.3237
 4122SOL    HW224000   0.127   4.294   6.838  1.3994  2.4323  0.6953
 4123SOL     OW24001   2.102   1.786   7.064 -0.0618  0.0409 -0.2637
 4123SOL    HW124002   2.122   1.878   7.080 -0.3217 -0.2872  1.9504
 4123SOL    HW224003   2.083   1.778   6.970  1.9536 -0.5389 -0.6146
 4124SOL     OW24004   4.052   3.673   9.188  0.3343 -0.3191  0.3319
 4124SOL    HW124005   4.086   3.585   9.200 -1.5496 -0.8836  1.5524
 4124SOL    HW224006   3.957   3.660   9.180  0.9422 -3.5468 -1.6413
 4125SOL     OW24007   2.079   3.794  14.968  0.2269  0.0687  0.6501
 4125SOL    HW124008   2.043   3.720  15.017 -0.1439 -0.2120 -0.0366
 4125SOL    HW224009   2.149   3.746  14.924  0.7390  0.3688  1.1286
 4126SOL     OW24010   4.252   2.020   9.908 -0.3894  0.7682  0.2289
 4126SOL    HW124011   4.299   2.031   9.990  0.3486  0.8478 -0.2091
 4126SOL    HW224012   4.162   2.035   9.938 -0.4753 -0.2952  0.5065
 4127SOL     OW24013   1.565   4.155  12.649 -0.7840 -0.5509 -0.0305
 4127SOL    HW124014   1.551   4.249  12.641  2.8817 -0.0647 -0.9705
 4127SOL    HW224015   1.552   4.135  12.742 -0.6714 -1.1845 -0.1492
 4128SOL     OW24016   4.241   1.740  17.218 -0.3255  0.4628  0.7962
 4128SOL    HW124017   4.320   1.702  17.257 -0.3241 -0.8335 -0.4533
 4128SOL    HW224018   4.203   1.784  17.294 -0.4166  1.4548  0.1656
 4129SOL     OW24019   2.275   3.496   6.524 -0.1544  0.0203 -0.2425
 4129SOL    HW124020   2.276   3.573   6.579 -0.9989 -0.8370  0.9764
 4129SOL    HW224021   2.328   3.518   6.447 -1.1483  2.7596 -0.1530
 4130SOL     OW24022   3.912   2.103   6.417 -0.2252 -0.2261  0.5560
 4130SOL    HW124023   3.866   2.059   6.346 -0.3419  0.5250  0.1585
 4130SOL    HW224024   3.999   2.064   6.419 -0.5801 -0.9856  0.8681
 4131SOL     OW24025   2.408   1.440   7.389 -0.8189 -0.2177 -0.0280
 4131SOL    HW124026   2.384   1.404   7.475  0.1313 -1.0439 -0.1207
 4131SOL    HW224027   2.351   1.516   7.373 -0.5695 -0.3352 -1.4405
 4132SOL     OW24028   3.113   2.868   6.052  0.4168  0.3776 -0.3447
 4132SOL    HW124029   3.078   2.922   6.123 -0.5234  2.7101 -2.5672
 4132SOL    HW224030   3.028   2.838   6.019 -0.2929 -1.0486  2.7822
 4133SOL     OW24031   0.594   3.200   3.760 -0.2595 -0.6919  0.1191
 4133SOL    HW124032   0.506   3.200   3.723  0.0381  0.9447 -0.6075
 4133SOL    HW224033   0.613   3.107   3.773  0.6164 -0.4164  0.8443
 4134SOL     OW24034   1.225   1.467   4.708 -0.2519 -0.2490  0.0279
 4134SOL    HW124035   1.146   1.418   4.730 -1.3094  1.6125  0.4193
 4134SOL    HW224036   1.211   1.556   4.741  1.7211  0.1504 -0.2433
 4135SOL     OW24037   4.089   4.363   7.088  0.9109  0.4741 -0.3655
 4135SOL    HW124038   4.143   4.418   7.145  1.1575  1.9986 -2.0410
 4135SOL    HW224039   4.004   4.403   7.104  0.7524 -0.1113  0.2182
 4136SOL     OW24040   4.570   2.971   3.573 -0.1663 -0.1715  0.3240
 4136SOL    HW124041   4.573   2.933   3.485 -0.7052 -2.3972  1.2576
 4136SOL    HW224042   4.605   2.905   3.633  0.0874  0.6481  1.0553
 4137SOL     OW24043   1.078   2.619   3.129  0.3338 -0.0367 -0.3028
 4137SOL    HW124044   1.062   2.708   3.098 -0.4213  0.7405  2.3362
 4137SOL    HW224045   0.986   2.608   3.151  0.5300 -1.2837 -0.1183
 4138SOL     OW24046   0.755   4.612  14.015  0.3425 -0.1613 -0.2770
 4138SOL    HW124047   0.845   4.589  13.990  0.2923  0.9439 -1.4677
 4138SOL    HW224048   0.728   4.523  14.037  0.0832 -0.5155 -2.0590
 4139SOL     OW24049   0.169   3.115   2.220  0.1882  0.1832  0.2203
 4139SOL    HW124050   0.251   3.075   2.190  0.5302  1.3648 -0.4382
 4139SOL    HW224051   0.113   3.039   2.210  0.9587 -0.1788 -1.4118
 4140SOL     OW24052   3.030   2.642   7.693  0.7242 -0.0831  0.3370
 4140SOL    HW124053   3.000   2.643   7.602 -0.4797 -1.7761  0.7179
 4140SOL    HW224054   2.964   2.578   7.720  0.4325  0.6117  1.2800
 4141SOL     OW24055   2.781   0.071   5.114 -0.1910 -0.3433 -0.2478
 4141SOL    HW124056   2.745   4.728   5.158  1.8086 -1.5852 -0.7623
 4141SOL    HW224057   2.867   0.077   5.155 -0.1766  1.4438 -0.5516
 4142SOL     OW24058   1.044   2.435  16.744 -0.0487 -0.5301  0.9055
 4142SOL    HW124059   0.989   2.474  16.813  0.0325 -0.2008  0.7848
 4142SOL    HW224060   1.119   2.492  16.759  0.6277 -0.9316 -1.0052
 4143SOL     OW24061   3.641   1.924   9.219 -0.0816  0.3782  0.7566
 4143SOL    HW124062   3.572   1.990   9.226 -0.6634  0.1074 -2.5492
 4143SOL    HW224063   3.680   1.941   9.305  1.2199  1.8034 -0.1104
 4144SOL     OW24064   3.073   0.687   3.448 -0.0639  0.4182 -0.2144
 4144SOL    HW124065   3.089   0.709   3.539  0.2172  1.7320 -0.5763
 4144SOL    HW224066   3.095   0.775   3.417  0.7796 -0.7357 -2.8706
 4145SOL     OW24067   1.510   0.755   5.908 -0.3522 -0.0390  0.1131
 4145SOL    HW124068   1.472   0.843   5.914 -1.0234 -0.4125  1.4621
 4145SOL    HW224069   1.490   0.729   5.998 -0.0445  1.2004  0.5391
 4146SOL     OW24070   4.038   3.816   8.048  0.2867 -0.6321  0.3113
 4146SOL    HW124071   4.096   3.886   8.018  1.0889 -0.5098  2.1317
 4146SOL    HW224072   3.954   3.858   8.028  0.0512 -1.7444 -1.0353
 4147SOL     OW24073   0.290   2.266   5.586 -0.0425 -0.1749  0.1907
 4147SOL    HW124074   0.338   2.239   5.664 -0.4635  2.6143  1.4076
 4147SOL    HW224075   0.254   2.180   5.563  1.9508 -0.8328 -0.4854
 4148SOL     OW24076   0.081   4.398   9.198  0.6311  0.3092  0.1130
 4148SOL    HW124077   0.049   4.314   9.230 -0.2462  0.4495 -0.3952
 4148SOL    HW224078   0.149   4.378   9.134 -0.7306 -3.2634 -0.2374
 4149SOL     OW24079   0.805   4.025   2.947 -0.1637  0.2064 -0.3699
 4149SOL    HW124080   0.844   3.947   2.908  1.0600  0.4352  0.4194
 4149SOL    HW224081   0.856   4.030   3.027 -0.4528  0.7106 -0.2184
 4150SOL     OW24082   4.241   0.856  13.088 -0.3061  0.7610 -0.4249
 4150SOL    HW124083   4.261   0.773  13.130 -2.4415 -0.1005 -1.1117
 4150SOL    HW224084   4.159   0.877  13.134  1.0341 -0.3024  2.4295
 4151SOL     OW24085   3.811   3.258  16.978 -0.0513  0.2603 -1.0992
 4151SOL    HW124086   3.814   3.292  16.889  3.2997 -0.0423 -1.1059
 4151SOL    HW224087   3.767   3.332  17.021 -0.6214 -0.1791 -0.9230
 4152SOL     OW24088   4.323   3.701   4.175 -0.3166 -0.1169 -0.3028
 4152SOL    HW124089   4.355   3.751   4.250 -0.8575  1.5644 -1.2070
 4152SOL    HW224090   4.247   3.745   4.137  0.7676  0.3043 -1.9502
 4153SOL     OW24091   3.821   2.498   5.663 -0.5166 -0.1163  1.0786
 4153SOL    HW124092   3.852   2.469   5.578  3.1675  1.0850  2.0327
 4153SOL    HW224093   3.750   2.436   5.679 -1.7483  0.3729 -2.5166
 4154SOL     OW24094   1.193   4.068  14.082 -0.5060  0.2842 -0.0504
 4154SOL    HW124095   1.279   4.109  14.092 -0.7235  0.5962  0.5380
 4154SOL    HW224096   1.151   4.121  14.015 -0.6962 -0.8398 -0.8060
 4155SOL     OW24097   2.272   3.530   2.928 -0.4788 -0.0740  0.2361
 4155SOL    HW124098   2.199   3.484   2.887  0.6527 -0.4043 -1.4268
 4155SOL    HW224099   2.301   3.454   2.978  1.7799  1.6790  1.5417
 4156SOL     OW24100   3.657   1.347   0.990  0.0133 -0.2447 -0.0420
 4156SOL    HW124101   3.669   1.343   0.895  0.2202 -0.7167  0.0009
 4156SOL    HW224102   3.707   1.267   1.008 -2.6052 -1.7732  0.4312
 4157SOL     OW24103   1.248   0.522  13.146  0.2628  0.0344  0.0576
 4157SOL    HW124104   1.331   0.510  13.101 -0.1579  0.4840 -0.8278
 4157SOL    HW224105   1.186   0.506  13.075  0.3609  1.7228 -0.3939
 4158SOL     OW24106   0.381   4.436  17.611  0.2795  0.0708  0.1169
 4158SOL    HW124107   0.353   4.366  17.670 -0.0998  0.2140  0.1107
 4158SOL    HW224108   0.299   4.458  17.567 -0.6738 -0.5405  1.5817
 4159SOL     OW24109   4.264   1.037   2.652  0.0976 -0.2277 -0.0754
 4159SOL    HW124110   4.223   1.007   2.734 -3.0032  1.3250 -1.0657
 4159SOL    HW224111   4.213   1.111   2.619 -1.4163 -1.1837  0.1106
 4160SOL     OW24112   3.002   2.173   8.243 -0.0844 -0.0389  0.0444
 4160SOL    HW124113   3.073   2.149   8.302  0.9978 -0.0461 -1.2435
 4160SOL    HW224114   3.061   2.191   8.169 -1.0447  3.4386  0.0955
 4161SOL     OW24115   4.338   2.942   4.215  0.5372 -0.2786  0.4213
 4161SOL    HW124116   4.258   2.913   4.170  0.6275  0.8876 -0.4704
 4161SOL    HW224117   4.380   2.996   4.148 -2.3096  0.6117 -0.6754
 4162SOL     OW24118   0.825   4.465   2.720 -0.1249 -0.3933  0.2470
 4162SOL    HW124119   0.894   4.447   2.655  1.7305  1.0855  1.8117
 4162SOL    HW224120   0.863   4.407   2.786  2.3964  1.3064  0.2710
 4163SOL     OW24121   0.014   4.349  16.596  0.3158  0.2059 -0.0255
 4163SOL    HW124122   0.055   4.342  16.682 -1.3007  0.9348  0.8183
 4163SOL    HW224123   0.090   4.345  16.538  0.0999 -2.4046 -0.1089
 4164SOL     OW24124   1.620   1.196   0.086  0.4286 -0.4203  0.3038
 4164SOL    HW124125   1.659   1.248   0.015  0.3064 -1.0266 -0.1992
 4164SOL    HW224126   1.546   1.254   0.103 -0.9585 -1.7827 -1.2005
 4165SOL     OW24127   2.507   1.538  14.066 -0.2091 -0.2750 -0.1680
 4165SOL    HW124128   2.490   1.463  14.123  1.4029 -1.6421 -1.4938
 4165SOL    HW224129   2.419   1.576  14.071  0.1079  0.4019  0.3647
 4166SOL     OW24130   4.489   3.437   7.468  0.6199 -0.1267 -0.2787
 4166SOL    HW124131   4.419   3.474   7.415  0.4625  2.2869  1.5726
 4166SOL    HW224132   4.517   3.516   7.514 -3.0244  1.3924 -0.6654
 4167SOL     OW24133   4.215   3.722   4.786 -0.4425  0.0406 -0.7863
 4167SOL    HW124134   4.216   3.714   4.691 -0.0960  0.2524 -0.7993
 4167SOL    HW224135   4.272   3.651   4.817  0.4203  1.6416  1.2981
 4168SOL     OW24136   3.666   1.804  13.210 -0.2109  0.4178 -0.6096
 4168SOL    HW124137   3.618   1.854  13.143  1.4787  2.7473 -0.0892
 4168SOL    HW224138   3.756   1.799  13.178  0.7174  2.4239  1.6508
 4169SOL     OW24139   3.014   3.221   1.245  0.2305  0.1546  0.1344
 4169SOL    HW124140   2.977   3.218   1.334  1.4668  1.0453  0.6768
 4169SOL    HW224141   3.071   3.296   1.259 -1.4945  2.0265 -2.9704
 4170SOL     OW24142   0.652   3.533  13.656  0.3518  0.1562  0.5758
 4170SOL    HW124143   0.727   3.477  13.638 -1.4188 -1.8364 -0.6919
 4170SOL    HW224144   0.584   3.481  13.698 -1.4609  1.4497 -0.7324
 4171SOL     OW24145   4.210   4.448  12.360  0.2666 -0.2276  0.2563
 4171SOL    HW124146   4.157   4.527  12.368  0.6030  0.0032  0.1618
 4171SOL    HW224147   4.248   4.442  12.447  0.1540  0.0483  0.3249
 4172SOL     OW24148   0.398   2.870   5.340  0.0838 -0.3873 -0.4802
 4172SOL    HW124149   0.487   2.865   5.305 -0.1095  1.7238 -1.2384
 4172SOL    HW224150   0.370   2.960   5.323 -1.5916 -0.9985 -1.0084
 4173SOL     OW24151   4.033   2.615   9.062 -0.7224  0.2677  0.0714
 4173SOL    HW124152   3.959   2.632   9.004 -0.0510 -1.5475 -1.3316
 4173SOL    HW224153   4.023   2.526   9.094 -1.3806  0.2421 -0.2205
 4174SOL     OW24154   0.196   4.016   8.359 -0.6928  0.4242 -0.9718
 4174SOL    HW124155   0.214   3.924   8.381  0.0622  0.6411 -0.6779
 4174SOL    HW224156   0.113   4.022   8.312 -2.1763 -1.0875  1.4005
 4175SOL     OW24157   3.781   1.068   5.034  0.2888  0.2029 -0.1017
 4175SOL    HW124158   3.830   1.022   5.102  0.4131  0.6985  0.1405
 4175SOL    HW224159   3.703   1.081   5.087  0.0657  0.2854 -0.4523
 4176SOL     OW24160   0.650   1.585   2.552 -0.9406 -0.2617  0.6684
 4176SOL    HW124161   0.677   1.547   2.468  0.1376  2.2837 -0.1455
 4176SOL    HW224162   0.707   1.662   2.560 -1.2726  0.0453  0.1310
 4177SOL     OW24163   3.208   0.287   3.694 -0.1301 -0.6066 -0.2641
 4177SOL    HW124164   3.283   0.248   3.740 -1.4475 -1.7094  0.9760
 4177SOL    HW224165   3.203   0.369   3.743  3.9342  0.8488 -2.3015
 4178SOL     OW24166   4.114   1.879   6.227 -0.4586 -0.2043 -0.2177
 4178SOL    HW124167   4.092   1.855   6.317 -1.3167  1.0830 -0.0869
 4178SOL    HW224168   4.163   1.802   6.197 -0.4754 -0.3160  0.0377
 4179SOL     OW24169   4.251   1.955   5.299 -0.1551  0.1139  0.1508
 4179SOL    HW124170   4.333   1.916   5.329  0.4624  0.8480 -0.5885
 4179SOL    HW224171   4.196   1.877   5.308  0.9730 -1.1054 -3.6193
 4180SOL     OW24172   3.457   0.462  17.243  0.3271 -0.2207 -0.7075
 4180SOL    HW124173   3.392   0.533  17.242  1.6428  0.9926  0.5641
 4180SOL    HW224174   3.539   0.507  17.264 -0.4983  1.3040 -0.7127
 4181SOL     OW24175   2.549   3.552   6.637  0.0930  0.5634  0.0613
 4181SOL    HW124176   2.562   3.472   6.688 -1.1873  0.2084 -0.1486
 4181SOL    HW224177   2.633   3.558   6.593 -0.3513 -1.3251 -1.0450
 4182SOL     OW24178   1.576   0.591   8.238 -0.1869 -0.5009 -0.2330
 4182SOL    HW124179   1.490   0.574   8.199 -0.4028 -0.5746  0.2769
 4182SOL    HW224180   1.561   0.571   8.331  1.4645 -0.7571 -0.0244
 4183SOL     OW24181   1.034   3.444   8.901 -0.2227  0.1946  0.2889
 4183SOL    HW124182   1.109   3.424   8.845 -2.3097 -0.8904 -2.1102
 4183SOL    HW224183   0.988   3.360   8.904 -2.2376  1.1967 -2.7929
 4184SOL     OW24184   1.636   3.782   7.402 -0.6901 -0.0564  0.4620
 4184SOL    HW124185   1.586   3.702   7.386 -2.3552  0.7540  1.5134
 4184SOL    HW224186   1.633   3.824   7.316 -0.9148  0.9153  0.9329
 4185SOL     OW24187   2.576   3.250   3.653  0.5008  0.0870 -0.0905
 4185SOL    HW124188   2.639   3.323   3.645  3.3077 -2.2495  0.6454
 4185SOL    HW224189   2.631   3.172   3.656  0.6973  0.1361 -2.3639
 4186SOL     OW24190   3.895   1.975   3.123  0.6104  0.5316 -0.3119
 4186SOL    HW124191   3.877   2.033   3.197 -1.7163  0.2130 -0.6280
 4186SOL    HW224192   3.956   2.023   3.067 -0.3263  2.2202  0.1030
 4187SOL     OW24193   0.949   1.255   5.558  0.5573 -0.5178 -0.3285
 4187SOL    HW124194   1.008   1.202   5.505  1.1547  0.6280 -0.8033
 4187SOL    HW224195   0.994   1.337   5.574  0.0158 -0.3987  0.5990
 4188SOL     OW24196   1.741   4.491  12.042  0.0008  0.6142  0.2340
 4188SOL    HW124197   1.778   4.416  11.996  1.1280  0.8607  0.7514
 4188SOL    HW224198   1.691   4.441  12.106  1.4549 -1.1276 -0.0114
 4189SOL     OW24199   1.526   2.404   9.903 -0.2629 -0.1389 -0.1688
 4189SOL    HW124200   1.539   2.433   9.813  0.0413  1.2499  0.3343
 4189SOL    HW224201   1.519   2.487   9.949 -1.2689 -1.1344  1.5007
 4190SOL     OW24202   3.996   3.794   3.496 -0.2730  0.5239 -0.5435
 4190SOL    HW124203   3.942   3.741   3.438 -0.6911  0.1678  0.1820
 4190SOL    HW224204   4.085   3.782   3.463 -0.8084 -3.2579 -0.5722
 4191SOL     OW24205   4.360   1.834   0.397  0.1198 -0.0526  0.0077
 4191SOL    HW124206   4.449   1.864   0.377  0.3017 -0.6072 -0.0064
 4191SOL    HW224207   4.319   1.911   0.436  0.0476  1.0876 -2.3092
 4192SOL     OW24208   0.766   2.855   7.077  0.3966 -0.4213  0.2167
 4192SOL    HW124209   0.842   2.798   7.089 -0.0591 -1.2752 -0.8839
 4192SOL    HW224210   0.701   2.802   7.122  2.7297 -2.8236  0.7600
 4193SOL     OW24211   3.780   0.107   8.507 -0.3809 -0.0120 -0.0908
 4193SOL    HW124212   3.706   0.048   8.491 -0.2096 -0.5452  1.0881
 4193SOL    HW224213   3.737   0.174   8.560 -2.3124 -1.0473 -0.3268
 4194SOL     OW24214   0.159   1.751   7.632 -0.3101 -0.0261  0.1594
 4194SOL    HW124215   0.206   1.669   7.615 -0.9119  0.1396 -2.2952
 4194SOL    HW224216   0.071   1.716   7.624 -0.0922 -0.7328  0.8038
 4195SOL     OW24217   3.066   3.725   0.597 -0.7059  0.1190  0.1778
 4195SOL    HW124218   2.994   3.703   0.657 -0.6470 -1.2348 -0.2386
 4195SOL    HW224219   3.065   3.652   0.535  1.4300  0.6753 -0.4911
 4196SOL     OW24220   1.883   2.070   7.423  0.1271 -0.3066  0.5349
 4196SOL    HW124221   1.927   1.994   7.384  0.2545 -0.2152  0.5005
 4196SOL    HW224222   1.955   2.131   7.406  0.0984 -0.0615  1.3295
 4197SOL     OW24223   4.345   4.571   3.758  0.3648 -0.2238 -0.4606
 4197SOL    HW124224   4.357   4.612   3.844 -0.5671 -0.4179 -0.2427
 4197SOL    HW224225   4.252   4.553   3.766  0.6529 -2.3027 -1.7403
 4198SOL     OW24226   1.294   3.816   8.625 -0.8603 -0.2987  1.0567
 4198SOL    HW124227   1.246   3.786   8.547 -2.7652 -0.7575  2.4118
 4198SOL    HW224228   1.312   3.729   8.662 -0.8401 -0.8115 -0.1491
 4199SOL     OW24229   3.791   1.474   8.532  0.0951  0.2144  0.1015
 4199SOL    HW124230   3.853   1.439   8.597  1.1779 -1.3259 -1.7495
 4199SOL    HW224231   3.709   1.461   8.580 -0.1697  2.0263  0.1399
 4200SOL     OW24232   1.109   1.000   4.807  0.7485  0.3640  0.0317
 4200SOL    HW124233   1.042   0.991   4.740  0.3760 -2.3798  0.7976
 4200SOL    HW224234   1.187   1.022   4.756  1.2840  0.5963  0.9384
 4201SOL     OW24235   2.414   1.514   1.586 -0.4254 -0.0998 -0.8032
 4201SOL    HW124236   2.407   1.470   1.501 -1.0542 -1.3069 -0.1357
 4201SOL    HW224237   2.490   1.465   1.616 -2.1643 -1.9565  0.6280
 4202SOL     OW24238   4.086   2.785  12.639 -0.2076 -0.2825 -0.4360
 4202SOL    HW124239   4.163   2.836  12.614 -0.2191 -0.0473  0.0073
 4202SOL    HW224240   4.079   2.815  12.730  1.3558 -0.4552 -0.2536
 4203SOL     OW24241   3.368   0.284   6.349  0.4077  0.5318  0.6179
 4203SOL    HW124242   3.431   0.337   6.299  0.5581  1.2090  1.5142
 4203SOL    HW224243   3.287   0.307   6.304  1.2214 -0.0616 -1.1502
 4204SOL     OW24244   1.574   0.853   4.989 -0.3255  0.0131 -0.1854
 4204SOL    HW124245   1.567   0.758   4.992 -2.1906  0.1950  0.9119
 4204SOL    HW224246   1.616   0.870   4.904  1.3724 -0.9049  0.4592
 4205SOL     OW24247   1.144   3.815   8.406  0.2132 -0.2637  0.2675
 4205SOL    HW124248   1.060   3.858   8.388  1.1168  0.3419 -2.6156
 4205SOL    HW224249   1.200   3.840   8.331  1.4337 -3.6327  0.0794
 4206SOL     OW24250   1.207   4.430   3.811  0.3056 -0.6688 -0.6361
 4206SOL    HW124251   1.160   4.508   3.780 -0.3117 -0.5018  0.7553
 4206SOL    HW224252   1.144   4.362   3.787 -1.2583  0.5572 -0.0725
 4207SOL     OW24253   2.605   2.294  13.192 -0.5410 -0.0211  0.0337
 4207SOL    HW124254   2.526   2.348  13.191 -2.1757 -2.3953  3.1339
 4207SOL    HW224255   2.569   2.220  13.241  0.6612 -1.1099 -0.7248
 4208SOL     OW24256   2.191   2.289   3.658 -0.3245 -0.5495 -0.2761
 4208SOL    HW124257   2.156   2.370   3.621  2.6938  1.5516  1.4454
 4208SOL    HW224258   2.148   2.219   3.610 -1.3412 -2.1272  2.9537
 4209SOL     OW24259   2.461   1.770   1.561 -0.2622 -0.7617 -0.0563
 4209SOL    HW124260   2.540   1.748   1.612  1.6367  1.1149 -2.2101
 4209SOL    HW224261   2.419   1.685   1.550 -2.2086  0.5019 -2.2507
 4210SOL     OW24262   0.552   4.137   2.880  0.3569 -0.2958 -0.0056
 4210SOL    HW124263   0.480   4.081   2.907  1.0444  0.2710  2.9939
 4210SOL    HW224264   0.638   4.102   2.905  0.2063  0.6529  1.8225
 4211SOL     OW24265   3.607   1.185   3.169 -0.0151 -0.2768  0.7542
 4211SOL    HW124266   3.601   1.232   3.253 -1.5790 -2.9597  2.1484
 4211SOL    HW224267   3.677   1.233   3.125  0.5230 -1.3515  0.4516
 4212SOL     OW24268   1.082   0.228  17.312  0.5519 -0.1809 -0.6775
 4212SOL    HW124269   1.026   0.236  17.390  0.4867  2.6107 -0.9881
 4212SOL    HW224270   1.049   0.144  17.281 -0.8112 -0.0300  0.3415
 4213SOL     OW24271   0.293   4.704   8.656 -0.4111  0.3313 -0.2928
 4213SOL    HW124272   0.267   4.647   8.583 -0.3843 -0.9728  0.7072
 4213SOL    HW224273   0.297   0.056   8.616 -0.8080 -0.3936 -1.8804
 4214SOL     OW24274   1.028   2.469  17.165  0.2092  0.0218  0.2272
 4214SOL    HW124275   1.024   2.393  17.107  2.1779 -0.1013  0.2693
 4214SOL    HW224276   0.953   2.442  17.219 -0.6765  1.0278 -0.4948
 4215SOL     OW24277   0.375   4.622   4.513 -0.4334  0.0586  0.5897
 4215SOL    HW124278   0.361   4.629   4.419 -1.0632  1.8447  0.8041
 4215SOL    HW224279   0.352   4.712   4.534  2.2488  0.2921  2.5795
 4216SOL     OW24280   0.792   0.685   4.845  0.1378  0.0484  0.5175
 4216SOL    HW124281   0.778   0.738   4.766 -3.2039 -1.0673  0.3839
 4216SOL    HW224282   0.704   0.680   4.882 -0.0896 -1.9959 -0.3433
 4217SOL     OW24283   2.088   0.491   7.901  0.2302 -0.3576  0.0479
 4217SOL    HW124284   2.005   0.537   7.887 -0.3678 -1.3673  0.3300
 4217SOL    HW224285   2.151   0.557   7.931 -0.7761 -0.2694  1.9397
 4218SOL     OW24286   4.439   2.160   3.467 -0.5416 -0.2544 -0.1148
 4218SOL    HW124287   4.407   2.119   3.547 -2.3727  1.9353  0.2829
 4218SOL    HW224288   4.525   2.121   3.455 -0.6127  0.0553 -1.6923
 4219SOL     OW24289   4.154   3.854   5.467  0.4551 -0.2240 -0.2296
 4219SOL    HW124290   4.239   3.850   5.422  0.7428 -0.4029  0.3238
 4219SOL    HW224291   4.170   3.924   5.530 -0.1334  0.3676 -0.7422
 4220SOL     OW24292   3.209   4.103   3.030 -0.6964 -0.3458  0.2758
 4220SOL    HW124293   3.219   4.163   3.104 -2.1403  0.0435  0.1560
 4220SOL    HW224294   3.168   4.030   3.075  2.5912 -2.3332  0.0319
 4221SOL     OW24295   0.526   3.802   2.241  0.2703  0.0865 -0.1704
 4221SOL    HW124296   0.511   3.883   2.291  0.5089  0.3664 -0.5481
 4221SOL    HW224297   0.619   3.814   2.220  0.5392 -2.0305 -0.1743
 4222SOL     OW24298   3.966   1.405  16.691  0.4790  0.5523  0.5666
 4222SOL    HW124299   4.009   1.481  16.732  0.1305  1.0632 -0.0148
 4222SOL    HW224300   4.039   1.343  16.686  0.3904  0.6538 -1.8637
 4223SOL     OW24301   3.750   2.107   7.901  0.5154  0.0128 -0.2771
 4223SOL    HW124302   3.785   2.196   7.894  1.6167 -0.1601  3.0961
 4223SOL    HW224303   3.661   2.104   7.937  0.0084  1.0720 -1.4530
 4224SOL     OW24304   1.605   0.417  10.993  0.2047  0.5517  0.0848
 4224SOL    HW124305   1.699   0.417  11.007  0.0945  2.4277  0.8963
 4224SOL    HW224306   1.601   0.354  10.921 -0.4958  0.6408  0.0472
 4225SOL     OW24307   2.657   2.728   4.623  0.3885 -0.2466  0.0948
 4225SOL    HW124308   2.729   2.780   4.588  2.3007 -1.6255  1.9439
 4225SOL    HW224309   2.673   2.644   4.580 -2.3545  0.1809 -1.7942
 4226SOL     OW24310   1.080   1.567   7.825  0.1797 -0.2135  0.3081
 4226SOL    HW124311   1.117   1.483   7.853  0.6400 -0.2700 -0.4561
 4226SOL    HW224312   1.137   1.603   7.757 -0.3438 -2.3203 -1.2396
 4227SOL     OW24313   2.961   0.554   9.741 -0.6219 -0.4373 -0.0923
 4227SOL    HW124314   3.017   0.589   9.810 -0.4540  0.8543 -0.8732
 4227SOL    HW224315   2.892   0.515   9.795  0.5984 -5.1141 -1.9250
 4228SOL     OW24316   2.231   4.008  14.955 -0.0873 -0.3882  0.6884
 4228SOL    HW124317   2.217   4.003  14.860  1.4507  0.1527  0.4378
 4228SOL    HW224318   2.153   3.962  14.984 -1.0385  1.5704  1.2618
 4229SOL     OW24319   2.477   1.856   7.361 -0.2168  0.0751 -0.4321
 4229SOL    HW124320   2.557   1.880   7.407 -0.3726  0.6239 -0.4538
 4229SOL    HW224321   2.508   1.796   7.292  1.3867  0.2758  0.1074
 4230SOL     OW24322   0.199   3.513   9.909 -0.3831 -0.2895  0.8611
 4230SOL    HW124323   0.253   3.530   9.986  0.8238 -1.2496  0.2318
 4230SOL    HW224324   0.259   3.541   9.840 -0.8786  0.1754  0.6133
 4231SOL     OW24325   2.543   4.558   0.991  0.0596 -0.0181 -0.3888
 4231SOL    HW124326   2.475   4.610   0.948  0.5481 -0.6953 -1.9691
 4231SOL    HW224327   2.572   4.503   0.919  0.0518  2.4543 -2.2509
 4232SOL     OW24328   0.341   0.604  11.595 -0.4174  0.3544  0.0926
 4232SOL    HW124329   0.424   0.558  11.605 -0.5809 -0.3259 -1.5886
 4232SOL    HW224330   0.331   0.611  11.500  0.4211  2.2463  0.1560
 4233SOL     OW24331   2.629   4.429  11.135  0.2492  0.4135  0.2852
 4233SOL    HW124332   2.631   4.483  11.214 -1.5955 -0.8233  1.1692
 4233SOL    HW224333   2.546   4.464  11.102  0.2782  0.8241  0.6456
 4234SOL     OW24334   1.744   1.290   7.837 -0.1152  0.6983  0.3243
 4234SOL    HW124335   1.698   1.207   7.837  0.9150  0.1280 -0.8966
 4234SOL    HW224336   1.685   1.351   7.790 -0.5985 -0.5793 -0.7207
 4235SOL     OW24337   1.420   2.727   3.920  0.2460 -0.1797  0.1200
 4235SOL    HW124338   1.358   2.731   3.993 -1.0424  1.1721 -1.0407
 4235SOL    HW224339   1.506   2.754   3.952  0.3076 -2.9197  2.2304
 4236SOL     OW24340   2.696   3.605   7.491  0.0840 -0.0409 -0.4892
 4236SOL    HW124341   2.670   3.632   7.403  1.4425 -0.5774 -1.0414
 4236SOL    HW224342   2.619   3.627   7.544  0.2892  0.0350 -0.2208
 4237SOL     OW24343   4.085   2.600   5.705 -0.1824 -0.1398  0.0882
 4237SOL    HW124344   3.989   2.597   5.702 -0.3721  3.5800  1.9536
 4237SOL    HW224345   4.108   2.508   5.709  0.7062  0.0285 -1.0271
 4238SOL     OW24346   3.593   1.586   7.081  0.2411 -0.4796  0.0159
 4238SOL    HW124347   3.649   1.627   7.016  0.4897  2.1586  1.8833
 4238SOL    HW224348   3.556   1.667   7.117  1.4150  0.5745 -1.1409
 4239SOL     OW24349   3.874   4.113   5.644  0.4637  0.5049  0.3828
 4239SOL    HW124350   3.833   4.186   5.690 -0.8482  0.3697 -0.6013
 4239SOL    HW224351   3.878   4.053   5.719  0.9421  0.0998  0.0300
 4240SOL     OW24352   1.781   1.614  11.106 -0.0211  0.3850  0.3660
 4240SOL    HW124353   1.827   1.616  11.190  2.2071 -1.3702 -0.8041
 4240SOL    HW224354   1.804   1.696  11.062  0.4786 -0.1779 -0.4323
 4241SOL     OW24355   2.048   0.588  14.170 -0.1394  0.4900 -0.7670
 4241SOL    HW124356   2.039   0.576  14.265  2.2015 -0.5974 -0.7002
 4241SOL    HW224357   1.962   0.570  14.133 -0.5745  3.5136 -1.2541
 4242SOL     OW24358   4.423   3.598   4.935  0.0624  0.0169  0.0600
 4242SOL    HW124359   4.506   3.640   4.956 -0.6595  0.4335  2.0227
 4242SOL    HW224360   4.374   3.615   5.015  0.1163 -2.4165  0.6130
 4243SOL     OW24361   2.481   1.620   2.744 -0.2982  0.1305 -0.0811
 4243SOL    HW124362   2.533   1.542   2.763  2.3306  1.8822 -0.0372
 4243SOL    HW224363   2.535   1.660   2.676  0.5977  0.2770  0.7226
 4244SOL     OW24364   1.937   2.944   4.108 -0.2521  0.0609  0.2656
 4244SOL    HW124365   1.853   2.987   4.098 -0.1384  0.4887  1.1230
 4244SOL    HW224366   1.976   2.984   4.186 -1.7775  2.4988 -0.2333
 4245SOL     OW24367   4.392   0.817   8.735 -0.0157  0.5073 -0.1263
 4245SOL    HW124368   4.341   0.839   8.658  2.0698  0.1012 -1.6256
 4245SOL    HW224369   4.460   0.884   8.734  1.0935 -0.6027  0.4416
 4246SOL     OW24370   3.902   0.217   0.049  0.5002  0.0076  0.4320
 4246SOL    HW124371   3.927   0.223   0.142  1.9257  2.6994 -0.1275
 4246SOL    HW224372   3.819   0.265   0.049  1.3671  1.5284  0.1981
 4247SOL     OW24373   0.199   0.459   8.145 -0.1855 -0.9081  0.2099
 4247SOL    HW124374   0.132   0.519   8.177  2.2176  0.7925  2.1021
 4247SOL    HW224375   0.199   0.404   8.224  2.8347 -2.4017 -0.8244
 4248SOL     OW24376   3.320   1.117  11.877 -0.7065  0.7410 -0.1848
 4248SOL    HW124377   3.401   1.078  11.845 -0.7946  0.6131 -0.2549
 4248SOL    HW224378   3.346   1.177  11.947  1.7071 -1.7581  1.0232
 4249SOL     OW24379   3.846   1.651  17.442  0.3579  0.4217  0.0723
 4249SOL    HW124380   3.848   1.684  17.352  0.3310 -1.2450 -0.5419
 4249SOL    HW224381   3.882   1.730  17.483  0.2400  0.5455 -0.0615
 4250SOL     OW24382   4.113   3.818  10.332 -0.1962  0.2509 -0.1144
 4250SOL    HW124383   4.106   3.904  10.374  1.8138  0.0218  0.7039
 4250SOL    HW224384   4.030   3.818  10.285  1.7057  1.0764 -3.4869
 4251SOL     OW24385   0.541   2.667  13.002 -0.0034 -0.4026  0.5868
 4251SOL    HW124386   0.476   2.697  13.066  0.9196 -1.8233  2.1635
 4251SOL    HW224387   0.619   2.689  13.053  0.0011  0.9537 -0.0011
 4252SOL     OW24388   1.521   3.431   6.800  0.2689  0.4301 -0.0238
 4252SOL    HW124389   1.439   3.410   6.754  0.4596  0.0295 -0.1829
 4252SOL    HW224390   1.506   3.374   6.876 -0.0232 -0.8505 -1.0428
 4253SOL     OW24391   3.791   1.780   5.080 -0.1436  0.0122 -0.0289
 4253SOL    HW124392   3.841   1.862   5.089  2.0406 -1.2807 -0.3103
 4253SOL    HW224393   3.787   1.738   5.165 -0.5659 -0.4649 -0.2901
 4254SOL     OW24394   1.047   4.142  14.866  0.2378 -0.1394 -0.7709
 4254SOL    HW124395   0.985   4.071  14.882 -1.6343  1.5337 -0.6262
 4254SOL    HW224396   1.127   4.121  14.914 -1.8485  0.6805  3.0618
 4255SOL     OW24397   0.063   2.322   9.384  0.1870  0.1675  0.4795
 4255SOL    HW124398   0.071   2.402   9.436 -1.2678  0.4173  0.3335
 4255SOL    HW224399   0.151   2.287   9.394  0.2873 -0.0645 -1.1899
 4256SOL     OW24400   3.980   0.508   0.709 -0.4009  0.1031  0.0348
 4256SOL    HW124401   3.929   0.516   0.790  1.6928 -0.5403  1.4181
 4256SOL    HW224402   4.057   0.454   0.726 -1.0201  0.0279  2.6087
 4257SOL     OW24403   3.609   3.080   8.739 -0.4322 -0.0086  0.4740
 4257SOL    HW124404   3.630   3.133   8.662  0.4253 -0.5584  0.3188
 4257SOL    HW224405   3.689   3.039   8.772  0.4745  0.1106 -1.5164
 4258SOL     OW24406   1.222   4.146   5.649 -0.1680  0.0126  0.0059
 4258SOL    HW124407   1.127   4.145   5.663 -0.3301 -1.0940 -1.1472
 4258SOL    HW224408   1.251   4.057   5.631  0.4997  0.4459 -1.0775
 4259SOL     OW24409   4.643   3.950   2.370  0.7625 -0.5808 -0.2817
 4259SOL    HW124410   4.617   4.042   2.370  0.2588 -0.7224 -1.9353
 4259SOL    HW224411   4.557   3.913   2.349  0.2323  1.4723 -1.6371
 4260SOL     OW24412   2.392   0.537   2.186 -0.7141  0.3698  0.3856
 4260SOL    HW124413   2.447   0.462   2.164 -2.5713 -0.5387 -1.1071
 4260SOL    HW224414   2.334   0.496   2.249  0.4709 -0.8191  0.6957
 4261SOL     OW24415   4.482   2.757  10.392  0.0725  0.5107 -0.3485
 4261SOL    HW124416   4.561   2.794  10.352  0.3673  0.7182  0.4119
 4261SOL    HW224417   4.434   2.835  10.420  0.5256  0.5919  0.2119
 4262SOL     OW24418   4.360   3.928  13.363  0.4713 -0.9176  0.2279
 4262SOL    HW124419   4.282   3.882  13.333 -0.3162 -0.1170  1.0677
 4262SOL    HW224420   4.406   3.852  13.399  1.9831  0.1716  0.5877
 4263SOL     OW24421   0.748   2.566   3.552  0.3305 -0.2877  0.2991
 4263SOL    HW124422   0.667   2.552   3.601  1.3001  2.0557  2.5976
 4263SOL    HW224423   0.818   2.569   3.618 -1.2349 -0.5026  1.9518
 4264SOL     OW24424   1.892   0.831   2.278 -0.0057  0.2946  0.1588
 4264SOL    HW124425   1.901   0.836   2.183  0.0131  0.2611  0.1589
 4264SOL    HW224426   1.826   0.762   2.287 -1.0904  1.4529  1.0528
 4265SOL     OW24427   1.236   3.087   5.414 -0.3790 -0.5877 -0.0212
 4265SOL    HW124428   1.227   3.182   5.421  1.0216 -0.5041  0.6704
 4265SOL    HW224429   1.254   3.068   5.322  0.6463  2.3300 -0.4402
 4266SOL     OW24430   2.444   2.071  15.570 -0.2478  0.4983 -0.7624
 4266SOL    HW124431   2.522   2.051  15.623 -2.0515 -1.2907  1.2061
 4266SOL    HW224432   2.442   1.986  15.527 -1.0007  0.3117 -0.3581
 4267SOL     OW24433   1.909   0.001  13.202  0.7679 -0.3978  1.0079
 4267SOL    HW124434   1.899   4.707  13.111  0.8511  1.3228  0.4519
 4267SOL    HW224435   1.939   0.091  13.186  0.7636 -0.5555  0.1095
 4268SOL     OW24436   2.410   2.034   5.801  0.7561 -0.2485 -0.4107
 4268SOL    HW124437   2.316   2.047   5.787  0.6894  0.1882  0.4300
 4268SOL    HW224438   2.426   2.113   5.852 -1.1758  0.3685 -0.7514
 4269SOL     OW24439   4.706   1.413   9.120 -0.5675  0.4148 -0.3269
 4269SOL    HW124440   0.067   1.417   9.135 -0.2273  2.7884 -3.0654
 4269SOL    HW224441   4.670   1.363   9.193  0.9799  0.2265  0.3132
 4270SOL     OW24442   0.624   1.788   8.311 -0.4895  0.5383 -0.1263
 4270SOL    HW124443   0.657   1.783   8.401  0.3677  0.6292 -0.4375
 4270SOL    HW224444   0.675   1.714   8.277  1.1990  0.3351  2.8324
 4271SOL     OW24445   2.897   1.864   6.331 -0.6891  0.0748 -0.1275
 4271SOL    HW124446   2.867   1.799   6.394 -1.5911 -0.0067 -0.6468
 4271SOL    HW224447   2.971   1.901   6.379 -0.3649 -1.1320  0.3058
 4272SOL     OW24448   2.145   1.774  15.101 -0.3660  0.2502  0.5675
 4272SOL    HW124449   2.184   1.686  15.104 -1.6196 -0.3022  0.7902
 4272SOL    HW224450   2.210   1.824  15.151  1.9310 -2.5211  0.3989
 4273SOL     OW24451   1.319   1.002   4.621  0.4288  0.5321 -0.4661
 4273SOL    HW124452   1.379   1.074   4.604  1.4415  0.0572  1.0553
 4273SOL    HW224453   1.373   0.937   4.667 -0.4393 -0.6015 -1.0543
 4274SOL     OW24454   1.665   3.467   2.173 -0.2461  0.4599  0.8153
 4274SOL    HW124455   1.744   3.508   2.207  0.3547 -0.3332  0.3741
 4274SOL    HW224456   1.642   3.426   2.256 -1.3090 -0.7775 -0.0959
 4275SOL     OW24457   3.675   2.011   2.782 -0.5552 -0.5265 -0.0506
 4275SOL    HW124458   3.600   2.013   2.721 -0.0771  0.5522 -0.6160
 4275SOL    HW224459   3.638   2.047   2.862  0.0285  1.0423 -0.4694
 4276SOL     OW24460   4.485   2.728   3.945  0.1304 -0.7900  0.5142
 4276SOL    HW124461   4.500   2.633   3.943  0.3018 -0.7510 -0.0605
 4276SOL    HW224462   4.541   2.756   3.872 -0.5724 -1.9488 -0.4899
 4277SOL     OW24463   3.353   3.820   6.060  0.1580 -0.3193  0.9498
 4277SOL    HW124464   3.355   3.805   5.965  0.5526 -0.5263  0.9897
 4277SOL    HW224465   3.335   3.913   6.067 -0.5925 -0.6031  2.8990
 4278SOL     OW24466   3.880   0.011   4.396 -0.1848  0.0597 -0.2214
 4278SOL    HW124467   3.800   4.716   4.351  1.4240 -3.6175 -0.7156
 4278SOL    HW224468   3.876   0.106   4.387  1.2300 -0.0570 -1.8278
 4279SOL     OW24469   2.328   2.455  16.369  0.2463  0.1762 -0.0803
 4279SOL    HW124470   2.246   2.469  16.416  0.7355  0.9419  0.5347
 4279SOL    HW224471   2.374   2.387  16.418 -0.0732 -0.3146 -0.4611
 4280SOL     OW24472   4.497   0.790  16.647  0.9679 -0.2368 -0.1807
 4280SOL    HW124473   4.519   0.734  16.721  1.1662  1.0218  0.7167
 4280SOL    HW224474   4.404   0.808  16.666  0.9307  1.0892 -1.6143
 4281SOL     OW24475   1.891   3.133  12.921  0.2977  0.3329 -0.7611
 4281SOL    HW124476   1.846   3.213  12.951  2.3598  0.9567  0.7409
 4281SOL    HW224477   1.983   3.153  12.940 -0.1530  0.4181  1.3140
 4282SOL     OW24478   3.084   3.209   5.043 -0.3767  0.2072 -0.1463
 4282SOL    HW124479   2.998   3.205   5.084 -0.0255  0.5649  0.6132
 4282SOL    HW224480   3.076   3.294   4.998 -2.8237 -1.2071 -2.3715
 4283SOL     OW24481   4.471   1.586  11.389 -0.5604 -0.1585  0.4721
 4283SOL    HW124482   4.437   1.647  11.456 -1.0609  0.0425  0.0350
 4283SOL    HW224483   4.409   1.513  11.390 -0.1638 -0.5106 -2.6717
 4284SOL     OW24484   0.525   4.662   3.240 -0.0922 -0.4498  0.0425
 4284SOL    HW124485   0.439   4.664   3.284  0.2797  2.0751  0.6445
 4284SOL    HW224486   0.579   4.659   3.319 -0.7671 -2.1748  0.4422
 4285SOL     OW24487   4.275   2.852   2.516  0.6552  0.0042  0.2038
 4285SOL    HW124488   4.260   2.945   2.531  0.0805  0.2918 -2.2386
 4285SOL    HW224489   4.361   2.858   2.475  0.0545 -2.5502 -1.4543
 4286SOL     OW24490   0.376   0.996   4.448 -0.0873  0.1155 -0.0467
 4286SOL    HW124491   0.418   1.063   4.501  1.5555 -0.8824 -0.0970
 4286SOL    HW224492   0.311   1.046   4.398 -3.4583 -2.1844  2.0339
 4287SOL     OW24493   0.538   4.632   8.146 -0.3087  0.7102  0.0746
 4287SOL    HW124494   0.503   4.560   8.199 -0.2555  1.6227  1.3348
 4287SOL    HW224495   0.467   4.651   8.084 -1.4120 -2.7380  0.2999
 4288SOL     OW24496   0.345   1.645   5.700  0.8979  0.1320  0.3895
 4288SOL    HW124497   0.294   1.580   5.749 -0.2253  0.0689 -0.8737
 4288SOL    HW224498   0.278   1.693   5.653  2.4186 -0.9156 -2.8621
 4289SOL     OW24499   2.779   1.531  16.451 -0.6750  0.3523 -0.0554
 4289SOL    HW124500   2.762   1.516  16.358  1.0616  1.9447 -0.6294
 4289SOL    HW224501   2.826   1.613  16.468 -1.0560  0.9373 -1.8252
 4290SOL     OW24502   2.479   0.727  14.511 -0.4501  0.2081 -0.0581
 4290SOL    HW124503   2.426   0.647  14.514 -0.3512  0.1623  0.5327
 4290SOL    HW224504   2.458   0.754  14.422  0.2251  0.1587 -0.2283
 4291SOL     OW24505   1.972   0.582   9.097 -0.2745 -0.2232 -0.2645
 4291SOL    HW124506   1.928   0.497   9.097  2.5813 -1.7478 -1.6581
 4291SOL    HW224507   2.041   0.567   9.162 -0.1343  2.6460  0.2203
 4292SOL     OW24508   0.614   0.192  11.454 -0.3833  0.2269 -0.0613
 4292SOL    HW124509   0.647   0.144  11.530 -0.6106 -1.2416 -0.9017
 4292SOL    HW224510   0.623   0.133  11.380  1.0794 -0.1397  0.4052
 4293SOL     OW24511   0.593   2.612   6.266  0.0247 -0.0798 -0.0633
 4293SOL    HW124512   0.500   2.633   6.277  0.2981  1.4319 -0.5732
 4293SOL    HW224513   0.635   2.674   6.206  3.9128 -1.6544  1.0344
 4294SOL     OW24514   1.354   2.767  11.146 -0.4312  0.0966  0.1356
 4294SOL    HW124515   1.334   2.806  11.060  0.9662  2.8018  1.0440
 4294SOL    HW224516   1.342   2.834  11.213 -2.1450 -0.7935  0.7249
 4295SOL     OW24517   1.352   0.326   8.287 -0.1139 -0.3442  0.4830
 4295SOL    HW124518   1.297   0.355   8.359  0.1938 -2.3093  1.5191
 4295SOL    HW224519   1.330   0.387   8.216  2.8196  0.2980  0.1094
 4296SOL     OW24520   0.284   3.493  16.602 -0.2101  0.5381  0.0482
 4296SOL    HW124521   0.293   3.430  16.531  0.9595  0.3386  0.3784
 4296SOL    HW224522   0.353   3.471  16.665 -1.0224 -0.2857  0.6550
 4297SOL     OW24523   3.998   1.744   5.425 -0.2307  0.3090  0.7918
 4297SOL    HW124524   4.064   1.675   5.426 -1.4301 -0.9095 -1.8662
 4297SOL    HW224525   3.946   1.704   5.494 -0.7667 -1.5186 -0.6867
 4298SOL     OW24526   1.529   2.038   2.525  0.0646 -0.3851 -0.0367
 4298SOL    HW124527   1.580   2.080   2.595  1.3703 -2.0766  0.0329
 4298SOL    HW224528   1.504   1.949   2.549  1.2935 -0.5367  0.7043
 4299SOL     OW24529   3.080   3.775   9.669 -0.6290 -0.6911  0.1625
 4299SOL    HW124530   3.096   3.710   9.737 -0.3865 -0.4208  0.3622
 4299SOL    HW224531   3.036   3.719   9.606 -3.4710 -0.0378  1.5872
 4300SOL     OW24532   4.419   4.120  10.047  0.2446  0.1431  0.0522
 4300SOL    HW124533   4.472   4.149  10.122 -1.1017 -0.3807  1.2134
 4300SOL    HW224534   4.334   4.092  10.083 -1.5004  3.4260 -1.4796
 4301SOL     OW24535   3.414   1.350  12.859  0.3256 -0.1226 -0.1423
 4301SOL    HW124536   3.427   1.437  12.897 -1.6285 -0.8996  2.3246
 4301SOL    HW224537   3.406   1.379  12.769  0.2766 -0.4511 -0.2438
 4302SOL     OW24538   2.577   1.704   6.447  0.3607 -0.1333 -0.3267
 4302SOL    HW124539   2.623   1.745   6.521 -0.6775  0.4951 -0.0316
 4302SOL    HW224540   2.546   1.777   6.393 -1.0949  1.6375  2.8806
 4303SOL     OW24541   0.917   3.881   4.161  0.1303  0.3450  0.7423
 4303SOL    HW124542   0.983   3.836   4.214 -0.4577  0.2064  1.3516
 4303SOL    HW224543   0.833   3.847   4.190 -0.2380  1.5292  1.0355
 4304SOL     OW24544   2.547   3.094   5.794  0.1283 -0.8596 -0.3861
 4304SOL    HW124545   2.601   3.139   5.729  2.7157 -1.1618  1.5082
 4304SOL    HW224546   2.598   3.124   5.870 -0.3418 -1.7676  0.2933
 4305SOL     OW24547   3.990   3.278   3.964  0.2931  0.3498 -0.5115
 4305SOL    HW124548   3.901   3.270   4.000 -0.0495  2.4320 -0.8912
 4305SOL    HW224549   4.030   3.341   4.024 -0.6641 -0.6419  1.1712
 4306SOL     OW24550   4.021   0.530   7.911  0.0920 -0.2205  0.0340
 4306SOL    HW124551   3.946   0.517   7.853 -0.1627  0.0891  0.2912
 4306SOL    HW224552   4.093   0.483   7.870 -1.5690 -1.2300 -1.6934
 4307SOL     OW24553   3.893   1.515   7.658 -0.1387  0.0524  0.3703
 4307SOL    HW124554   3.928   1.531   7.570  0.1138 -0.5529  0.3608
 4307SOL    HW224555   3.819   1.576   7.656 -0.1294  0.0346 -1.1957
 4308SOL     OW24556   3.940   0.754   1.611  0.1537  0.3970  0.8729
 4308SOL    HW124557   4.018   0.730   1.561  0.0842  0.4952  0.7164
 4308SOL    HW224558   3.868   0.747   1.549  1.1847 -1.9234 -0.0436
 4309SOL     OW24559   4.043   1.690  15.674  0.5110  0.0034 -0.4017
 4309SOL    HW124560   4.097   1.625  15.629 -0.8510 -0.9780 -0.6376
 4309SOL    HW224561   3.963   1.673  15.623 -0.2059 -2.5198  1.5774
 4310SOL     OW24562   4.099   2.689   2.638 -0.1944 -0.4163  0.5580
 4310SOL    HW124563   4.168   2.742   2.598 -0.8492 -0.4072 -0.5521
 4310SOL    HW224564   4.022   2.741   2.615 -1.7974 -2.1505  1.9432
 4311SOL     OW24565   1.774   4.240   4.239  0.5376 -0.0160  0.2546
 4311SOL    HW124566   1.685   4.264   4.266  0.3202  0.0178 -0.5002
 4311SOL    HW224567   1.798   4.168   4.297  0.2653  2.4415  3.4394
 4312SOL     OW24568   2.790   4.391   7.873 -0.0747  0.1842  0.5318
 4312SOL    HW124569   2.704   4.428   7.854  0.1451  0.3502 -0.1206
 4312SOL    HW224570   2.779   4.307   7.827  0.7099  2.0985 -3.1274
 4313SOL     OW24571   0.040   0.215   7.869 -0.3992 -0.0479 -0.3769
 4313SOL    HW124572   0.007   0.225   7.958 -1.1332 -0.9639 -0.5502
 4313SOL    HW224573   4.692   0.191   7.827  0.5254 -2.0495 -1.0937
 4314SOL     OW24574   4.367   4.331   8.303  0.3534 -0.0599 -0.6088
 4314SOL    HW124575   4.317   4.413   8.301 -0.0053 -0.2869 -0.8259
 4314SOL    HW224576   4.351   4.316   8.396  1.6735 -0.5787 -0.4577
 4315SOL     OW24577   2.344   4.633   5.947  0.1678  0.2510  0.0533
 4315SOL    HW124578   2.434   4.634   5.916  0.5177  1.3807  1.1093
 4315SOL    HW224579   2.292   4.597   5.875  1.9828 -2.9035  0.2907
 4316SOL     OW24580   4.571   2.059   3.142  0.4114  0.2053  0.2859
 4316SOL    HW124581   4.480   2.033   3.132  0.6796 -0.8308  0.5311
 4316SOL    HW224582   4.592   2.040   3.233  3.8309  0.5598 -0.3998
 4317SOL     OW24583   4.635   3.726   5.052  0.5316  0.2282  0.4672
 4317SOL    HW124584   4.675   3.641   5.070 -1.8298 -0.9445  0.2004
 4317SOL    HW224585   4.678   3.778   5.120  1.0961  1.7344 -1.0511
 4318SOL     OW24586   3.778   4.580   4.798 -0.1889  0.7472  0.5137
 4318SOL    HW124587   3.818   4.500   4.832  0.7622  0.6741 -0.8131
 4318SOL    HW224588   3.698   4.587   4.852 -0.7366  1.8978 -0.4592
 4319SOL     OW24589   2.395   0.128   2.715 -0.2324 -0.1411 -0.0369
 4319SOL    HW124590   2.482   0.128   2.674 -0.6811 -0.5284 -0.9948
 4319SOL    HW224591   2.378   0.221   2.724 -1.8635 -0.4074 -0.3630
 4320SOL     OW24592   0.925   0.749   2.790  0.1232 -0.2870  0.2547
 4320SOL    HW124593   0.853   0.687   2.782 -1.6721  1.8587 -0.0062
 4320SOL    HW224594   0.875   0.821   2.828  1.3270 -0.5274  2.3568
 4321SOL     OW24595   4.265   0.298   4.892 -0.0587  0.1572  0.4523
 4321SOL    HW124596   4.351   0.258   4.903 -1.3379 -2.2640  1.6840
 4321SOL    HW224597   4.214   0.225   4.857  0.4416 -0.3555  0.7797
 4322SOL     OW24598   3.536   4.694   4.513 -0.0326  0.2463 -0.0657
 4322SOL    HW124599   3.596   4.693   4.438  1.9187  1.2881  1.4632
 4322SOL    HW224600   3.525   4.601   4.534 -1.3051  0.2359 -0.8048
 4323SOL     OW24601   0.012   2.101   6.761 -0.0235 -0.5559 -0.2128
 4323SOL    HW124602   0.057   2.137   6.684  0.0233  0.5301  0.3254
 4323SOL    HW224603   0.006   2.181   6.813 -1.0510 -0.5764 -0.2921
 4324SOL     OW24604   3.143   0.348  12.403 -0.4699 -0.4042 -0.0614
 4324SOL    HW124605   3.175   0.410  12.469 -0.5763  1.8774 -2.1875
 4324SOL    HW224606   3.119   0.283  12.470  1.6284 -2.3823 -1.2073
 4325SOL     OW24607   4.052   2.104   4.028 -0.2355 -0.0682  0.0855
 4325SOL    HW124608   3.991   2.118   4.101 -0.0005  0.2573  0.2192
 4325SOL    HW224609   4.116   2.060   4.084  0.0752 -1.1552 -1.1213
 4326SOL     OW24610   0.889   3.405   0.753 -0.3973 -0.0301  0.3161
 4326SOL    HW124611   0.920   3.436   0.839 -0.1459 -0.9989  0.5698
 4326SOL    HW224612   0.852   3.320   0.773 -1.8523  0.4217 -0.4287
 4327SOL     OW24613   3.940   0.570  14.345  0.7716 -0.0035 -0.1505
 4327SOL    HW124614   3.930   0.480  14.313 -1.7358 -0.1168  0.9916
 4327SOL    HW224615   3.860   0.614  14.317  0.6059 -0.2785 -0.1061
 4328SOL     OW24616   2.318   2.405   0.007 -0.5976 -0.2823  0.2941
 4328SOL    HW124617   2.300   2.315  17.715  1.3406 -0.3598 -0.7712
 4328SOL    HW224618   2.237   2.436   0.047  0.6939  1.4840  1.5577
 4329SOL     OW24619   1.813   2.935  12.739  0.5074  0.4662 -0.4837
 4329SOL    HW124620   1.872   2.870  12.776 -0.0951  1.7800  2.7502
 4329SOL    HW224621   1.822   3.012  12.796 -1.3776  1.1071 -1.0371
 4330SOL     OW24622   1.997   4.728  16.007 -0.5047 -0.2201  0.2309
 4330SOL    HW124623   2.083   4.715  16.047 -0.4856 -0.6377  0.0522
 4330SOL    HW224624   2.017   4.714  15.914  0.8651  0.7653  0.3678
 4331SOL     OW24625   2.223   0.454   7.456 -0.2110  0.0497  0.1012
 4331SOL    HW124626   2.161   0.408   7.512  0.0520  2.5851  2.4681
 4331SOL    HW224627   2.264   0.508   7.523  0.4893 -1.2843  0.7445
 4332SOL     OW24628   1.718   1.732  13.868  0.3968 -0.0062 -0.1971
 4332SOL    HW124629   1.727   1.792  13.794  3.1149 -2.0718 -1.5310
 4332SOL    HW224630   1.665   1.660  13.834 -0.1034 -0.0622  0.6954
 4333SOL     OW24631   2.716   1.715  14.103  0.0681 -0.4495  0.8359
 4333SOL    HW124632   2.655   1.644  14.087  0.0251 -0.0197 -0.9283
 4333SOL    HW224633   2.668   1.788  14.064  2.9009  1.3199  0.6377
 4334SOL     OW24634   0.064   0.595   4.516 -0.1376 -0.8636  0.0319
 4334SOL    HW124635   0.055   0.689   4.500  1.9854 -0.7645 -0.6323
 4334SOL    HW224636   0.155   0.584   4.489  0.1762 -0.2408  0.8186
 4335SOL     OW24637   4.396   1.324   9.107 -0.0144  1.0895 -0.0160
 4335SOL    HW124638   4.309   1.347   9.140  0.7137  0.4351  2.3391
 4335SOL    HW224639   4.445   1.403   9.131  0.0671  0.9757  0.1900
 4336SOL     OW24640   2.625   4.175   4.195  0.7107  0.3007 -0.3920
 4336SOL    HW124641   2.678   4.132   4.262  1.5619  1.6186 -0.2059
 4336SOL    HW224642   2.685   4.247   4.174  0.1183  0.1168 -2.8042
 4337SOL     OW24643   0.105   3.536   1.147 -0.0995  0.0993  0.2279
 4337SOL    HW124644   0.109   3.442   1.126  0.9472  0.0687  0.5689
 4337SOL    HW224645   0.139   3.528   1.236  0.4580  1.5923  0.1421
 4338SOL     OW24646   0.390   1.696   7.856 -0.3700 -0.1723  0.3335
 4338SOL    HW124647   0.356   1.657   7.776  1.7094  1.3850 -1.3312
 4338SOL    HW224648   0.445   1.626   7.889 -1.4061 -0.4686  1.3977
 4339SOL     OW24649   3.704   1.929   4.316  0.3934 -0.5739 -0.7625
 4339SOL    HW124650   3.724   1.965   4.402  0.0670 -1.7589 -0.1881
 4339SOL    HW224651   3.735   2.003   4.264  3.0275  0.8294  2.8225
 4340SOL     OW24652   1.696   0.866   2.546  0.1752 -0.0728 -0.0490
 4340SOL    HW124653   1.754   0.790   2.555  2.6050  1.8851  0.8906
 4340SOL    HW224654   1.693   0.881   2.451 -3.2576 -0.5205 -0.0193
 4341SOL     OW24655   1.121   0.949  17.640  0.5837 -0.0786 -0.0528
 4341SOL    HW124656   1.215   0.958  17.655  0.7740 -1.2932 -0.5569
 4341SOL    HW224657   1.122   0.905  17.555  0.8453  0.1353 -0.1606
 4342SOL     OW24658   0.685   1.774   9.405 -0.1973 -0.0840  0.2029
 4342SOL    HW124659   0.703   1.866   9.384  1.1826 -0.3588  0.2035
 4342SOL    HW224660   0.644   1.744   9.324 -0.8817 -0.3276  0.6429
 4343SOL     OW24661   1.497   1.565   5.085 -0.0639 -0.2867  0.6801
 4343SOL    HW124662   1.428   1.557   5.151 -0.4934 -1.7464  0.0436
 4343SOL    HW224663   1.497   1.658   5.062 -0.5139 -0.4246  0.1514
 4344SOL     OW24664   4.041   0.856   8.534  0.0747  0.0233 -0.2002
 4344SOL    HW124665   3.954   0.827   8.561  1.5893 -1.4759  3.1031
 4344SOL    HW224666   4.045   0.935   8.587  0.4344 -0.7962  1.0177
 4345SOL     OW24667   2.393   1.399   2.460  0.4028  0.5280 -0.1304
 4345SOL    HW124668   2.306   1.362   2.442  1.2351 -1.6560  0.3859
 4345SOL    HW224669   2.443   1.318   2.465  0.3171  0.4783 -0.0820
 4346SOL     OW24670   4.660   2.955  17.346  0.8564  0.5399  0.0224
 4346SOL    HW124671   4.601   3.030  17.346  1.5190  1.0664 -0.7037
 4346SOL    HW224672   4.602   2.903  17.291 -0.1341  1.8104 -0.1324
 4347SOL     OW24673   3.305   3.954   9.322  0.1937  0.1420 -0.1510
 4347SOL    HW124674   3.234   3.895   9.295 -0.3432  0.2895  0.9658
 4347SOL    HW224675   3.360   3.937   9.246  2.3185  0.6066  1.2934
 4348SOL     OW24676   1.755   2.875  11.883  0.5345 -0.2458 -0.1124
 4348SOL    HW124677   1.798   2.854  11.801  0.8089 -0.6962  0.1477
 4348SOL    HW224678   1.676   2.823  11.869 -0.4119  1.5079 -1.2250
 4349SOL     OW24679   4.211   2.521   1.356 -0.3346  0.4947  0.1368
 4349SOL    HW124680   4.180   2.431   1.364 -0.4544  0.3066 -2.6127
 4349SOL    HW224681   4.154   2.568   1.417 -1.0872  1.4467 -1.2945
 4350SOL     OW24682   2.280   3.088  15.531 -0.5110  0.6558 -0.2332
 4350SOL    HW124683   2.332   3.096  15.451  0.7481  0.3270  0.5469
 4350SOL    HW224684   2.326   3.140  15.597 -1.1237  0.1884  0.5664
 4351SOL     OW24685   1.273   4.076   7.878  0.2881  0.3036  0.3891
 4351SOL    HW124686   1.339   4.080   7.948  0.9867 -0.3284 -0.2341
 4351SOL    HW224687   1.327   4.062   7.800 -1.1626  2.8127 -1.0790
 4352SOL     OW24688   2.355   1.343   5.025 -0.3806  0.3477 -0.2924
 4352SOL    HW124689   2.394   1.329   4.939 -0.0256 -2.5615  0.3519
 4352SOL    HW224690   2.399   1.422   5.056 -0.8680  0.1539  0.8902
 4353SOL     OW24691   3.964   3.645   2.495  0.1832  0.3481  0.2475
 4353SOL    HW124692   4.045   3.694   2.507  1.7911 -1.8754 -1.7022
 4353SOL    HW224693   3.897   3.713   2.506 -0.9428 -0.6649 -0.2842
 4354SOL     OW24694   4.275   1.994   3.152 -0.0644  0.2872 -0.1053
 4354SOL    HW124695   4.272   1.898   3.149  1.7112  0.2974 -1.8724
 4354SOL    HW224696   4.203   2.016   3.212 -0.2188  0.6842 -0.4415
 4355SOL     OW24697   0.984   1.940  12.167 -0.4056  0.2153  0.7354
 4355SOL    HW124698   1.070   1.972  12.194 -0.5781  2.5638 -1.5023
 4355SOL    HW224699   1.010   1.850  12.188 -1.7334 -0.8770 -2.4106
 4356SOL     OW24700   0.719   0.433   6.882  0.1220 -0.9767 -0.2431
 4356SOL    HW124701   0.765   0.514   6.860 -0.9974 -0.4701 -0.7123
 4356SOL    HW224702   0.685   0.441   6.971  0.5202 -1.9582 -0.0040
 4357SOL     OW24703   0.204   1.615   6.749  0.0445  0.2596  0.1707
 4357SOL    HW124704   0.278   1.587   6.694 -0.5022 -1.2719  0.2188
 4357SOL    HW224705   0.180   1.696   6.703  0.3130  0.9834  1.3103
 4358SOL     OW24706   1.593   3.155   5.826  0.4168  0.2457  0.3686
 4358SOL    HW124707   1.575   3.247   5.809 -0.1833 -0.1479 -1.0959
 4358SOL    HW224708   1.629   3.159   5.915  0.8647 -0.5660  0.2209
 4359SOL     OW24709   2.795   2.272  12.355 -0.1328 -0.6574  0.3850
 4359SOL    HW124710   2.877   2.308  12.321 -0.4198 -0.3970 -0.0185
 4359SOL    HW224711   2.731   2.340  12.334  1.9779  1.1664 -0.1603
 4360SOL     OW24712   2.398   2.184  12.325  0.1027  0.1113  0.0591
 4360SOL    HW124713   2.349   2.134  12.260  0.4001  0.5128 -0.4695
 4360SOL    HW224714   2.416   2.259  12.269  0.2890 -0.8609 -1.1668
 4361SOL     OW24715   3.823   3.388  15.400  0.1522 -0.0116 -0.4086
 4361SOL    HW124716   3.761   3.318  15.417  0.3370 -0.0477  0.1104
 4361SOL    HW224717   3.795   3.409  15.311 -0.2488  3.1296  0.4379
 4362SOL     OW24718   1.574   3.421   5.788  0.4816 -0.2975 -0.0360
 4362SOL    HW124719   1.552   3.463   5.705  1.2273  0.1735 -0.0025
 4362SOL    HW224720   1.636   3.489   5.816 -0.1652  0.7031 -1.0035
 4363SOL     OW24721   1.093   3.791   5.336 -0.4326 -0.0392 -0.2017
 4363SOL    HW124722   1.084   3.701   5.306 -0.1754  0.2042 -1.0085
 4363SOL    HW224723   1.007   3.826   5.312 -0.5822  0.1998  0.6813
 4364SOL     OW24724   0.439   1.782   9.570  0.1227 -0.0186  0.4010
 4364SOL    HW124725   0.512   1.723   9.550 -0.8635 -1.6520  1.6409
 4364SOL    HW224726   0.403   1.731   9.643 -1.4060  1.9388  1.0117
 4365SOL     OW24727   2.928   3.335  12.207 -0.0383 -0.4868 -0.0487
 4365SOL    HW124728   2.946   3.250  12.168 -2.4160 -1.3678  0.7687
 4365SOL    HW224729   2.925   3.306  12.298  0.9284 -0.0982  0.1101
 4366SOL     OW24730   0.110   3.934   0.730 -0.5894  0.5187 -0.2056
 4366SOL    HW124731   0.036   3.946   0.789 -0.2383  1.0002  0.1330
 4366SOL    HW224732   0.061   3.943   0.649 -0.0959  1.7445 -0.3597
 4367SOL     OW24733   3.398   0.907   3.809  0.4841  0.1757  0.4710
 4367SOL    HW124734   3.463   0.848   3.771 -0.8204 -0.9185 -0.0828
 4367SOL    HW224735   3.437   0.938   3.891 -1.3335  1.4078  0.8752
 4368SOL     OW24736   1.309   3.692   4.779 -0.2667  0.3503  0.5717
 4368SOL    HW124737   1.396   3.730   4.770  1.6897 -3.8698  1.5674
 4368SOL    HW224738   1.332   3.599   4.782  1.1853  0.7585  1.8607
 4369SOL     OW24739   1.772   1.493  15.407 -0.3595 -0.2672  0.3493
 4369SOL    HW124740   1.778   1.536  15.322 -0.8706  0.8663  0.8853
 4369SOL    HW224741   1.681   1.508  15.433 -0.5961 -1.2306  0.0619
 4370SOL     OW24742   0.740   1.301   8.663  0.0081  0.0136 -0.3443
 4370SOL    HW124743   0.716   1.394   8.656  1.6910  0.4053 -1.1036
 4370SOL    HW224744   0.662   1.254   8.691  1.1250 -1.8242 -0.3547
 4371SOL     OW24745   0.642   2.364   8.196  0.0336 -0.2250 -0.6015
 4371SOL    HW124746   0.616   2.452   8.223  0.5690 -0.2354 -0.0446
 4371SOL    HW224747   0.737   2.376   8.200 -0.1462  1.0578 -0.4232
 4372SOL     OW24748   0.310   3.922   1.428 -0.2242 -0.0004 -0.7508
 4372SOL    HW124749   0.275   3.972   1.501 -0.5248 -0.1612 -0.7820
 4372SOL    HW224750   0.249   3.934   1.354 -1.2950 -2.3140 -0.2686
 4373SOL     OW24751   3.374   4.145   0.237  0.1306 -0.2243 -1.1177
 4373SOL    HW124752   3.354   4.107   0.152  0.5116  0.5582 -1.5641
 4373SOL    HW224753   3.445   4.086   0.260 -0.6568 -1.2589 -1.3458
 4374SOL     OW24754   4.344   4.075   6.555  0.2790 -0.2911 -0.1253
 4374SOL    HW124755   4.295   4.005   6.511 -3.3960  1.0300  1.9242
 4374SOL    HW224756   4.274   4.137   6.572 -0.2702 -1.3127  1.3388
 4375SOL     OW24757   4.194   3.812  15.805  0.0020  0.0816 -0.0703
 4375SOL    HW124758   4.178   3.902  15.834 -3.1171 -0.8662  1.0271
 4375SOL    HW224759   4.234   3.791  15.889 -2.4679  0.0984  1.0777
 4376SOL     OW24760   1.574   0.019   1.605  0.1283 -0.2883  0.5872
 4376SOL    HW124761   1.544   0.068   1.528 -1.5560 -0.6807  0.9918
 4376SOL    HW224762   1.668   0.019   1.591 -0.0673 -1.6069 -0.7870
 4377SOL     OW24763   3.158   4.430   4.731  0.0023 -0.0547  0.2206
 4377SOL    HW124764   3.137   4.378   4.653 -1.7233  0.0752  0.5925
 4377SOL    HW224765   3.238   4.385   4.757 -0.8034 -1.3775  0.4760
 4378SOL     OW24766   2.510   3.914   7.999 -0.2561 -0.6003  0.0812
 4378SOL    HW124767   2.475   3.971   8.067 -1.6002 -1.5804  0.2182
 4378SOL    HW224768   2.515   3.967   7.920  1.2690  0.6471  1.0242
 4379SOL     OW24769   1.156   4.452   5.884  0.0087 -0.1181 -0.5626
 4379SOL    HW124770   1.115   4.366   5.892 -1.0267  0.3428 -0.9039
 4379SOL    HW224771   1.116   4.481   5.801  1.9996 -0.5390 -1.6639
 4380SOL     OW24772   4.205   2.053  16.009  0.9443  0.0645 -0.3312
 4380SOL    HW124773   4.157   2.025  15.931  0.6120  2.4813 -1.0099
 4380SOL    HW224774   4.134   2.095  16.059 -1.6055 -3.7003 -0.7698
 4381SOL     OW24775   3.642   0.586  11.832 -0.2308  1.2518  0.2835
 4381SOL    HW124776   3.604   0.616  11.915  0.2304  1.8467  0.2828
 4381SOL    HW224777   3.736   0.599  11.846 -0.3820  1.4775  1.1408
 4382SOL     OW24778   0.879   4.435  12.382  0.3306  0.4025 -0.4520
 4382SOL    HW124779   0.794   4.456  12.421 -0.0933 -2.0142 -0.0934
 4382SOL    HW224780   0.849   4.391  12.302 -0.0867 -1.1509  0.5590
 4383SOL     OW24781   1.861   4.046   8.837 -0.4160 -0.2534 -0.2746
 4383SOL    HW124782   1.913   4.042   8.917  0.4215  0.7835 -0.7726
 4383SOL    HW224783   1.829   4.135   8.826  2.1822  0.4353 -2.2763
 4384SOL     OW24784   0.498   1.223  14.955 -0.2291 -0.0492 -0.2627
 4384SOL    HW124785   0.412   1.200  14.921 -0.3195  0.1067 -0.1418
 4384SOL    HW224786   0.515   1.139  14.996 -0.6691  0.8381  1.7628
 4385SOL     OW24787   0.601   2.390  10.040  0.0316  0.0544  0.5538
 4385SOL    HW124788   0.610   2.467   9.985  0.6060  0.3878  1.1196
 4385SOL    HW224789   0.528   2.410  10.099 -1.1770 -1.3631 -0.4399
 4386SOL     OW24790   2.174   2.935   1.064  0.3767  0.0703 -0.5841
 4386SOL    HW124791   2.261   2.965   1.089  0.0917  0.9444 -0.6614
 4386SOL    HW224792   2.183   2.846   1.099  1.8332 -0.5482 -2.5404
 4387SOL     OW24793   3.288   3.282   3.501 -0.0165 -0.2796 -0.0782
 4387SOL    HW124794   3.224   3.239   3.557 -1.2762  2.4200  0.5439
 4387SOL    HW224795   3.310   3.206   3.448  0.9088 -0.9411  1.2797
 4388SOL     OW24796   1.188   3.809   3.416  0.3287 -0.2589  0.3577
 4388SOL    HW124797   1.208   3.886   3.469  1.7239 -0.9007  0.7542
 4388SOL    HW224798   1.097   3.827   3.393  0.7709  0.5250 -0.7426
 4389SOL     OW24799   2.029   4.345   7.241 -0.2556  0.0790  0.6148
 4389SOL    HW124800   1.934   4.344   7.246 -0.2369  0.5492  1.0952
 4389SOL    HW224801   2.054   4.308   7.326 -1.7057 -2.3182 -0.0024
 4390SOL     OW24802   3.059   3.353   2.494 -0.9394 -0.2661  0.5787
 4390SOL    HW124803   2.971   3.382   2.518 -1.0264  0.5332 -0.7237
 4390SOL    HW224804   3.062   3.271   2.543  0.1725 -0.2764  0.5030
 4391SOL     OW24805   3.433   3.605  13.874  0.1873  0.0717  0.2265
 4391SOL    HW124806   3.477   3.525  13.845  0.8552 -0.1590  1.8827
 4391SOL    HW224807   3.362   3.603  13.810 -1.1522 -1.3069  1.7581
 4392SOL     OW24808   1.916   2.256   3.315 -0.5225  0.4712 -0.3339
 4392SOL    HW124809   1.838   2.203   3.299  0.2578 -0.4848 -0.9086
 4392SOL    HW224810   1.893   2.318   3.245  2.0750 -0.2491 -1.7944
 4393SOL     OW24811   3.704   0.952   6.003  0.0935  0.9359  0.5016
 4393SOL    HW124812   3.794   0.932   6.026 -0.0804 -1.0593 -0.5387
 4393SOL    HW224813   3.724   1.028   5.948  0.0623 -0.7299 -1.8213
 4394SOL     OW24814   3.088   2.824  16.447 -0.4839 -0.1109  0.2522
 4394SOL    HW124815   3.173   2.848  16.483 -0.1721 -0.1871 -0.4383
 4394SOL    HW224816   3.050   2.911  16.434 -0.1403  0.1562  0.9902
 4395SOL     OW24817   2.549   4.476  12.970 -0.0045 -0.2238 -0.0981
 4395SOL    HW124818   2.544   4.412  13.041 -2.0040 -0.9317 -0.8640
 4395SOL    HW224819   2.601   4.426  12.907 -0.0063 -0.5839  0.1881
 4396SOL     OW24820   0.717   1.370   5.027 -0.0544  0.5851  0.1555
 4396SOL    HW124821   0.724   1.278   5.004 -0.4656  0.5350  0.2334
 4396SOL    HW224822   0.678   1.404   4.946 -1.0458 -1.0444 -0.0465
 4397SOL     OW24823   3.121   4.623  12.319 -0.3492  0.8461 -0.4640
 4397SOL    HW124824   3.130   4.714  12.290 -0.6954  1.9946  2.9285
 4397SOL    HW224825   3.106   4.588  12.231 -3.3721  3.6475 -1.0835
 4398SOL     OW24826   1.299   3.774  11.240 -0.0126  0.5724  0.1561
 4398SOL    HW124827   1.309   3.681  11.260 -0.4813  0.3958 -0.3991
 4398SOL    HW224828   1.355   3.818  11.303 -0.1466  0.8515  0.0832
 4399SOL     OW24829   1.192   2.093   9.151 -0.0557 -0.1592 -0.0831
 4399SOL    HW124830   1.142   2.022   9.192 -0.6090  0.4000  0.2252
 4399SOL    HW224831   1.136   2.103   9.074  0.2942 -2.0301 -0.5726
 4400SOL     OW24832   4.540   4.664  13.094  0.1368 -0.2140  0.3184
 4400SOL    HW124833   4.554   4.671  12.999 -3.6756  2.3649 -0.0436
 4400SOL    HW224834   4.460   4.611  13.095 -0.4557  0.6823  0.4070
 4401SOL     OW24835   3.059   0.269   8.594 -0.2858 -0.2125 -0.2076
 4401SOL    HW124836   3.039   0.257   8.501 -0.7350 -2.0604  0.1341
 4401SOL    HW224837   2.984   0.239   8.644  0.4972 -0.1517  0.9878
 4402SOL     OW24838   1.884   1.677   9.642 -0.0512 -0.7508  0.6796
 4402SOL    HW124839   1.942   1.653   9.715 -1.2223  0.8511  2.1518
 4402SOL    HW224840   1.843   1.591   9.629  1.6360 -1.5753  0.8585
 4403SOL     OW24841   0.419   0.619   3.715 -0.0851 -0.2278 -0.5253
 4403SOL    HW124842   0.389   0.551   3.775  1.0374  0.5583  0.9564
 4403SOL    HW224843   0.398   0.585   3.628  1.9659 -0.0068 -1.1082
 4404SOL     OW24844   0.672   4.171   2.009  0.1673  0.1365 -0.4656
 4404SOL    HW124845   0.697   4.089   1.967  0.7930 -0.2424  0.6511
 4404SOL    HW224846   0.579   4.175   1.986 -0.5140  0.4524  2.3902
 4405SOL     OW24847   4.314   0.890  15.669 -0.4860 -0.6945 -0.1959
 4405SOL    HW124848   4.321   0.805  15.712  1.5328  0.2368  1.3262
 4405SOL    HW224849   4.402   0.912  15.640  0.5270 -1.2290  2.4401
 4406SOL     OW24850   3.326   4.589   0.070 -0.0606 -0.6271 -0.3370
 4406SOL    HW124851   3.306   4.591   0.163  1.0576  0.1535 -0.1085
 4406SOL    HW224852   3.246   4.631   0.037 -0.1892  0.1891  1.0115
 4407SOL     OW24853   4.055   2.506   6.604  0.0089 -0.0394 -0.3336
 4407SOL    HW124854   3.962   2.500   6.582 -0.2105  1.3176  0.2813
 4407SOL    HW224855   4.092   2.507   6.515  0.3158  1.5182 -0.1846
 4408SOL     OW24856   1.018   4.653   8.957  0.1900  0.6871  0.0422
 4408SOL    HW124857   1.028   0.004   9.000  1.1383 -0.9434  3.0888
 4408SOL    HW224858   1.102   4.656   8.911 -0.2273 -0.8239 -0.8199
 4409SOL     OW24859   3.809   2.363   7.768  0.0908 -0.2488 -0.2433
 4409SOL    HW124860   3.797   2.416   7.847  1.7588  2.5517 -1.8624
 4409SOL    HW224861   3.758   2.408   7.701 -2.1725 -0.7479  1.1603
 4410SOL     OW24862   4.147   4.436   0.324 -0.2102 -0.7374 -0.4896
 4410SOL    HW124863   4.056   4.465   0.334 -0.1390  0.1634 -2.4339
 4410SOL    HW224864   4.170   4.413   0.414 -0.0036  1.1148 -0.0576
 4411SOL     OW24865   1.411   1.790   2.541 -0.4469 -0.4203 -0.0077
 4411SOL    HW124866   1.399   1.781   2.446 -0.5909 -1.7975  0.1362
 4411SOL    HW224867   1.424   1.698   2.566  0.7829 -0.2552 -0.0230
 4412SOL     OW24868   3.373   3.307  12.524  0.0425 -0.2299  0.0104
 4412SOL    HW124869   3.346   3.359  12.600 -1.6461 -0.6113 -0.3327
 4412SOL    HW224870   3.312   3.338  12.457 -1.5248 -2.8869  0.2205
 4413SOL     OW24871   0.730   1.677   6.564  0.9019 -0.5495 -0.3720
 4413SOL    HW124872   0.643   1.655   6.531  1.4195 -1.0687 -1.3958
 4413SOL    HW224873   0.733   1.631   6.648  2.3774  0.2225 -0.0124
 4414SOL     OW24874   4.480   0.546   5.880 -0.1661 -0.3738  0.1974
 4414SOL    HW124875   4.556   0.590   5.842 -0.1067 -0.0502  0.6870
 4414SOL    HW224876   4.424   0.623   5.876 -1.6279 -1.6223 -2.8882
 4415SOL     OW24877   0.905   1.576   7.522  0.6864  0.4592  0.0349
 4415SOL    HW124878   0.832   1.549   7.466 -0.2059  0.5799  1.1326
 4415SOL    HW224879   0.876   1.546   7.608  0.8447  0.7799  0.2036
 4416SOL     OW24880   0.757   3.348  17.708  0.2344  0.5801 -0.2927
 4416SOL    HW124881   0.844   3.386  17.715 -0.4605  1.7959  1.6276
 4416SOL    HW224882   0.718   3.418  17.657  0.0498  0.7820  0.1262
 4417SOL     OW24883   2.009   0.360   9.355 -0.2899 -0.6289 -0.3073
 4417SOL    HW124884   2.025   0.287   9.295  2.1877 -1.0779  0.9180
 4417SOL    HW224885   1.959   0.316   9.423 -0.4706  0.8882  0.5496
 4418SOL     OW24886   3.874   1.453  13.081 -0.1910  0.4754 -0.2994
 4418SOL    HW124887   3.814   1.451  13.155 -1.0585  2.0547 -0.9790
 4418SOL    HW224888   3.954   1.461  13.133  1.4282 -0.3686 -2.6387
 4419SOL     OW24889   4.667   3.159  16.020  0.1255  0.2375 -0.3884
 4419SOL    HW124890   4.647   3.143  16.112 -1.3393  3.0349 -0.2010
 4419SOL    HW224891   4.576   3.165  15.991 -0.1678 -2.0316  0.0584
 4420SOL     OW24892   2.023   3.851  11.852  0.1618  0.4825  0.3091
 4420SOL    HW124893   1.964   3.913  11.895 -0.6849  0.8539 -1.3798
 4420SOL    HW224894   2.035   3.883  11.763  1.2518  0.8217  0.5910
 4421SOL     OW24895   3.848   3.783  10.248 -0.6434  0.0400  0.4680
 4421SOL    HW124896   3.785   3.848  10.219  1.0996  1.0915 -0.9649
 4421SOL    HW224897   3.820   3.698  10.214  1.1180 -0.0518 -0.7840
 4422SOL     OW24898   3.474   0.495   1.755 -0.0985 -0.3758  0.8086
 4422SOL    HW124899   3.487   0.443   1.676  1.1400 -1.1887  1.5474
 4422SOL    HW224900   3.422   0.570   1.727 -2.3887 -1.5958  1.8354
 4423SOL     OW24901   3.490   0.054   1.488  0.3436  0.7256  0.0993
 4423SOL    HW124902   3.556   4.718   1.490  0.8371  1.1110 -1.8130
 4423SOL    HW224903   3.470   0.057   1.394  0.5088 -0.4783  0.0231
 4424SOL     OW24904   4.333   1.159   4.492  0.3243  0.0554 -0.2971
 4424SOL    HW124905   4.301   1.119   4.573 -2.3145  1.4438 -0.6416
 4424SOL    HW224906   4.428   1.154   4.497  0.2876  0.4315  0.8041
 4425SOL     OW24907   0.087   4.468   6.461 -0.0030  0.0887  0.0153
 4425SOL    HW124908   0.020   4.403   6.481  0.1683  0.2542  1.1223
 4425SOL    HW224909   0.023   4.538   6.451 -1.0204 -0.8212  0.0679
 4426SOL     OW24910   2.822   0.833   8.249  0.2505 -0.2925 -0.8946
 4426SOL    HW124911   2.855   0.881   8.325 -1.9137 -1.1079  0.5753
 4426SOL    HW224912   2.796   0.911   8.201  1.0559  0.4294 -0.1500
 4427SOL     OW24913   0.185   1.316  16.879 -0.3528 -0.0387 -1.0054
 4427SOL    HW124914   0.258   1.305  16.940 -1.7933  3.2435  1.2795
 4427SOL    HW224915   0.225   1.373  16.813  1.0021  1.0017  0.7198
 4428SOL     OW24916   3.280   0.900  10.634  0.0262  0.6016 -0.3085
 4428SOL    HW124917   3.366   0.923  10.670  0.3515 -1.4574  0.2842
 4428SOL    HW224918   3.283   0.805  10.624 -1.5756  0.5351 -0.1353
 4429SOL     OW24919   3.130   4.505   3.291 -0.0820  0.2697  0.0006
 4429SOL    HW124920   3.167   4.530   3.375 -0.0198 -1.2806  0.4255
 4429SOL    HW224921   3.184   4.428   3.276 -2.1916 -1.3480  0.8593
 4430SOL     OW24922   0.794   1.621   6.085 -0.2926 -0.0502 -0.7169
 4430SOL    HW124923   0.828   1.595   6.171 -0.3383  0.6010 -0.5027
 4430SOL    HW224924   0.776   1.714   6.099  1.3859 -0.3069  3.1151
 4431SOL     OW24925   3.029   1.532  10.214 -1.1391 -0.0009 -0.3035
 4431SOL    HW124926   3.016   1.453  10.161 -0.9763  0.0026 -0.3480
 4431SOL    HW224927   3.046   1.492  10.299  1.1088 -0.6417 -1.0551
 4432SOL     OW24928   2.900   3.109   2.505  0.0050 -0.0647 -0.2633
 4432SOL    HW124929   2.805   3.114   2.495  0.1394  3.0792  0.0021
 4432SOL    HW224930   2.900   3.118   2.600  0.8349 -2.2867 -0.0602
 4433SOL     OW24931   2.799   1.315  16.599 -0.6273  0.2824  0.1737
 4433SOL    HW124932   2.786   1.399  16.555 -0.1364  0.2253 -0.0823
 4433SOL    HW224933   2.716   1.312  16.646 -1.5033 -0.3789 -1.4055
 4434SOL     OW24934   1.345   4.497   7.341 -0.4817 -0.1195  0.3071
 4434SOL    HW124935   1.323   4.577   7.292 -1.5816 -0.3404  0.4435
 4434SOL    HW224936   1.424   4.476   7.292 -0.5316 -1.5533  0.8389
 4435SOL     OW24937   4.295   1.490   7.050  0.2706 -0.1416  0.0232
 4435SOL    HW124938   4.244   1.409   7.051  1.0369 -0.6162  0.2079
 4435SOL    HW224939   4.311   1.506   6.957  0.5782 -2.5099 -0.3237
 4436SOL     OW24940   0.803   0.389   5.187  0.2381 -0.9537  0.3218
 4436SOL    HW124941   0.875   0.434   5.142  0.0747 -0.1285  0.9005
 4436SOL    HW224942   0.737   0.452   5.159 -0.6259 -2.2051 -0.4327
 4437SOL     OW24943   3.639   2.360   9.679 -0.9321 -0.3162 -0.0448
 4437SOL    HW124944   3.574   2.375   9.747 -0.8480 -0.2942  0.0297
 4437SOL    HW224945   3.715   2.326   9.727 -0.9068  1.2533  1.0121
 4438SOL     OW24946   1.634   4.033   6.107 -0.1896 -0.0782 -0.0319
 4438SOL    HW124947   1.639   3.993   6.194 -0.0677  2.6337  1.1969
 4438SOL    HW224948   1.716   4.083   6.112  1.5442 -2.6644 -2.6174
 4439SOL     OW24949   1.498   0.697  17.251 -0.3463 -0.3197  0.0843
 4439SOL    HW124950   1.577   0.715  17.303 -0.6107  1.0144  0.0134
 4439SOL    HW224951   1.457   0.783  17.249 -1.8010 -1.0059  0.4667
 4440SOL     OW24952   3.322   1.411   8.694 -0.4899  0.1971  0.5850
 4440SOL    HW124953   3.331   1.413   8.790  1.0869  0.6862  0.4325
 4440SOL    HW224954   3.302   1.320   8.674  1.8261  0.1776 -1.7000
 4441SOL     OW24955   4.629   0.510   2.808 -0.2543 -0.2623  0.1978
 4441SOL    HW124956   4.620   0.594   2.763 -1.4286 -2.0842 -2.9896
 4441SOL    HW224957   4.538   0.479   2.805 -0.1459 -0.6701  1.3994
 4442SOL     OW24958   2.494   2.913   8.925  0.1923  0.6932  0.5714
 4442SOL    HW124959   2.460   2.823   8.924  0.5575  0.5354  1.4732
 4442SOL    HW224960   2.434   2.946   8.858  1.7721 -1.8552 -2.0759
 4443SOL     OW24961   3.513   1.025   7.112  0.2895 -0.1163  0.1247
 4443SOL    HW124962   3.527   1.119   7.121  0.5511 -0.3121  1.7879
 4443SOL    HW224963   3.418   1.019   7.118  0.2699 -0.3199 -0.4218
 4444SOL     OW24964   2.399   3.393   5.598  0.1397 -0.0121 -0.2468
 4444SOL    HW124965   2.336   3.401   5.670  0.5496 -2.4363  0.3928
 4444SOL    HW224966   2.351   3.411   5.517  1.1762 -0.0449 -0.8776
 4445SOL     OW24967   2.849   0.909   2.286  0.0565  0.0261 -0.3286
 4445SOL    HW124968   2.786   0.965   2.242 -1.4297 -0.7896  0.7718
 4445SOL    HW224969   2.823   0.829   2.240 -0.2887 -1.1028  1.8080
 4446SOL     OW24970   3.978   2.077   2.325 -0.2461 -0.3308 -0.0814
 4446SOL    HW124971   4.070   2.102   2.315 -0.2536 -1.5436 -3.2260
 4446SOL    HW224972   3.993   2.006   2.388 -1.1998 -0.1222  0.3752
 4447SOL     OW24973   0.699   1.636  11.109  0.0695 -0.6454 -0.3518
 4447SOL    HW124974   0.609   1.637  11.142  0.5541  1.3833  0.9461
 4447SOL    HW224975   0.746   1.699  11.163  0.7663  0.3430 -2.1302
 4448SOL     OW24976   3.806   4.386   1.893 -0.7626  0.0384 -0.8466
 4448SOL    HW124977   3.731   4.395   1.953  1.3668  0.3534  1.7629
 4448SOL    HW224978   3.881   4.410   1.947 -1.7588 -0.9620  1.0072
 4449SOL     OW24979   3.005   1.200   4.480 -0.7435 -0.7098  0.2942
 4449SOL    HW124980   2.924   1.236   4.444 -1.3198 -0.1644  2.1395
 4449SOL    HW224981   2.965   1.155   4.555  0.8438 -1.0036  0.9682
 4450SOL     OW24982   1.978   0.537   9.604  0.7874  0.3009 -0.3249
 4450SOL    HW124983   1.898   0.587   9.591  1.3033  1.2079 -0.0056
 4450SOL    HW224984   1.947   0.455   9.642  0.3051  1.1946  1.2227
 4451SOL     OW24985   4.308   1.401   7.840  0.1208  0.0313 -0.2703
 4451SOL    HW124986   4.268   1.363   7.918 -0.6654  1.0742 -0.1610
 4451SOL    HW224987   4.260   1.350   7.774  0.9443  3.0393 -3.2248
 4452SOL     OW24988   1.787   0.028   0.283 -0.4267  0.2163 -0.3644
 4452SOL    HW124989   1.849   4.732   0.216  0.8490  2.0357  0.0033
 4452SOL    HW224990   1.797   0.122   0.269  3.2365  0.1707  1.6574
 4453SOL     OW24991   1.806   2.099   1.404 -0.0003 -0.5465  0.2012
 4453SOL    HW124992   1.827   2.166   1.340  1.4067  1.1204  2.4044
 4453SOL    HW224993   1.825   2.013   1.367  0.0017 -0.5059  0.1084
 4454SOL     OW24994   0.077   4.713  15.296 -0.3203  0.6739 -0.2347
 4454SOL    HW124995   0.104   0.008  15.383 -0.4236  0.5986 -0.1775
 4454SOL    HW224996   4.717   4.730  15.294 -0.2779  1.0082  0.5524
 4455SOL     OW24997   4.372   2.133   8.674  0.0824  0.3204 -0.0311
 4455SOL    HW124998   4.382   2.040   8.691  1.8067  0.4748 -0.1954
 4455SOL    HW224999   4.376   2.177   8.760 -1.6930 -0.4059  0.4234
 4456SOL     OW25000   3.935   3.889   8.960  0.2193 -0.4778  0.3581
 4456SOL    HW125001   3.974   3.945   9.027  1.2027  0.0692 -0.6795
 4456SOL    HW225002   3.989   3.811   8.957  0.0834 -0.5692  0.2716
 4457SOL     OW25003   3.916   0.902   6.576 -0.4620 -0.1667 -0.4198
 4457SOL    HW125004   3.843   0.947   6.617 -1.1383 -2.0235  0.3952
 4457SOL    HW225005   3.874   0.892   6.491 -2.2081 -0.2504  0.4595
 4458SOL     OW25006   1.295   3.151   4.298 -0.3583 -0.1952  0.0143
 4458SOL    HW125007   1.353   3.092   4.250 -1.4779 -0.4512 -1.0352
 4458SOL    HW225008   1.363   3.184   4.357  0.2451  0.8748 -1.2765
 4459SOL     OW25009   3.108   0.912   6.612  0.4566 -0.7695  0.1189
 4459SOL    HW125010   3.100   0.974   6.685 -0.7652 -0.3669 -0.3593
 4459SOL    HW225011   3.201   0.895   6.596  0.3062  0.2445 -1.8734
 4460SOL     OW25012   1.689   0.984   4.525  0.0581  0.5812 -0.6129
 4460SOL    HW125013   1.636   1.059   4.499 -0.2330 -0.8496 -4.1390
 4460SOL    HW225014   1.679   0.934   4.445  0.1017 -0.9438  0.3391
 4461SOL     OW25015   1.734   2.538   6.453 -0.1375  0.5418  0.0843
 4461SOL    HW125016   1.812   2.553   6.399 -0.0836 -2.0147 -0.5249
 4461SOL    HW225017   1.685   2.477   6.398 -1.9517  1.0309  1.1411
 4462SOL     OW25018   3.685   3.147  15.438 -0.3609  0.1947  0.5872
 4462SOL    HW125019   3.633   3.071  15.412  1.3417 -1.1415  1.1416
 4462SOL    HW225020   3.649   3.167  15.525  0.2841  1.4367  0.5738
 4463SOL     OW25021   0.296   2.345   8.394  0.1496  0.1763  0.7941
 4463SOL    HW125022   0.214   2.392   8.379 -0.1350 -0.3786  0.6176
 4463SOL    HW225023   0.362   2.409   8.369  3.0549 -2.3929  1.8558
 4464SOL     OW25024   1.795   3.734   8.312 -0.4025 -0.2488 -0.6059
 4464SOL    HW125025   1.721   3.773   8.264 -1.2317  0.3686  1.1620
 4464SOL    HW225026   1.854   3.808   8.324 -0.1127 -0.7353  1.0008
 4465SOL     OW25027   2.808   3.757  14.759 -0.1845 -0.6033 -0.0478
 4465SOL    HW125028   2.857   3.835  14.788  0.1980 -0.3485 -1.3941
 4465SOL    HW225029   2.879   3.699  14.729 -0.3353 -1.6902  1.7071
 4466SOL     OW25030   2.460   2.455   1.172  0.0404 -0.5060 -0.1641
 4466SOL    HW125031   2.551   2.466   1.199 -0.7594 -1.7815  3.0715
 4466SOL    HW225032   2.411   2.502   1.239  2.3692  1.6564 -0.0040
 4467SOL     OW25033   0.456   1.420  12.885  0.6233  1.0838 -0.7253
 4467SOL    HW125034   0.534   1.397  12.834  1.0108  0.1789  0.2866
 4467SOL    HW225035   0.491   1.476  12.953 -1.0118 -0.8976  1.7407
 4468SOL     OW25036   1.848   1.707  14.145  0.1658  0.3074 -0.5864
 4468SOL    HW125037   1.922   1.750  14.104  2.5048 -0.8055  2.4405
 4468SOL    HW225038   1.795   1.685  14.068 -2.9834 -0.6278  1.8059
 4469SOL     OW25039   4.328   0.625  11.350 -0.0079 -0.5069  0.2608
 4469SOL    HW125040   4.382   0.567  11.403  1.3364  2.5777  2.2903
 4469SOL    HW225041   4.390   0.684  11.306 -1.7412  0.2406 -1.1869
 4470SOL     OW25042   3.298   1.226   4.897 -0.0261 -0.0678 -0.4591
 4470SOL    HW125043   3.214   1.257   4.863 -0.1519 -1.6844 -1.6076
 4470SOL    HW225044   3.319   1.163   4.828 -1.3017  0.7569 -1.5990
 4471SOL     OW25045   4.446   2.643  16.479  0.2242 -0.2338  0.5562
 4471SOL    HW125046   4.487   2.701  16.544  1.1785 -1.2611  0.8780
 4471SOL    HW225047   4.448   2.573  16.544 -0.4932 -0.3188  0.4835
 4472SOL     OW25048   2.346   4.047   3.530  0.2771 -0.0695 -0.7505
 4472SOL    HW125049   2.279   4.090   3.582 -0.0885  0.5569 -1.7482
 4472SOL    HW225050   2.300   3.966   3.507  0.4895 -0.7366  1.1652
 4473SOL     OW25051   3.287   2.295   8.537  0.9071 -0.0089 -0.5110
 4473SOL    HW125052   3.228   2.371   8.534  0.8231 -0.0691 -0.3723
 4473SOL    HW225053   3.374   2.333   8.546  0.6074  0.5095  0.3208
 4474SOL     OW25054   0.663   3.519   6.471 -0.5592 -0.2315 -0.3782
 4474SOL    HW125055   0.586   3.566   6.502 -1.8837 -0.9322 -2.5848
 4474SOL    HW225056   0.649   3.542   6.379  1.5348 -2.0249 -1.1588
 4475SOL     OW25057   1.561   3.340  11.972  0.1954  0.4088 -0.1241
 4475SOL    HW125058   1.601   3.274  11.914  1.4580 -1.4997  2.9214
 4475SOL    HW225059   1.551   3.293  12.054  1.5544  0.5747  0.1401
 4476SOL     OW25060   2.798   3.935  14.070 -0.3895  0.5831 -0.4280
 4476SOL    HW125061   2.732   3.999  14.096 -1.4291 -1.5075  2.2193
 4476SOL    HW225062   2.789   3.876  14.145 -1.4511  1.6230  0.2605
 4477SOL     OW25063   1.913   0.555   5.153  0.2783 -0.2102  0.1391
 4477SOL    HW125064   2.005   0.529   5.163  0.3049 -1.2451 -2.8093
 4477SOL    HW225065   1.920   0.630   5.095  0.6992  0.9529  1.6803
 4478SOL     OW25066   3.334   2.283  13.705 -0.2758  0.3894 -0.0168
 4478SOL    HW125067   3.285   2.203  13.721  1.7288 -0.3697  2.3225
 4478SOL    HW225068   3.271   2.337  13.657  0.0988 -0.4403 -1.4460
 4479SOL     OW25069   4.502   4.506   9.882 -0.2063  0.1049 -0.1116
 4479SOL    HW125070   4.432   4.568   9.865 -0.1428  0.7035  1.8506
 4479SOL    HW225071   4.507   4.506   9.977 -0.1679  0.3886 -0.1139
 4480SOL     OW25072   0.161   1.930   4.327 -0.9403  0.2972 -0.7320
 4480SOL    HW125073   0.164   1.935   4.423 -3.0780  4.4024 -0.9235
 4480SOL    HW225074   0.154   2.022   4.305  1.6026  0.5884 -0.3150
 4481SOL     OW25075   3.103   1.147   8.477  0.6272 -0.0656  0.4849
 4481SOL    HW125076   3.101   1.169   8.384  1.8603 -0.3719  0.3906
 4481SOL    HW225077   3.094   1.052   8.470  2.0458 -0.1548  0.0452
 4482SOL     OW25078   1.034   4.466   5.099  0.1702  0.1185 -0.2039
 4482SOL    HW125079   0.972   4.505   5.160  0.7774 -1.4483  1.4330
 4482SOL    HW225080   1.092   4.405   5.144 -0.5856 -0.1947  0.3517
 4483SOL     OW25081   4.102   1.152  15.869  0.1893  0.0606  0.1426
 4483SOL    HW125082   4.081   1.059  15.864 -0.2494  0.1765 -0.2581
 4483SOL    HW225083   4.034   1.185  15.929  0.6064  0.4923  0.3741
 4484SOL     OW25084   3.117   4.224   2.022  0.2702  0.7818 -0.1988
 4484SOL    HW125085   3.077   4.138   2.037  1.4182  0.4099  0.7028
 4484SOL    HW225086   3.148   4.223   1.931  1.7940  0.4023  0.3249
 4485SOL     OW25087   3.713   2.341   1.664  0.3044  0.4432  0.7072
 4485SOL    HW125088   3.724   2.295   1.747  2.1615 -1.4447 -0.5792
 4485SOL    HW225089   3.773   2.287   1.612 -1.1525  0.8981 -1.4499
 4486SOL     OW25090   2.159   4.699   4.252  0.3490 -0.3006 -0.2791
 4486SOL    HW125091   2.191   4.703   4.342  1.4437  0.7494 -0.7150
 4486SOL    HW225092   2.236   0.002   4.210  0.0522  0.1266 -0.4441
 4487SOL     OW25093   4.700   2.703  14.735  0.3505 -0.7613  0.4575
 4487SOL    HW125094   0.007   2.660  14.660  0.4247  0.7628 -0.3906
 4487SOL    HW225095   4.608   2.695  14.710  0.2154 -0.0098  0.7265
 4488SOL     OW25096   3.943   2.812   3.552 -0.4383  0.2578 -0.1169
 4488SOL    HW125097   3.951   2.749   3.480  1.3109 -0.6706  0.9023
 4488SOL    HW225098   4.006   2.883   3.539 -0.9876  0.8284  0.3476
 4489SOL     OW25099   1.205   4.360   8.505  0.5119  0.2550 -0.3884
 4489SOL    HW125100   1.253   4.332   8.583  0.8775  2.6374  0.2357
 4489SOL    HW225101   1.147   4.284   8.500  2.7370 -1.3974 -1.4174
 4490SOL     OW25102   3.221   1.103   1.721 -0.1191  0.2609 -0.2004
 4490SOL    HW125103   3.157   1.116   1.651  0.0501  0.1271 -0.3793
 4490SOL    HW225104   3.297   1.081   1.667  0.3960  1.2064  0.1501
 4491SOL     OW25105   1.399   3.091  11.068 -0.6697 -1.0151 -0.1852
 4491SOL    HW125106   1.494   3.090  11.064 -0.6597  2.1554 -0.9939
 4491SOL    HW225107   1.381   3.097  11.162  0.4332  1.3504 -0.1296
 4492SOL     OW25108   1.532   3.119  13.400  0.3843  0.0905  0.0126
 4492SOL    HW125109   1.455   3.124  13.457 -1.1925 -1.8012 -1.9522
 4492SOL    HW225110   1.588   3.168  13.461  1.2731 -0.8883 -0.0129
 4493SOL     OW25111   4.493   4.110   0.343 -0.2108  0.5133 -0.6392
 4493SOL    HW125112   4.566   4.087   0.286 -0.0356 -1.5877  0.4301
 4493SOL    HW225113   4.534   4.096   0.428 -3.1644 -1.3683  0.4843
 4494SOL     OW25114   4.094   1.267  12.348 -0.3882 -0.2217 -0.1033
 4494SOL    HW125115   4.083   1.254  12.442 -0.3232  0.1112 -0.0486
 4494SOL    HW225116   4.004   1.281  12.319 -0.0591  1.4112 -0.3467
 4495SOL     OW25117   4.625   3.735   0.829 -0.1888 -0.1278 -0.4246
 4495SOL    HW125118   4.614   3.730   0.924 -1.8120 -3.1875 -0.8005
 4495SOL    HW225119   4.621   3.640   0.819  1.3817 -0.4784  2.2521
 4496SOL     OW25120   1.638   3.828  12.207  0.4039 -0.0867  0.0876
 4496SOL    HW125121   1.727   3.859  12.223  0.7998 -0.9500 -0.4346
 4496SOL    HW225122   1.586   3.907  12.198  0.5716  0.0276  0.1331
 4497SOL     OW25123   1.512   1.447   7.966 -0.2087 -0.1126 -0.1347
 4497SOL    HW125124   1.417   1.450   7.980 -0.2733  1.7246 -0.9880
 4497SOL    HW225125   1.527   1.352   7.968  3.3748  0.4799  0.8630
 4498SOL     OW25126   3.313   0.483  11.981 -0.2161  0.1245 -0.0235
 4498SOL    HW125127   3.385   0.459  12.039 -0.3302  0.1652  0.1338
 4498SOL    HW225128   3.245   0.494  12.047  1.5348  1.1750  1.5953
 4499SOL     OW25129   3.507   1.050  10.531  0.2542  0.1677 -0.1429
 4499SOL    HW125130   3.474   1.093  10.610 -1.0709 -1.7194  0.3137
 4499SOL    HW225131   3.538   1.120  10.473  1.3547  0.7294  1.1189
 4500SOL     OW25132   4.542   3.919  10.316  0.2656 -0.0921  0.3279
 4500SOL    HW125133   4.590   3.961  10.388 -1.4485  1.1640  0.7396
 4500SOL    HW225134   4.476   3.987  10.305  0.8632  0.3853 -0.2458
 4501SOL     OW25135   0.411   3.412   3.953  0.1146 -0.1449  0.4479
 4501SOL    HW125136   0.471   3.429   3.880 -1.0986 -0.4391 -0.6090
 4501SOL    HW225137   0.333   3.387   3.904 -0.0325  0.1516  0.5260
 4502SOL     OW25138   4.377   0.393   6.618  0.3996  0.0011  0.0691
 4502SOL    HW125139   4.370   0.401   6.713 -1.2168  1.2688 -0.1593
 4502SOL    HW225140   4.297   0.439   6.592  0.0111  0.7219  2.5134
 4503SOL     OW25141   0.265   4.247   8.475 -0.2973  0.1843  0.4011
 4503SOL    HW125142   0.357   4.238   8.501  0.2385  0.8064 -1.3011
 4503SOL    HW225143   0.251   4.156   8.450  1.6201 -0.5626  2.0474
 4504SOL     OW25144   3.575   1.930  15.862 -0.1609 -0.7807 -0.6672
 4504SOL    HW125145   3.651   1.902  15.912 -0.0449  2.4103  0.9276
 4504SOL    HW225146   3.577   2.026  15.859  1.0992 -0.8419 -1.7620
 4505SOL     OW25147   3.280   4.521  12.525  0.5318  0.1539 -0.3280
 4505SOL    HW125148   3.226   4.544  12.450  1.6080  3.2818 -0.1196
 4505SOL    HW225149   3.312   4.431  12.513 -0.7705 -0.5960  1.8230
 4506SOL     OW25150   4.332   0.410   1.165  0.5185 -0.3415 -0.1774
 4506SOL    HW125151   4.265   0.370   1.220  1.7178 -2.0599  0.0204
 4506SOL    HW225152   4.362   0.331   1.121  1.3766 -1.2605  2.0378
 4507SOL     OW25153   3.591   1.269  10.346 -0.3775 -0.4646 -0.3586
 4507SOL    HW125154   3.666   1.227  10.302 -0.6123 -0.5654 -0.6649
 4507SOL    HW225155   3.630   1.357  10.349 -0.9891 -0.1695 -1.1883
 4508SOL     OW25156   0.896   3.581   0.527  0.1412  0.5182  0.4608
 4508SOL    HW125157   0.865   3.540   0.445 -2.8381  1.0090  1.3312
 4508SOL    HW225158   0.877   3.507   0.585 -1.8413  0.8116  0.2036
 4509SOL     OW25159   4.625   2.413   2.181 -0.3753 -0.8752 -0.4744
 4509SOL    HW125160   4.553   2.410   2.244  1.5999 -0.0629  1.8246
 4509SOL    HW225161   4.632   2.323   2.148  1.3770  0.3595 -3.5474
 4510SOL     OW25162   0.714   2.161   2.434  0.0402 -0.5253 -0.0741
 4510SOL    HW125163   0.662   2.235   2.403 -0.1951 -0.8743 -0.5046
 4510SOL    HW225164   0.724   2.191   2.524 -1.8842  0.2580 -0.1361
 4511SOL     OW25165   0.690   2.327   1.852  0.2575 -0.3023  0.8158
 4511SOL    HW125166   0.672   2.367   1.767  1.1611 -1.7872 -0.0849
 4511SOL    HW225167   0.623   2.258   1.856 -1.1827  0.8868 -2.7410
 4512SOL     OW25168   3.171   3.698   4.011  0.1884 -0.5182 -0.1825
 4512SOL    HW125169   3.116   3.623   4.032 -0.6862 -0.2412 -1.5071
 4512SOL    HW225170   3.229   3.669   3.941 -0.0398 -0.2296 -0.4902
 4513SOL     OW25171   3.289   2.215   9.011  0.3833 -0.0228 -0.6523
 4513SOL    HW125172   3.309   2.302   8.979  0.0392  1.1909  2.4561
 4513SOL    HW225173   3.257   2.180   8.927  0.2379  0.4357 -0.7853
 4514SOL     OW25174   2.256   0.573   5.469 -0.6156 -0.1127  0.4683
 4514SOL    HW125175   2.234   0.621   5.549  2.3522 -0.0879  1.2818
 4514SOL    HW225176   2.331   0.522   5.498  0.5845  1.0180 -0.6767
 4515SOL     OW25177   2.385   2.570   4.304  0.0577  0.0009  0.7221
 4515SOL    HW125178   2.379   2.476   4.318 -1.3716 -0.1641 -1.1323
 4515SOL    HW225179   2.406   2.578   4.211 -0.6709 -2.2624  0.3692
 4516SOL     OW25180   2.255   0.829   5.856  0.0734  0.4263  0.4100
 4516SOL    HW125181   2.222   0.797   5.773 -0.5608  2.5210 -0.1373
 4516SOL    HW225182   2.300   0.751   5.888 -1.8411 -1.0218 -0.4916
 4517SOL     OW25183   0.347   3.301   1.695 -0.2179 -0.1365 -0.4499
 4517SOL    HW125184   0.387   3.254   1.768  0.4746 -0.6676 -1.1735
 4517SOL    HW225185   0.351   3.392   1.724  1.8931  0.1685 -1.6850
 4518SOL     OW25186   0.947   2.367   5.028 -0.4475 -0.4712 -0.1741
 4518SOL    HW125187   1.019   2.427   5.046 -0.2209 -0.5919 -0.6906
 4518SOL    HW225188   0.973   2.301   4.963 -1.1797 -0.3625 -0.5777
 4519SOL     OW25189   0.763   0.026   4.628 -0.5632 -0.2548 -0.6134
 4519SOL    HW125190   0.854   0.047   4.612 -0.9828  1.6894 -0.3842
 4519SOL    HW225191   0.765   0.020   4.723 -0.9328 -1.0884 -0.6567
 4520SOL     OW25192   0.777   2.327  15.238  0.3597  0.5115 -0.2014
 4520SOL    HW125193   0.801   2.400  15.294  1.6372  1.1430 -1.5735
 4520SOL    HW225194   0.835   2.340  15.163 -2.4752  0.2488 -2.4420
 4521SOL     OW25195   1.774   3.043   9.240  0.3837 -0.2552  0.6310
 4521SOL    HW125196   1.765   3.067   9.332  0.2014 -1.9963  1.0625
 4521SOL    HW225197   1.797   3.131   9.207  0.1693  0.1198  1.4957
 4522SOL     OW25198   4.074   2.542  17.224  0.5330 -0.1794 -0.4428
 4522SOL    HW125199   4.080   2.633  17.194 -1.7847 -0.2589 -1.1305
 4522SOL    HW225200   3.984   2.551  17.257  0.6584  2.3615 -0.7641
 4523SOL     OW25201   2.252   3.745   1.815  0.0070  0.1674 -0.1492
 4523SOL    HW125202   2.157   3.738   1.819  0.0950 -0.5763  0.6499
 4523SOL    HW225203   2.257   3.840   1.807 -3.2334  0.2766 -1.0400
 4524SOL     OW25204   3.253   0.713   9.242  0.3968 -0.1177 -0.2659
 4524SOL    HW125205   3.209   0.728   9.326 -0.1190 -2.5118 -0.0908
 4524SOL    HW225206   3.308   0.637   9.263 -0.0952 -1.1065 -2.5141
 4525SOL     OW25207   0.465   0.840   2.666  0.3245 -0.6227 -0.0370
 4525SOL    HW125208   0.455   0.915   2.607 -0.8409 -0.7222  0.0225
 4525SOL    HW225209   0.509   0.768   2.621  2.1672  1.5531 -1.6823
 4526SOL     OW25210   0.119   2.665   4.640 -0.1452  0.0094  0.3364
 4526SOL    HW125211   0.101   2.682   4.732  1.7266 -0.2556  0.7487
 4526SOL    HW225212   0.076   2.736   4.592 -2.8157 -0.7563  1.6284
 4527SOL     OW25213   1.199   0.296   3.859  0.1463  0.0326 -0.0460
 4527SOL    HW125214   1.154   0.375   3.828 -1.4410 -0.4754  1.0145
 4527SOL    HW225215   1.206   0.229   3.792 -3.3618 -0.1851 -0.1895
 4528SOL     OW25216   2.135   1.486  12.918  1.5962  0.1674  0.3895
 4528SOL    HW125217   2.225   1.480  12.949  0.8717 -0.3026  2.4025
 4528SOL    HW225218   2.133   1.450  12.829 -1.8601 -0.5252  0.7399
 4529SOL     OW25219   4.494   1.842  11.966  0.2263  0.2338  0.1154
 4529SOL    HW125220   4.499   1.835  11.871 -0.5476  0.8824  0.0166
 4529SOL    HW225221   4.530   1.930  11.978  0.3967  0.1986 -0.1621
 4530SOL     OW25222   1.983   1.026   2.469  0.1896  0.2160 -0.0131
 4530SOL    HW125223   1.930   0.958   2.426 -0.5234 -0.2893  1.6533
 4530SOL    HW225224   2.020   0.972   2.539 -0.9772 -0.7248 -0.1122
 4531SOL     OW25225   1.455   2.170   9.092 -0.6821  0.0836 -0.1370
 4531SOL    HW125226   1.449   2.266   9.088 -0.8785  0.0095 -1.7437
 4531SOL    HW225227   1.361   2.152   9.097 -1.1200  2.4994  0.2997
 4532SOL     OW25228   3.456   0.141  12.848  0.5746 -0.1508  0.6214
 4532SOL    HW125229   3.494   0.188  12.774 -0.4622 -1.5828 -0.8410
 4532SOL    HW225230   3.399   0.083  12.797  0.2009  0.5627  0.2258
 4533SOL     OW25231   0.164   2.043  10.130  0.3915  0.1480 -0.1076
 4533SOL    HW125232   0.087   2.086  10.167  1.6734  0.3529  2.3153
 4533SOL    HW225233   0.146   1.952  10.155  3.1727 -0.5305 -0.5882
 4534SOL     OW25234   1.585   0.204   4.273  0.5725  0.2310  0.0244
 4534SOL    HW125235   1.496   0.209   4.237 -0.0021 -0.5946  1.3497
 4534SOL    HW225236   1.562   0.140   4.340 -2.2363  1.6528  0.4326
 4535SOL     OW25237   0.031   2.523   7.279  0.4084  0.0869  0.0854
 4535SOL    HW125238   0.090   2.486   7.213  0.1861  0.9509 -0.6006
 4535SOL    HW225239   0.085   2.498   7.354  0.2431 -0.4396  0.0285
 4536SOL     OW25240   3.937   1.880   5.993  0.0996  0.2814 -0.3565
 4536SOL    HW125241   3.936   1.787   5.968 -0.0450  0.0682  0.4452
 4536SOL    HW225242   4.027   1.887   6.025 -0.8268 -0.5012  2.4508
 4537SOL     OW25243   0.730   3.741  13.954 -0.1463 -0.1310  0.5799
 4537SOL    HW125244   0.682   3.718  14.034  0.5549 -0.9272  0.7720
 4537SOL    HW225245   0.767   3.824  13.984  1.1049  0.3540 -2.2818
 4538SOL     OW25246   1.463   4.288   6.259 -0.4407  0.1427  0.1095
 4538SOL    HW125247   1.394   4.255   6.316  1.4065  0.0588  2.3183
 4538SOL    HW225248   1.547   4.263   6.298 -1.0045 -1.7023  0.1339
 4539SOL     OW25249   2.163   3.182   4.574  0.1924  0.2632 -0.2814
 4539SOL    HW125250   2.253   3.150   4.566 -0.3119 -0.8104 -1.4805
 4539SOL    HW225251   2.104   3.111   4.600 -0.0772  0.3166 -0.7500
 4540SOL     OW25252   3.121   0.658   7.784  0.2741  0.4409  0.7772
 4540SOL    HW125253   3.205   0.689   7.749  0.4012  0.6334  1.2475
 4540SOL    HW225254   3.091   0.608   7.708  1.9146  1.0963 -0.3037
 4541SOL     OW25255   3.584   2.526   6.014 -0.2697  0.5024 -0.0270
 4541SOL    HW125256   3.497   2.566   6.007 -0.7153 -0.4216  0.2813
 4541SOL    HW225257   3.645   2.595   5.988 -0.1504  0.5841  0.4633
 4542SOL     OW25258   1.429   0.800   2.345 -0.4146 -0.2469  0.0391
 4542SOL    HW125259   1.492   0.870   2.330  0.2990 -0.5483  1.5966
 4542SOL    HW225260   1.383   0.842   2.418  1.9151  2.2870  0.0393
 4543SOL     OW25261   0.535   1.538   5.867 -0.5192 -0.0767 -0.0557
 4543SOL    HW125262   0.499   1.497   5.946 -0.7566 -1.1554 -0.7307
 4543SOL    HW225263   0.458   1.558   5.814 -0.7701  0.6022  0.5561
 4544SOL     OW25264   0.237   0.310   8.368  0.6583  0.8563 -0.1938
 4544SOL    HW125265   0.190   0.280   8.446  1.6804 -0.8021 -0.2182
 4544SOL    HW225266   0.273   0.226   8.341  0.9789  1.4479 -1.6087
 4545SOL     OW25267   3.124   0.364   4.944  0.6528  0.2946 -0.3271
 4545SOL    HW125268   3.118   0.281   4.897  0.1657 -0.1397  0.5134
 4545SOL    HW225269   3.037   0.383   4.978  0.5680  0.2846 -0.5410
 4546SOL     OW25270   2.481   2.721  12.887  0.1068 -0.0016 -0.4536
 4546SOL    HW125271   2.454   2.687  12.972  1.7773 -1.3494 -0.4736
 4546SOL    HW225272   2.406   2.710  12.828 -0.3118  0.3229  0.0179
 4547SOL     OW25273   1.184   0.080  11.507 -0.0023  0.5394 -0.3052
 4547SOL    HW125274   1.200   0.148  11.442 -0.9720  1.8524  0.8159
 4547SOL    HW225275   1.277   0.082  11.528  0.5190 -1.1760 -2.5106
 4548SOL     OW25276   1.431   1.086   9.332  0.0721  0.1665 -0.7655
 4548SOL    HW125277   1.475   1.167   9.305 -0.5332  0.9568  0.6239
 4548SOL    HW225278   1.339   1.111   9.319 -0.1982 -0.6578 -0.4165
 4549SOL     OW25279   4.188   0.939   3.823  0.2747  0.6300  0.3491
 4549SOL    HW125280   4.193   1.008   3.757  0.3455 -0.3336 -0.6553
 4549SOL    HW225281   4.196   0.994   3.901  0.4336  1.0313  0.0498
 4550SOL     OW25282   3.101   4.715  17.667  0.3503  0.1940 -0.4899
 4550SOL    HW125283   3.137   0.070  17.672  1.0900 -0.2307  1.4495
 4550SOL    HW225284   3.011   0.005  17.686 -0.2217 -1.4593 -1.1293
 4551SOL     OW25285   0.037   0.469   2.413 -0.4799 -0.1292  0.3999
 4551SOL    HW125286   0.082   0.419   2.481  1.0181 -0.7145 -1.0290
 4551SOL    HW225287   0.091   0.547   2.405 -1.6709  0.6248 -0.3165
 4552SOL     OW25288   4.256   4.449  10.602 -0.9531 -0.2484  0.3616
 4552SOL    HW125289   4.238   4.389  10.674 -4.2914 -0.3211 -0.5551
 4552SOL    HW225290   4.239   4.532  10.648 -2.8175 -0.6200  0.3534
 4553SOL     OW25291   4.190   0.607  12.486 -0.0804  0.0464  0.5256
 4553SOL    HW125292   4.234   0.636  12.406  0.0818 -1.7034 -0.0152
 4553SOL    HW225293   4.227   0.666  12.552  0.5913 -0.2206  0.3851
 4554SOL     OW25294   0.234   3.927  11.022  0.1020  0.1624 -0.0043
 4554SOL    HW125295   0.206   3.858  10.963 -2.5800  0.7296  0.5675
 4554SOL    HW225296   0.194   3.900  11.105  1.5054  0.1654  0.6792
 4555SOL     OW25297   1.356   3.014  13.782 -0.5609  0.0554  0.2329
 4555SOL    HW125298   1.324   2.940  13.834  0.7522 -0.3507  0.4728
 4555SOL    HW225299   1.448   2.994  13.766 -1.4333 -5.7576  2.3022
 4556SOL     OW25300   2.783   1.543   7.909 -0.0324  0.2315  0.1968
 4556SOL    HW125301   2.705   1.580   7.867  0.8505  1.1127 -0.6600
 4556SOL    HW225302   2.829   1.625   7.926  1.7882 -0.3452 -2.1235
 4557SOL     OW25303   4.143   4.249   6.643  0.6431 -0.8347 -0.5215
 4557SOL    HW125304   4.193   4.314   6.693  0.0968 -1.1706  0.4701
 4557SOL    HW225305   4.081   4.222   6.711 -0.3374  3.0655  0.1172
 4558SOL     OW25306   1.978   4.392   4.389  0.4585 -0.5147 -0.3068
 4558SOL    HW125307   2.027   4.313   4.367  0.2717 -0.7061 -0.0367
 4558SOL    HW225308   1.893   4.371   4.352  0.1722 -1.0316  0.6507
 4559SOL     OW25309   1.094   2.357   7.772  0.0244 -0.2088  0.0638
 4559SOL    HW125310   1.065   2.302   7.699  1.6913  1.9804 -2.2537
 4559SOL    HW225311   1.105   2.296   7.845 -1.6894  0.6251  1.0155
 4560SOL     OW25312   3.518   1.870  12.990 -0.6402  0.0987  0.2988
 4560SOL    HW125313   3.455   1.930  13.030 -0.0845 -0.0744  1.4204
 4560SOL    HW225314   3.518   1.901  12.899 -0.0688 -1.5829 -0.2891
 4561SOL     OW25315   1.132   2.765   9.235 -0.4585 -0.5593  0.4514
 4561SOL    HW125316   1.102   2.698   9.174  0.1534 -0.0193 -0.4337
 4561SOL    HW225317   1.058   2.825   9.219  0.4399  0.4620  0.1426
 4562SOL     OW25318   4.256   2.124   2.213  0.3103  0.1792  0.6498
 4562SOL    HW125319   4.308   2.143   2.134  1.5162  0.3328  1.4797
 4562SOL    HW225320   4.314   2.059   2.253 -1.2840 -1.7836 -0.2145
 4563SOL     OW25321   3.714   2.548   3.510  0.6685  0.0864  0.2969
 4563SOL    HW125322   3.752   2.466   3.478 -2.3630 -0.6902 -1.2627
 4563SOL    HW225323   3.706   2.542   3.605 -1.1546 -0.9281  0.0797
 4564SOL     OW25324   1.918   0.401  11.423 -0.4834  0.0854 -0.1483
 4564SOL    HW125325   1.954   0.325  11.378 -2.5579 -0.5339 -0.7656
 4564SOL    HW225326   1.999   0.452  11.431 -1.6877  1.7436  1.5310
 4565SOL     OW25327   0.122   4.456  14.209  0.4637  0.1342 -0.8186
 4565SOL    HW125328   0.087   4.369  14.228  1.3933 -0.0139  0.1899
 4565SOL    HW225329   0.053   4.515  14.240 -0.5920 -0.9798 -1.0657
 4566SOL     OW25330   3.219   3.327   8.673  0.0025  0.5401 -0.3154
 4566SOL    HW125331   3.254   3.367   8.593 -1.5812  2.5265 -0.0261
 4566SOL    HW225332   3.161   3.398   8.701 -0.0875  1.1493 -2.0228
 4567SOL     OW25333   1.894   1.180   2.913  0.4265 -0.5353 -0.3214
 4567SOL    HW125334   1.898   1.273   2.892  0.0528 -0.8915 -1.9721
 4567SOL    HW225335   1.829   1.195   2.981  1.3185 -2.4923  1.0049
 4568SOL     OW25336   1.738   0.285  10.503 -0.1078  0.1570 -0.4444
 4568SOL    HW125337   1.662   0.341  10.487  1.0856  1.7251 -0.6155
 4568SOL    HW225338   1.794   0.327  10.437  0.0899 -0.4879 -0.6891
 4569SOL     OW25339   2.543   2.595  16.303  0.0965 -0.1003 -0.3534
 4569SOL    HW125340   2.585   2.624  16.384  0.5419  2.6957 -1.5853
 4569SOL    HW225341   2.465   2.544  16.326 -0.1423  0.0153 -0.8988
 4570SOL     OW25342   4.662   3.621   8.208 -0.2777  0.2170 -0.5852
 4570SOL    HW125343   4.618   3.567   8.273  0.7282  1.0583  0.7896
 4570SOL    HW225344   0.005   3.652   8.255  1.1465  0.2924 -2.9338
 4571SOL     OW25345   2.321   3.670   5.199 -0.2482 -0.0842 -0.1981
 4571SOL    HW125346   2.325   3.694   5.292 -0.7930  2.5353 -0.8508
 4571SOL    HW225347   2.251   3.732   5.179 -1.0292 -1.9697 -3.2243
 4572SOL     OW25348   0.273   1.505   7.568 -0.2918  0.2691 -0.2607
 4572SOL    HW125349   0.278   1.481   7.476  3.7508  1.3232 -0.2965
 4572SOL    HW225350   0.261   1.416   7.600  0.1537  0.5817  0.7942
 4573SOL     OW25351   2.310   1.490   5.358 -0.1829  0.0726  0.3745
 4573SOL    HW125352   2.384   1.463   5.413  1.3028  1.2947 -1.0278
 4573SOL    HW225353   2.260   1.411   5.341  0.9370 -0.3118 -1.2014
 4574SOL     OW25354   3.728   1.248   4.624  0.0199 -0.3233  0.6271
 4574SOL    HW125355   3.653   1.296   4.657 -0.7429  0.5385 -2.3473
 4574SOL    HW225356   3.694   1.167   4.588 -0.2765  1.2002 -2.5190
 4575SOL     OW25357   2.416   2.363   7.546 -0.4117  0.0536  0.5131
 4575SOL    HW125358   2.347   2.429   7.539 -2.4567 -2.2484 -1.2466
 4575SOL    HW225359   2.421   2.339   7.638 -2.7439  1.1752  0.9324
 4576SOL     OW25360   0.015   2.168   6.092 -0.3141  0.1323  0.2694
 4576SOL    HW125361   4.659   2.140   6.075  0.7232 -1.5318 -2.5598
 4576SOL    HW225362   0.017   2.221   6.172  1.4549  0.9205 -0.2932
 4577SOL     OW25363   4.732   1.108  16.859  0.2712  1.1452 -0.2578
 4577SOL    HW125364   0.053   1.075  16.788 -0.0597 -0.2840  0.1612
 4577SOL    HW225365   0.052   1.183  16.886  1.6557 -0.1834  0.6655
 4578SOL     OW25366   1.653   1.860   6.878 -0.1046 -0.2030  0.3255
 4578SOL    HW125367   1.575   1.869   6.933  0.6406 -0.6068  1.4591
 4578SOL    HW225368   1.625   1.870   6.787 -2.6484  0.0699  1.1458
 4579SOL     OW25369   4.536   2.832   4.834 -0.6275 -0.4236  0.3662
 4579SOL    HW125370   4.547   2.927   4.839 -0.2036 -0.6178  2.7857
 4579SOL    HW225371   4.619   2.803   4.870 -0.1693  2.2821  1.4987
 4580SOL     OW25372   4.256   2.247   5.573 -0.4125  0.2059 -0.9298
 4580SOL    HW125373   4.247   2.271   5.481  1.0385  0.3431 -1.0451
 4580SOL    HW225374   4.322   2.178   5.563  0.4780  1.1835 -1.8287
 4581SOL     OW25375   2.300   2.254   1.573 -0.4758 -1.0216  0.1007
 4581SOL    HW125376   2.259   2.224   1.654 -0.8546 -0.0235  0.2892
 4581SOL    HW225377   2.359   2.180   1.564  0.8011  0.1905 -1.4198
 4582SOL     OW25378   3.409   3.523   1.601  0.5185 -0.7753  0.1149
 4582SOL    HW125379   3.379   3.434   1.616 -0.2120 -0.4712  0.4900
 4582SOL    HW225380   3.326   3.571   1.603 -0.2691 -2.1602  0.3532
 4583SOL     OW25381   3.606   4.612  10.601  0.4526  0.6407 -0.4407
 4583SOL    HW125382   3.562   4.669  10.665  1.3532 -0.6949  1.3764
 4583SOL    HW225383   3.579   4.532  10.646 -0.0441  0.8558 -0.3527
 4584SOL     OW25384   2.716   2.520  10.031 -0.1182 -0.2955 -0.3268
 4584SOL    HW125385   2.760   2.603  10.012 -0.0261  0.1266  1.8155
 4584SOL    HW225386   2.789   2.467  10.062 -0.3932  0.1470  1.0613
 4585SOL     OW25387   0.852   2.623   1.935 -0.0457 -0.0536  0.3182
 4585SOL    HW125388   0.775   2.679   1.931 -2.2265 -2.9800  1.1528
 4585SOL    HW225389   0.809   2.551   1.888  1.2085  0.5245 -1.6858
 4586SOL     OW25390   1.741   3.448   8.733 -0.0541 -0.1426  0.5140
 4586SOL    HW125391   1.761   3.538   8.709  0.6078 -0.3434  0.3067
 4586SOL    HW225392   1.816   3.397   8.702  2.2860  2.0028  2.6448
 4587SOL     OW25393   4.014   2.779   1.988 -0.2752  0.2956 -0.3242
 4587SOL    HW125394   4.000   2.684   1.996 -1.8402  0.4585 -1.1696
 4587SOL    HW225395   4.108   2.782   1.971  0.0812 -1.5326  1.2540
 4588SOL     OW25396   1.055   0.335   5.010 -0.5069 -0.2064 -0.4952
 4588SOL    HW125397   1.065   0.256   5.064 -0.5426  0.1490  0.0387
 4588SOL    HW225398   1.142   0.374   5.021 -0.7513  0.8253 -2.2033
 4589SOL     OW25399   2.814   1.771   4.912  0.2881  0.1883 -0.4686
 4589SOL    HW125400   2.824   1.865   4.898 -1.5429  0.7251  1.7231
 4589SOL    HW225401   2.776   1.769   5.000 -0.8450  0.5718 -0.9401
 4590SOL     OW25402   2.818   4.264   3.146 -0.1958 -0.3487 -0.5146
 4590SOL    HW125403   2.860   4.306   3.071  0.2330 -0.3514 -0.2749
 4590SOL    HW225404   2.801   4.348   3.189 -0.2964  0.1364 -1.5025
 4591SOL     OW25405   0.358   1.616   6.958 -0.0126 -0.1986 -0.0708
 4591SOL    HW125406   0.427   1.677   6.933 -0.4534  0.8047  1.1625
 4591SOL    HW225407   0.298   1.608   6.884  1.0315  1.7641 -1.1092
 4592SOL     OW25408   2.781   2.075   5.427  0.0916 -0.3265  0.0981
 4592SOL    HW125409   2.703   2.083   5.372 -1.7504 -2.4771  2.3684
 4592SOL    HW225410   2.743   2.056   5.513  1.6798 -0.8197  0.6918
 4593SOL     OW25411   1.651   0.172   9.475  0.5484 -0.0301 -0.2771
 4593SOL    HW125412   1.587   0.102   9.471  1.1801 -0.7037  1.2228
 4593SOL    HW225413   1.613   0.232   9.411  0.8174 -0.0799 -0.4817
 4594SOL     OW25414   3.012   0.840   9.177 -0.2264  0.5741  0.1933
 4594SOL    HW125415   3.075   0.872   9.113  1.0122 -0.8671  0.6890
 4594SOL    HW225416   3.061   0.768   9.216  1.1702  1.1128 -0.5798
 4595SOL     OW25417   1.121   1.263  13.165 -0.2597 -0.4369 -0.6148
 4595SOL    HW125418   1.096   1.201  13.097  0.7759 -1.8504  0.3015
 4595SOL    HW225419   1.146   1.342  13.117  1.1565 -1.0300 -0.8313
 4596SOL     OW25420   0.312   0.851   4.681  0.0858 -0.1278 -0.5508
 4596SOL    HW125421   0.308   0.901   4.600 -2.3802 -2.3327 -1.7877
 4596SOL    HW225422   0.229   0.874   4.722 -0.8681 -2.0768 -1.3793
 4597SOL     OW25423   3.576   0.571   4.042 -0.0113  0.7035  0.0888
 4597SOL    HW125424   3.587   0.499   4.105  0.4386  1.0085  0.3626
 4597SOL    HW225425   3.622   0.638   4.093  1.0584 -0.9678  1.3466
 4598SOL     OW25426   2.372   0.858   2.450 -0.0450 -0.1825 -0.2866
 4598SOL    HW125427   2.429   0.784   2.471  1.7091  0.5041 -2.5490
 4598SOL    HW225428   2.284   0.820   2.449  0.5201 -1.4725 -0.7121
 4599SOL     OW25429   0.847   2.323  11.835 -0.6419  0.2145 -0.8460
 4599SOL    HW125430   0.858   2.303  11.742  1.4037 -0.8950 -0.3574
 4599SOL    HW225431   0.850   2.418  11.825  0.2416  0.4543  1.7395
 4600SOL     OW25432   4.258   1.511   6.779  0.1394 -0.0007  0.4535
 4600SOL    HW125433   4.328   1.577   6.772  0.9338 -0.6576  2.1908
 4600SOL    HW225434   4.194   1.548   6.719  2.0376  0.2428 -1.4281
 4601SOL     OW25435   3.272   2.810   5.720 -0.1971  0.5367  0.6315
 4601SOL    HW125436   3.196   2.869   5.725 -0.9368 -0.3299 -0.4379
 4601SOL    HW225437   3.335   2.881   5.711  0.8041 -0.6372 -1.6329
 4602SOL     OW25438   4.464   3.225  11.103 -0.6880  0.4791  0.0605
 4602SOL    HW125439   4.534   3.227  11.038 -0.0168  0.9264  0.7919
 4602SOL    HW225440   4.505   3.167  11.169  1.6687  1.4252 -0.5821
 4603SOL     OW25441   4.649   3.175  15.594  0.0277  0.3490 -0.1423
 4603SOL    HW125442   4.676   3.225  15.517  0.1409  0.8607  0.2295
 4603SOL    HW225443   4.662   3.090  15.553 -0.8020  1.2182 -2.1933
 4604SOL     OW25444   4.444   1.353  12.060 -0.3101 -0.2794  0.2112
 4604SOL    HW125445   4.401   1.286  12.007  0.7766 -0.9123  0.1313
 4604SOL    HW225446   4.529   1.310  12.064  0.6847  1.7328  0.9166
 4605SOL     OW25447   3.474   4.147  16.582 -0.6595 -0.2326 -0.1292
 4605SOL    HW125448   3.533   4.218  16.604  0.3535 -1.5874  1.4728
 4605SOL    HW225449   3.466   4.155  16.487 -1.3560 -2.3904 -0.2623
 4606SOL     OW25450   1.326   1.428  13.992  0.4372 -0.2582 -0.3053
 4606SOL    HW125451   1.359   1.358  13.936  1.7015  0.2811 -0.2588
 4606SOL    HW225452   1.333   1.495  13.923  3.5172 -0.3421 -0.0751
 4607SOL     OW25453   1.575   1.143  13.370  0.2571  0.2152  0.0497
 4607SOL    HW125454   1.637   1.124  13.299  2.2950  1.4068  1.5367
 4607SOL    HW225455   1.631   1.150  13.447 -0.4120  1.1814  0.4454
 4608SOL     OW25456   1.017   4.595   3.661 -0.0162 -0.4781  0.5336
 4608SOL    HW125457   0.976   4.672   3.621  0.6971 -0.3993 -0.0385
 4608SOL    HW225458   0.953   4.524   3.657 -1.1849  0.3951  3.1685
 4609SOL     OW25459   4.430   3.130   6.281 -0.3648 -0.1881  0.1885
 4609SOL    HW125460   4.453   3.146   6.189  2.2042  1.0493  1.0551
 4609SOL    HW225461   4.442   3.220   6.311  0.5634 -0.5917  1.0152
 4610SOL     OW25462   0.399   3.064   0.763  0.2827  0.9720  0.6726
 4610SOL    HW125463   0.309   3.080   0.736  1.3318 -0.1939 -3.5248
 4610SOL    HW225464   0.383   3.037   0.854  1.6638  0.7468  0.8484
 4611SOL     OW25465   0.986   0.923   6.013 -0.0686 -0.5437 -0.1519
 4611SOL    HW125466   1.042   0.952   5.941 -0.6446 -0.7424 -0.6820
 4611SOL    HW225467   0.977   0.831   5.990  0.0730  0.4705 -4.3041
 4612SOL     OW25468   4.667   3.320   1.985  0.1838  0.3018 -0.1243
 4612SOL    HW125469   0.020   3.351   2.011  0.0492  1.1062 -0.6567
 4612SOL    HW225470   4.637   3.284   2.069 -0.6345 -0.5076 -0.7719
 4613SOL     OW25471   3.798   4.428   3.027 -0.2097  0.4860 -0.4482
 4613SOL    HW125472   3.789   4.523   3.027 -0.6323  0.4495  0.3392
 4613SOL    HW225473   3.725   4.397   3.082 -1.1771  2.9978 -0.3288
 4614SOL     OW25474   0.937   3.090   6.091 -0.3544 -0.0320  0.2145
 4614SOL    HW125475   1.020   3.124   6.124 -0.1605  1.1380 -1.4983
 4614SOL    HW225476   0.972   3.038   6.020  1.2804  2.0366 -0.4947
 4615SOL     OW25477   2.062   3.897   5.614 -0.3202  0.4612 -0.2641
 4615SOL    HW125478   2.073   3.885   5.709  2.3638 -0.0925 -0.6415
 4615SOL    HW225479   1.974   3.866   5.592 -0.1499  1.1118 -1.8717
 4616SOL     OW25480   0.200   1.348  16.079 -0.6963  0.3157 -0.1526
 4616SOL    HW125481   0.268   1.329  16.144  0.4796 -1.6411 -1.9633
 4616SOL    HW225482   0.227   1.436  16.055 -2.7718  0.7970 -0.7847
 4617SOL     OW25483   3.824   0.376  14.177 -0.3536  0.0900  0.1498
 4617SOL    HW125484   3.747   0.365  14.232  0.2099 -1.8982  0.5456
 4617SOL    HW225485   3.800   0.318  14.104 -0.7100 -0.1989  0.5007
 4618SOL     OW25486   0.558   1.596  14.533 -0.5261  0.2447 -0.2021
 4618SOL    HW125487   0.614   1.521  14.555 -2.3750 -1.3657 -0.9140
 4618SOL    HW225488   0.594   1.627  14.450  1.0603 -1.2776 -0.1031
 4619SOL     OW25489   1.947   4.255   3.618 -0.2239  0.0777  0.6463
 4619SOL    HW125490   1.862   4.256   3.574  0.3927 -0.8321 -0.5777
 4619SOL    HW225491   1.955   4.168   3.658 -1.7687  0.0476  0.8696
 4620SOL     OW25492   0.695   0.057  11.678  0.2038  0.2190 -0.2398
 4620SOL    HW125493   0.739   0.013  11.751 -1.0333 -2.9003 -1.3812
 4620SOL    HW225494   0.719   4.729  11.609 -0.8546  1.0489 -1.3480
 4621SOL     OW25495   0.639   4.727   7.875  0.7871 -0.4045  0.1004
 4621SOL    HW125496   0.658   4.728   7.969  1.1410  0.0094  0.0283
 4621SOL    HW225497   0.697   4.665   7.830 -0.6602 -2.2888  0.8538
 4622SOL     OW25498   1.387   1.869   6.970 -0.2184 -0.2381  0.0820
 4622SOL    HW125499   1.336   1.793   6.943 -0.6157 -0.7599  2.2756
 4622SOL    HW225500   1.423   1.839   7.053  0.0255 -0.3152 -0.0539
 4623SOL     OW25501   3.560   2.922  15.351  0.2818 -0.7904  0.7554
 4623SOL    HW125502   3.524   2.848  15.304  1.9781 -0.5829 -0.8688
 4623SOL    HW225503   3.629   2.881  15.404 -0.0343 -1.0030  1.0001
 4624SOL     OW25504   4.122   3.208   6.773 -0.2181  0.2595  0.0982
 4624SOL    HW125505   4.118   3.113   6.779  0.5366  0.3317  1.7533
 4624SOL    HW225506   4.033   3.215   6.810 -0.5007  2.1674 -0.9477
 4625SOL     OW25507   1.084   3.072  12.451  0.1120  0.8537  0.0102
 4625SOL    HW125508   1.052   3.141  12.393 -1.0806 -0.6450 -1.1281
 4625SOL    HW225509   1.059   2.999  12.394  1.1126 -0.0132  0.6858
 4626SOL     OW25510   4.548   1.201   7.196 -0.4949 -0.3361  0.4387
 4626SOL    HW125511   4.555   1.247   7.113  1.2039 -0.7537  0.3489
 4626SOL    HW225512   4.537   1.111   7.167 -0.4450 -0.3459  0.4498
 4627SOL     OW25513   1.498   4.628  11.998 -0.2296 -0.4823  0.1288
 4627SOL    HW125514   1.564   4.561  12.016  0.0229 -1.1885 -3.3345
 4627SOL    HW225515   1.541   4.704  12.038  0.0165 -0.3620 -0.3546
 4628SOL     OW25516   1.059   4.220   3.742  0.0396  0.1889 -0.1745
 4628SOL    HW125517   0.978   4.253   3.702  0.0917  1.2414  0.5773
 4628SOL    HW225518   1.017   4.144   3.780 -0.6331 -0.2396 -1.7680
 4629SOL     OW25519   3.637   4.084   6.272 -0.4948  0.2832 -0.5005
 4629SOL    HW125520   3.605   4.126   6.352  0.7317  0.8220 -0.2909
 4629SOL    HW225521   3.732   4.092   6.282 -0.2751 -3.0574 -0.1993
 4630SOL     OW25522   2.787   3.285   2.275 -0.5152  0.4939  0.3070
 4630SOL    HW125523   2.775   3.324   2.362 -1.2929 -1.7278  1.1781
 4630SOL    HW225524   2.838   3.209   2.302 -1.0918  0.6073  1.6874
 4631SOL     OW25525   3.685   2.005   1.101 -0.5197 -0.6662 -0.6984
 4631SOL    HW125526   3.635   1.926   1.124  1.3263 -1.1793  1.5469
 4631SOL    HW225527   3.679   2.003   1.006 -1.5985 -1.1749 -0.6264
 4632SOL     OW25528   0.251   2.081   8.485 -0.3096 -0.3717  0.2235
 4632SOL    HW125529   0.294   2.160   8.452 -1.6865  1.2130  2.1792
 4632SOL    HW225530   0.163   2.106   8.457  0.5695  2.5494  0.0670
 4633SOL     OW25531   4.051   1.612   5.829  0.7222  0.0699 -0.0109
 4633SOL    HW125532   3.959   1.588   5.837  0.4103  1.3128  0.0565
 4633SOL    HW225533   4.080   1.548   5.765  0.4430 -0.9206  0.8451
 4634SOL     OW25534   4.145   1.705   0.620 -0.1478 -0.5240 -0.8286
 4634SOL    HW125535   4.073   1.767   0.613 -0.4578 -0.9605 -1.4369
 4634SOL    HW225536   4.204   1.736   0.552 -0.9930  0.8903 -0.9047
 4635SOL     OW25537   1.327   3.179  13.565 -0.7232  0.3285 -0.6457
 4635SOL    HW125538   1.329   3.269  13.597  0.5364 -0.1738  0.6750
 4635SOL    HW225539   1.337   3.138  13.651  2.6966 -0.0696 -1.2343
 4636SOL     OW25540   2.191   2.230   2.322 -0.9449 -0.2087  0.2973
 4636SOL    HW125541   2.212   2.137   2.335 -0.9791 -0.3329 -0.5744
 4636SOL    HW225542   2.271   2.261   2.280 -1.6699  0.1555 -0.7877
 4637SOL     OW25543   4.726   1.382   0.654 -0.4362  0.0996  0.1123
 4637SOL    HW125544   4.665   1.384   0.580  0.5134 -1.5831 -0.7181
 4637SOL    HW225545   0.077   1.380   0.610 -0.8339 -0.2547 -0.6352
 4638SOL     OW25546   0.556   2.626   9.253 -0.7352  0.0962  0.2448
 4638SOL    HW125547   0.632   2.617   9.310  0.8006 -0.0320 -1.8288
 4638SOL    HW225548   0.500   2.690   9.298 -1.7368 -0.5170 -0.1403
 4639SOL     OW25549   4.038   4.708  10.494 -0.5810 -0.5897 -0.3493
 4639SOL    HW125550   4.049   4.715  10.588 -2.6451  1.6342 -0.3059
 4639SOL    HW225551   3.947   4.733  10.480 -1.2808 -2.2207  1.3930
 4640SOL     OW25552   4.300   0.547   0.703  0.2002  0.1848 -0.2666
 4640SOL    HW125553   4.392   0.535   0.681  0.2668 -1.0365  0.6741
 4640SOL    HW225554   4.285   0.487   0.777  0.6429 -0.0114 -0.3374
 4641SOL     OW25555   0.423   1.103   6.229  0.2691  0.1104  0.1506
 4641SOL    HW125556   0.517   1.085   6.233  0.4307  0.8458 -0.3703
 4641SOL    HW225557   0.394   1.023   6.185  2.5269 -0.3856 -0.4060
 4642SOL     OW25558   0.727   0.350  17.488  0.2079  0.3933 -0.4817
 4642SOL    HW125559   0.644   0.307  17.510  0.2096  2.0634  2.8257
 4642SOL    HW225560   0.742   0.318  17.399  1.8519  0.8897 -0.3675
 4643SOL     OW25561   0.786   4.053   1.186  0.1227 -0.0633  0.1815
 4643SOL    HW125562   0.693   4.062   1.166  0.5711  0.9451 -1.4503
 4643SOL    HW225563   0.800   4.138   1.228 -0.5667 -0.1954  0.6809
 4644SOL     OW25564   2.440   0.394   3.888  0.4672  0.0442  0.6027
 4644SOL    HW125565   2.359   0.348   3.866  0.9048  0.3698 -1.6844
 4644SOL    HW225566   2.449   0.464   3.823 -0.9947  0.1044  0.4615
 4645SOL     OW25567   0.266   1.780   6.285 -0.2817  0.2265 -0.0251
 4645SOL    HW125568   0.257   1.806   6.193 -0.3748  0.9715  0.1910
 4645SOL    HW225569   0.177   1.782   6.320 -0.6079 -1.9994 -0.7423
 4646SOL     OW25570   2.956   0.564   9.481 -0.0144  0.4797  0.0625
 4646SOL    HW125571   2.952   0.552   9.576  1.4862 -1.4781 -0.1329
 4646SOL    HW225572   3.025   0.630   9.482 -0.2339  0.7081  0.4627
 4647SOL     OW25573   3.743   1.631  15.836  0.5544  0.0621 -0.4447
 4647SOL    HW125574   3.828   1.617  15.878  0.7006 -1.4974 -1.2638
 4647SOL    HW225575   3.686   1.590  15.900 -0.5789 -1.5749 -2.4951
 4648SOL     OW25576   1.321   4.227   8.716  0.6261  0.2449  0.4758
 4648SOL    HW125577   1.388   4.159   8.720 -0.3577 -0.7668 -0.2496
 4648SOL    HW225578   1.245   4.169   8.722 -0.0547  1.2801  2.0067
 4649SOL     OW25579   3.511   0.289   5.219 -0.0449  0.8206 -0.0102
 4649SOL    HW125580   3.600   0.316   5.200 -0.4656  2.6327  0.6428
 4649SOL    HW225581   3.495   0.239   5.139  0.4030 -0.1695  0.5088
 4650SOL     OW25582   1.683   1.330   4.055  0.0656  0.1175  0.0559
 4650SOL    HW125583   1.721   1.330   3.967 -0.3456 -2.4247 -0.1235
 4650SOL    HW225584   1.600   1.368   4.028  0.3590  1.8405  1.5969
 4651SOL     OW25585   3.285   0.475   1.098  0.2810 -0.0358 -0.1458
 4651SOL    HW125586   3.326   0.435   1.175 -1.0896 -1.5320 -0.1846
 4651SOL    HW225587   3.271   0.400   1.040 -2.4199 -1.1067  1.8900
 4652SOL     OW25588   4.434   3.857   7.246 -0.9762 -0.5537 -0.4205
 4652SOL    HW125589   4.392   3.916   7.183 -1.6101 -2.1593 -1.5126
 4652SOL    HW225590   4.461   3.794   7.179  0.8358 -2.2674  1.9108
 4653SOL     OW25591   1.048   3.831  11.241 -0.6673 -0.0533 -0.6083
 4653SOL    HW125592   1.134   3.793  11.227 -0.8470 -0.2774 -1.0789
 4653SOL    HW225593   1.039   3.865  11.152 -1.2617 -0.6196 -0.7647
 4654SOL     OW25594   4.108   4.692  11.932  0.1416  0.8544 -0.1318
 4654SOL    HW125595   4.023   4.650  11.951  0.1176  0.4167 -1.1794
 4654SOL    HW225596   4.146   4.706  12.018 -1.0612  0.3345  0.4891
 4655SOL     OW25597   4.326   3.631   3.051 -0.4586 -0.0619 -0.0481
 4655SOL    HW125598   4.391   3.637   3.122 -2.2126  4.4149  1.1094
 4655SOL    HW225599   4.264   3.700   3.074  0.6557  1.6841 -2.2481
 4656SOL     OW25600   0.849   4.029  15.224 -0.0035 -0.1912 -0.4491
 4656SOL    HW125601   0.878   4.056  15.137  2.0619 -0.2819  0.2213
 4656SOL    HW225602   0.808   3.943  15.213 -0.4432 -0.0169 -0.2002
 4657SOL     OW25603   0.299   2.923  12.983 -0.4361  0.0216  0.7800
 4657SOL    HW125604   0.227   2.985  12.983  1.5390  2.3133  1.0411
 4657SOL    HW225605   0.367   2.969  12.934 -3.8700  2.3941 -1.7665
 4658SOL     OW25606   1.419   2.622   1.175 -0.3798 -0.2307  0.8584
 4658SOL    HW125607   1.437   2.562   1.102  1.1841  0.9654  0.2762
 4658SOL    HW225608   1.336   2.588   1.207 -1.1538  1.0590  0.2163
 4659SOL     OW25609   4.337   0.062   7.636 -0.3047  0.8528  0.8560
 4659SOL    HW125610   4.262   0.034   7.689  0.3150 -1.1523  0.6777
 4659SOL    HW225611   4.374   4.721   7.589 -0.5685  0.4796  1.2377
 4660SOL     OW25612   1.560   1.419   1.009  0.8324 -0.2817 -0.5642
 4660SOL    HW125613   1.548   1.407   0.915  1.9255 -1.9949 -0.4780
 4660SOL    HW225614   1.485   1.476   1.026  1.7790 -0.4380  4.2533
 4661SOL     OW25615   0.489   2.767   7.972  0.1199  0.0775 -0.5046
 4661SOL    HW125616   0.518   2.772   8.063  2.6059 -0.5298 -1.2677
 4661SOL    HW225617   0.420   2.701   7.978  0.1340  0.0828 -0.2928
 4662SOL     OW25618   4.583   4.537  13.349 -0.3160 -0.4656  0.2717
 4662SOL    HW125619   4.490   4.514  13.338  0.3869 -2.7258 -0.7674
 4662SOL    HW225620   4.614   4.552  13.260 -1.5978 -1.8154 -0.4098
 4663SOL     OW25621   0.561   2.777  13.723 -0.3855  0.3823 -0.2054
 4663SOL    HW125622   0.532   2.821  13.643 -0.6350 -0.3126 -0.4981
 4663SOL    HW225623   0.502   2.703  13.739  0.9076 -0.0416  2.7283
 4664SOL     OW25624   2.424   1.156   8.391 -0.1341 -1.0119  0.0577
 4664SOL    HW125625   2.336   1.178   8.421 -0.3087 -4.4345  1.9157
 4664SOL    HW225626   2.474   1.221   8.440 -0.4639  0.5110 -1.6012
 4665SOL     OW25627   2.364   2.402   9.228 -0.2506 -0.0720 -0.1511
 4665SOL    HW125628   2.304   2.330   9.209 -0.6858 -0.2284  1.8936
 4665SOL    HW225629   2.452   2.365   9.227  0.2285  1.0660 -2.5790
 4666SOL     OW25630   3.710   1.174   7.836 -0.0265  0.2406  0.2838
 4666SOL    HW125631   3.676   1.200   7.750 -1.8185  0.9398  1.1980
 4666SOL    HW225632   3.701   1.080   7.822 -1.1443  0.4211 -0.2328
 4667SOL     OW25633   1.486   2.268   5.355  0.2912  0.5978 -0.3675
 4667SOL    HW125634   1.524   2.322   5.424  1.3436  0.8612 -1.1558
 4667SOL    HW225635   1.464   2.324   5.281 -0.2878 -0.8027 -1.2596
 4668SOL     OW25636   2.507   1.947   6.300  0.0675  0.4357 -0.3850
 4668SOL    HW125637   2.433   1.980   6.351  0.3461 -0.2994  0.4802
 4668SOL    HW225638   2.584   1.994   6.331 -0.7984  1.4065  0.2846
 4669SOL     OW25639   3.325   4.371  11.340  0.0375  0.1722  0.6445
 4669SOL    HW125640   3.369   4.396  11.421  0.8465 -1.9404  0.8382
 4669SOL    HW225641   3.400   4.346  11.287 -0.7207  0.7674 -0.6974
 4670SOL     OW25642   3.090   4.222  11.333  0.5552  0.0228  0.0189
 4670SOL    HW125643   3.176   4.240  11.371 -0.7895 -0.5393  3.3417
 4670SOL    HW225644   3.105   4.128  11.343 -2.9581 -0.6864 -1.3705
 4671SOL     OW25645   4.583   1.205   9.751  0.6841  0.2119  0.1468
 4671SOL    HW125646   4.518   1.135   9.744  2.5523 -1.6864  1.7574
 4671SOL    HW225647   4.657   1.148   9.772  0.9392  1.1324  1.6875
 4672SOL     OW25648   3.601   4.368   3.591  0.1951  0.1675 -0.3718
 4672SOL    HW125649   3.568   4.440   3.646  1.1183  0.8519 -0.7106
 4672SOL    HW225650   3.694   4.388   3.597 -0.1812  1.6142  0.7630
 4673SOL     OW25651   1.981   1.033   5.499  0.1596 -0.5061 -0.0220
 4673SOL    HW125652   1.984   0.990   5.414 -0.4945  0.0040 -0.3033
 4673SOL    HW225653   2.048   1.101   5.489 -2.3893  1.6021 -2.6187
 4674SOL     OW25654   3.106   2.713   4.945 -0.5334 -0.1161  0.0033
 4674SOL    HW125655   3.152   2.662   5.012 -0.6131  0.6869  0.6703
 4674SOL    HW225656   3.041   2.759   4.998  0.7332  1.3782  0.2373
 4675SOL     OW25657   0.711   2.018   9.252  0.1848 -0.5550  0.1910
 4675SOL    HW125658   0.706   1.988   9.161 -0.7600  1.9393 -0.5646
 4675SOL    HW225659   0.762   2.099   9.244 -1.7240  0.8048  1.6782
 4676SOL     OW25660   2.542   3.468   5.201  0.6178  0.2261 -0.3753
 4676SOL    HW125661   2.447   3.463   5.209  0.6790  1.8057  1.5501
 4676SOL    HW225662   2.573   3.401   5.141  0.3915 -0.1234 -0.0984
 4677SOL     OW25663   3.960   3.864  12.540 -0.8932 -0.0329  0.2892
 4677SOL    HW125664   3.870   3.881  12.515 -1.0746 -2.2929 -0.5933
 4677SOL    HW225665   3.987   3.938  12.594 -0.6546  0.4489 -0.4876
 4678SOL     OW25666   1.223   0.740   3.582 -0.6675 -0.1347 -0.1304
 4678SOL    HW125667   1.246   0.665   3.637  0.1167  0.4848  0.3755
 4678SOL    HW225668   1.194   0.807   3.643  1.8658  0.4323  0.4611
 4679SOL     OW25669   2.040   3.919   3.122 -0.2532  0.1049  0.1466
 4679SOL    HW125670   2.130   3.887   3.116 -0.9540 -1.8630  0.0182
 4679SOL    HW225671   2.012   3.894   3.034 -2.0908 -0.5982  0.9340
 4680SOL     OW25672   2.574   3.185   7.234 -0.1778 -0.0183 -0.4857
 4680SOL    HW125673   2.581   3.146   7.321  0.0518  2.1422  0.4655
 4680SOL    HW225674   2.519   3.260   7.258 -0.4324  0.1246 -1.5364
 4681SOL     OW25675   1.092   0.726   7.898 -0.2666 -0.0955  0.6069
 4681SOL    HW125676   1.044   0.655   7.939 -0.9864 -0.1665 -0.3416
 4681SOL    HW225677   1.076   0.798   7.958  0.1285 -1.3758  2.2297
 4682SOL     OW25678   1.754   4.622   4.843 -0.9846  0.1774 -0.5292
 4682SOL    HW125679   1.702   4.700   4.824 -1.2162 -0.1320 -1.1575
 4682SOL    HW225680   1.830   4.639   4.788 -0.2135  0.3215  0.5836
 4683SOL     OW25681   3.988   3.214   6.250  0.1558 -0.5864 -0.0890
 4683SOL    HW125682   4.012   3.133   6.295  3.6461 -0.6850 -2.0591
 4683SOL    HW225683   4.030   3.196   6.165  0.2286 -1.2642  0.0863
 4684SOL     OW25684   0.322   3.264   8.284  0.0702 -0.7479 -0.3602
 4684SOL    HW125685   0.344   3.188   8.230  1.1390 -1.4450  1.0535
 4684SOL    HW225686   0.315   3.231   8.374 -1.0598  0.4462 -0.0050
 4685SOL     OW25687   3.259   1.612   4.349  0.4258 -0.1021  0.0836
 4685SOL    HW125688   3.187   1.622   4.411  0.2146 -0.7133 -0.0673
 4685SOL    HW225689   3.334   1.613   4.410  0.0374  1.2178  0.5523
 4686SOL     OW25690   4.327   2.755   3.016  0.2039  0.1239 -0.3234
 4686SOL    HW125691   4.256   2.724   3.073  0.5524  2.0091  1.1573
 4686SOL    HW225692   4.333   2.681   2.956  0.1848  0.4180 -0.6893
 4687SOL     OW25693   0.139   3.988   1.210  0.0460  0.8493 -0.0467
 4687SOL    HW125694   0.146   3.905   1.161 -2.3577 -1.1637  3.0527
 4687SOL    HW225695   0.045   3.991   1.228  0.1023  0.7058  0.2588
 4688SOL     OW25696   2.058   2.034   4.283  0.1794  0.6144 -0.6956
 4688SOL    HW125697   1.966   2.050   4.264  0.1370  1.6486  0.3183
 4688SOL    HW225698   2.065   2.052   4.377 -0.1567  2.5220 -1.0221
 4689SOL     OW25699   2.391   3.998   8.457 -0.4322 -0.1214 -0.5122
 4689SOL    HW125700   2.434   3.966   8.377 -1.0033  0.2383 -0.9628
 4689SOL    HW225701   2.474   4.020   8.499  0.2560 -0.2780 -1.7993
 4690SOL     OW25702   3.007   4.420   4.378  0.1993  0.0663 -0.3309
 4690SOL    HW125703   3.041   4.498   4.333  1.9927 -1.1140 -1.0140
 4690SOL    HW225704   3.079   4.357   4.367  1.2331  1.1594  0.1699
 4691SOL     OW25705   2.769   2.332   8.232  0.1888  0.3593  0.5808
 4691SOL    HW125706   2.712   2.256   8.242  1.9619 -0.8463  1.5450
 4691SOL    HW225707   2.856   2.293   8.227  0.5493  1.2339 -0.0604
 4692SOL     OW25708   2.342   0.355  10.789  0.0615 -0.1607 -0.1625
 4692SOL    HW125709   2.365   0.266  10.761 -0.0698 -0.1381 -0.3447
 4692SOL    HW225710   2.328   0.396  10.704  0.2852  1.5836  0.6376
 4693SOL     OW25711   0.131   0.356   2.816 -0.1845  0.0560 -0.3422
 4693SOL    HW125712   0.057   0.416   2.814  1.3192  1.9075 -0.8686
 4693SOL    HW225713   0.096   0.280   2.862 -0.6354 -0.1800 -1.0770
 4694SOL     OW25714   2.304   2.949   5.130 -0.0034 -0.5655 -0.0384
 4694SOL    HW125715   2.267   2.944   5.218 -0.8096 -0.8492 -0.3937
 4694SOL    HW225716   2.245   2.886   5.090  0.9888 -0.3765 -1.7789
 4695SOL     OW25717   2.847   4.669   7.930 -0.0234  0.6675  0.4810
 4695SOL    HW125718   2.778   4.603   7.936 -1.0479  1.7587  0.6079
 4695SOL    HW225719   2.839   4.719   8.011 -1.7664  0.4723  0.4252
 4696SOL     OW25720   1.269   3.605   0.369  0.3460 -0.4004  0.3651
 4696SOL    HW125721   1.342   3.666   0.373 -1.0397  1.3263 -0.7910
 4696SOL    HW225722   1.215   3.644   0.300 -0.6075 -0.0739  1.3131
 4697SOL     OW25723   2.626   0.417   4.097  0.0211  0.3745  0.8993
 4697SOL    HW125724   2.543   0.418   4.050  0.8749 -2.0366 -0.6313
 4697SOL    HW225725   2.673   0.492   4.060 -0.6704 -0.2740 -1.2806
 4698SOL     OW25726   2.760   3.889  15.411  0.2523  0.1923  0.0124
 4698SOL    HW125727   2.669   3.917  15.408 -0.5439 -2.3499  0.9886
 4698SOL    HW225728   2.792   3.964  15.461 -2.6604 -0.1199  2.3149
 4699SOL     OW25729   1.758   0.418  15.608 -0.8710  0.4513  0.5738
 4699SOL    HW125730   1.708   0.494  15.636 -2.0141 -0.6971  1.6458
 4699SOL    HW225731   1.680   0.373  15.576  0.7601 -2.5383  0.8328
 4700SOL     OW25732   2.296   1.422   3.973  0.3723 -0.7761  0.0894
 4700SOL    HW125733   2.304   1.513   4.002 -0.9984 -0.7021  0.2114
 4700SOL    HW225734   2.217   1.392   4.016  0.0221 -0.2111 -0.1599
 4701SOL     OW25735   2.451   0.029   7.600 -0.3407  0.2955  0.3654
 4701SOL    HW125736   2.429   0.078   7.521  1.0022  1.7249  0.8736
 4701SOL    HW225737   2.512   0.089   7.643  0.7811 -0.5508 -0.0603
 4702SOL     OW25738   1.648   3.543  15.757 -0.0056  0.0619 -0.1110
 4702SOL    HW125739   1.651   3.448  15.769 -0.4740  0.0675  0.0565
 4702SOL    HW225740   1.620   3.547  15.665 -1.0456 -0.8205  0.1760
 4703SOL     OW25741   2.760   3.539   9.289  0.0105  0.5121 -0.1506
 4703SOL    HW125742   2.680   3.578   9.326  0.5736  1.5250  0.0116
 4703SOL    HW225743   2.744   3.553   9.196 -0.4898 -0.3573 -0.1892
 4704SOL     OW25744   2.851   1.014   6.528  0.5357  0.3203 -0.4973
 4704SOL    HW125745   2.854   1.078   6.457 -0.9809  0.9629 -0.0017
 4704SOL    HW225746   2.941   0.983   6.538  0.6667  1.1432  0.8911
 4705SOL     OW25747   1.679   1.507   7.615  0.0502  0.6694 -0.4999
 4705SOL    HW125748   1.762   1.527   7.657 -0.4333 -1.9171  1.6930
 4705SOL    HW225749   1.616   1.563   7.662 -0.0971 -2.7196  3.3407
 4706SOL     OW25750   4.028   1.640   8.346  0.5678  0.0588  0.3651
 4706SOL    HW125751   3.932   1.647   8.352  0.6121 -0.2406  1.4199
 4706SOL    HW225752   4.046   1.588   8.268 -1.7133 -0.1401 -0.0272
 4707SOL     OW25753   1.879   2.671   3.157 -0.1803  0.1546 -0.1717
 4707SOL    HW125754   1.925   2.695   3.238 -0.1152  0.6822 -0.3630
 4707SOL    HW225755   1.822   2.747   3.148 -1.0628 -0.6053 -1.0122
 4708SOL     OW25756   3.327   3.541   3.428 -0.2106  0.6061  0.3317
 4708SOL    HW125757   3.421   3.532   3.410 -0.6297 -0.2430 -1.5003
 4708SOL    HW225758   3.298   3.455   3.457  2.2431 -0.2437  0.3398
 4709SOL     OW25759   2.376   4.426   8.640 -0.1299  0.2161  0.1133
 4709SOL    HW125760   2.429   4.457   8.714 -0.7230  0.0215  0.6233
 4709SOL    HW225761   2.320   4.362   8.682  0.3642 -0.1463  0.2220
 4710SOL     OW25762   4.160   0.457   4.245 -0.0666  0.0126 -0.0061
 4710SOL    HW125763   4.148   0.466   4.151  1.0558  0.6718 -0.0785
 4710SOL    HW225764   4.195   0.540   4.279 -1.1356  0.7990 -0.8104
 4711SOL     OW25765   2.353   2.318   6.913  0.0745  0.0199  0.0608
 4711SOL    HW125766   2.439   2.359   6.912 -0.3508  0.8634 -1.8143
 4711SOL    HW225767   2.369   2.240   6.966 -0.7036 -0.7958 -0.9175
 4712SOL     OW25768   2.301   4.635   7.951  0.3291 -0.1600 -0.0424
 4712SOL    HW125769   2.233   4.586   7.906  0.9300 -0.8846 -0.1650
 4712SOL    HW225770   2.292   4.619   8.045 -0.6203  1.2187  0.1080
 4713SOL     OW25771   0.394   2.604   3.657 -0.2474  0.0711 -0.3164
 4713SOL    HW125772   0.358   2.570   3.574  2.4535 -3.2087 -0.1556
 4713SOL    HW225773   0.453   2.532   3.679 -1.1914 -0.5531  0.1631
 4714SOL     OW25774   2.461   2.826   7.579 -0.3072 -0.1386  0.0640
 4714SOL    HW125775   2.452   2.732   7.597  1.2610 -0.3688 -0.2816
 4714SOL    HW225776   2.446   2.862   7.666 -0.1387 -1.3350  0.5937
 4715SOL     OW25777   3.651   3.151   7.126 -0.2633 -0.2758  0.3699
 4715SOL    HW125778   3.617   3.183   7.209 -1.2125 -0.0569 -0.1034
 4715SOL    HW225779   3.680   3.062   7.145  0.1565 -0.1808  0.1907
 4716SOL     OW25780   1.550   1.924  13.999 -0.6570  0.0764 -0.0322
 4716SOL    HW125781   1.626   1.883  13.958  1.0005  1.2266  1.8507
 4716SOL    HW225782   1.603   2.003  14.009 -1.6126  1.0756 -2.8939
 4717SOL     OW25783   4.205   2.005   0.606  0.1807  0.1118  0.7091
 4717SOL    HW125784   4.195   2.099   0.621 -0.0390  0.3119 -0.6594
 4717SOL    HW225785   4.201   1.970   0.695 -1.4266 -0.2529  0.4875
 4718SOL     OW25786   3.225   3.453  15.756 -0.9103 -0.9290 -0.3037
 4718SOL    HW125787   3.314   3.466  15.724 -0.0494 -3.3949  1.0369
 4718SOL    HW225788   3.179   3.531  15.726 -0.0868 -0.4138 -0.2294
 4719SOL     OW25789   3.354   3.217   3.116  0.1716 -0.5200 -0.0007
 4719SOL    HW125790   3.262   3.245   3.109  0.7212  1.7012  1.4187
 4719SOL    HW225791   3.349   3.169   3.199  2.1961  0.0945  0.4658
 4720SOL     OW25792   4.673   1.156   7.480  0.3461  0.5344 -0.0630
 4720SOL    HW125793   4.627   1.188   7.402 -0.0583  2.5650  0.9973
 4720SOL    HW225794   4.595   1.165   7.535  1.1563  0.4881  1.0967
 4721SOL     OW25795   4.369   3.264  10.533  0.5730 -0.2292  0.4609
 4721SOL    HW125796   4.431   3.329  10.566  1.3902  0.2499 -2.0578
 4721SOL    HW225797   4.303   3.320  10.493 -1.2362 -1.2841  1.9436
 4722SOL     OW25798   2.285   0.746  16.162 -0.2007 -0.6359  0.0599
 4722SOL    HW125799   2.284   0.794  16.245  0.6542 -0.2677 -0.1395
 4722SOL    HW225800   2.297   0.656  16.191  3.4225 -0.3889 -0.7097
 4723SOL     OW25801   4.021   1.566   6.640  0.0850 -0.8274 -0.2072
 4723SOL    HW125802   3.932   1.568   6.603 -0.6073  0.1444  1.5210
 4723SOL    HW225803   4.005   1.582   6.733 -0.7281 -3.8303  0.1745
 4724SOL     OW25804   2.096   1.901   9.260 -0.8716 -0.0245 -0.1898
 4724SOL    HW125805   2.127   1.860   9.341  0.9955  0.1226 -0.8328
 4724SOL    HW225806   2.001   1.900   9.270 -0.7909  2.9952  0.8669
 4725SOL     OW25807   3.192   3.187   6.417 -0.0545 -1.0048  0.0771
 4725SOL    HW125808   3.255   3.253   6.389  0.1342 -0.2156  2.3908
 4725SOL    HW225809   3.179   3.216   6.507 -2.1640  0.4150 -0.6967
 4726SOL     OW25810   2.121   4.371   2.966 -0.2894  0.0284  0.2294
 4726SOL    HW125811   2.196   4.394   3.021  0.7590 -2.3286 -0.2556
 4726SOL    HW225812   2.051   4.411   3.019 -0.5540 -1.4742  1.0036
 4727SOL     OW25813   2.498   2.182   7.316  0.1100  0.0124 -0.0560
 4727SOL    HW125814   2.424   2.180   7.377  0.3420 -1.3337  0.1985
 4727SOL    HW225815   2.569   2.172   7.380 -0.3327  0.9415  0.5825
 4728SOL     OW25816   1.072   0.900  12.952 -0.0215 -0.3878  0.5477
 4728SOL    HW125817   1.079   0.993  12.930  2.2035 -0.8188 -0.5139
 4728SOL    HW225818   1.157   0.882  12.992  0.9317 -0.2501 -1.4126
 4729SOL     OW25819   3.142   3.463   5.887  0.2928 -0.3312  0.2752
 4729SOL    HW125820   3.236   3.447   5.879  0.0302 -1.8752  0.3028
 4729SOL    HW225821   3.101   3.411   5.818 -0.0853  1.0023 -0.5080
 4730SOL     OW25822   2.425   3.364  15.476  0.0868 -0.0153  0.6429
 4730SOL    HW125823   2.455   3.452  15.496  0.3908  0.0542 -0.1115
 4730SOL    HW225824   2.467   3.315  15.547  0.6559  0.2364  0.4823
 4731SOL     OW25825   2.891   4.272   5.346 -0.0649 -0.0872 -0.0336
 4731SOL    HW125826   2.833   4.346   5.362 -0.0174 -0.1848  0.5989
 4731SOL    HW225827   2.889   4.269   5.250  2.2734 -0.3897 -0.0792
 4732SOL     OW25828   0.607   2.177   9.864 -0.3897 -0.2903 -0.1479
 4732SOL    HW125829   0.541   2.231   9.907 -0.4417  0.9200 -1.7430
 4732SOL    HW225830   0.635   2.116   9.932 -1.0222 -1.5508 -1.0184
 4733SOL     OW25831   0.045   0.160   5.725  0.2203 -0.1032 -0.1464
 4733SOL    HW125832   4.697   0.135   5.684 -1.3550 -0.6654  3.3055
 4733SOL    HW225833   0.049   0.252   5.700  1.8451  0.0255  0.5791
 4734SOL     OW25834   3.240   2.753   3.953 -0.9482 -0.2720  0.6825
 4734SOL    HW125835   3.286   2.730   3.873 -0.4274  1.9894  0.3395
 4734SOL    HW225836   3.261   2.845   3.969  0.2157 -0.0005 -2.4089
 4735SOL     OW25837   0.471   1.383   7.074  0.2665  0.2743  0.0726
 4735SOL    HW125838   0.444   1.461   7.026  0.4633 -0.7651 -1.7406
 4735SOL    HW225839   0.483   1.324   6.999  1.6002  0.3972  0.1781
 4736SOL     OW25840   0.463   0.356  11.617  0.0274 -0.6601  0.4994
 4736SOL    HW125841   0.506   0.283  11.573 -0.8301 -1.0081  0.2491
 4736SOL    HW225842   0.459   0.325  11.708  2.3051 -0.0621  0.8114
 4737SOL     OW25843   4.306   4.505   2.626  0.4465 -0.3102  0.2103
 4737SOL    HW125844   4.306   4.598   2.648 -1.7652 -0.2707  0.0089
 4737SOL    HW225845   4.288   4.457   2.707 -0.8380  1.8734  1.1996
 4738SOL     OW25846   1.817   2.576   4.656  0.1048 -0.1395 -0.6137
 4738SOL    HW125847   1.785   2.628   4.582 -2.2506  1.4886  1.5358
 4738SOL    HW225848   1.908   2.602   4.671  0.2146  0.2576 -2.0130
 4739SOL     OW25849   3.895   3.646   5.098 -0.3431  0.0962  0.1239
 4739SOL    HW125850   3.878   3.601   5.182 -3.0593  1.3147  0.2165
 4739SOL    HW225851   3.929   3.728   5.132 -0.3564  0.5267 -0.9251
 4740SOL     OW25852   4.287   4.126   4.347  0.6715 -0.3481  0.2800
 4740SOL    HW125853   4.313   4.078   4.425  1.3433  1.7796  1.3678
 4740SOL    HW225854   4.202   4.083   4.340  0.0261  0.8210  0.8442
 4741SOL     OW25855   2.126   2.340   2.578 -0.5284 -0.3647 -0.4057
 4741SOL    HW125856   2.123   2.334   2.482  1.7799  1.1034 -0.5854
 4741SOL    HW225857   2.166   2.258   2.608 -1.7795 -1.2696 -1.2436
 4742SOL     OW25858   2.100   2.858   4.422  0.0551 -0.2288 -0.2823
 4742SOL    HW125859   2.075   2.770   4.392  1.3909 -0.8169  0.3529
 4742SOL    HW225860   2.181   2.886   4.382 -0.1942  0.5398 -0.2451
 4743SOL     OW25861   3.653   4.215  13.046 -0.1814  0.7479 -0.0143
 4743SOL    HW125862   3.684   4.240  13.133 -0.2985  1.3040 -0.1303
 4743SOL    HW225863   3.731   4.194  12.996 -1.4635 -0.4006 -1.5316
 4744SOL     OW25864   2.863   2.316   1.345  0.3759 -0.2077  1.2274
 4744SOL    HW125865   2.791   2.329   1.407  0.1790 -1.5603  1.2786
 4744SOL    HW225866   2.829   2.364   1.269 -1.5131 -1.5395  1.2256
 4745SOL     OW25867   0.751   1.212   2.257  0.1821  0.2341  0.2427
 4745SOL    HW125868   0.737   1.141   2.320 -0.6194 -0.9135 -1.2315
 4745SOL    HW225869   0.838   1.183   2.229 -0.2418  1.4183 -2.2458
 4746SOL     OW25870   0.733   3.138   2.017  0.1604 -0.0242 -0.3547
 4746SOL    HW125871   0.788   3.144   1.940  0.3537 -2.1339 -0.3895
 4746SOL    HW225872   0.768   3.211   2.067  0.5723  0.6096 -1.5827
 4747SOL     OW25873   0.363   3.873   7.979 -0.1036  0.4329 -0.2883
 4747SOL    HW125874   0.377   3.863   7.885  1.5436  2.4454 -0.2345
 4747SOL    HW225875   0.280   3.921   7.982  0.3969  1.3448 -1.2756
 4748SOL     OW25876   3.303   1.679   4.082 -0.2803  0.5721  0.6122
 4748SOL    HW125877   3.242   1.749   4.059 -1.1508 -0.3366  0.1271
 4748SOL    HW225878   3.286   1.673   4.176 -1.1179 -1.1815  0.3573
 4749SOL     OW25879   2.943   4.726   1.758  0.0519  0.1305  0.0315
 4749SOL    HW125880   2.950   0.063   1.821 -1.1557  0.7257 -0.5024
 4749SOL    HW225881   2.940   4.647   1.813  0.5240  0.0637 -0.0376
 4750SOL     OW25882   2.217   0.095   6.061  0.4335  0.5458  0.5373
 4750SOL    HW125883   2.256   0.173   6.020 -0.1716 -0.3968 -1.8320
 4750SOL    HW225884   2.270   0.029   6.018 -1.5903 -0.7385  0.0484
 4751SOL     OW25885   0.953   4.652  12.196 -0.2627  0.9730  0.8185
 4751SOL    HW125886   1.041   4.679  12.168 -0.2677 -0.3818 -0.4645
 4751SOL    HW225887   0.967   4.576  12.251  0.9066 -1.2429 -2.5412
 4752SOL     OW25888   0.095   0.457   7.690 -0.4695  0.2716 -0.2233
 4752SOL    HW125889   0.100   0.380   7.746 -1.0682  0.4959  0.1365
 4752SOL    HW225890   0.181   0.498   7.705 -0.6378  1.1646 -1.7388
 4753SOL     OW25891   3.335   2.445   3.653  0.5760 -0.8909  0.5795
 4753SOL    HW125892   3.366   2.360   3.686  1.4909 -0.8828 -0.2490
 4753SOL    HW225893   3.371   2.495   3.726 -1.5096  1.2138  0.1611
 4754SOL     OW25894   4.410   1.290   2.984 -0.5586 -0.7989  0.2928
 4754SOL    HW125895   4.498   1.264   2.955 -0.1771 -0.3584  1.0483
 4754SOL    HW225896   4.427   1.373   3.029 -1.5922 -0.9441  0.9619
 4755SOL     OW25897   0.211   3.698   3.006  0.5617 -0.4473 -0.1916
 4755SOL    HW125898   0.141   3.757   2.977  1.9812  0.2767 -2.1413
 4755SOL    HW225899   0.161   3.617   3.005  0.7239 -0.5565  0.9593
 4756SOL     OW25900   0.927   3.296   5.004 -0.0652 -0.5507 -0.0764
 4756SOL    HW125901   0.934   3.373   4.947  1.0235 -2.3006 -2.2531
 4756SOL    HW225902   0.834   3.279   4.989 -0.4031 -1.6085  3.1980
 4757SOL     OW25903   0.793   0.018   4.983  0.1962 -0.2003  1.0464
 4757SOL    HW125904   0.818   4.661   4.967 -0.8049 -0.4123  0.6805
 4757SOL    HW225905   0.875   0.058   4.955 -0.4772 -0.4308 -1.3021
 4758SOL     OW25906   2.750   1.394   7.313 -0.0155  0.4513  0.3154
 4758SOL    HW125907   2.728   1.389   7.406  0.1529  0.6828  0.3682
 4758SOL    HW225908   2.685   1.344   7.265  0.5846 -1.0822  1.0898
 4759SOL     OW25909   4.035   4.389   9.748  0.0672  0.2774  0.1681
 4759SOL    HW125910   4.124   4.368   9.776  0.1714  0.9816  0.3584
 4759SOL    HW225911   4.008   4.432   9.828  1.3647 -0.2793  0.9035
 4760SOL     OW25912   4.365   1.582   8.265 -0.4274 -0.1346  0.2255
 4760SOL    HW125913   4.379   1.648   8.333 -2.4686  0.4045  0.1262
 4760SOL    HW225914   4.423   1.511   8.294 -0.6688 -0.5613 -0.3431
 4761SOL     OW25915   2.538   2.179  12.077 -0.0202 -0.7973  0.0981
 4761SOL    HW125916   2.590   2.256  12.102 -0.6367  0.2167 -1.6876
 4761SOL    HW225917   2.544   2.200  11.983 -1.2573 -0.6756  0.0515
 4762SOL     OW25918   4.564   1.830  12.243  0.5568  0.3431  0.2952
 4762SOL    HW125919   4.625   1.761  12.214 -1.7332 -2.3930  2.0287
 4762SOL    HW225920   4.535   1.850  12.154 -2.0558 -0.4242  0.9828
 4763SOL     OW25921   2.499   3.721  13.332 -0.8579 -0.2502 -0.2649
 4763SOL    HW125922   2.527   3.762  13.413 -0.0132 -0.8398 -0.2559
 4763SOL    HW225923   2.438   3.789  13.304  1.2202  1.2406 -1.1194
 4764SOL     OW25924   2.374   1.223   6.968 -0.2248  0.0007 -0.0814
 4764SOL    HW125925   2.355   1.129   6.967  1.0571 -0.2256 -2.1614
 4764SOL    HW225926   2.430   1.227   7.046  0.1974 -0.6451 -0.3548
 4765SOL     OW25927   2.521   3.644  16.107 -0.0127 -0.1615 -0.1871
 4765SOL    HW125928   2.464   3.669  16.180 -0.0699  1.5196 -0.8220
 4765SOL    HW225929   2.583   3.715  16.090 -1.0744  0.8921  0.3427
 4766SOL     OW25930   1.750   3.324   3.590  0.2790 -0.0158  0.2524
 4766SOL    HW125931   1.765   3.418   3.583 -1.6051  0.3043  0.4350
 4766SOL    HW225932   1.820   3.309   3.527  1.0816  0.9866  0.9128
 4767SOL     OW25933   0.881   3.516  13.982 -0.3431  0.2577  0.7345
 4767SOL    HW125934   0.799   3.482  14.018 -0.6941 -1.2980 -1.4881
 4767SOL    HW225935   0.857   3.605  13.956 -1.3834 -0.3964 -0.5333
 4768SOL     OW25936   2.959   0.183   3.767 -0.6662 -0.4059  0.4887
 4768SOL    HW125937   2.898   0.255   3.754  1.6719  1.3515 -0.7593
 4768SOL    HW225938   3.046   0.221   3.755 -1.2616  0.3548 -1.4174
 4769SOL     OW25939   0.575   3.661   2.787 -0.1762 -0.4470  0.1042
 4769SOL    HW125940   0.606   3.686   2.701 -1.3732  2.2679  0.4751
 4769SOL    HW225941   0.531   3.579   2.762 -4.0782  0.8320  2.7046
 4770SOL     OW25942   2.425   1.662   9.409  0.0767  0.3238  0.4749
 4770SOL    HW125943   2.418   1.568   9.390 -0.8136  0.5705 -0.3428
 4770SOL    HW225944   2.518   1.668   9.434 -0.2447 -0.0462  1.7896
 4771SOL     OW25945   1.807   1.045  15.944  0.8239 -0.0366  0.2867
 4771SOL    HW125946   1.881   1.031  16.002  0.7040  0.0868  0.4683
 4771SOL    HW225947   1.835   1.127  15.903  0.8672  0.3566  1.1044
 4772SOL     OW25948   2.528   0.980   5.701 -0.4921  0.0637 -0.3008
 4772SOL    HW125949   2.452   1.023   5.740  0.4237  1.2848  0.1661
 4772SOL    HW225950   2.529   1.018   5.613  0.6527  0.3808 -0.1523
 4773SOL     OW25951   4.028   0.391  12.447  0.1372 -0.5339  0.2977
 4773SOL    HW125952   4.069   0.347  12.522 -2.4275 -3.1808  0.1495
 4773SOL    HW225953   4.081   0.470  12.451  0.3128 -0.6298 -0.0831
 4774SOL     OW25954   1.357   3.374  17.692  0.1009  0.1220 -0.2929
 4774SOL    HW125955   1.419   3.361   0.028 -2.1670  0.3325  1.7046
 4774SOL    HW225956   1.325   3.462  17.712  0.6162 -0.3810  2.7587
 4775SOL     OW25957   0.572   1.528   7.970 -0.1320  0.2452 -0.1096
 4775SOL    HW125958   0.643   1.528   8.034  0.2024  1.1834 -0.4817
 4775SOL    HW225959   0.550   1.435   7.969  2.7436 -0.4325 -0.5128
 4776SOL     OW25960   4.716   3.363   5.347  0.4321  0.3585 -0.3797
 4776SOL    HW125961   4.655   3.385   5.417 -0.2182  1.6878 -1.3677
 4776SOL    HW225962   0.046   3.300   5.378 -0.6168 -0.6695 -0.3066
 4777SOL     OW25963   4.548   4.356   3.786 -0.5387 -0.3655 -0.3406
 4777SOL    HW125964   4.578   4.390   3.870 -1.5059 -1.1009  0.2938
 4777SOL    HW225965   4.490   4.428   3.761  1.8267  1.1007 -1.6784
 4778SOL     OW25966   2.725   2.168  11.002 -0.2768 -0.1499 -0.0023
 4778SOL    HW125967   2.801   2.216  11.034 -0.6531  1.3770 -1.4281
 4778SOL    HW225968   2.761   2.079  10.996 -3.3281 -1.4289  0.7482
 4779SOL     OW25969   1.396   1.025  16.778 -0.5413  0.2300 -0.8462
 4779SOL    HW125970   1.441   0.949  16.743  0.2344  0.6959 -0.8477
 4779SOL    HW225971   1.327   1.042  16.714  1.0263  1.0223 -2.3225
 4780SOL     OW25972   1.939   3.264  16.079 -0.3806 -0.3114 -0.0994
 4780SOL    HW125973   1.946   3.175  16.115  0.9717 -0.5114 -0.8386
 4780SOL    HW225974   1.844   3.276  16.086 -0.3766  1.3453 -3.0169
 4781SOL     OW25975   0.782   2.859   8.083  0.2269 -0.2584 -0.1711
 4781SOL    HW125976   0.787   2.828   7.993  1.0620  1.8616 -0.8320
 4781SOL    HW225977   0.859   2.813   8.117  1.2488  1.4474 -0.1762
 4782SOL     OW25978   4.619   2.592   2.711 -0.1623 -0.5554 -0.3805
 4782SOL    HW125979   4.624   2.536   2.789 -0.3149 -0.5821 -0.3901
 4782SOL    HW225980   4.701   2.568   2.667  0.6563  0.2601  0.6922
 4783SOL     OW25981   3.481   1.446   1.849  0.1801 -0.2756  0.0195
 4783SOL    HW125982   3.388   1.464   1.863  0.3283 -0.3936  1.2087
 4783SOL    HW225983   3.517   1.525   1.809  1.2088 -0.4083  0.6695
 4784SOL     OW25984   1.711   0.657   7.003  0.2211  0.5079  0.2758
 4784SOL    HW125985   1.667   0.688   6.924 -0.2928 -0.2262  0.2812
 4784SOL    HW225986   1.737   0.745   7.031 -2.6694  1.2513  0.6427
 4785SOL     OW25987   4.133   2.997   7.841 -0.0278 -0.6328 -0.7330
 4785SOL    HW125988   4.078   2.997   7.920 -0.0768  2.5234 -0.7614
 4785SOL    HW225989   4.131   3.090   7.818 -1.6953 -0.4729  0.0072
 4786SOL     OW25990   3.647   0.703   1.575 -0.4146 -0.2156  0.2400
 4786SOL    HW125991   3.650   0.729   1.667  0.3967  2.2754 -0.4885
 4786SOL    HW225992   3.610   0.780   1.532 -2.9680 -1.8393 -0.5324
 4787SOL     OW25993   1.624   0.529  12.082 -0.9224 -0.1022 -0.0765
 4787SOL    HW125994   1.702   0.490  12.042 -2.8566 -0.5087 -3.3961
 4787SOL    HW225995   1.619   0.610  12.031 -0.3351 -0.0907 -0.1236
 4788SOL     OW25996   3.590   0.033   2.241 -0.1761  0.0483 -0.4297
 4788SOL    HW125997   3.535   4.703   2.196 -1.2288  2.4453 -2.5692
 4788SOL    HW225998   3.647   4.704   2.284 -0.8687 -0.6962 -0.6124
 4789SOL     OW25999   1.640   2.874  13.636 -0.1474 -1.0452  0.4729
 4789SOL    HW126000   1.618   2.897  13.546  2.7414  2.1260  0.5503
 4789SOL    HW226001   1.616   2.783  13.648  2.8039 -1.9923 -0.7926
 4790SOL     OW26002   1.203   2.185   5.815 -0.1528  0.3735  0.4398
 4790SOL    HW126003   1.142   2.168   5.887 -1.4712 -0.3885 -0.8581
 4790SOL    HW226004   1.244   2.099   5.812 -1.8619 -0.4334  0.2182
 4791SOL     OW26005   1.642   0.636   1.925  0.2352 -0.0276  0.3187
 4791SOL    HW126006   1.566   0.662   1.977 -0.3240 -0.8998 -0.0625
 4791SOL    HW226007   1.645   0.705   1.859 -0.3016 -0.2775  0.0394
 4792SOL     OW26008   2.896   2.705   8.615 -0.1923 -0.0594  0.2782
 4792SOL    HW126009   2.865   2.634   8.559 -0.0131  1.5264 -1.8590
 4792SOL    HW226010   2.923   2.769   8.550 -0.2971 -1.7254 -1.4027
 4793SOL     OW26011   1.651   2.645   0.492  0.0857 -0.5420  0.4557
 4793SOL    HW126012   1.676   2.730   0.527  1.8838 -0.5134 -0.8985
 4793SOL    HW226013   1.618   2.669   0.405 -2.6542 -0.9364  1.3771
 4794SOL     OW26014   3.009   1.150   8.185  0.3791  0.2886  0.2288
 4794SOL    HW126015   2.954   1.223   8.158  1.9030  0.9947 -0.9533
 4794SOL    HW226016   2.968   1.125   8.267 -0.4711 -0.3503 -0.3959
 4795SOL     OW26017   2.865   1.531   2.605  0.1193  0.4400 -0.1154
 4795SOL    HW126018   2.853   1.498   2.516 -1.9238  0.9729 -0.0493
 4795SOL    HW226019   2.919   1.467   2.652 -0.9413 -1.9232 -2.1230
 4796SOL     OW26020   0.751   2.772   6.678 -0.4122 -0.2789 -0.1814
 4796SOL    HW126021   0.714   2.688   6.704 -2.3850 -1.0361 -5.3720
 4796SOL    HW226022   0.774   2.759   6.586 -0.1781  2.0073 -0.4345
 4797SOL     OW26023   0.587   3.652  15.420 -0.3877 -0.2588  0.8840
 4797SOL    HW126024   0.534   3.702  15.358 -0.7959 -1.1790  0.4891
 4797SOL    HW226025   0.642   3.604  15.358 -0.4049 -1.6255  1.9319
 4798SOL     OW26026   2.727   0.408   7.935 -0.0585  0.1499  0.0466
 4798SOL    HW126027   2.651   0.440   7.984 -0.5642 -1.3840  0.2488
 4798SOL    HW226028   2.793   0.435   8.000 -0.9289  1.6328  0.3070
 4799SOL     OW26029   1.189   4.722   3.921  0.6113 -0.3115 -0.2022
 4799SOL    HW126030   1.098   4.700   3.900  0.5286  2.0167 -2.2205
 4799SOL    HW226031   1.214   0.029   3.839 -1.3779 -0.0563 -0.6686
 4800SOL     OW26032   0.819   2.198   7.345  0.3098 -0.0623 -0.0644
 4800SOL    HW126033   0.728   2.185   7.320  0.2203  0.5310 -0.0490
 4800SOL    HW226034   0.852   2.110   7.329  2.8775  1.5857 -3.8280
 4801SOL     OW26035   3.999   0.063   1.414 -0.2465  0.3507  0.0088
 4801SOL    HW126036   3.950   0.062   1.496 -2.1056 -0.1355 -1.0846
 4801SOL    HW226037   4.052   4.717   1.406  1.6386  1.7303 -1.2372
 4802SOL     OW26038   0.945   3.048  11.528 -0.1619 -0.2117  0.2638
 4802SOL    HW126039   0.996   3.097  11.464  1.2386 -2.9087 -0.6568
 4802SOL    HW226040   1.010   2.987  11.561 -0.0349  0.4094  1.1707
 4803SOL     OW26041   0.169   1.798   8.409 -0.0847  0.3810 -0.0946
 4803SOL    HW126042   0.203   1.829   8.326 -0.4887 -3.0321 -1.5283
 4803SOL    HW226043   0.149   1.881   8.453  2.4438  1.6863 -1.4329
 4804SOL     OW26044   4.117   0.955   0.407 -0.4389 -0.1244  0.4034
 4804SOL    HW126045   4.092   0.971   0.498  1.2822  3.1323  0.3183
 4804SOL    HW226046   4.137   0.862   0.418 -1.3041 -0.2668  0.7734
 4805SOL     OW26047   4.720   4.552   5.418 -0.2695  0.0755  0.2203
 4805SOL    HW126048   4.698   4.645   5.430  1.1563  0.4682 -0.2228
 4805SOL    HW226049   4.657   4.516   5.481  0.9524  3.4250  3.3725
 4806SOL     OW26050   3.125   3.901   3.200 -0.2469 -0.6379  0.4932
 4806SOL    HW126051   3.060   3.939   3.258 -1.1860  0.2765 -1.1688
 4806SOL    HW226052   3.201   3.874   3.253  1.8025  0.4632 -1.8563
 4807SOL     OW26053   0.491   4.571   4.755 -0.0571  0.3121 -0.1535
 4807SOL    HW126054   0.473   4.599   4.665  0.0533 -0.6595 -0.4745
 4807SOL    HW226055   0.538   4.649   4.786  1.1236  0.2085 -1.6714
 4808SOL     OW26056   0.866   2.237   9.265  0.0795 -0.3463 -0.2341
 4808SOL    HW126057   0.898   2.317   9.306 -1.6215 -0.5836  1.5129
 4808SOL    HW226058   0.811   2.280   9.199  0.3731  1.0655  0.4508
 4809SOL     OW26059   2.896   4.654   3.638  0.0300  0.1359  0.1899
 4809SOL    HW126060   2.895   0.011   3.607 -0.9760 -0.2020 -0.7671
 4809SOL    HW226061   2.991   4.650   3.627 -0.1103  0.0091 -0.9702
 4810SOL     OW26062   3.195   3.141   3.946  0.2695 -0.2648 -0.0867
 4810SOL    HW126063   3.231   3.097   4.023  3.4010  2.4457 -0.0018
 4810SOL    HW226064   3.267   3.199   3.922 -1.1430  2.0613  1.2743
 4811SOL     OW26065   1.655   2.769   6.979 -0.1379  0.1026 -0.2351
 4811SOL    HW126066   1.645   2.849   7.030 -0.0073  1.0320 -1.6728
 4811SOL    HW226067   1.568   2.744   6.947 -1.0797  1.4294  1.3134
 4812SOL     OW26068   4.358   2.543   6.967 -0.2385  0.1873  0.4441
 4812SOL    HW126069   4.308   2.559   7.047  0.1467  2.3876  0.2609
 4812SOL    HW226070   4.356   2.447   6.968  0.8855  0.1781  1.1630
 4813SOL     OW26071   3.414   1.626   1.301 -0.6194 -0.8959 -0.2949
 4813SOL    HW126072   3.353   1.615   1.374  0.2181 -0.6850  0.4374
 4813SOL    HW226073   3.429   1.537   1.268  0.9973 -1.3948  1.8003
 4814SOL     OW26074   3.772   0.033  10.486  0.6742  0.3561  0.3685
 4814SOL    HW126075   3.711   4.700  10.518  0.4967  0.2291 -0.2424
 4814SOL    HW226076   3.727   0.117  10.480 -2.2850 -1.4063 -2.1648
 4815SOL     OW26077   1.995   0.381   4.466 -0.5244  0.7604 -0.1074
 4815SOL    HW126078   1.953   0.297   4.444  1.2466 -0.2845  0.4709
 4815SOL    HW226079   1.974   0.371   4.560  0.9613 -1.0390  0.0378
 4816SOL     OW26080   2.860   4.527   8.277 -0.2438 -0.1075  0.1323
 4816SOL    HW126081   2.770   4.516   8.249 -0.8331  2.2551  1.1179
 4816SOL    HW226082   2.851   4.542   8.371 -1.6782  1.2038 -0.2299
 4817SOL     OW26083   1.361   2.329   6.770  0.0340  0.1867  0.4482
 4817SOL    HW126084   1.316   2.378   6.701  1.4292  1.2949  0.3239
 4817SOL    HW226085   1.352   2.378   6.852 -0.4503  0.9835 -0.0888
 4818SOL     OW26086   0.734   4.727   6.592 -0.0754  0.0770  0.3807
 4818SOL    HW126087   0.727   0.083   6.625  1.0691  0.6531 -0.9230
 4818SOL    HW226088   0.651   4.715   6.546  0.4777  1.4897 -0.9912
 4819SOL     OW26089   1.689   1.164   4.811  0.3280 -0.3897  0.3562
 4819SOL    HW126090   1.632   1.200   4.744  0.7044  1.7014  1.1648
 4819SOL    HW226091   1.712   1.243   4.860  0.3238  1.5885 -2.8796
 4820SOL     OW26092   3.836   3.828  17.699  0.1988  0.7124 -0.1561
 4820SOL    HW126093   3.746   3.858  17.710 -0.3342 -0.3204 -1.6101
 4820SOL    HW226094   3.884   3.910  17.693  1.7882 -0.3106 -1.7237
 4821SOL     OW26095   1.582   1.798   0.337  0.4126 -0.0283 -0.0739
 4821SOL    HW126096   1.672   1.797   0.369 -0.5822 -0.3509  2.7145
 4821SOL    HW226097   1.575   1.734   0.266  0.4769  0.1532 -0.2428
 4822SOL     OW26098   1.848   0.641   2.609  0.1410 -0.0262  0.2607
 4822SOL    HW126099   1.895   0.600   2.537 -3.0818  1.5189 -2.7804
 4822SOL    HW226100   1.921   0.662   2.666  1.2987  0.0794 -1.2655
 4823SOL     OW26101   1.937   2.298  11.788  0.5092 -0.3682 -0.7661
 4823SOL    HW126102   1.937   2.389  11.758 -0.1488 -0.8031 -2.1045
 4823SOL    HW226103   1.997   2.257  11.725  1.1852  0.1399 -0.4543
 4824SOL     OW26104   0.335   4.385   4.939  0.5338  0.4776  0.0375
 4824SOL    HW126105   0.402   4.395   4.871 -0.6185 -1.0477 -1.3348
 4824SOL    HW226106   0.280   4.451   4.897  1.3454  1.2805  0.2531
 4825SOL     OW26107   3.908   1.352   8.772 -0.5047 -0.4654  0.2163
 4825SOL    HW126108   3.875   1.266   8.747  2.6300 -1.0254 -1.9246
 4825SOL    HW226109   3.985   1.337   8.828 -0.1246  2.6925  0.5382
 4826SOL     OW26110   0.481   1.102   2.846 -0.2069  0.6879  0.5608
 4826SOL    HW126111   0.525   1.174   2.892  0.2290 -0.2080  1.5415
 4826SOL    HW226112   0.552   1.043   2.822 -2.8297 -2.3763  0.4400
 4827SOL     OW26113   4.097   3.174   5.743 -0.1251  0.1351  0.0162
 4827SOL    HW126114   4.081   3.085   5.712 -0.7577 -0.1707  1.2678
 4827SOL    HW226115   4.017   3.222   5.722  0.9499  1.3539 -1.3376
 4828SOL     OW26116   1.598   0.222   8.392  0.2083 -0.1203 -0.0517
 4828SOL    HW126117   1.652   0.200   8.315 -0.8258 -0.6918 -0.6141
 4828SOL    HW226118   1.522   0.264   8.352 -0.4058 -1.1734  0.0042
 4829SOL     OW26119   1.871   0.037  14.258 -0.1233 -0.7801  0.2073
 4829SOL    HW126120   1.844   4.703  14.321 -0.4600  1.1563  2.1418
 4829SOL    HW226121   1.844   4.726  14.178 -3.8622  0.3854  0.8357
 4830SOL     OW26122   2.291   3.227   7.566  0.3690  0.5520  0.1803
 4830SOL    HW126123   2.210   3.241   7.615  0.9753 -0.7794  1.5605
 4830SOL    HW226124   2.350   3.230   7.641 -0.8729 -1.1203  1.2131
 4831SOL     OW26125   3.876   4.060   8.131  0.8029  0.2010  0.5333
 4831SOL    HW126126   3.835   4.043   8.046  0.9957 -2.4096  0.9436
 4831SOL    HW226127   3.900   4.152   8.124  0.7180  0.1602 -0.3906
 4832SOL     OW26128   3.988   0.706  15.196  0.3014 -0.1390  0.4299
 4832SOL    HW126129   3.956   0.620  15.222 -0.1464 -0.3551 -0.8669
 4832SOL    HW226130   3.909   0.758  15.215 -0.1523 -0.5143 -0.4394
 4833SOL     OW26131   3.241   2.745   7.904 -0.4501 -0.2218 -0.1188
 4833SOL    HW126132   3.186   2.766   7.979 -1.3689 -1.1980 -0.5223
 4833SOL    HW226133   3.175   2.696   7.855  1.8563 -2.1513 -1.2507
 4834SOL     OW26134   3.471   2.773   6.563  0.1167 -0.1592 -0.3522
 4834SOL    HW126135   3.395   2.801   6.511 -1.9506 -0.6674  2.4116
 4834SOL    HW226136   3.526   2.746   6.490 -1.2968 -2.6829 -0.4842
 4835SOL     OW26137   0.673   2.900   2.180 -0.2013  0.2931 -0.1500
 4835SOL    HW126138   0.724   2.909   2.260 -1.4854  0.2056  0.6850
 4835SOL    HW226139   0.722   2.957   2.122 -0.7226  0.9692  0.0816
 4836SOL     OW26140   2.889   0.767   6.065 -0.1181  0.0240  0.5830
 4836SOL    HW126141   2.901   0.811   5.981 -1.0371 -2.4496 -0.8528
 4836SOL    HW226142   2.970   0.786   6.112 -1.1994  0.3298  2.3071
 4837SOL     OW26143   2.748   1.737   3.146 -0.2537  0.4007  0.2061
 4837SOL    HW126144   2.676   1.753   3.208 -1.7739  0.8178 -1.6757
 4837SOL    HW226145   2.712   1.678   3.081 -2.8798  1.1892  0.9281
 4838SOL     OW26146   1.565   0.614   4.911  0.8727  0.1652 -0.3856
 4838SOL    HW126147   1.644   0.574   4.875  0.9992  0.6030 -0.5850
 4838SOL    HW226148   1.510   0.537   4.927  2.4773 -0.4126  2.3658
 4839SOL     OW26149   0.924   4.088  13.431  0.0688  0.0446  0.2845
 4839SOL    HW126150   0.960   4.003  13.405  0.3645  0.8577 -1.9199
 4839SOL    HW226151   0.913   4.131  13.347  2.0245 -1.0225 -0.4986
 4840SOL     OW26152   2.539   3.179   6.226  0.0763 -0.3652 -0.0350
 4840SOL    HW126153   2.474   3.122   6.186  0.3094  0.5736 -1.7277
 4840SOL    HW226154   2.613   3.119   6.231  1.4009  0.9537 -3.7158
 4841SOL     OW26155   1.613   2.822   7.790  0.1927 -0.5874  0.0583
 4841SOL    HW126156   1.543   2.867   7.837  1.8286  0.4400  1.5235
 4841SOL    HW226157   1.576   2.800   7.705 -0.6504  0.4555  0.1572
 4842SOL     OW26158   2.641   3.268   8.747  0.5091  0.0213 -0.0881
 4842SOL    HW126159   2.552   3.251   8.715  1.1810  1.2702 -2.6314
 4842SOL    HW226160   2.657   3.194   8.806 -1.0798 -2.8179 -3.1878
 4843SOL     OW26161   2.571   3.856   4.178 -0.1801  0.2196 -0.2343
 4843SOL    HW126162   2.628   3.908   4.122 -1.6101 -0.5954 -2.4320
 4843SOL    HW226163   2.613   3.770   4.173 -0.7358 -0.1580  1.5143
 4844SOL     OW26164   0.856   0.652   7.131  1.0853 -0.8370  0.1083
 4844SOL    HW126165   0.784   0.707   7.099  1.0377 -1.2488 -0.5004
 4844SOL    HW226166   0.899   0.631   7.048  1.8151  0.7410  0.0915
 4845SOL     OW26167   1.530   3.054  14.778  0.0989 -0.2969 -0.1958
 4845SOL    HW126168   1.454   2.998  14.765  1.8455 -2.9341  0.8213
 4845SOL    HW226169   1.524   3.064  14.873  1.6540  1.5031 -0.2845
 4846SOL     OW26170   0.397   2.725   5.994  0.1123  0.0433 -0.0993
 4846SOL    HW126171   0.371   2.805   6.039  1.8606  0.5426  0.0060
 4846SOL    HW226172   0.318   2.696   5.948  0.6799 -1.9934  0.2359
 4847SOL     OW26173   0.604   0.404  16.524 -0.1369 -0.5158  0.4854
 4847SOL    HW126174   0.557   0.453  16.592  2.1462  1.3246  0.7285
 4847SOL    HW226175   0.532   0.386  16.463  0.0997  0.3971 -0.0674
 4848SOL     OW26176   3.885   3.127   8.783  0.3468  0.2137 -0.9454
 4848SOL    HW126177   3.979   3.108   8.783  0.1050 -0.9558  0.5799
 4848SOL    HW226178   3.889   3.222   8.770  1.3096  0.2805 -0.2008
 4849SOL     OW26179   2.915   2.992  15.757 -0.3324 -0.2999  0.2601
 4849SOL    HW126180   2.992   2.956  15.800 -2.1815 -3.3476  0.9924
 4849SOL    HW226181   2.940   2.954  15.673 -0.0389  0.7612 -0.1419
 4850SOL     OW26182   4.313   2.535  11.311  0.0122  0.3637 -0.0302
 4850SOL    HW126183   4.289   2.488  11.231 -0.9107  0.0425  0.4340
 4850SOL    HW226184   4.294   2.465  11.373 -1.0518  1.2558  0.6590
 4851SOL     OW26185   3.401   1.779   2.837 -0.1659 -0.4564 -0.4817
 4851SOL    HW126186   3.361   1.769   2.923 -0.0446  1.6401 -0.1910
 4851SOL    HW226187   3.470   1.712   2.839 -1.2016 -1.5024 -0.0696
 4852SOL     OW26188   0.827   2.986   8.690  0.1700 -0.3336 -0.1932
 4852SOL    HW126189   0.779   3.012   8.768  0.1369  1.3750 -0.7739
 4852SOL    HW226190   0.903   3.043   8.697 -0.7887  0.7775  1.0271
 4853SOL     OW26191   1.848   2.602   5.566 -0.0816 -0.8113 -0.2697
 4853SOL    HW126192   1.844   2.507   5.552 -1.8491 -0.9968  1.4804
 4853SOL    HW226193   1.861   2.600   5.661  0.1885  0.9416 -0.2828
 4854SOL     OW26194   3.542   1.080   2.273  0.1458  0.1574  0.3080
 4854SOL    HW126195   3.520   1.157   2.221 -0.7284 -0.3079 -0.0045
 4854SOL    HW226196   3.474   1.015   2.258  0.1982  0.2263 -0.2613
 4855SOL     OW26197   3.268   2.570   4.509 -0.0082 -0.5450 -0.2857
 4855SOL    HW126198   3.195   2.542   4.564 -0.7548 -0.0102 -1.0004
 4855SOL    HW226199   3.330   2.598   4.575 -0.7347  0.3022  0.0296
 4856SOL     OW26200   4.396   3.093   4.474 -0.0313  1.1278 -0.8956
 4856SOL    HW126201   4.476   3.131   4.437  0.2605  0.6619 -0.7430
 4856SOL    HW226202   4.361   3.065   4.389  1.1103 -1.3646 -0.5246
 4857SOL     OW26203   2.341   2.606   6.351  1.0687  0.3329  0.4574
 4857SOL    HW126204   2.380   2.525   6.385 -0.2265 -1.3548 -2.1135
 4857SOL    HW226205   2.354   2.605   6.257 -4.5330  0.8317 -0.3585
 4858SOL     OW26206   1.933   0.490   6.876  0.2800 -0.5179  0.5437
 4858SOL    HW126207   1.838   0.499   6.863  0.1159 -1.8609  0.8113
 4858SOL    HW226208   1.951   0.502   6.782  1.9291  1.2455  1.0910
 4859SOL     OW26209   0.935   2.381  16.509 -0.3401 -0.7799 -0.4328
 4859SOL    HW126210   0.956   2.471  16.482 -1.7472  0.0295  1.1687
 4859SOL    HW226211   0.949   2.392  16.603  1.5607  0.1512 -0.8309
 4860SOL     OW26212   3.133   0.511   7.130  0.2999 -0.0505  0.2625
 4860SOL    HW126213   3.225   0.528   7.107  0.3244  2.8412  2.4057
 4860SOL    HW226214   3.096   0.599   7.116  0.6612  0.0169 -0.2750
 4861SOL     OW26215   1.930   2.308   1.566 -0.0579 -0.3982  0.3558
 4861SOL    HW126216   1.955   2.370   1.498 -3.3108 -0.6427 -1.0829
 4861SOL    HW226217   1.879   2.234   1.533 -2.2075  0.0671  2.5579
 4862SOL     OW26218   0.931   0.653   5.974 -0.6721  0.0969 -0.4371
 4862SOL    HW126219   0.873   0.663   5.898  0.0895 -2.1191 -1.3061
 4862SOL    HW226220   0.926   0.559   5.988 -1.1896  0.2567  0.3865
 4863SOL     OW26221   4.526   1.225   5.701  0.6084  0.0638  0.8238
 4863SOL    HW126222   4.564   1.263   5.621 -0.4622 -0.4086  0.0873
 4863SOL    HW226223   4.573   1.280   5.764  1.2242  0.5459 -0.0466
 4864SOL     OW26224   4.377   4.157   2.758  0.3910  0.7249 -0.3218
 4864SOL    HW126225   4.318   4.220   2.800 -0.3538  1.0432 -1.8433
 4864SOL    HW226226   4.352   4.145   2.667  0.9989 -0.3396 -0.3436
 4865SOL     OW26227   1.881   1.696   5.661 -0.2926  0.3922 -0.1482
 4865SOL    HW126228   1.953   1.759   5.650 -0.9081  1.1080 -0.1196
 4865SOL    HW226229   1.868   1.651   5.578  1.9586 -0.9484  0.2249
 4866SOL     OW26230   4.681   1.199   3.964  0.1791  0.3643  0.0771
 4866SOL    HW126231   4.652   1.262   4.030 -0.4792  0.7563 -0.5773
 4866SOL    HW226232   0.037   1.202   3.995 -0.1830  0.3977  1.1070
 4867SOL     OW26233   0.454   4.714   2.916 -0.3661  0.1841  0.1275
 4867SOL    HW126234   0.502   4.674   2.843  1.5432 -0.6477  1.8350
 4867SOL    HW226235   0.413   4.638   2.957  0.6004 -1.5593 -2.1628
 4868SOL     OW26236   3.589   2.837   5.176  0.1062  0.1764 -0.9390
 4868SOL    HW126237   3.636   2.767   5.132 -1.6276 -1.3755 -0.3009
 4868SOL    HW226238   3.616   2.826   5.267  2.5933  1.3400 -1.5136
 4869SOL     OW26239   3.290   3.175  10.231 -0.4783  0.3304 -0.1072
 4869SOL    HW126240   3.296   3.080  10.233  0.2292  0.3751 -0.3606
 4869SOL    HW226241   3.244   3.191  10.314  1.0983  1.3850  0.5560
 4870SOL     OW26242   3.298   1.012   7.345  0.0537  0.3964 -0.1242
 4870SOL    HW126243   3.277   0.977   7.259  0.1231  0.2336 -0.0741
 4870SOL    HW226244   3.354   0.944   7.381  1.1054  1.2714 -0.0984
 4871SOL     OW26245   3.577   1.498   6.713 -0.9828 -0.0339  0.6457
 4871SOL    HW126246   3.654   1.467   6.759 -0.4808 -1.2457 -1.0072
 4871SOL    HW226247   3.567   1.585   6.753  1.3549  0.0533  1.0086
 4872SOL     OW26248   2.347   0.867   6.142  0.7330  0.7814 -0.2870
 4872SOL    HW126249   2.326   0.850   6.050  4.1894 -3.9387 -0.1987
 4872SOL    HW226250   2.439   0.843   6.134  0.2449 -1.3479  0.6305
 4873SOL     OW26251   4.324   0.707   7.295 -0.1087  0.2375 -0.3041
 4873SOL    HW126252   4.350   0.757   7.372 -1.1470  1.3708 -0.6871
 4873SOL    HW226253   4.403   0.706   7.241 -1.1451  0.0268 -1.8069
 4874SOL     OW26254   3.406   4.263   2.682 -0.3042 -0.2616  0.4111
 4874SOL    HW126255   3.328   4.242   2.630  0.4008 -0.5204 -0.5468
 4874SOL    HW226256   3.461   4.193   2.646 -1.6303 -1.7789  1.3267
 4875SOL     OW26257   4.320   3.720  15.132 -0.4848  0.2696  0.3473
 4875SOL    HW126258   4.334   3.815  15.135  0.3950  0.1974 -1.2468
 4875SOL    HW226259   4.226   3.706  15.124  0.0537 -1.8954 -2.3057
 4876SOL     OW26260   0.628   4.058   7.031 -0.5483  0.1627  0.2350
 4876SOL    HW126261   0.677   4.074   7.111 -0.6967  1.2569  0.1027
 4876SOL    HW226262   0.575   3.982   7.055  0.8497  0.3712  3.8675
 4877SOL     OW26263   1.776   3.708   6.593 -0.0115  0.5647 -0.3620
 4877SOL    HW126264   1.820   3.700   6.678  3.4981 -1.6220 -2.4010
 4877SOL    HW226265   1.684   3.693   6.615  0.0281  0.8962  0.0446
 4878SOL     OW26266   2.170   3.672  15.347 -0.4029  0.0685 -0.2224
 4878SOL    HW126267   2.105   3.717  15.401  0.2374 -0.1476  0.7276
 4878SOL    HW226268   2.158   3.578  15.359 -0.0586  0.2884  1.7419
 4879SOL     OW26269   2.066   2.086   3.498 -0.0641  0.4303 -0.3072
 4879SOL    HW126270   2.050   2.008   3.445 -2.9936  1.5861 -1.0843
 4879SOL    HW226271   2.022   2.156   3.450 -0.9539 -0.2156 -0.4205
 4880SOL     OW26272   0.332   3.521   2.789  0.8005 -0.4686  0.2601
 4880SOL    HW126273   0.317   3.583   2.860  2.4410 -0.9371  1.0155
 4880SOL    HW226274   0.302   3.578   2.718  0.9473  1.0010  1.3768
 4881SOL     OW26275   4.331   2.453  11.030 -0.1141 -0.4268 -0.2779
 4881SOL    HW126276   4.292   2.480  10.946 -0.6464  2.0170  0.7473
 4881SOL    HW226277   4.332   2.357  11.031 -1.7353 -0.4601 -0.8424
 4882SOL     OW26278   1.465   3.374   7.502  0.2224  0.4257 -0.1327
 4882SOL    HW126279   1.556   3.351   7.517  0.6971  0.6578 -2.7392
 4882SOL    HW226280   1.473   3.441   7.434 -2.1275  0.3149 -0.5297
 4883SOL     OW26281   1.200   1.153   5.387 -0.3943  0.0095  0.7164
 4883SOL    HW126282   1.267   1.200   5.437 -1.2225 -1.5851  3.3433
 4883SOL    HW226283   1.261   1.084   5.360  0.6341  1.1494  0.1609
 4884SOL     OW26284   3.638   1.897   3.094  0.0339 -0.2560  0.2717
 4884SOL    HW126285   3.652   1.876   3.001 -3.5001  1.0220 -0.5398
 4884SOL    HW226286   3.720   1.945   3.110 -0.3156  1.1336 -2.1016
 4885SOL     OW26287   2.037   2.988  16.085 -0.3127  0.1112 -0.7574
 4885SOL    HW126288   2.037   2.919  16.152  1.2299  0.8066 -0.0354
 4885SOL    HW226289   2.093   2.949  16.018  0.4853 -2.0608  1.1656
 4886SOL     OW26290   3.474   3.052  16.969 -0.0339  0.4372  0.0823
 4886SOL    HW126291   3.417   3.066  17.045 -0.0278  1.3571 -0.0835
 4886SOL    HW226292   3.492   3.144  16.950 -2.3187  0.9132  0.1906
 4887SOL     OW26293   3.814   4.013   2.072 -0.2078 -0.5771  0.2814
 4887SOL    HW126294   3.796   3.935   2.020  0.0104 -0.4967  0.0861
 4887SOL    HW226295   3.730   4.058   2.083 -0.1862 -0.6506  0.7118
 4888SOL     OW26296   0.687   0.225   2.672 -0.4130  0.3695 -0.3827
 4888SOL    HW126297   0.763   0.181   2.711  0.2122  0.5468 -1.4296
 4888SOL    HW226298   0.713   0.239   2.582  1.0060 -1.0684 -0.1910
 4889SOL     OW26299   0.880   1.052   3.852 -0.2893  0.6033  0.0868
 4889SOL    HW126300   0.814   0.985   3.872 -1.0560  1.9243  1.9064
 4889SOL    HW226301   0.832   1.131   3.874 -1.0268  0.4090 -0.8652
 4890SOL     OW26302   0.193   0.744   5.112  0.3907  0.5771  0.1118
 4890SOL    HW126303   0.282   0.724   5.139  0.7370 -0.2147 -1.6216
 4890SOL    HW226304   0.174   0.828   5.156  0.3937 -0.3664  1.9278
 4891SOL     OW26305   4.119   2.373   2.841  0.1177  0.3247  0.2729
 4891SOL    HW126306   4.154   2.305   2.783  2.2943  1.9992 -0.3756
 4891SOL    HW226307   4.189   2.438   2.844  0.4561  0.0275 -1.1791
 4892SOL     OW26308   0.398   2.162   4.461  0.2328 -0.1204  0.3080
 4892SOL    HW126309   0.350   2.239   4.492  3.2212  2.1201 -0.6692
 4892SOL    HW226310   0.385   2.089   4.521  1.7657 -0.4377  0.2380
 4893SOL     OW26311   1.794   1.813   8.001 -0.3643 -0.5547 -0.1088
 4893SOL    HW126312   1.763   1.890   7.953  0.9655  0.7046  1.0375
 4893SOL    HW226313   1.713   1.763   8.012 -2.0352  2.1975  0.1389
 4894SOL     OW26314   3.351   1.156   2.574 -0.5619  0.4842  0.2942
 4894SOL    HW126315   3.385   1.238   2.536 -0.3367  0.7666  1.1118
 4894SOL    HW226316   3.284   1.129   2.511 -1.6343  0.4308  1.4568
 4895SOL     OW26317   1.426   1.220   6.684 -0.3146 -0.3728 -0.0422
 4895SOL    HW126318   1.430   1.313   6.706  2.1912 -0.6298  0.5967
 4895SOL    HW226319   1.510   1.193   6.719 -0.2381  1.7797  1.4108
 4896SOL     OW26320   0.708   4.108   7.284 -0.6048 -0.6951 -0.2289
 4896SOL    HW126321   0.745   4.175   7.341 -1.0724 -1.8210  1.3827
 4896SOL    HW226322   0.759   4.036   7.319  1.4131  1.0103  0.3409
 4897SOL     OW26323   4.433   0.811   3.851  0.5922 -0.2554 -0.0757
 4897SOL    HW126324   4.438   0.748   3.779 -2.0784  0.6856 -1.1075
 4897SOL    HW226325   4.345   0.846   3.836  0.8428  0.4603  0.1324
 4898SOL     OW26326   1.406   1.948   9.553  0.5139 -0.3086 -0.2720
 4898SOL    HW126327   1.465   1.886   9.596 -0.2701  0.1754  1.4785
 4898SOL    HW226328   1.442   2.030   9.588 -0.7632  1.5896 -3.4509
 4899SOL     OW26329   1.954   1.646   1.158  0.0497  0.6535 -0.2033
 4899SOL    HW126330   2.040   1.640   1.199  0.4898  0.9187 -1.0993
 4899SOL    HW226331   1.898   1.622   1.232 -0.7938  0.1811 -0.9927
 4900SOL     OW26332   3.062   0.974   5.494  0.3599 -0.1158  0.4753
 4900SOL    HW126333   3.083   0.923   5.415 -1.6154  2.2025 -1.5056
 4900SOL    HW226334   2.970   0.995   5.483  0.6455  1.8034  1.7927
 4901SOL     OW26335   3.634   0.601   5.527 -0.1070  0.0824 -0.7253
 4901SOL    HW126336   3.587   0.600   5.443  1.1656 -0.8108 -1.4245
 4901SOL    HW226337   3.707   0.547   5.497  0.0988  0.6269 -1.2097
 4902SOL     OW26338   4.641   3.974  12.776  0.3191 -0.7788 -0.4421
 4902SOL    HW126339   4.601   3.887  12.777  1.8751 -1.4561  3.0907
 4902SOL    HW226340   4.707   3.967  12.844 -2.9471  0.5525  2.8479
 4903SOL     OW26341   2.018   1.253   3.327 -0.3999 -0.2622  0.4369
 4903SOL    HW126342   1.936   1.253   3.277 -0.1136 -0.4126 -0.0377
 4903SOL    HW226343   2.009   1.166   3.366  0.2278  1.0111  3.3728
 4904SOL     OW26344   1.392   1.075   6.215  0.6024  0.2236 -0.4426
 4904SOL    HW126345   1.306   1.034   6.205  0.6954 -0.2014  0.4538
 4904SOL    HW226346   1.402   1.062   6.309 -1.2461 -0.5541 -0.3434
 4905SOL     OW26347   3.122   1.634  13.741 -0.5981 -0.6982 -0.5647
 4905SOL    HW126348   3.030   1.611  13.752 -0.7140  1.2152  2.4647
 4905SOL    HW226349   3.133   1.605  13.651  0.4685 -1.7297 -0.1091
 4906SOL     OW26350   1.425   4.628  11.519  0.1232 -0.1482  0.2828
 4906SOL    HW126351   1.391   4.619  11.608  2.7565 -0.4714  1.2792
 4906SOL    HW226352   1.517   4.647  11.540  0.1238 -1.0149  1.0463
 4907SOL     OW26353   3.677   4.465   8.704 -0.6020 -0.0906  0.1070
 4907SOL    HW126354   3.670   4.560   8.709 -0.7405 -0.0297 -1.1165
 4907SOL    HW226355   3.625   4.453   8.624 -1.1592  0.4281  0.3903
 4908SOL     OW26356   2.115   1.489   8.698 -0.8493 -0.0137 -0.6131
 4908SOL    HW126357   2.034   1.540   8.695 -0.9641 -0.2663 -1.9404
 4908SOL    HW226358   2.118   1.428   8.771  0.4557  0.5464 -0.1978
 4909SOL     OW26359   2.026   4.663  11.144  0.0658  0.1756 -0.2741
 4909SOL    HW126360   1.953   4.647  11.083 -0.2677  0.2423  0.1062
 4909SOL    HW226361   2.073   4.580  11.136  0.3253  0.2076  1.0341
 4910SOL     OW26362   1.070   2.815   4.820 -0.2883 -0.2956 -0.4789
 4910SOL    HW126363   1.107   2.806   4.907  0.9362 -0.9357 -1.0684
 4910SOL    HW226364   1.059   2.723   4.798 -1.6653 -0.2266 -0.0430
 4911SOL     OW26365   0.324   3.057   9.095 -0.0751 -0.1527 -0.0144
 4911SOL    HW126366   0.413   3.034   9.121 -0.7389 -2.1258  0.5145
 4911SOL    HW226367   0.305   3.099   9.179  1.0990 -1.2785  0.8041
 4912SOL     OW26368   3.458   4.355   4.747  0.3514 -0.0622  0.1556
 4912SOL    HW126369   3.466   4.356   4.652  0.0469  1.8338  0.1482
 4912SOL    HW226370   3.480   4.263   4.762 -3.0335 -0.6383  1.5388
 4913SOL     OW26371   0.415   3.599  12.348 -0.0151 -0.2096  0.0842
 4913SOL    HW126372   0.395   3.516  12.305 -1.6690  0.7473 -0.9797
 4913SOL    HW226373   0.406   3.571  12.439  1.0939 -0.2547  0.1892
 4914SOL     OW26374   2.341   4.526   2.388 -0.1100 -0.5168  0.0619
 4914SOL    HW126375   2.266   4.469   2.371  0.6463 -1.7643  0.8831
 4914SOL    HW226376   2.311   4.554   2.474 -0.6096  2.2254 -1.0067
 4915SOL     OW26377   1.239   2.972  14.744 -0.1773 -0.2683  0.2163
 4915SOL    HW126378   1.239   3.055  14.696 -3.3422 -1.1774 -1.3370
 4915SOL    HW226379   1.147   2.948  14.757 -0.3540  0.1294 -0.3055
 4916SOL     OW26380   2.404   0.942  12.378  0.2622  0.1800  0.0186
 4916SOL    HW126381   2.407   0.970  12.286 -1.4958  1.6490  0.4059
 4916SOL    HW226382   2.420   0.849  12.362  2.6084  0.6172 -0.1292
 4917SOL     OW26383   4.380   2.224   9.792  0.2018  0.2907 -0.0707
 4917SOL    HW126384   4.322   2.233   9.716 -1.1398 -0.0249  0.9081
 4917SOL    HW226385   4.336   2.148   9.831 -2.2311  1.9099  0.3801
 4918SOL     OW26386   0.805   4.161   3.294 -0.0609 -0.0866 -0.0253
 4918SOL    HW126387   0.722   4.140   3.252 -0.1658  2.4098 -1.0354
 4918SOL    HW226388   0.777   4.213   3.369 -1.6034 -0.9080 -0.0246
 4919SOL     OW26389   2.589   2.056   4.996  0.0833  0.6926  0.2917
 4919SOL    HW126390   2.517   2.104   5.036 -0.3754 -1.2938  1.8710
 4919SOL    HW226391   2.599   2.111   4.919 -0.4261  0.4435  0.0542
 4920SOL     OW26392   3.547   1.226   6.582  0.1314  0.7176 -0.4369
 4920SOL    HW126393   3.495   1.208   6.660 -2.2082 -2.0253 -2.6381
 4920SOL    HW226394   3.573   1.317   6.600 -2.2353  1.2642  0.2280
 4921SOL     OW26395   0.723   0.834   0.949 -0.2798  0.0269  0.0699
 4921SOL    HW126396   0.756   0.896   0.884  1.0612  0.3488  1.0528
 4921SOL    HW226397   0.687   0.897   1.011 -1.2549  0.5429 -1.0171
 4922SOL     OW26398   4.107   2.938   7.560 -0.1324  0.1634 -0.2799
 4922SOL    HW126399   4.151   3.008   7.607  1.1682  0.8259 -2.4965
 4922SOL    HW226400   4.038   2.924   7.624 -0.6706  1.6352 -0.5353
 4923SOL     OW26401   1.681   0.642   2.248  0.2525 -0.3194  0.5095
 4923SOL    HW126402   1.595   0.616   2.282  0.0289  1.4521  1.3525
 4923SOL    HW226403   1.692   0.605   2.161 -1.5069  1.9541 -0.6826
 4924SOL     OW26404   2.768   0.552   8.816  0.7547  0.2552  0.4096
 4924SOL    HW126405   2.836   0.568   8.882 -0.4118 -0.5192  1.8097
 4924SOL    HW226406   2.798   0.616   8.752 -0.3803  0.1583 -0.2228
 4925SOL     OW26407   2.751   3.698   3.148 -0.1672 -0.1492 -0.2524
 4925SOL    HW126408   2.809   3.728   3.218 -1.4493  0.9946  0.3135
 4925SOL    HW226409   2.818   3.705   3.080 -1.1321 -1.2554 -1.3070
 4926SOL     OW26410   1.548   1.985   5.879 -0.2008  0.4056  0.4025
 4926SOL    HW126411   1.518   2.000   5.789 -1.0883  0.7437  0.7563
 4926SOL    HW226412   1.610   1.922   5.843 -0.2948 -0.0079  0.9657
 4927SOL     OW26413   1.221   2.461   9.418 -0.0208  0.0791  0.3725
 4927SOL    HW126414   1.248   2.369   9.426 -0.2930  0.1001  1.5661
 4927SOL    HW226415   1.192   2.450   9.327 -1.7244 -0.0948  0.9173
 4928SOL     OW26416   2.132   1.769  13.997 -0.0771  0.2094 -0.1690
 4928SOL    HW126417   2.186   1.758  13.919 -0.3233  2.4496 -0.6439
 4928SOL    HW226418   2.185   1.710  14.050 -0.8560  0.4097  0.8355
 4929SOL     OW26419   2.580   4.121   0.298  0.6817  0.0442 -0.5922
 4929SOL    HW126420   2.563   4.150   0.388 -3.0201 -3.4446 -0.1988
 4929SOL    HW226421   2.645   4.184   0.265  2.1881 -1.6102 -0.7610
 4930SOL     OW26422   2.060   4.468   4.641 -0.4699  0.5975  0.2002
 4930SOL    HW126423   2.152   4.450   4.619 -1.1662 -2.9568  0.1951
 4930SOL    HW226424   2.034   4.442   4.552 -2.8846  0.1235  1.0530
 4931SOL     OW26425   1.158   4.632   3.320  0.6428 -0.0241 -0.1080
 4931SOL    HW126426   1.202   4.611   3.238 -0.7433 -0.5422 -0.7230
 4931SOL    HW226427   1.144   4.726   3.306  0.7749 -0.2209 -1.5615
 4932SOL     OW26428   3.316   0.109   4.945  0.4703 -0.4992  0.7710
 4932SOL    HW126429   3.231   0.098   4.902  1.0538 -0.3777 -0.4339
 4932SOL    HW226430   3.285   0.113   5.035 -0.7256  0.2587  0.3243
 4933SOL     OW26431   0.622   3.227   0.166 -0.0614 -0.0846  0.3592
 4933SOL    HW126432   0.679   3.252   0.094  0.7487  2.1867  1.8162
 4933SOL    HW226433   0.535   3.220   0.126  0.3863 -3.7082  0.0426
 4934SOL     OW26434   4.231   4.656   4.589  0.2824  0.0575  0.5365
 4934SOL    HW126435   4.158   4.652   4.526  1.0866  3.1177 -0.5851
 4934SOL    HW226436   4.278   4.572   4.587 -0.0602 -0.1925  2.8945
 4935SOL     OW26437   0.876   3.543  11.896 -0.0719 -0.2226 -0.0929
 4935SOL    HW126438   0.813   3.591  11.950  1.5589  0.6172  1.0488
 4935SOL    HW226439   0.957   3.593  11.903 -0.4162  0.0629  1.8601
 4936SOL     OW26440   0.872   3.172   1.547 -0.0767 -0.2220 -0.0387
 4936SOL    HW126441   0.782   3.204   1.538 -0.8336 -2.4517 -0.4336
 4936SOL    HW226442   0.916   3.213   1.473 -2.9741 -0.1507 -1.7287
 4937SOL     OW26443   0.165   3.579   5.990  0.0196  0.3365 -0.1514
 4937SOL    HW126444   0.076   3.562   5.960  0.2013  0.6476 -0.8808
 4937SOL    HW226445   0.219   3.538   5.922 -2.1497 -0.2537 -1.4884
 4938SOL     OW26446   3.151   3.659   4.619  0.0575 -0.3617  0.1828
 4938SOL    HW126447   3.071   3.675   4.569 -0.0250 -1.6117 -0.0898
 4938SOL    HW226448   3.212   3.672   4.546  0.8936 -1.3586  0.6960
 4939SOL     OW26449   0.124   2.947   1.431 -0.2848  0.2105 -0.0262
 4939SOL    HW126450   0.182   2.942   1.355  0.4998  1.3855  0.4912
 4939SOL    HW226451   0.130   3.040   1.454 -1.9609 -0.1328  1.7488
 4940SOL     OW26452   4.607   4.519   4.440 -0.0978  0.0757 -0.3995
 4940SOL    HW126453   4.688   4.513   4.389  0.0291 -0.6896 -0.1042
 4940SOL    HW226454   4.553   4.458   4.392  0.8201 -1.8455  1.0009
 4941SOL     OW26455   4.199   1.132   3.647  0.0112  0.2423  0.0808
 4941SOL    HW126456   4.106   1.150   3.661 -0.1930 -0.2003 -0.7266
 4941SOL    HW226457   4.243   1.216   3.638 -0.9666  0.6975 -0.4436
 4942SOL     OW26458   0.970   4.007   3.158 -0.0262  0.1972 -0.1420
 4942SOL    HW126459   0.914   4.057   3.217 -0.5326 -1.1503  0.5304
 4942SOL    HW226460   1.005   3.954   3.230 -0.5572 -0.4833 -0.3852
 4943SOL     OW26461   4.500   2.803   0.218  0.6915 -0.4820  0.0183
 4943SOL    HW126462   4.493   2.843   0.131  2.0933  0.4516  0.3407
 4943SOL    HW226463   4.470   2.715   0.197  0.3225 -0.5047  0.6229
 4944SOL     OW26464   3.530   1.651  14.721  0.4587 -0.7558 -0.0287
 4944SOL    HW126465   3.539   1.622  14.812  1.2974  0.1956  0.1854
 4944SOL    HW226466   3.622   1.667  14.703  0.8512 -0.7620  2.0366
 4945SOL     OW26467   3.875   1.971   5.359 -0.1584 -0.4524 -0.2024
 4945SOL    HW126468   3.926   1.890   5.364  1.9541  0.9124  0.0469
 4945SOL    HW226469   3.918   2.018   5.430 -2.6592 -1.6448  2.0962
 4946SOL     OW26470   2.703   1.468  16.200 -1.0096  0.2709 -0.6492
 4946SOL    HW126471   2.652   1.540  16.164 -1.1220  0.2948 -0.4454
 4946SOL    HW226472   2.747   1.439  16.120  1.4637 -2.4965  1.6861
 4947SOL     OW26473   1.300   4.220   9.521 -0.0539 -1.1309 -0.2910
 4947SOL    HW126474   1.340   4.273   9.590 -1.4627 -0.7353  0.2271
 4947SOL    HW226475   1.249   4.294   9.488 -0.7626 -0.5933  1.9885
 4948SOL     OW26476   0.880   0.239  16.544 -0.4271 -0.0897  0.6850
 4948SOL    HW126477   0.869   0.197  16.459 -0.3845  2.2607 -0.4779
 4948SOL    HW226478   0.818   0.311  16.544  0.5196  0.7120 -0.2033
 4949SOL     OW26479   1.159   0.754   9.479 -0.4960 -0.3422 -0.5706
 4949SOL    HW126480   1.079   0.748   9.532 -0.3261 -1.1912 -0.4148
 4949SOL    HW226481   1.174   0.849   9.483  0.3246 -0.5737  1.7988
 4950SOL     OW26482   3.681   3.526  17.072  0.6005 -0.0130 -0.4312
 4950SOL    HW126483   3.594   3.486  17.078  1.4786 -2.1740 -1.9093
 4950SOL    HW226484   3.723   3.522  17.158  3.1696 -1.9657 -1.7707
 4951SOL     OW26485   4.482   3.811   0.122  0.1996 -0.0067  0.0983
 4951SOL    HW126486   4.491   3.737   0.062 -1.3356  1.0875 -1.4807
 4951SOL    HW226487   4.396   3.850   0.111 -0.3442 -1.4793 -0.9017
 4952SOL     OW26488   0.935   2.305   1.961  0.0288  0.3253 -0.5958
 4952SOL    HW126489   0.922   2.212   1.980  1.3063  0.6389  1.8491
 4952SOL    HW226490   0.855   2.330   1.915  0.1435 -0.2841 -1.1212
 4953SOL     OW26491   0.735   1.886   5.007 -0.9019 -0.0748 -0.4371
 4953SOL    HW126492   0.722   1.814   4.945 -1.6679 -1.2606  1.1016
 4953SOL    HW226493   0.695   1.843   5.083  1.9549 -3.1592 -0.6669
 4954SOL     OW26494   2.805   3.059  16.069 -0.1690 -0.2082 -0.6759
 4954SOL    HW126495   2.870   3.120  16.034 -1.5139  2.6354  1.7720
 4954SOL    HW226496   2.774   3.111  16.143  1.6074  1.2769 -0.9868
 4955SOL     OW26497   2.048   4.176   2.774 -0.6062 -0.4904 -0.2868
 4955SOL    HW126498   2.105   4.179   2.697  2.7349 -2.8296  2.0592
 4955SOL    HW226499   2.069   4.253   2.827  0.6845 -0.6896 -0.5161
 4956SOL     OW26500   1.619   1.388   2.436  0.1458  0.0396 -0.0498
 4956SOL    HW126501   1.545   1.441   2.467  1.7116  1.8542  0.5548
 4956SOL    HW226502   1.575   1.320   2.386 -2.4437  1.0147  0.8941
 4957SOL     OW26503   0.549   3.854   8.153 -0.0824  0.0828 -0.2685
 4957SOL    HW126504   0.495   3.862   8.074 -1.8137 -0.5063  0.8406
 4957SOL    HW226505   0.615   3.922   8.140 -1.6928  1.4756 -1.1801
 4958SOL     OW26506   3.991   3.576   8.416 -0.0964 -0.4353  0.2724
 4958SOL    HW126507   3.960   3.496   8.374 -0.5283  0.2835 -0.7843
 4958SOL    HW226508   3.942   3.572   8.497 -2.3468 -3.0449 -1.2056
 4959SOL     OW26509   0.914   0.148   1.099  0.1673  0.5581 -0.2860
 4959SOL    HW126510   0.897   0.068   1.051  0.4417  1.1345 -1.3555
 4959SOL    HW226511   0.849   0.210   1.065  0.5223  0.1630 -1.6917
 4960SOL     OW26512   3.071   3.529   8.056  0.4020 -0.1643  1.0293
 4960SOL    HW126513   3.132   3.575   7.998 -0.3057 -0.3871  0.1065
 4960SOL    HW226514   3.049   3.469   7.985 -3.3299  0.4115  1.6704
 4961SOL     OW26515   1.424   0.842   8.370 -0.1752 -0.0149  0.0063
 4961SOL    HW126516   1.486   0.818   8.439  0.9254 -1.4149 -1.4705
 4961SOL    HW226517   1.434   0.770   8.308  0.5394  1.3772 -1.5129
 4962SOL     OW26518   3.444   2.904   2.727  0.1611  0.0096  0.4195
 4962SOL    HW126519   3.424   2.981   2.781  3.4271  0.2189  1.3453
 4962SOL    HW226520   3.354   2.877   2.707  1.0159 -1.1019 -1.8622
 4963SOL     OW26521   0.405   3.571   2.209 -0.1591 -0.5414 -0.6070
 4963SOL    HW126522   0.478   3.515   2.184 -0.3565  0.1843 -2.8614
 4963SOL    HW226523   0.450   3.652   2.234 -1.9620  0.4468 -0.5489
 4964SOL     OW26524   3.425   1.843   8.416 -0.7174 -0.0026 -0.1178
 4964SOL    HW126525   3.463   1.855   8.503  1.9902  1.9530 -1.5752
 4964SOL    HW226526   3.377   1.762   8.433  0.3355 -1.1704 -2.6833
 4965SOL     OW26527   3.864   2.345  14.748  0.1625 -0.1259  0.7365
 4965SOL    HW126528   3.909   2.379  14.671 -1.9491  0.0189 -0.4380
 4965SOL    HW226529   3.848   2.429  14.792  0.1520 -0.0576  0.6001
 4966SOL     OW26530   2.687   0.544   7.706 -0.2543 -1.1162  0.4226
 4966SOL    HW126531   2.654   0.616   7.759 -0.4805 -0.1458 -1.0451
 4966SOL    HW226532   2.689   0.469   7.766  0.2817 -1.1665  0.3424
 4967SOL     OW26533   0.797   2.929  14.092 -0.2868  0.4641 -0.0834
 4967SOL    HW126534   0.885   2.899  14.071 -0.2375 -0.5677  1.5628
 4967SOL    HW226535   0.816   2.994  14.160 -0.3488  0.6015 -0.1979
 4968SOL     OW26536   1.683   1.481   4.413  0.2310 -0.6340  0.1528
 4968SOL    HW126537   1.735   1.457   4.489 -0.1733 -0.6900  0.4129
 4968SOL    HW226538   1.592   1.463   4.437  0.3150 -3.2789 -1.6613
 4969SOL     OW26539   2.726   4.083  11.425 -0.5702 -0.6695 -0.2382
 4969SOL    HW126540   2.633   4.107  11.435 -0.1087  0.2305  1.8724
 4969SOL    HW226541   2.739   4.113  11.335 -1.7949 -0.1608 -0.2590
 4970SOL     OW26542   0.221   0.093  16.425  1.0158  0.3085 -0.0846
 4970SOL    HW126543   0.250   0.178  16.456  1.1109  0.5954 -0.9686
 4970SOL    HW226544   0.304   0.057  16.394  0.9727  0.7712 -0.7353
 4971SOL     OW26545   1.332   2.820   7.987 -0.0857  0.2411  0.2325
 4971SOL    HW126546   1.268   2.793   7.921 -0.1812  0.0784  0.3887
 4971SOL    HW226547   1.271   2.869   8.043  0.3611  1.6974 -0.5652
 4972SOL     OW26548   3.085   0.004  11.919 -0.4175 -0.0672  0.3267
 4972SOL    HW126549   3.086   0.098  11.901 -1.1515 -0.1110  0.0235
 4972SOL    HW226550   2.996   0.003  11.955 -0.0062 -0.6807  1.3212
 4973SOL     OW26551   2.088   1.196   9.892 -0.0271 -0.0730 -0.0731
 4973SOL    HW126552   2.177   1.172   9.918 -0.6176 -1.1259  0.9518
 4973SOL    HW226553   2.055   1.217   9.979 -1.1511 -2.1787  0.0132
 4974SOL     OW26554   0.079   4.576   4.853 -0.4594 -0.1469  0.1061
 4974SOL    HW126555   0.014   4.607   4.789  0.0246  1.6997  0.5042
 4974SOL    HW226556   0.125   4.657   4.877 -1.4337 -0.2029  2.1878
 4975SOL     OW26557   0.192   1.844   2.632  0.0262  0.2543 -0.2585
 4975SOL    HW126558   0.275   1.807   2.604 -0.0537  0.7503 -1.1349
 4975SOL    HW226559   0.218   1.883   2.716 -2.1643  1.8150 -0.3082
 4976SOL     OW26560   1.825   1.289   8.793  0.3813 -0.6334 -0.4519
 4976SOL    HW126561   1.786   1.264   8.877  0.3181  1.5993  0.1592
 4976SOL    HW226562   1.917   1.280   8.819  0.2708  0.6028  0.3588
 4977SOL     OW26563   0.145   1.891   6.665 -0.1414  0.4200  0.1484
 4977SOL    HW126564   0.094   1.966   6.697 -2.0676 -1.5851  1.8217
 4977SOL    HW226565   0.096   1.878   6.584 -0.9743  2.7168  0.2863
 4978SOL     OW26566   3.718   3.791   5.465  0.0158 -0.4168  0.4223
 4978SOL    HW126567   3.652   3.861   5.464  0.1529 -0.3183 -1.5904
 4978SOL    HW226568   3.717   3.762   5.556 -0.2777  0.4430  0.7003
 4979SOL     OW26569   1.086   2.736   8.665  0.2757 -0.9232 -0.2883
 4979SOL    HW126570   1.118   2.737   8.755  1.5898  0.0168 -0.7611
 4979SOL    HW226571   1.132   2.814   8.632  0.8807 -0.9394  0.5291
 4980SOL     OW26572   4.620   4.141   4.165  0.5943 -0.4032 -0.2290
 4980SOL    HW126573   4.583   4.225   4.192 -0.9435 -0.4444 -2.1680
 4980SOL    HW226574   4.701   4.151   4.215  0.4167  0.3909 -0.1002
 4981SOL     OW26575   2.655   2.509   6.383 -0.5200  0.0967  0.1640
 4981SOL    HW126576   2.744   2.501   6.419 -1.1853  0.1797  1.8092
 4981SOL    HW226577   2.661   2.463   6.299 -0.1078  1.2032 -0.4224
 4982SOL     OW26578   3.291   2.982   8.392 -0.1856 -0.2163 -0.9819
 4982SOL    HW126579   3.203   3.002   8.424 -0.6684 -1.3418 -1.6165
 4982SOL    HW226580   3.270   2.909   8.334  1.2901 -0.5525 -1.0948
 4983SOL     OW26581   4.546   3.007  11.301  0.2085 -0.5937 -0.0263
 4983SOL    HW126582   4.454   2.982  11.292 -0.2997  1.4410 -0.6092
 4983SOL    HW226583   4.571   2.956  11.378  3.4019 -0.6410 -1.1023
 4984SOL     OW26584   4.718   0.479   3.218 -0.4088  0.6309 -0.0041
 4984SOL    HW126585   0.023   0.440   3.296 -0.5742  3.2228  1.3758
 4984SOL    HW226586   4.703   0.409   3.154  0.6959  1.2389 -0.9284
 4985SOL     OW26587   2.762   0.905   8.614  0.0528  0.1177  0.2693
 4985SOL    HW126588   2.796   0.828   8.569 -1.1979  0.3937 -1.1173
 4985SOL    HW226589   2.668   0.891   8.617  0.4753 -2.5572  0.6233
 4986SOL     OW26590   3.521   4.159   6.542  0.5390 -0.1376 -0.2367
 4986SOL    HW126591   3.439   4.174   6.588 -0.7216 -3.8412 -1.2842
 4986SOL    HW226592   3.583   4.154   6.615 -0.8161 -2.8606  0.7311
 4987SOL     OW26593   3.538   3.682   6.939  0.9628 -0.3262  0.2288
 4987SOL    HW126594   3.471   3.633   6.986  1.6724  0.1366  1.7528
 4987SOL    HW226595   3.518   3.775   6.952  0.1264 -0.3231 -1.1195
 4988SOL     OW26596   1.063   0.685   0.612 -0.4740 -0.6099  0.7434
 4988SOL    HW126597   1.124   0.688   0.685  0.1885  0.8929  0.1225
 4988SOL    HW226598   1.012   0.608   0.635  0.4716 -1.0899  1.2347
 4989SOL     OW26599   4.116   4.184   7.889 -0.0232  0.2746  0.4301
 4989SOL    HW126600   4.120   4.088   7.886 -1.6240  0.2161 -0.1891
 4989SOL    HW226601   4.062   4.197   7.967 -0.4538  1.8271 -0.1353
 4990SOL     OW26602   4.728   0.413  13.974 -0.2239 -0.9595  0.3636
 4990SOL    HW126603   4.720   0.508  13.985 -1.3229 -0.9158 -0.7435
 4990SOL    HW226604   4.712   0.404  13.880 -0.5083 -0.8136  0.3953
 4991SOL     OW26605   2.585   3.947   2.821 -0.1109  0.6198  0.0679
 4991SOL    HW126606   2.677   3.948   2.796  0.4652 -2.1570  2.0635
 4991SOL    HW226607   2.581   3.991   2.906  1.6524 -0.1814  0.5579
 4992SOL     OW26608   0.617   2.764   3.174 -0.1276 -0.0814  0.3479
 4992SOL    HW126609   0.524   2.774   3.194 -0.3116  0.3794 -0.7506
 4992SOL    HW226610   0.608   2.814   3.093 -2.1700 -1.2507 -0.1443
 4993SOL     OW26611   3.250   2.176   3.193 -0.3927  0.0940  0.2084
 4993SOL    HW126612   3.225   2.164   3.102 -0.7823  0.3627  0.2771
 4993SOL    HW226613   3.291   2.262   3.185 -1.5574  0.3262 -3.0477
 4994SOL     OW26614   3.228   3.287   9.977  0.0307 -0.4626 -0.2238
 4994SOL    HW126615   3.268   3.235  10.047  0.3491 -1.1170 -0.8900
 4994SOL    HW226616   3.304   3.297   9.919  0.6251 -0.2502  0.5918
 4995SOL     OW26617   4.592   0.927   4.562 -0.1462  0.4377 -0.0370
 4995SOL    HW126618   4.578   0.931   4.467  3.2017  1.3033 -0.5030
 4995SOL    HW226619   4.501   0.913   4.587 -0.2716  1.5069  0.1317
 4996SOL     OW26620   2.634   2.929   3.600  0.3983  0.0567  0.6877
 4996SOL    HW126621   2.576   2.988   3.553  1.4862  0.1516 -0.5374
 4996SOL    HW226622   2.596   2.842   3.589 -1.3428  0.7422  1.3081
 4997SOL     OW26623   0.969   2.449   6.863  0.0144  0.1152 -0.5015
 4997SOL    HW126624   0.987   2.514   6.931  0.2521  0.9942 -1.4107
 4997SOL    HW226625   0.998   2.374   6.916  0.8472  1.5058  1.0248
 4998SOL     OW26626   2.249   4.643  10.864  0.0981  0.8418 -0.6236
 4998SOL    HW126627   2.223   4.576  10.801  1.9471  0.4789 -0.9980
 4998SOL    HW226628   2.165   4.688  10.868 -0.5789 -0.3937 -0.8673
 4999SOL     OW26629   4.221   4.732   3.353  0.4554  0.3931 -0.3744
 4999SOL    HW126630   4.292   4.730   3.417  0.2274  1.0402 -0.0952
 4999SOL    HW226631   4.280   0.000   3.277 -0.4310  1.5525 -1.0274
 5000SOL     OW26632   0.962   0.440   0.610 -0.1455 -0.4983 -0.2538
 5000SOL    HW126633   0.868   0.424   0.619 -0.2211 -0.3878 -0.8446
 5000SOL    HW226634   0.961   0.431   0.514 -1.3383 -1.8855 -0.1169
 5001SOL     OW26635   2.630   0.190   7.709 -0.4556  0.2709  0.5102
 5001SOL    HW126636   2.587   0.258   7.658  1.1476  0.1117 -1.0256
 5001SOL    HW226637   2.621   0.235   7.794  0.6013 -1.3030  1.4564
 5002SOL     OW26638   2.893   1.802   4.404  0.5470 -0.0334  0.2707
 5002SOL    HW126639   2.888   1.760   4.318 -0.2375  0.7190 -0.0598
 5002SOL    HW226640   2.960   1.869   4.389  0.4034  0.0847  0.1460
 5003SOL     OW26641   0.273   1.736  13.115  0.0908 -0.4516 -0.5163
 5003SOL    HW126642   0.255   1.712  13.206  4.0313 -3.6194 -0.5349
 5003SOL    HW226643   0.251   1.829  13.114  1.7817 -0.0384 -0.1282
 5004SOL     OW26644   3.643   0.763  17.191 -0.3691  0.2104  0.2440
 5004SOL    HW126645   3.650   0.794  17.281 -2.8158  0.3321  0.4173
 5004SOL    HW226646   3.700   0.687  17.195 -0.7452  0.0912  3.2122
 5005SOL     OW26647   1.373   2.839   3.503  0.3526 -0.2041  0.0046
 5005SOL    HW126648   1.346   2.930   3.492 -0.8417 -0.4143  1.2511
 5005SOL    HW226649   1.329   2.830   3.588  1.4755  2.0027  0.7910
 5006SOL     OW26650   3.857   2.107  10.754 -0.6207 -0.4403 -0.4775
 5006SOL    HW126651   3.821   2.025  10.788  1.3966 -0.6064  1.2666
 5006SOL    HW226652   3.831   2.171  10.820 -0.9963  0.5510 -1.5730
 5007SOL     OW26653   2.772   3.163   6.018  0.2586  0.0578 -0.1815
 5007SOL    HW126654   2.761   3.258   6.025  0.2601  0.2650 -2.8300
 5007SOL    HW226655   2.791   3.148   6.110 -1.3495 -1.5869 -0.1328
 5008SOL     OW26656   3.924   1.095   6.900  0.0980  0.5430 -0.1369
 5008SOL    HW126657   3.926   1.012   6.852  0.3016 -1.8343  3.9301
 5008SOL    HW226658   3.872   1.071   6.977 -0.5142  1.2712 -0.3251
 5009SOL     OW26659   0.774   3.753  13.546  0.0178 -0.0930  0.1175
 5009SOL    HW126660   0.701   3.769  13.486  1.9318  1.4658 -1.8360
 5009SOL    HW226661   0.751   3.677  13.598  2.3258 -1.0775 -0.2915
 5010SOL     OW26662   0.234   0.884   1.240 -0.0680  0.2810  0.3549
 5010SOL    HW126663   0.275   0.860   1.323 -0.4771  0.7981  0.7089
 5010SOL    HW226664   0.164   0.819   1.237  0.6889 -0.4508 -1.3168
 5011SOL     OW26665   2.446   1.471   1.145  0.0134  0.1356  0.3503
 5011SOL    HW126666   2.538   1.455   1.165 -0.5112 -0.7752  1.9669
 5011SOL    HW226667   2.394   1.440   1.219  0.4297  0.4863  0.7833
 5012SOL     OW26668   2.226   3.635   7.356  0.0946  0.1164 -0.2661
 5012SOL    HW126669   2.136   3.653   7.328 -0.8278 -0.2404  2.5538
 5012SOL    HW226670   2.240   3.557   7.302  1.4591 -0.4345  0.8724
 5013SOL     OW26671   3.808   0.310   1.818  0.1022  0.0845  0.7249
 5013SOL    HW126672   3.836   0.258   1.893 -1.4808 -2.2183 -0.2748
 5013SOL    HW226673   3.877   0.375   1.832  0.7700 -0.4549 -0.0443
 5014SOL     OW26674   3.153   1.107   3.059 -0.0406 -0.2887 -0.5866
 5014SOL    HW126675   3.210   1.128   2.985 -0.5547 -0.3473 -1.0069
 5014SOL    HW226676   3.219   1.087   3.125  0.1991  2.6704  0.0570
 5015SOL     OW26677   1.141   3.497   2.624 -0.0467  0.6578 -0.4049
 5015SOL    HW126678   1.141   3.465   2.534 -0.8223 -3.4155  1.0693
 5015SOL    HW226679   1.234   3.519   2.622  0.3523 -0.7617  3.3192
 5016SOL     OW26680   0.890   2.615  11.828  0.4217 -0.5377 -0.1246
 5016SOL    HW126681   0.920   2.616  11.919 -0.4771  1.7421  0.1444
 5016SOL    HW226682   0.906   2.705  11.800 -1.3349 -0.6797 -1.5568
 5017SOL     OW26683   1.610   0.053   5.806  0.2314  0.4035  0.5410
 5017SOL    HW126684   1.602   0.019   5.716  0.0247 -0.1886  0.7801
 5017SOL    HW226685   1.565   4.718   5.855  1.2473 -0.1090  0.7469
 5018SOL     OW26686   2.438   3.588   4.382  0.2507  0.8464  0.4243
 5018SOL    HW126687   2.362   3.533   4.401  0.0590  1.0421  0.2299
 5018SOL    HW226688   2.443   3.577   4.287 -2.1447  0.8874  0.2966
 5019SOL     OW26689   2.187   3.426   5.772  0.7551  0.0918 -0.1322
 5019SOL    HW126690   2.153   3.366   5.838  1.1110 -1.3459 -1.2627
 5019SOL    HW226691   2.101   3.451   5.738  0.0182 -1.5371  0.5459
 5020SOL     OW26692   3.709   2.957   2.796  0.3454 -0.5563  0.4698
 5020SOL    HW126693   3.625   2.928   2.759 -0.2581  3.7690 -1.5145
 5020SOL    HW226694   3.687   3.050   2.797  1.0243 -0.3953 -0.0307
 5021SOL     OW26695   3.900   1.090   2.651  0.5031 -0.5545  0.2534
 5021SOL    HW126696   3.826   1.033   2.631  0.3917 -0.1907 -0.3563
 5021SOL    HW226697   3.867   1.135   2.728  0.4895 -0.2564  0.0704
 5022SOL     OW26698   0.608   4.176  14.807 -0.1314  0.2594  0.2911
 5022SOL    HW126699   0.661   4.215  14.877 -0.5390 -1.1804  1.4016
 5022SOL    HW226700   0.658   4.201  14.729  0.1554  2.1523  1.0951
 5023SOL     OW26701   1.873   0.726   3.368 -0.2304  0.1696 -0.3731
 5023SOL    HW126702   1.967   0.717   3.357 -0.4056 -2.3912  0.1267
 5023SOL    HW226703   1.861   0.735   3.462 -0.8729  0.2646 -0.4638
 5024SOL     OW26704   0.645   1.884  12.867 -0.1645 -0.3881 -0.2246
 5024SOL    HW126705   0.552   1.864  12.868 -0.1385 -0.4430  1.5608
 5024SOL    HW226706   0.637   1.973  12.903  0.0997  0.1422 -1.5079
 5025SOL     OW26707   4.025   4.316   8.154  0.0447  0.2964  0.5312
 5025SOL    HW126708   4.097   4.350   8.207  1.1697 -1.5242  0.1655
 5025SOL    HW226709   4.001   4.397   8.110 -0.6077  1.2217  2.5927
 5026SOL     OW26710   0.596   2.212   8.436  0.6642  0.2392 -0.4731
 5026SOL    HW126711   0.529   2.146   8.451  0.7189  0.2950  0.0217
 5026SOL    HW226712   0.573   2.244   8.349  0.7091  0.8557 -0.2633
 5027SOL     OW26713   1.054   1.949   2.324 -0.0311  0.1316 -0.1477
 5027SOL    HW126714   1.002   2.000   2.262  0.7764  1.3925  0.1987
 5027SOL    HW226715   1.106   2.017   2.367 -0.5226 -0.7578  1.8965
 5028SOL     OW26716   2.368   2.344   8.070 -0.3393  0.7378 -0.6082
 5028SOL    HW126717   2.344   2.436   8.066 -1.9827  0.3081 -0.4691
 5028SOL    HW226718   2.337   2.331   8.160 -0.3864 -1.6865 -0.9701
 5029SOL     OW26719   0.588   2.311   3.150 -0.9333  0.0354 -0.4695
 5029SOL    HW126720   0.555   2.231   3.109 -0.8702  0.2506 -0.9383
 5029SOL    HW226721   0.556   2.303   3.240 -0.8885 -0.2127 -0.4749
 5030SOL     OW26722   2.994   4.163   6.982 -0.3342 -0.4777  0.4228
 5030SOL    HW126723   3.037   4.119   6.909  2.3158  1.5037  0.7703
 5030SOL    HW226724   2.905   4.186   6.956 -0.9663 -2.0118  1.2596
 5031SOL     OW26725   2.082   3.840  15.868  0.1267 -0.7710 -0.5466
 5031SOL    HW126726   2.008   3.780  15.866 -1.1079  0.7011  0.2067
 5031SOL    HW226727   2.078   3.864  15.961 -0.0322 -0.5460 -0.6105
 5032SOL     OW26728   1.999   1.194  16.633  0.3859 -0.0149  0.3502
 5032SOL    HW126729   2.063   1.208  16.703 -0.3819 -0.2372  1.0822
 5032SOL    HW226730   2.047   1.181  16.551 -1.5251  1.6863 -1.0327
 5033SOL     OW26731   2.947   2.904   2.137  0.0889  0.4314  0.2765
 5033SOL    HW126732   2.943   2.866   2.049  0.9286 -0.3636  0.5796
 5033SOL    HW226733   2.894   2.983   2.126  1.6027  1.6263  1.6457
 5034SOL     OW26734   3.652   1.750   6.849  0.2947 -0.3853 -0.0737
 5034SOL    HW126735   3.737   1.782   6.819  0.2961 -1.2040 -0.9413
 5034SOL    HW226736   3.592   1.783   6.783  1.0586  0.4437 -0.3562
 5035SOL     OW26737   0.252   0.179   7.706  0.3414  0.4457  0.0271
 5035SOL    HW126738   0.265   0.211   7.795  1.0550  2.5385 -0.8338
 5035SOL    HW226739   0.157   0.172   7.708  0.4030  0.1452  1.5186
 5036SOL     OW26740   1.871   2.093   9.010  0.0994  0.2191  0.3484
 5036SOL    HW126741   1.955   2.050   8.991 -0.2532 -0.4067  0.1800
 5036SOL    HW226742   1.872   2.108   9.104 -2.0382 -0.9830  0.5636
 5037SOL     OW26743   0.947   2.750   8.329 -0.4786 -0.5971  0.4486
 5037SOL    HW126744   1.006   2.699   8.274  0.6428  0.0621  1.0189
 5037SOL    HW226745   1.013   2.803   8.375 -2.0659  2.2776 -0.5661
 5038SOL     OW26746   3.928   2.720  17.033  0.4542  0.1344 -0.5251
 5038SOL    HW126747   3.939   2.760  16.947 -1.5781 -0.1735 -0.9230
 5038SOL    HW226748   3.833   2.730  17.035  0.3919 -0.2161 -1.6224
 5039SOL     OW26749   1.333   4.220  17.594  0.7206 -0.2866 -0.2797
 5039SOL    HW126750   1.238   4.231  17.599  0.7692 -0.3373  0.6760
 5039SOL    HW226751   1.360   4.285  17.658  0.9907 -2.5128  1.8809
 5040SOL     OW26752   1.632   4.444   8.810  0.7971 -1.0348 -0.5081
 5040SOL    HW126753   1.725   4.436   8.830  0.8819  1.3484  0.0130
 5040SOL    HW226754   1.624   4.379   8.740  0.7696 -1.7024  0.1050
 5041SOL     OW26755   3.596   4.392   3.236 -0.0121 -0.3071  0.3403
 5041SOL    HW126756   3.517   4.428   3.196 -0.2105 -2.0806 -0.8697
 5041SOL    HW226757   3.561   4.310   3.273  1.7295 -1.7644 -1.2591
 5042SOL     OW26758   1.840   0.873  11.637 -0.0319 -0.3444  0.0615
 5042SOL    HW126759   1.747   0.897  11.637  0.5057  1.6912  0.4779
 5042SOL    HW226760   1.861   0.888  11.729 -0.9412 -0.5034  0.2969
 5043SOL     OW26761   2.229   3.949  15.530  0.1754  0.3886  0.7234
 5043SOL    HW126762   2.150   3.957  15.476  0.9173  0.7587 -0.3000
 5043SOL    HW226763   2.227   4.031  15.580 -1.0331  0.2473  0.9148
 5044SOL     OW26764   4.589   2.374   4.269  0.0466 -0.2414 -0.0863
 5044SOL    HW126765   4.634   2.429   4.333  0.2497 -0.1646 -0.2970
 5044SOL    HW226766   4.566   2.292   4.313 -0.3013 -0.0654  0.0609
 5045SOL     OW26767   0.872   3.772   3.648 -0.0312 -0.7641 -0.1804
 5045SOL    HW126768   0.946   3.832   3.656 -1.1628  0.6436 -0.1926
 5045SOL    HW226769   0.876   3.714   3.724  0.2905  0.3635  0.6588
 5046SOL     OW26770   4.293   1.499   6.425  0.3010 -0.1137 -0.8347
 5046SOL    HW126771   4.385   1.484   6.450 -0.1739  1.3318  1.8101
 5046SOL    HW226772   4.294   1.592   6.399  2.3421  0.2726  0.5728
 5047SOL     OW26773   0.315   3.332   7.625  0.1452 -0.7243  0.5044
 5047SOL    HW126774   0.383   3.265   7.629  0.1400 -0.6628  1.5510
 5047SOL    HW226775   0.243   3.286   7.583 -1.1046  1.7641 -0.0911
 5048SOL     OW26776   1.434   2.761   5.062 -0.5279 -0.5809  0.1344
 5048SOL    HW126777   1.422   2.855   5.049  0.0408 -0.3360  1.4186
 5048SOL    HW226778   1.528   2.752   5.049 -0.6379 -0.3499 -0.7890
 5049SOL     OW26779   2.711   1.113   2.192  0.2330 -0.4173 -0.2462
 5049SOL    HW126780   2.636   1.074   2.148  0.8995  0.3027 -2.0249
 5049SOL    HW226781   2.702   1.206   2.171  1.6590  0.0254  1.1880
 5050SOL     OW26782   3.360   3.678   4.406  0.3348  0.2954 -0.1205
 5050SOL    HW126783   3.438   3.733   4.409  1.4204 -1.3225  1.5806
 5050SOL    HW226784   3.356   3.653   4.314 -0.4916 -1.8899  0.5050
 5051SOL     OW26785   2.224   4.542   6.389  0.2797  0.0416 -0.2808
 5051SOL    HW126786   2.220   4.485   6.466  1.6980  0.3165 -0.0059
 5051SOL    HW226787   2.232   4.489   6.309  0.8350  0.0852 -0.2538
 5052SOL     OW26788   1.461   0.288   1.113 -0.4460 -0.6912 -0.3848
 5052SOL    HW126789   1.414   0.223   1.061 -3.1542  0.5746  0.4852
 5052SOL    HW226790   1.410   0.299   1.193  0.5228 -0.4951  0.2097
 5053SOL     OW26791   3.729   2.163   9.523  0.4187  0.4368 -0.1586
 5053SOL    HW126792   3.706   2.094   9.584  0.9858 -1.4273 -2.0574
 5053SOL    HW226793   3.695   2.242   9.565 -0.8033 -0.0437 -0.2679
 5054SOL     OW26794   3.819   0.358   8.105  0.2557  0.2331 -0.4051
 5054SOL    HW126795   3.867   0.440   8.097 -0.7205  0.8274 -0.1107
 5054SOL    HW226796   3.834   0.341   8.198 -1.9628 -0.0774 -0.1037
 5055SOL     OW26797   2.248   2.660  17.557 -0.1616  0.1302 -0.1587
 5055SOL    HW126798   2.275   2.574  17.587  0.1693  1.0873  2.2560
 5055SOL    HW226799   2.156   2.655  17.531 -0.2148  2.2645 -0.4062
 5056SOL     OW26800   2.506   0.450   4.378 -0.1796 -0.5054 -0.4297
 5056SOL    HW126801   2.540   0.422   4.293 -1.0798 -1.5642 -0.4388
 5056SOL    HW226802   2.412   0.443   4.360 -0.9584  1.5231  2.7439
 5057SOL     OW26803   4.648   1.155   3.646  0.1318 -0.0919  0.4936
 5057SOL    HW126804   4.608   1.077   3.607  0.3860  0.3039 -0.5743
 5057SOL    HW226805   4.592   1.176   3.720 -1.6917 -2.6412 -0.1471
 5058SOL     OW26806   3.053   2.337   8.766 -0.0421 -0.0933  0.3223
 5058SOL    HW126807   3.129   2.391   8.743 -0.1486  0.4715  1.3215
 5058SOL    HW226808   3.029   2.358   8.856  1.2007 -2.5960  1.2174
 5059SOL     OW26809   4.143   2.903   7.011 -0.3812  0.1911  0.1748
 5059SOL    HW126810   4.093   2.846   6.952  0.5573  1.2645 -1.6364
 5059SOL    HW226811   4.128   2.851   7.091 -2.0367 -1.2529 -1.0637
 5060SOL     OW26812   3.725   0.039   3.911 -0.5564 -0.5007  0.2740
 5060SOL    HW126813   3.800   0.058   3.854 -1.4706 -0.8447 -1.0411
 5060SOL    HW226814   3.703   0.130   3.932 -0.1740 -0.3799  0.1659
 5061SOL     OW26815   1.472   4.249   5.976 -0.1853  0.7069 -0.6454
 5061SOL    HW126816   1.477   4.260   6.071  1.1004  0.0970 -0.6427
 5061SOL    HW226817   1.557   4.208   5.964  0.1032  1.7505 -2.2416
 5062SOL     OW26818   2.757   4.185  13.934 -0.5211  0.2246  0.1614
 5062SOL    HW126819   2.846   4.152  13.930 -0.4839  0.6805 -3.4710
 5062SOL    HW226820   2.706   4.119  13.886  1.5814 -0.4014 -1.2051
 5063SOL     OW26821   1.852   0.462  11.923  0.7626 -0.1079 -0.4199
 5063SOL    HW126822   1.861   0.531  11.856 -1.6950  0.4273 -0.1700
 5063SOL    HW226823   1.878   0.389  11.866  0.9282  0.3591 -0.9503
 5064SOL     OW26824   3.939   1.724   8.696  0.2347 -0.0049  0.2490
 5064SOL    HW126825   3.870   1.769   8.648  0.0708 -3.0481 -2.3501
 5064SOL    HW226826   3.891   1.679   8.765  1.6641 -0.1810  1.1392
 5065SOL     OW26827   2.094   0.954   4.749  0.1642  0.5420  0.9289
 5065SOL    HW126828   2.119   1.011   4.676  0.7885 -1.8859 -0.7609
 5065SOL    HW226829   2.178   0.914   4.771 -0.0484  0.6697  1.9818
 5066SOL     OW26830   0.349   0.890   2.390  0.5125  0.1253 -0.2584
 5066SOL    HW126831   0.356   0.958   2.458 -1.0130 -0.1287  0.1706
 5066SOL    HW226832   0.358   0.936   2.306  0.5197 -0.1432 -0.4021
 5067SOL     OW26833   0.862   3.222   8.424 -0.1675  0.4714  0.1836
 5067SOL    HW126834   0.831   3.252   8.509 -0.5350  5.0917 -1.6031
 5067SOL    HW226835   0.776   3.209   8.383 -0.4165  0.8140  0.6072
 5068SOL     OW26836   0.244   1.496   3.408 -0.1984 -0.6625  0.5222
 5068SOL    HW126837   0.151   1.475   3.401 -0.3246 -0.6962  2.2848
 5068SOL    HW226838   0.277   1.411   3.379  0.9076  0.0733 -0.3912
 5069SOL     OW26839   3.039   2.842   9.107  0.5533  0.2378  0.4580
 5069SOL    HW126840   2.950   2.815   9.132  0.7610 -0.2970  0.6118
 5069SOL    HW226841   3.037   2.795   9.024 -0.3615  1.8468 -0.4287
 5070SOL     OW26842   3.507   0.493   3.624  0.2411  0.0240  0.0221
 5070SOL    HW126843   3.417   0.495   3.656  0.1039  0.7891 -0.4201
 5070SOL    HW226844   3.507   0.521   3.533 -0.8740 -1.0735 -0.3132
 5071SOL     OW26845   2.886   4.434  11.826 -0.8373 -0.2220 -0.5004
 5071SOL    HW126846   2.850   4.361  11.776 -1.9858 -0.4587  0.6678
 5071SOL    HW226847   2.956   4.462  11.766  0.7835 -0.4939  1.2758
 5072SOL     OW26848   4.209   0.777  15.065  0.0109 -0.1142 -0.7152
 5072SOL    HW126849   4.276   0.714  15.092 -1.3370 -0.9396  0.7027
 5072SOL    HW226850   4.132   0.747  15.114  1.1374 -1.6657  0.1102
 5073SOL     OW26851   4.542   1.898   7.646  0.5640 -0.2497  0.0157
 5073SOL    HW126852   4.565   1.938   7.562 -2.7339  0.2778 -0.6619
 5073SOL    HW226853   4.580   1.812   7.631 -0.0955 -0.0631 -2.8927
 5074SOL     OW26854   2.480   4.064   5.846 -0.3707 -0.0534  0.3192
 5074SOL    HW126855   2.556   4.121   5.834 -1.4648  1.2326 -0.5819
 5074SOL    HW226856   2.402   4.120   5.850 -0.7471 -0.5275 -0.3428
 5075SOL     OW26857   4.463   0.388   5.149 -0.9946 -0.0549  0.1947
 5075SOL    HW126858   4.484   0.295   5.146  0.0018  0.1546  0.8746
 5075SOL    HW226859   4.441   0.406   5.240  0.2666 -3.7758  1.2496
 5076SOL     OW26860   0.538   1.824   7.508 -0.0967  0.3693  1.1335
 5076SOL    HW126861   0.600   1.862   7.571 -0.7142 -1.3677  2.8023
 5076SOL    HW226862   0.575   1.736   7.502  0.2777  0.5818  0.3781
 5077SOL     OW26863   2.140   2.972   2.203 -0.6714 -0.2002  0.0430
 5077SOL    HW126864   2.092   2.945   2.124 -1.1089  1.4237 -0.2424
 5077SOL    HW226865   2.071   3.024   2.243 -1.8121 -1.3963 -0.3882
 5078SOL     OW26866   1.052   2.011   9.461  0.7965 -0.0425  0.2412
 5078SOL    HW126867   1.032   2.036   9.551 -0.9695  1.1362 -0.4613
 5078SOL    HW226868   0.990   2.066   9.412  0.2876 -0.3965  0.4925
 5079SOL     OW26869   1.746   1.054  10.510 -0.2578  0.1402  0.1612
 5079SOL    HW126870   1.714   1.145  10.509  0.8183  0.5226  0.1942
 5079SOL    HW226871   1.662   1.011  10.500  0.7234 -1.7613  0.0556
 5080SOL     OW26872   2.063   1.538   5.829 -0.1879 -0.5841 -0.1689
 5080SOL    HW126873   2.099   1.487   5.756  1.7685 -1.7629  1.6344
 5080SOL    HW226874   1.996   1.585   5.778  1.6396 -0.8199 -2.8007
 5081SOL     OW26875   2.429   4.206  11.743 -0.3305 -0.0166  0.5882
 5081SOL    HW126876   2.420   4.264  11.819 -1.1496 -1.1735  1.3661
 5081SOL    HW226877   2.430   4.118  11.781 -3.7612  0.0954  0.8600
 5082SOL     OW26878   1.599   4.191   5.249  0.1681 -0.0366 -0.3995
 5082SOL    HW126879   1.599   4.181   5.344 -0.0690  1.6658 -0.2256
 5082SOL    HW226880   1.545   4.268   5.235  0.2913  0.4476  1.7057
 5083SOL     OW26881   1.396   4.556   7.902  0.3540  0.5865  0.3535
 5083SOL    HW126882   1.345   4.561   7.983 -2.0612  2.3571 -1.2544
 5083SOL    HW226883   1.354   4.495   7.840  1.9320  0.4814 -0.5921
 5084SOL     OW26884   4.110   0.085   9.957 -0.4534 -0.3687 -0.4214
 5084SOL    HW126885   4.073   0.134   9.883 -0.0746 -0.0483 -0.4011
 5084SOL    HW226886   4.043   0.113  10.019  0.2167  0.6852 -0.1521
 5085SOL     OW26887   4.496   3.170   1.592  0.7963  0.5007  0.1899
 5085SOL    HW126888   4.532   3.103   1.534  0.9803  0.4400  0.3717
 5085SOL    HW226889   4.408   3.134   1.606  0.8617  0.1130 -0.3893
 5086SOL     OW26890   2.903   3.457   2.774  0.2040 -0.2447  0.4352
 5086SOL    HW126891   2.899   3.362   2.771 -0.5269 -0.1312 -2.3619
 5086SOL    HW226892   2.857   3.485   2.853 -1.5883 -0.1347 -0.6392
 5087SOL     OW26893   1.030   0.497   7.261 -0.0025  0.0119  0.1374
 5087SOL    HW126894   0.967   0.551   7.214 -0.2338 -1.3148 -1.0536
 5087SOL    HW226895   1.048   0.417   7.212  0.6081  0.0596  0.2842
 5088SOL     OW26896   3.860   0.549   6.226  0.4241 -0.3059 -0.8688
 5088SOL    HW126897   3.922   0.563   6.153 -0.2191  2.5498 -0.8590
 5088SOL    HW226898   3.916   0.572   6.300  0.6960 -0.3133 -1.0671
 5089SOL     OW26899   0.192   4.463   3.965 -0.1232  0.3791 -0.2086
 5089SOL    HW126900   0.206   4.555   3.941 -0.5377  0.2336 -0.9881
 5089SOL    HW226901   0.228   4.412   3.893  0.5500  1.4038 -0.6055
 5090SOL     OW26902   4.190   3.938   7.885 -0.0146 -0.0545  0.2519
 5090SOL    HW126903   4.279   3.972   7.896  0.4846 -1.8645  1.7738
 5090SOL    HW226904   4.208   3.868   7.823 -2.0980  0.5571 -1.0314
 5091SOL     OW26905   2.938   4.453  11.315  0.2555  0.1009  0.0723
 5091SOL    HW126906   2.972   4.364  11.325  0.1798  0.0389 -0.2187
 5091SOL    HW226907   2.999   4.492  11.252  0.4474 -1.1861 -0.5345
 5092SOL     OW26908   2.208   0.368  11.913 -0.3458  0.1417  0.4128
 5092SOL    HW126909   2.183   0.305  11.981 -1.4397 -1.9881 -1.9442
 5092SOL    HW226910   2.143   0.344  11.847  1.0347  1.1184 -1.3042
 5093SOL     OW26911   3.854   3.270   5.677 -0.0991  0.0141  0.0883
 5093SOL    HW126912   3.788   3.325   5.634  1.4210  1.0872 -0.8573
 5093SOL    HW226913   3.837   3.299   5.767  0.8121 -1.4402  0.7323
 5094SOL     OW26914   1.978   1.683   4.905  0.2622 -0.4475 -0.1410
 5094SOL    HW126915   1.945   1.769   4.930 -0.3484 -1.0649  1.2135
 5094SOL    HW226916   1.904   1.627   4.881  0.0550  0.0665 -0.6939
 5095SOL     OW26917   0.154   1.838   9.098  0.1155 -0.2013  0.5586
 5095SOL    HW126918   0.147   1.817   9.191  2.4121 -1.5158  0.4153
 5095SOL    HW226919   0.213   1.913   9.094  0.2470 -0.3318  0.0303
 5096SOL     OW26920   2.149   1.294   7.206  0.5150 -0.5920  1.4396
 5096SOL    HW126921   2.135   1.381   7.244 -0.4840 -0.8120  1.5819
 5096SOL    HW226922   2.240   1.305   7.179 -0.0270 -0.7836 -0.4222
 5097SOL     OW26923   2.048   2.348  17.690 -0.2763  0.4764  0.5081
 5097SOL    HW126924   1.975   2.352   0.016 -0.1001  1.2090  0.6770
 5097SOL    HW226925   2.046   2.442  17.672 -0.8302  0.1601 -1.0335
 5098SOL     OW26926   2.755   4.724  12.745 -0.5257 -0.5640  0.2834
 5098SOL    HW126927   2.826   4.703  12.684  0.0090  1.6763  0.1700
 5098SOL    HW226928   2.767   0.083  12.759  1.0934 -1.0337  1.9605
 5099SOL     OW26929   1.895   4.232   6.910 -0.1939  0.5189  0.1698
 5099SOL    HW126930   1.917   4.238   6.817 -4.3480  0.1144 -0.8232
 5099SOL    HW226931   1.805   4.263   6.909 -1.5545 -3.3433 -0.3951
 5100SOL     OW26932   3.143   0.418   6.247  0.5474  0.9065 -0.3146
 5100SOL    HW126933   3.199   0.479   6.198 -0.5395  2.0441 -0.1396
 5100SOL    HW226934   3.058   0.457   6.224  0.0259  0.6546  1.2066
 5101SOL     OW26935   3.115   0.322   1.515 -0.3349 -1.3807 -0.0083
 5101SOL    HW126936   3.051   0.252   1.524 -0.9592 -0.7979  0.1135
 5101SOL    HW226937   3.180   0.283   1.456  2.3813 -1.1816  2.8759
 5102SOL     OW26938   3.552   3.716   2.919  0.5125 -0.1940 -0.9350
 5102SOL    HW126939   3.528   3.637   2.967 -0.9812  0.8640  0.0478
 5102SOL    HW226940   3.494   3.716   2.843 -1.7638  1.0641  0.7750
 5103SOL     OW26941   0.923   2.338   8.241  0.0861 -0.3254  0.2977
 5103SOL    HW126942   0.988   2.299   8.300 -1.3972 -1.9281  0.8651
 5103SOL    HW226943   0.970   2.326   8.159 -1.6575 -0.8360 -0.6056
 5104SOL     OW26944   3.272   3.793   6.732 -0.3267  0.3439 -0.2441
 5104SOL    HW126945   3.283   3.725   6.666 -2.1865 -0.7585  0.5981
 5104SOL    HW226946   3.227   3.749   6.804 -2.2527  0.9407 -1.1027
 5105SOL     OW26947   0.223   0.457   1.620  0.1955 -0.0809 -0.1153
 5105SOL    HW126948   0.191   0.449   1.709  1.2557 -0.3679  0.2422
 5105SOL    HW226949   0.307   0.495   1.645  0.2918 -1.0866  1.0548
 5106SOL     OW26950   3.804   2.930   2.054 -0.5630  0.3359 -0.3936
 5106SOL    HW126951   3.882   2.876   2.061 -1.2256 -0.6601 -0.7359
 5106SOL    HW226952   3.802   2.968   2.142 -1.3698  1.7742 -1.0273
 5107SOL     OW26953   3.045   3.932  15.622  0.0612 -0.3000 -0.0615
 5107SOL    HW126954   2.973   3.917  15.561  1.3945 -0.3572 -1.6432
 5107SOL    HW226955   3.112   3.961  15.560  0.6415  1.9598  1.6241
 5108SOL     OW26956   3.588   4.165   2.134  0.1760 -0.1341  0.3503
 5108SOL    HW126957   3.531   4.184   2.060  1.4400 -1.6087 -1.0240
 5108SOL    HW226958   3.531   4.145   2.208 -1.3713 -1.6466 -1.2720
 5109SOL     OW26959   3.360   4.517   3.464  0.4901  0.3102  0.2270
 5109SOL    HW126960   3.304   4.459   3.516 -1.0538  0.3524 -1.3792
 5109SOL    HW226961   3.444   4.472   3.468  1.4376  2.0390 -0.3646
 5110SOL     OW26962   0.465   3.713   9.268  0.0860 -0.3015 -0.5245
 5110SOL    HW126963   0.513   3.745   9.192  1.7955  0.1927  0.7742
 5110SOL    HW226964   0.394   3.776   9.280  0.6318 -0.1347  1.8183
 5111SOL     OW26965   3.665   3.908   3.116 -0.3614  0.5981  0.0937
 5111SOL    HW126966   3.641   3.844   3.184  1.1357  2.2582  2.2025
 5111SOL    HW226967   3.608   3.888   3.042 -0.9479 -1.4457  1.0947
 5112SOL     OW26968   2.343   3.909  13.459 -0.3210  0.2880 -0.3600
 5112SOL    HW126969   2.402   3.965  13.510 -1.0954 -0.8600  1.8254
 5112SOL    HW226970   2.284   3.878  13.528  0.5479 -1.1575 -0.2694
 5113SOL     OW26971   3.526   0.212   7.175 -0.0520  0.0012  0.1572
 5113SOL    HW126972   3.479   0.276   7.228  0.6366  0.3479  0.3423
 5113SOL    HW226973   3.458   0.151   7.144  0.8080 -0.2052 -1.3251
 5114SOL     OW26974   1.860   0.243   5.317 -0.0246  0.3144  0.5696
 5114SOL    HW126975   1.856   0.176   5.248  0.2459 -0.2477  1.0936
 5114SOL    HW226976   1.955   0.234   5.330 -0.2678  0.7139  2.5153
 5115SOL     OW26977   0.107   4.122  12.929 -0.3584  0.3053 -0.2920
 5115SOL    HW126978   0.088   4.145  13.020 -1.6449 -0.2798 -0.4087
 5115SOL    HW226979   0.164   4.195  12.903 -3.5045  3.3690  1.3107
 5116SOL     OW26980   1.011   1.589   9.104  0.1084 -0.3601 -0.3123
 5116SOL    HW126981   0.973   1.508   9.070 -0.2125 -0.6874  0.7999
 5116SOL    HW226982   1.019   1.559   9.195 -0.2835 -0.6595 -0.3790
 5117SOL     OW26983   0.330   4.013   2.877  0.1395 -0.4203 -0.1880
 5117SOL    HW126984   0.344   3.992   2.785 -1.6410  0.6869 -0.7097
 5117SOL    HW226985   0.253   3.957   2.881  0.4126 -0.8431 -0.9378
 5118SOL     OW26986   2.901   0.829   2.538  0.1174 -0.0885  0.2242
 5118SOL    HW126987   2.861   0.743   2.546  2.4842 -0.9633  2.6300
 5118SOL    HW226988   2.864   0.858   2.454 -2.2194 -0.2762  1.1985
 5119SOL     OW26989   2.089   3.022   3.596  0.2323 -0.5313 -0.3343
 5119SOL    HW126990   2.014   2.996   3.649  1.7201  0.9739  2.4712
 5119SOL    HW226991   2.058   3.011   3.506  0.8528 -1.2244 -0.4706
 5120SOL     OW26992   0.439   4.425   8.309  0.1853  0.1719 -0.1552
 5120SOL    HW126993   0.439   4.365   8.234 -1.0545  0.9075 -0.7442
 5120SOL    HW226994   0.372   4.388   8.366  0.7251 -1.0244 -0.2924
 5121SOL     OW26995   0.283   4.319   6.589  0.3964  0.4698  0.3060
 5121SOL    HW126996   0.297   4.267   6.510 -0.8187 -0.5672  0.7734
 5121SOL    HW226997   0.231   4.396   6.566  1.1724  0.6538 -0.8549
 5122SOL     OW26998   1.031   1.170  16.875  0.0768 -0.2177  0.7310
 5122SOL    HW126999   0.974   1.163  16.951 -0.4775 -5.6885 -0.1641
 5122SOL    HW227000   1.093   1.239  16.901  0.9708 -1.0662  0.8709
 5123SOL     OW27001   3.776   1.154   2.147 -0.7955 -0.0173 -0.1992
 5123SOL    HW127002   3.695   1.113   2.177 -0.6446 -0.9335 -1.0307
 5123SOL    HW227003   3.793   1.115   2.061 -0.6727 -1.2124  0.3728
 5124SOL     OW27004   2.336   2.787   3.648  0.1639 -0.0387  0.1720
 5124SOL    HW127005   2.357   2.815   3.737 -0.7085 -1.0343  0.7019
 5124SOL    HW227006   2.320   2.863   3.592 -0.2680  0.1379  0.5370
 5125SOL     OW27007   2.258   3.274   1.260  0.0597 -0.5368 -0.4410
 5125SOL    HW127008   2.311   3.197   1.240  0.4020 -0.7142  1.1273
 5125SOL    HW227009   2.269   3.269   1.355 -2.1725  0.1560 -0.1312
 5126SOL     OW27010   2.697   1.883   6.056 -0.1374 -0.4377 -0.9148
 5126SOL    HW127011   2.757   1.958   6.051  0.7828 -1.1152 -0.2409
 5126SOL    HW227012   2.623   1.930   6.093 -0.2727 -1.2607 -0.1168
 5127SOL     OW27013   0.092   1.309   2.216  0.5703  0.5319 -0.3180
 5127SOL    HW127014   0.130   1.240   2.161 -4.0957 -0.3601 -2.4972
 5127SOL    HW227015   0.072   1.257   2.293  1.8221  0.4156 -0.0775
 5128SOL     OW27016   2.879   1.454   8.470 -0.0911 -0.0248 -0.0811
 5128SOL    HW127017   2.905   1.394   8.540  1.8823  2.9672  1.7393
 5128SOL    HW227018   2.944   1.430   8.404 -1.5315 -2.2046 -0.7021
 5129SOL     OW27019   2.637   4.454   3.514  0.4080  0.0691 -0.1874
 5129SOL    HW127020   2.562   4.488   3.465 -0.0876 -2.6821 -1.2880
 5129SOL    HW227021   2.603   4.367   3.532  1.3522 -0.6988 -2.0996
 5130SOL     OW27022   2.435   2.817   3.339 -0.0400  0.5044  0.3974
 5130SOL    HW127023   2.433   2.892   3.398 -4.4129  0.8020 -0.1335
 5130SOL    HW227024   2.488   2.758   3.394  0.8302 -0.9125 -1.9823
 5131SOL     OW27025   1.056   3.638   1.840  0.2634  0.1863  0.7086
 5131SOL    HW127026   0.966   3.669   1.834  0.7629  1.4115 -0.6895
 5131SOL    HW227027   1.096   3.717   1.804  3.2426 -2.3282 -1.5882
 5132SOL     OW27028   1.699   0.240   1.243 -0.4160  0.1117 -0.6645
 5132SOL    HW127029   1.651   0.253   1.162  0.5130  0.3665 -1.1807
 5132SOL    HW227030   1.639   0.190   1.298 -0.9955  0.9725 -0.5134
 5133SOL     OW27031   3.447   4.110   7.802  0.0210  0.2728 -0.6619
 5133SOL    HW127032   3.375   4.156   7.761  0.2736 -0.1167 -1.5273
 5133SOL    HW227033   3.517   4.162   7.763  1.7219 -0.6397  1.1182
 5134SOL     OW27034   1.784   1.617   3.433  0.0852  0.1214  0.2850
 5134SOL    HW127035   1.700   1.664   3.435  0.8499  1.4361  2.2764
 5134SOL    HW227036   1.739   1.533   3.429  0.2027  0.1475 -1.3998
 5135SOL     OW27037   0.546   1.134  14.158 -0.0691  0.0597 -0.6757
 5135SOL    HW127038   0.457   1.168  14.150  0.1857  0.7704 -0.5313
 5135SOL    HW227039   0.590   1.212  14.191 -0.5960  0.3296 -0.6040
 5136SOL     OW27040   0.934   4.234  10.752 -0.4986 -0.6578 -0.1855
 5136SOL    HW127041   1.005   4.169  10.752 -0.2098 -0.3445 -1.0184
 5136SOL    HW227042   0.977   4.309  10.794  0.7178 -1.1161 -0.5980
 5137SOL     OW27043   1.283   3.867   4.558 -0.5718  0.5455  0.7013
 5137SOL    HW127044   1.296   3.807   4.632 -1.5239 -0.6988 -0.1442
 5137SOL    HW227045   1.208   3.820   4.521  0.2142  0.3152 -0.6037
 5138SOL     OW27046   1.732   1.160   9.852  0.1763  0.2419 -0.5710
 5138SOL    HW127047   1.641   1.169   9.824 -0.0395  1.2502  0.4859
 5138SOL    HW227048   1.779   1.207   9.783 -0.5857  0.2912 -1.0497
 5139SOL     OW27049   4.635   1.533  16.233  0.1882  0.5521  0.1312
 5139SOL    HW127050   4.611   1.445  16.203  0.9179  0.7714 -1.1103
 5139SOL    HW227051   4.688   1.562  16.159 -0.8341  0.2992 -0.7023
 5140SOL     OW27052   1.034   1.898   7.599 -0.2053  0.4364  0.3137
 5140SOL    HW127053   1.010   1.979   7.554 -0.9314 -0.1560 -0.3577
 5140SOL    HW227054   0.983   1.840   7.543 -1.5499  1.4190  0.5153
 5141SOL     OW27055   4.626   1.800   9.021  0.3986 -0.6742  0.6238
 5141SOL    HW127056   4.605   1.893   9.007  0.2599 -0.1930  4.1173
 5141SOL    HW227057   4.721   1.809   9.033  0.3295  0.2927  0.4842
 5142SOL     OW27058   4.438   0.973  15.179 -0.3498 -0.6754  0.3287
 5142SOL    HW127059   4.414   0.893  15.133  0.1857 -0.3124 -0.5954
 5142SOL    HW227060   4.433   1.044  15.115 -1.5987 -0.0673  1.1066
 5143SOL     OW27061   3.256   1.323   4.527  0.3444  0.6838 -0.2508
 5143SOL    HW127062   3.178   1.272   4.506  2.2476 -1.9100 -0.9984
 5143SOL    HW227063   3.298   1.321   4.441  1.1096 -2.2268  0.1862
 5144SOL     OW27064   0.180   3.076   4.419  0.0146 -0.7358  0.0079
 5144SOL    HW127065   0.208   2.994   4.378  0.4004  0.2808 -1.7722
 5144SOL    HW227066   0.198   3.148   4.359  0.4915 -0.5170  0.4110
 5145SOL     OW27067   1.138   0.981  10.851  0.1436  0.3502 -0.2528
 5145SOL    HW127068   1.171   1.035  10.780  0.1139  1.1488  0.3437
 5145SOL    HW227069   1.104   1.037  10.921 -0.5198 -1.6825  1.0553
 5146SOL     OW27070   3.092   2.488   9.849 -0.0768  1.0242  0.3736
 5146SOL    HW127071   3.038   2.544   9.793 -0.7808 -0.4109 -0.3918
 5146SOL    HW227072   3.179   2.488   9.810  0.1632 -0.5251  0.9022
 5147SOL     OW27073   4.050   0.651   6.829  0.2470 -0.5891 -0.4956
 5147SOL    HW127074   3.975   0.710   6.839 -0.1915 -1.2638  0.1882
 5147SOL    HW227075   4.016   0.581   6.885 -0.0535  0.1995  0.2996
 5148SOL     OW27076   3.069   3.285   5.694 -0.0507  0.1903 -0.2093
 5148SOL    HW127077   3.051   3.235   5.614 -0.0481  1.2627 -0.8793
 5148SOL    HW227078   3.107   3.215   5.747  0.5644  0.8174  0.1681
 5149SOL     OW27079   4.644   4.159   7.161  0.0158 -0.4871  0.3890
 5149SOL    HW127080   4.708   4.229   7.145  2.8629 -3.1748  0.1386
 5149SOL    HW227081   4.623   4.167   7.254  1.1662 -2.0560  0.7832
 5150SOL     OW27082   0.872   2.308   8.824  0.0450  0.1176  0.4358
 5150SOL    HW127083   0.819   2.328   8.747 -1.8582 -1.2049  1.4019
 5150SOL    HW227084   0.815   2.323   8.900 -0.0384  0.2885  0.3399
 5151SOL     OW27085   4.458   0.432  11.512 -0.1888  0.0198  0.8218
 5151SOL    HW127086   4.410   0.438  11.595 -1.9382 -0.2286 -0.1873
 5151SOL    HW227087   4.539   0.392  11.544  0.6242  1.0541  0.0581
 5152SOL     OW27088   3.680   3.497   9.881  0.2929  0.3071 -0.1447
 5152SOL    HW127089   3.698   3.474   9.790  0.6383 -0.4081  0.1112
 5152SOL    HW227090   3.667   3.592   9.871  0.2901  0.4428  1.2379
 5153SOL     OW27091   4.250   3.514   7.367 -0.0773  0.0162  0.2861
 5153SOL    HW127092   4.228   3.526   7.275 -0.0063 -2.3390 -0.0117
 5153SOL    HW227093   4.183   3.449   7.387  1.5740 -2.1300 -1.1345
 5154SOL     OW27094   2.983   1.027   4.798 -0.0308  0.5516 -0.0285
 5154SOL    HW127095   2.979   1.122   4.805 -2.3106  0.4043  0.6916
 5154SOL    HW227096   2.910   0.998   4.743 -0.4926 -3.1318  2.5981
 5155SOL     OW27097   2.266   0.187  11.359  0.0423 -0.1503 -0.8878
 5155SOL    HW127098   2.292   0.160  11.271 -0.1151  1.2542 -1.3631
 5155SOL    HW227099   2.327   0.134  11.412 -0.2423 -0.6575 -1.0618
 5156SOL     OW27100   2.720   2.150   6.603 -0.0189 -0.9464  0.5046
 5156SOL    HW127101   2.734   2.244   6.616  0.7556 -1.0075  0.1003
 5156SOL    HW227102   2.738   2.137   6.510 -0.7326 -0.2910  0.2730
 5157SOL     OW27103   1.334   1.441   8.433  0.6001  0.8833  0.6149
 5157SOL    HW127104   1.298   1.445   8.522  0.2656 -0.1491  0.5283
 5157SOL    HW227105   1.408   1.384   8.455  0.4015  0.4810  0.2257
 5158SOL     OW27106   1.341   1.414   9.716 -0.0849 -0.0351 -0.2587
 5158SOL    HW127107   1.433   1.432   9.697 -0.5876  2.9256  0.1711
 5158SOL    HW227108   1.326   1.484   9.779  0.8493  0.5198 -0.6516
 5159SOL     OW27109   2.574   2.641   2.637 -0.2784 -0.2606  0.4884
 5159SOL    HW127110   2.662   2.663   2.608 -0.2378  2.4085  2.6439
 5159SOL    HW227111   2.590   2.589   2.716 -1.3259  0.6755  1.3135
 5160SOL     OW27112   3.869   1.528   5.189  0.3318  0.0555 -0.5953
 5160SOL    HW127113   3.810   1.538   5.114 -1.0471  0.0635  0.4741
 5160SOL    HW227114   3.824   1.579   5.256 -1.5522 -1.1243 -0.9368
 5161SOL     OW27115   1.618   3.526   7.833 -0.1605  0.6425 -0.2167
 5161SOL    HW127116   1.662   3.442   7.842  2.5358  1.7597 -3.2457
 5161SOL    HW227117   1.537   3.508   7.785 -0.7158 -1.3789  1.4336
 5162SOL     OW27118   4.236   2.060   5.820 -0.8145 -0.1512 -0.4011
 5162SOL    HW127119   4.309   2.110   5.784 -1.5067  1.3658  0.2693
 5162SOL    HW227120   4.268   1.972   5.840  0.3903  0.0825 -1.3144
 5163SOL     OW27121   3.330   2.089   6.785  0.1073 -0.7726 -0.0528
 5163SOL    HW127122   3.384   2.086   6.706 -1.9985 -0.8441 -1.4744
 5163SOL    HW227123   3.248   2.109   6.740  0.2969  0.4937  0.1613
 5164SOL     OW27124   2.178   3.688  15.668 -0.5535  0.1066 -0.1380
 5164SOL    HW127125   2.147   3.727  15.750 -0.2518 -1.2931  0.6240
 5164SOL    HW227126   2.194   3.770  15.621  1.3190 -0.7134 -0.9049
 5165SOL     OW27127   2.371   3.759  16.317  0.2988 -0.5657  0.1838
 5165SOL    HW127128   2.423   3.835  16.290  0.2850 -1.0647 -1.1991
 5165SOL    HW227129   2.309   3.799  16.378 -0.5158 -0.4917 -0.6899
 5166SOL     OW27130   0.065   4.210  11.863  0.1646  0.9728 -0.1977
 5166SOL    HW127131   0.089   4.189  11.773 -1.5933 -0.2451 -0.3730
 5166SOL    HW227132   4.731   4.276  11.847 -0.3789  0.2544 -0.8214
 5167SOL     OW27133   0.095   1.101   5.548  0.1020 -0.2431  0.0836
 5167SOL    HW127134   0.151   1.067   5.478 -0.0979  2.3708 -1.3622
 5167SOL    HW227135   0.047   1.025   5.580 -1.0353 -0.4147 -2.0098
 5168SOL     OW27136   2.019   0.595   4.778 -0.7597  0.0117  0.5967
 5168SOL    HW127137   1.924   0.585   4.765 -0.3723  0.5070 -2.5623
 5168SOL    HW227138   2.016   0.643   4.861 -0.9602 -1.0755  1.2119
 5169SOL     OW27139   4.569   0.614   0.698 -0.1361  0.2649  0.2534
 5169SOL    HW127140   4.650   0.600   0.648 -0.3741  0.3165 -0.1464
 5169SOL    HW227141   4.550   0.707   0.688  2.7553  0.6164 -2.2459
 5170SOL     OW27142   4.731   2.513   6.954 -0.5846  0.4437  0.1831
 5170SOL    HW127143   0.033   2.459   6.883 -0.6462 -2.5708  2.4309
 5170SOL    HW227144   4.692   2.444   7.009  0.6682 -1.5647 -1.4291
 5171SOL     OW27145   3.387   0.988   7.769  0.1477  0.0941  0.2381
 5171SOL    HW127146   3.401   0.947   7.854 -1.6175 -0.8703  0.0664
 5171SOL    HW227147   3.464   0.958   7.721  0.1700 -2.7657  2.0650
 5172SOL     OW27148   2.642   0.634   5.350 -0.5987  0.6058  0.1297
 5172SOL    HW127149   2.721   0.581   5.358 -1.5517 -1.1233 -1.8714
 5172SOL    HW227150   2.597   0.618   5.433 -0.3054  0.4708  0.2608
 5173SOL     OW27151   1.512   4.142   2.050 -1.0929 -0.0094  0.0698
 5173SOL    HW127152   1.482   4.051   2.038 -0.0687 -0.6753  2.6084
 5173SOL    HW227153   1.430   4.173   2.088  0.0492 -0.4215  2.8355
 5174SOL     OW27154   1.111   4.085   1.560 -0.4385  0.5560  0.3217
 5174SOL    HW127155   1.029   4.089   1.609 -0.8710 -0.5840 -0.3083
 5174SOL    HW227156   1.102   4.002   1.514 -0.5692 -0.5161  2.3103
 5175SOL     OW27157   1.704   0.009   6.072 -0.2578  0.0751 -0.2140
 5175SOL    HW127158   1.694   0.094   6.115  0.1802 -0.9158  1.8221
 5175SOL    HW227159   1.727   0.031   5.981  1.0034 -0.8808 -0.1300
 5176SOL     OW27160   0.991   1.578   4.072 -0.5364 -0.2840 -0.2647
 5176SOL    HW127161   0.960   1.511   4.132  0.5733 -1.1302 -0.6432
 5176SOL    HW227162   1.037   1.518   4.013  1.0729 -1.0314  1.7598
 5177SOL     OW27163   2.352   0.785   9.493 -0.3034 -0.2113 -0.3836
 5177SOL    HW127164   2.265   0.760   9.462 -0.1389 -0.8995 -0.3121
 5177SOL    HW227165   2.409   0.737   9.433  1.0613  1.2437 -0.2397
 5178SOL     OW27166   4.702   4.429  17.475 -0.5500  0.0407 -0.3466
 5178SOL    HW127167   4.679   4.481  17.397 -0.3811  1.3887  0.4997
 5178SOL    HW227168   4.623   4.431  17.529 -0.4116 -0.8306 -0.1186
 5179SOL     OW27169   0.268   1.011   6.801 -0.0669  0.5758 -0.4986
 5179SOL    HW127170   0.235   1.017   6.890 -1.8360  0.8283 -1.1724
 5179SOL    HW227171   0.295   0.919   6.800 -0.2534  0.4981  3.1134
 5180SOL     OW27172   3.290   1.306  11.575 -0.6071 -0.0103  0.6614
 5180SOL    HW127173   3.382   1.280  11.573 -0.9191 -1.1242  0.5536
 5180SOL    HW227174   3.298   1.402  11.575 -1.4678  0.0597  0.2597
 5181SOL     OW27175   1.770   2.069   4.299  0.4462  0.0974  0.0928
 5181SOL    HW127176   1.771   2.159   4.332  1.0709  0.5894 -1.2785
 5181SOL    HW227177   1.749   2.034   4.386  0.0787  0.4427  0.1434
 5182SOL     OW27178   3.647   0.106   7.371  0.3442 -0.4170 -0.8063
 5182SOL    HW127179   3.574   0.091   7.431  1.0381 -0.6906 -0.0287
 5182SOL    HW227180   3.610   0.152   7.296  1.8125  2.3630  0.1718
 5183SOL     OW27181   2.535   2.072   8.798  0.0633  0.7096 -0.1338
 5183SOL    HW127182   2.568   1.995   8.752 -2.0092 -0.3806  0.2042
 5183SOL    HW227183   2.607   2.087   8.860  0.1693 -1.1328  0.2004
 5184SOL     OW27184   4.544   4.568   2.037  0.4674  0.6575 -0.4569
 5184SOL    HW127185   4.559   4.538   2.127 -1.2206  0.5377 -0.2215
 5184SOL    HW227186   4.515   4.659   2.047 -1.2648  0.0388 -0.0019
 5185SOL     OW27187   1.015   0.418  12.706 -0.3966 -0.6257 -0.0841
 5185SOL    HW127188   0.948   0.440  12.642  1.8228 -1.4742 -2.6600
 5185SOL    HW227189   1.070   0.496  12.712 -1.8040  0.2655  1.4601
 5186SOL     OW27190   2.206   4.134  16.050  0.4880 -0.2644 -0.1907
 5186SOL    HW127191   2.258   4.185  16.112  1.1506  1.0571 -1.8354
 5186SOL    HW227192   2.179   4.060  16.104 -2.4119  3.3283  3.2597
 5187SOL     OW27193   0.936   0.880   3.359  0.2429  0.1461  0.2078
 5187SOL    HW127194   1.013   0.936   3.356  0.5117 -0.3067 -1.5150
 5187SOL    HW227195   0.867   0.940   3.387  1.2736  1.7228 -0.6216
 5188SOL     OW27196   2.782   0.474   4.809  0.6429 -0.6604  0.6268
 5188SOL    HW127197   2.748   0.438   4.727 -0.5184  2.2612 -0.1778
 5188SOL    HW227198   2.794   0.392   4.857 -0.3089 -0.7182  0.7590
 5189SOL     OW27199   4.112   1.089  13.907  0.1321 -0.2375  0.1638
 5189SOL    HW127200   4.153   1.149  13.845  0.0658 -0.1568  0.1990
 5189SOL    HW227201   4.176   1.098  13.976 -0.8979  0.4462  1.0223
 5190SOL     OW27202   0.582   2.515   4.463 -0.2699  0.5386 -0.0257
 5190SOL    HW127203   0.491   2.488   4.455  0.1120 -0.3020 -1.6434
 5190SOL    HW227204   0.595   2.497   4.556 -1.1396  2.1076  0.3972
 5191SOL     OW27205   0.862   1.785  13.911 -0.1231  0.2981 -0.2462
 5191SOL    HW127206   0.818   1.751  13.833  1.3479 -2.3656  0.0687
 5191SOL    HW227207   0.793   1.811  13.972  0.6285  0.9351  0.3266
 5192SOL     OW27208   2.232   4.502  11.840 -0.6440  0.2285 -0.5824
 5192SOL    HW127209   2.182   4.423  11.817 -2.4123  1.1809  0.0511
 5192SOL    HW227210   2.302   4.470  11.897 -2.2539 -0.0958  1.2087
 5193SOL     OW27211   1.111   1.037   9.540  0.2448  0.7745  0.6912
 5193SOL    HW127212   1.116   1.041   9.635 -1.7005 -2.2371  0.9087
 5193SOL    HW227213   1.091   1.129   9.520 -0.0992  0.1399 -1.8813
 5194SOL     OW27214   3.221   2.511   3.053  0.0110 -0.1272 -0.2908
 5194SOL    HW127215   3.309   2.486   3.078  1.0212  2.3344 -1.3518
 5194SOL    HW227216   3.223   2.500   2.958 -0.5783 -1.0906 -0.1952
 5195SOL     OW27217   3.626   4.670   5.956  0.3327  0.4786 -0.3999
 5195SOL    HW127218   3.706   4.684   5.906  1.5007 -0.8483  1.0907
 5195SOL    HW227219   3.570   4.694   5.882 -0.5925 -0.0185  0.1333
 5196SOL     OW27220   1.327   3.865  14.447  0.0187  0.0485  0.2649
 5196SOL    HW127221   1.264   3.837  14.513 -0.8669 -1.0681 -1.0395
 5196SOL    HW227222   1.409   3.855  14.496  1.0338  2.1601 -1.0179
 5197SOL     OW27223   0.512   0.298  17.659 -0.2397 -0.0123  0.3129
 5197SOL    HW127224   0.436   0.295  17.718  0.1462 -4.6997  0.6356
 5197SOL    HW227225   0.589   0.290  17.714 -0.8154 -3.1222  0.7102
 5198SOL     OW27226   4.264   0.722   2.891 -0.0049 -0.4072 -0.3495
 5198SOL    HW127227   4.275   0.740   2.797 -1.1593 -0.9146 -0.5860
 5198SOL    HW227228   4.175   0.686   2.891  0.1990 -0.9126 -0.6556
 5199SOL     OW27229   0.489   0.002  15.641  0.1567  0.2890  0.2966
 5199SOL    HW127230   0.495   4.684  15.721 -0.0309 -0.2111 -0.0131
 5199SOL    HW227231   0.583   0.013  15.625  0.5270 -1.7069  1.1112
 5200SOL     OW27232   2.412   3.052   3.502  0.5160 -0.2947 -0.0616
 5200SOL    HW127233   2.396   3.131   3.449  0.2912 -0.6279 -0.4879
 5200SOL    HW227234   2.384   3.077   3.590 -1.2403 -2.0902 -0.1232
 5201SOL     OW27235   2.028   2.259   6.024  0.0104  0.3631 -0.5301
 5201SOL    HW127236   1.987   2.275   6.108 -1.0857 -0.3967 -0.9246
 5201SOL    HW227237   2.043   2.164   6.025 -0.3710  0.2643 -3.3408
 5202SOL     OW27238   4.174   4.571  17.434  0.1951  0.2035 -0.0007
 5202SOL    HW127239   4.183   4.659  17.397  1.0882 -0.7053 -1.9550
 5202SOL    HW227240   4.094   4.540  17.390  0.4111 -0.1508 -0.1420
 5203SOL     OW27241   0.125   4.124  15.760 -0.3933 -0.4494  0.5850
 5203SOL    HW127242   0.158   4.041  15.726 -3.0936 -2.3336  2.5087
 5203SOL    HW227243   0.200   4.182  15.768  0.0030 -0.7070 -1.2955
 5204SOL     OW27244   0.677   1.165   3.221 -0.2350  0.0424 -0.7309
 5204SOL    HW127245   0.582   1.170   3.215 -0.3005 -0.1924  0.1225
 5204SOL    HW227246   0.688   1.158   3.316  0.8615  0.0568 -0.8531
 5205SOL     OW27247   3.413   4.636   3.190 -0.2272  0.0744  0.1064
 5205SOL    HW127248   3.416   4.626   3.285 -2.4709 -1.3609  0.0476
 5205SOL    HW227249   3.375   4.722   3.175 -0.9903 -0.5683 -1.7814
 5206SOL     OW27250   1.259   3.360   1.525  0.0554  0.3265 -0.2953
 5206SOL    HW127251   1.246   3.328   1.435  3.3628  2.4007 -1.5171
 5206SOL    HW227252   1.352   3.336   1.533 -0.6893 -2.0056  1.2577
 5207SOL     OW27253   1.472   4.009   8.645 -0.1920 -0.0508  0.0837
 5207SOL    HW127254   1.423   3.930   8.621  0.2830 -0.1832 -0.4569
 5207SOL    HW227255   1.527   3.971   8.713  1.5000  1.6509 -0.3493
 5208SOL     OW27256   0.854   2.506  15.424 -0.2151 -0.7685  0.1510
 5208SOL    HW127257   0.882   2.581  15.478  0.3833 -1.2442  0.5087
 5208SOL    HW227258   0.844   2.451  15.501  1.0580  0.4616  1.2171
 5209SOL     OW27259   2.086   3.075   7.735 -0.1483 -0.2447 -0.0575
 5209SOL    HW127260   2.091   3.169   7.754  1.3052  0.2783 -3.1025
 5209SOL    HW227261   2.092   3.084   7.640  1.7351  1.6604  0.2290
 5210SOL     OW27262   3.857   1.869   6.690  0.2144  0.5827  0.3653
 5210SOL    HW127263   3.931   1.857   6.749 -1.2626 -1.4006  1.8476
 5210SOL    HW227264   3.895   1.917   6.617 -1.4650  0.2780 -0.7259
 5211SOL     OW27265   4.496   2.822   2.354  0.1079  0.3031  0.4698
 5211SOL    HW127266   4.453   2.837   2.270  0.6828  0.9583  0.2876
 5211SOL    HW227267   4.583   2.856   2.335  0.4680 -0.2932  1.0792
 5212SOL     OW27268   2.836   2.020  11.241 -0.3509 -0.1962  0.1486
 5212SOL    HW127269   2.744   2.008  11.265 -0.7730  0.2150 -1.2041
 5212SOL    HW227270   2.831   1.979  11.154 -3.0592  1.3832 -0.4745
 5213SOL     OW27271   1.945   4.423   8.809 -0.1499 -0.6466 -0.0209
 5213SOL    HW127272   1.987   4.368   8.742 -0.4434 -0.3592 -0.4413
 5213SOL    HW227273   1.974   4.377   8.888  1.1381  0.3769  0.1104
 5214SOL     OW27274   1.909   2.846   2.035  0.3018  0.3753  0.1088
 5214SOL    HW127275   1.870   2.850   1.948  0.9381  1.5140 -0.1259
 5214SOL    HW227276   1.953   2.762   2.019 -0.3586  0.6699 -3.2527
 5215SOL     OW27277   1.577   4.108   7.997 -0.0201  0.0128 -0.2340
 5215SOL    HW127278   1.631   4.095   7.919  1.5196 -1.7974  1.1231
 5215SOL    HW227279   1.572   4.203   8.011 -0.7882  0.1531 -1.4934
 5216SOL     OW27280   1.911   1.409   2.765  0.1370  0.1814  0.0196
 5216SOL    HW127281   1.900   1.360   2.684  1.1286 -0.2409  0.1392
 5216SOL    HW227282   1.845   1.477   2.750  0.1226  0.0904 -0.3072
 5217SOL     OW27283   0.934   2.882   5.898  0.3413 -0.6243 -0.3771
 5217SOL    HW127284   0.967   2.882   5.808 -1.0550  1.9944 -0.8715
 5217SOL    HW227285   0.932   2.786   5.901 -1.6277 -0.5564  0.3659
 5218SOL     OW27286   2.554   1.499   3.938  0.0808 -0.5897 -0.5802
 5218SOL    HW127287   2.545   1.446   4.018 -0.3384 -0.8289 -0.7847
 5218SOL    HW227288   2.480   1.466   3.887  0.0395 -0.9685 -0.2752
 5219SOL     OW27289   3.790   0.177   1.092 -0.3867 -0.0430 -0.3161
 5219SOL    HW127290   3.737   0.113   1.044 -0.5873 -1.1563  1.4187
 5219SOL    HW227291   3.735   0.215   1.160  1.1545  0.9478  0.3814
 5220SOL     OW27292   3.997   2.065   1.188  0.6512  0.1272 -0.2152
 5220SOL    HW127293   4.021   2.146   1.142  2.2283 -1.2429 -1.7568
 5220SOL    HW227294   3.911   2.049   1.150 -0.1806 -1.3774  2.2966
 5221SOL     OW27295   4.438   1.813   7.125  0.3969 -0.3274 -0.0513
 5221SOL    HW127296   4.482   1.739   7.167  0.9852 -0.6127 -1.1696
 5221SOL    HW227297   4.517   1.842   7.079  0.8645 -1.6165 -0.0650
 5222SOL     OW27298   1.272   0.740   3.880 -0.0691 -0.2880 -0.4564
 5222SOL    HW127299   1.237   0.821   3.841 -0.9035 -0.1223  0.6409
 5222SOL    HW227300   1.202   0.723   3.943  0.8201 -1.0163  0.3151
 5223SOL     OW27301   2.029   2.697   8.335  0.3829 -0.6689  0.7502
 5223SOL    HW127302   2.022   2.664   8.425 -2.9140 -0.1774  0.6851
 5223SOL    HW227303   2.016   2.620   8.280 -2.7618 -0.6489  1.4569
 5224SOL     OW27304   2.137   3.862   7.883  0.4645 -0.0168 -0.6074
 5224SOL    HW127305   2.173   3.775   7.868  0.1930 -0.1218 -0.6581
 5224SOL    HW227306   2.201   3.917   7.928  0.0743  1.4021 -1.7478
 5225SOL     OW27307   4.666   4.448   4.056 -0.0891  0.5170 -0.3818
 5225SOL    HW127308   4.731   4.456   3.986 -1.0021 -0.8266 -1.3614
 5225SOL    HW227309   4.721   4.469   4.132  0.1316  2.7160 -1.1634
 5226SOL     OW27310   2.008   1.987  15.421 -0.1776  0.4736 -0.2732
 5226SOL    HW127311   2.039   1.926  15.354  0.5396  1.4210 -0.7889
 5226SOL    HW227312   2.090   2.016  15.462  0.1063 -0.7208  0.0204
 5227SOL     OW27313   3.005   3.075   4.423  0.5624 -0.1025  0.4662
 5227SOL    HW127314   3.073   3.098   4.487 -0.4869  1.9686  0.8368
 5227SOL    HW227315   3.002   3.147   4.361 -0.7554  0.7151  1.4781
 5228SOL     OW27316   3.568   2.667   7.162  0.6499  0.2196  0.4606
 5228SOL    HW127317   3.481   2.653   7.200  0.9405  0.8932  1.3649
 5228SOL    HW227318   3.607   2.580   7.173 -3.1107 -1.4940  0.2100
 5229SOL     OW27319   4.371   4.513   0.210  0.6098  0.2032 -0.1640
 5229SOL    HW127320   4.281   4.487   0.229  0.1035  1.2583 -1.1539
 5229SOL    HW227321   4.420   4.460   0.273  0.1685  1.1074  0.9308
 5230SOL     OW27322   0.552   3.147   2.582 -0.8986  0.5027  0.0414
 5230SOL    HW127323   0.502   3.077   2.542  1.6358 -1.2773 -0.0221
 5230SOL    HW227324   0.630   3.153   2.528 -1.3966  1.1577 -0.5914
 5231SOL     OW27325   4.098   2.880   5.599  0.1868  0.3642  0.3620
 5231SOL    HW127326   4.101   2.790   5.633 -3.7533 -0.2618 -0.9401
 5231SOL    HW227327   4.107   2.862   5.505  0.6364 -2.5373  0.9566
 5232SOL     OW27328   3.261   4.123   3.715  0.7226  0.4243  0.2817
 5232SOL    HW127329   3.238   4.032   3.731  0.0308  0.4897 -0.3298
 5232SOL    HW227330   3.356   4.113   3.700  0.5408 -1.1855  0.2012
 5233SOL     OW27331   0.197   1.060  12.088 -0.0214  0.1303  0.2668
 5233SOL    HW127332   0.203   0.995  12.158  1.6768  1.6659  1.5797
 5233SOL    HW227333   0.242   1.007  12.022  1.2763  1.5991 -0.0420
 5234SOL     OW27334   1.782   3.585   5.897 -0.7492 -0.3763  0.2686
 5234SOL    HW127335   1.786   3.680   5.904 -2.5161 -0.4623  2.2226
 5234SOL    HW227336   1.832   3.549   5.971  1.1483 -0.1526 -0.8860
 5235SOL     OW27337   0.845   3.852   8.621 -0.2530  0.0541  0.4954
 5235SOL    HW127338   0.855   3.804   8.538 -2.1543 -0.8713  0.8027
 5235SOL    HW227339   0.792   3.926   8.594 -1.2248 -1.7871 -2.6739
 5236SOL     OW27340   2.350   0.879   1.735  0.6583  0.5936 -0.0949
 5236SOL    HW127341   2.388   0.915   1.655 -1.1980  0.7086 -0.9096
 5236SOL    HW227342   2.398   0.798   1.750  0.1871  0.2069 -0.7046
 5237SOL     OW27343   0.010   2.951   3.028  0.4311  0.7757 -0.5051
 5237SOL    HW127344   4.712   2.922   2.943 -0.5688  2.0334 -0.5536
 5237SOL    HW227345   0.101   2.970   3.007  1.3460  0.3630  3.0379
 5238SOL     OW27346   3.605   3.907   3.883 -0.0506  0.0871 -0.0129
 5238SOL    HW127347   3.637   3.993   3.911 -0.5358  0.3214 -0.1811
 5238SOL    HW227348   3.513   3.913   3.909 -0.1284  1.2081 -0.5532
 5239SOL     OW27349   3.421   0.493   9.262 -0.0840 -0.1434 -0.5264
 5239SOL    HW127350   3.496   0.536   9.303  0.3432 -2.2936  0.9289
 5239SOL    HW227351   3.457   0.440   9.191 -2.7193 -0.8641 -1.3320
 5240SOL     OW27352   1.959   3.340   8.076 -0.0382 -0.1717  0.7100
 5240SOL    HW127353   1.973   3.247   8.093  2.0470 -0.2758 -1.5386
 5240SOL    HW227354   1.949   3.360   8.169 -2.0742  0.1054  0.4367
 5241SOL     OW27355   0.809   0.698   6.826  0.0760 -0.4607 -0.4982
 5241SOL    HW127356   0.853   0.779   6.800  0.4203 -0.1018  1.2258
 5241SOL    HW227357   0.721   0.731   6.846  0.8905  2.6355 -2.0676
 5242SOL     OW27358   0.325   3.785   3.698  0.5839 -0.0164 -0.0906
 5242SOL    HW127359   0.333   3.753   3.608 -1.6644 -0.3394 -0.1690
 5242SOL    HW227360   0.387   3.726   3.740 -0.8926 -0.3521  1.6047
 5243SOL     OW27361   3.783   1.770  15.289  0.1800  0.0823 -0.3716
 5243SOL    HW127362   3.763   1.810  15.374  0.6005  0.6048 -0.5119
 5243SOL    HW227363   3.825   1.836  15.233 -0.4892  1.2058  0.4542
 5244SOL     OW27364   1.987   0.874  12.872 -0.0878  0.0437  0.2839
 5244SOL    HW127365   2.042   0.857  12.948 -1.7547 -1.2526  1.1991
 5244SOL    HW227366   1.984   0.970  12.880  0.6750  0.2375 -1.7432
 5245SOL     OW27367   1.453   1.171   5.422 -0.1434 -0.1484  0.3337
 5245SOL    HW127368   1.491   1.197   5.339  0.7780 -0.9700  0.4893
 5245SOL    HW227369   1.532   1.136   5.463 -0.6698 -2.5200 -0.6329
 5246SOL     OW27370   0.574   0.769   8.688 -0.0228  0.2451 -0.1852
 5246SOL    HW127371   0.663   0.798   8.666 -0.2041  1.1088  0.2349
 5246SOL    HW227372   0.565   0.836   8.755 -0.4509  0.1344 -0.1324
 5247SOL     OW27373   0.802   3.584   8.697  0.1531  0.5855  0.2306
 5247SOL    HW127374   0.863   3.654   8.670  1.0647  0.3532  1.6973
 5247SOL    HW227375   0.818   3.578   8.791 -2.4890 -0.1732  0.6351
 5248SOL     OW27376   1.740   3.122   6.363  0.4518 -0.5198 -0.0905
 5248SOL    HW127377   1.700   3.035   6.359  0.0672 -0.3811  0.6224
 5248SOL    HW227378   1.809   3.121   6.297  2.7952  2.3429  2.3167
 5249SOL     OW27379   1.944   2.253  12.885  0.0305 -0.0340 -0.3640
 5249SOL    HW127380   1.944   2.158  12.873  0.3115 -0.0564 -0.1856
 5249SOL    HW227381   2.036   2.271  12.903 -0.2780  2.2684 -1.0876
 5250SOL     OW27382   2.590   0.139  17.467  0.1374  0.4723 -0.0647
 5250SOL    HW127383   2.658   0.206  17.473 -0.9134  1.6942 -1.7079
 5250SOL    HW227384   2.626   0.053  17.488 -1.1262 -0.0280  0.0282
 5251SOL     OW27385   1.418   1.197  16.995 -0.1487  0.4388 -0.7464
 5251SOL    HW127386   1.371   1.148  16.927 -1.7131 -0.2637  0.8382
 5251SOL    HW227387   1.458   1.268  16.944  0.4961 -0.3858 -1.3775
 5252SOL     OW27388   0.403   2.334   8.652 -0.0543  0.0621  0.2358
 5252SOL    HW127389   0.473   2.399   8.661  0.2373 -0.3284  0.7845
 5252SOL    HW227390   0.384   2.337   8.559 -0.1382  1.3088  0.2916
 5253SOL     OW27391   3.662   4.565   7.302  0.2386 -0.1753  0.0375
 5253SOL    HW127392   3.569   4.553   7.281 -0.0708  0.0217  1.2729
 5253SOL    HW227393   3.667   4.656   7.331 -1.6640  0.3765 -1.3492
 5254SOL     OW27394   0.735   0.434   5.794 -0.3045 -0.1077 -0.2838
 5254SOL    HW127395   0.646   0.457   5.823 -0.8834  0.3110 -2.3781
 5254SOL    HW227396   0.781   0.420   5.876 -0.5013 -1.1713 -0.3578
 5255SOL     OW27397   2.100   3.989   8.175 -0.3806 -0.6255 -0.2183
 5255SOL    HW127398   2.100   3.901   8.211  0.1664  0.4190  2.3000
 5255SOL    HW227399   2.022   4.030   8.210  1.9352  2.2027  1.6775
 5256SOL     OW27400   1.262   4.078   2.632 -0.2900  0.2486 -0.2251
 5256SOL    HW127401   1.288   4.155   2.681  0.2211 -2.0808  3.1699
 5256SOL    HW227402   1.240   4.008   2.694 -0.0742 -0.7174 -1.2195
 5257SOL     OW27403   1.438   1.041   5.926 -0.2761  0.7868  0.4474
 5257SOL    HW127404   1.418   1.076   6.012  0.9283  1.2675  0.5428
 5257SOL    HW227405   1.486   1.116   5.891 -0.6633  0.3193 -1.0849
 5258SOL     OW27406   3.783   0.019   6.295  0.1088  0.3333 -0.5720
 5258SOL    HW127407   3.851   0.083   6.272  0.5608  0.1974  0.3973
 5258SOL    HW227408   3.808   4.727   6.384  0.2566  0.4084 -0.5906
 5259SOL     OW27409   1.066   1.242   4.953  0.6845  0.7394  0.2785
 5259SOL    HW127410   1.005   1.285   4.893  1.4242  0.9785 -0.3000
 5259SOL    HW227411   1.084   1.159   4.907  3.1279  1.2958  0.2602
 5260SOL     OW27412   3.724   3.101   5.003 -0.3504 -0.2698  0.0534
 5260SOL    HW127413   3.696   3.146   5.083 -2.0299  0.3035 -0.8590
 5260SOL    HW227414   3.780   3.171   4.971  0.0910  0.2760  2.0059
 5261SOL     OW27415   3.497   3.495   1.868 -0.6088 -0.6874 -0.2401
 5261SOL    HW127416   3.429   3.533   1.923 -0.4743  0.4283 -0.8463
 5261SOL    HW227417   3.459   3.510   1.781 -0.8614  1.1709  0.1877
 5262SOL     OW27418   0.082   4.382   8.078 -0.2924  0.4001 -0.6009
 5262SOL    HW127419   4.734   4.373   8.128 -0.0556 -0.1953 -0.3122
 5262SOL    HW227420   0.123   4.460   8.116  2.1028 -0.1126 -2.2124
 5263SOL     OW27421   4.392   2.958   5.366 -0.2732  0.1564 -0.1358
 5263SOL    HW127422   4.418   3.042   5.328 -0.3592 -0.2563 -1.1071
 5263SOL    HW227423   4.452   2.896   5.326 -1.1061 -0.1983 -0.8477
 5264SOL     OW27424   2.229   1.929   0.433 -0.0465  0.4465 -0.0617
 5264SOL    HW127425   2.241   1.969   0.520  0.4890  0.2511 -0.0492
 5264SOL    HW227426   2.217   2.003   0.374 -4.2316  0.8497  1.2796
 5265SOL     OW27427   1.556   2.408   8.763  0.1867 -0.0718  0.2144
 5265SOL    HW127428   1.521   2.375   8.846  3.8231 -0.7464  1.4723
 5265SOL    HW227429   1.636   2.359   8.744  0.1135  0.1460 -0.6582
 5266SOL     OW27430   0.895   1.575   6.375 -0.3433 -0.0561  0.0247
 5266SOL    HW127431   0.826   1.613   6.429 -0.9967 -3.0280  1.3055
 5266SOL    HW227432   0.970   1.629   6.401 -2.0367  1.4386  1.7623
 5267SOL     OW27433   1.190   3.393   5.417 -0.1256  0.5280 -0.0879
 5267SOL    HW127434   1.161   3.430   5.334  3.5291  0.9284 -1.1831
 5267SOL    HW227435   1.166   3.462   5.478 -0.4460  0.1078  0.2553
 5268SOL     OW27436   1.179   2.943   2.764  0.2911  0.2134 -0.3374
 5268SOL    HW127437   1.158   3.010   2.699  0.7318  0.0264 -0.6687
 5268SOL    HW227438   1.260   2.901   2.735  0.9381  0.5493  0.9457
 5269SOL     OW27439   2.777   0.271   0.229 -0.2753 -0.2838  0.2589
 5269SOL    HW127440   2.748   0.347   0.178  1.7235  0.6457  0.4916
 5269SOL    HW227441   2.850   0.315   0.271 -0.7697  1.8937 -1.1383
 5270SOL     OW27442   3.838   3.662  10.485 -0.1026  0.2916 -0.3519
 5270SOL    HW127443   3.928   3.644  10.513  0.7399  3.0198 -1.3004
 5270SOL    HW227444   3.858   3.729  10.420 -1.0446  1.7453  0.8596
 5271SOL     OW27445   2.916   0.107  10.655 -0.1710  0.4562  0.5361
 5271SOL    HW127446   2.896   0.098  10.748  0.3269 -0.1048  0.5881
 5271SOL    HW227447   2.979   0.035  10.649  0.1914  0.7674  0.6047
 5272SOL     OW27448   1.150   2.401   9.165  0.0481  0.0823 -0.4238
 5272SOL    HW127449   1.119   2.312   9.184 -1.4249  0.8072  0.6206
 5272SOL    HW227450   1.098   2.422   9.087 -1.4531 -0.4495  0.4191
 5273SOL     OW27451   2.592   2.508   5.722  0.1849  0.1365  0.3082
 5273SOL    HW127452   2.636   2.425   5.702 -1.5928 -1.0702  1.4574
 5273SOL    HW227453   2.670   2.563   5.717  0.0336  0.4211  1.2057
 5274SOL     OW27454   2.703   0.151   2.658  0.2383 -0.4468  0.2762
 5274SOL    HW127455   2.742   0.114   2.737  1.9760 -1.7643 -1.2122
 5274SOL    HW227456   2.778   0.187   2.611 -1.4675 -1.0345 -2.9183
 5275SOL     OW27457   3.632   4.066   1.283 -0.1442 -0.1422 -0.1463
 5275SOL    HW127458   3.677   4.029   1.359 -0.1894 -2.2308 -1.1536
 5275SOL    HW227459   3.659   4.001   1.218  2.9683  1.7967 -0.8178
 5276SOL     OW27460   2.131   1.285   4.451  0.1340  0.7042 -0.0220
 5276SOL    HW127461   2.098   1.374   4.457  1.4678  1.0260  2.4682
 5276SOL    HW227462   2.057   1.226   4.435  1.2114 -0.5332 -0.4031
 5277SOL     OW27463   0.629   3.355   5.573 -0.1491 -0.2414  0.2152
 5277SOL    HW127464   0.689   3.384   5.505 -1.4655 -0.0727 -0.8779
 5277SOL    HW227465   0.665   3.405   5.646 -0.0637 -2.4558  1.6908
 5278SOL     OW27466   1.377   4.501  11.286 -0.1243 -0.2736  0.5051
 5278SOL    HW127467   1.353   4.419  11.328  0.3779 -0.3992  0.5421
 5278SOL    HW227468   1.362   4.563  11.358 -1.1474 -1.8780  1.6697
 5279SOL     OW27469   0.394   2.157   7.469 -0.6554 -0.0395 -0.4136
 5279SOL    HW127470   0.451   2.218   7.517 -1.5634  1.2088 -0.9055
 5279SOL    HW227471   0.359   2.102   7.538  0.1430  0.6781  0.5813
 5280SOL     OW27472   0.371   0.093   5.162 -0.9543 -0.3853  0.3328
 5280SOL    HW127473   0.364   0.036   5.086  2.2045 -1.7944  1.1261
 5280SOL    HW227474   0.465   0.110   5.161 -0.8764 -0.9205 -0.7471
 5281SOL     OW27475   4.039   3.989   1.577 -0.6452 -0.2655 -0.3447
 5281SOL    HW127476   4.018   3.927   1.647 -3.5959 -0.0052 -1.0187
 5281SOL    HW227477   3.954   4.004   1.536 -0.9847 -1.7424 -0.1760
 5282SOL     OW27478   2.048   2.665   1.898 -0.2658 -0.3139 -0.9384
 5282SOL    HW127479   2.140   2.688   1.911  0.0229 -1.3920 -1.0664
 5282SOL    HW227480   2.069   2.586   1.847  3.6569 -1.3568  2.2804
 5283SOL     OW27481   2.907   1.171   3.188 -0.1044  0.5253 -0.1049
 5283SOL    HW127482   2.993   1.147   3.155 -0.1996 -0.2320  0.1981
 5283SOL    HW227483   2.848   1.100   3.161 -0.3558  0.3462  0.9337
 5284SOL     OW27484   0.134   3.055  16.345 -0.2659  0.3656 -0.3130
 5284SOL    HW127485   0.113   2.963  16.329 -1.6543  0.3054  1.7753
 5284SOL    HW227486   0.045   3.086  16.326 -1.2509 -1.3110  1.4698
 5285SOL     OW27487   2.960   2.807   4.007  0.2215  0.0441  0.5313
 5285SOL    HW127488   3.048   2.769   4.003 -0.3055 -1.1468 -0.0172
 5285SOL    HW227489   2.944   2.794   4.100 -0.6688 -0.1489  0.3561
 5286SOL     OW27490   1.650   3.525  12.182 -0.4688 -0.0338  0.1472
 5286SOL    HW127491   1.565   3.487  12.158 -0.6954  1.4294 -1.4512
 5286SOL    HW227492   1.621   3.615  12.198 -1.5476 -0.6606  1.6995
 5287SOL     OW27493   4.535   0.967   2.513  0.0862 -0.0379 -0.0545
 5287SOL    HW127494   4.441   0.980   2.506  0.1540  0.5495  0.1715
 5287SOL    HW227495   4.564   0.905   2.445 -3.7086 -0.0549 -1.6712
 5288SOL     OW27496   4.275   1.108   0.136 -0.1030 -0.2878 -0.2687
 5288SOL    HW127497   4.194   1.160   0.129  0.0707  0.1121  0.7318
 5288SOL    HW227498   4.343   1.170   0.161 -2.9840  1.9689  1.9877
 5289SOL     OW27499   0.618   4.673   0.879  0.6378  0.6407  0.1022
 5289SOL    HW127500   0.604   4.605   0.945  0.9334 -1.8721 -2.3966
 5289SOL    HW227501   0.545   4.726   0.910  0.0928  0.1249 -0.3000
 5290SOL     OW27502   0.162   4.092   7.968  0.1721 -0.1081 -0.0259
 5290SOL    HW127503   0.116   4.099   8.052 -1.0429  0.4175 -0.7214
 5290SOL    HW227504   0.085   4.078   7.913  0.1366 -0.6781  0.1751
 5291SOL     OW27505   0.542   2.734   1.964  0.2876 -0.0683  0.5657
 5291SOL    HW127506   0.465   2.685   1.991 -0.5213  0.4621 -0.7724
 5291SOL    HW227507   0.568   2.777   2.045  1.3570  1.7689 -0.7457
 5292SOL     OW27508   4.202   2.527  15.956 -0.0412  0.3497 -0.2137
 5292SOL    HW127509   4.282   2.576  15.977 -1.0131  0.8212  2.4379
 5292SOL    HW227510   4.167   2.590  15.893 -1.0475  0.8072  0.7904
 5293SOL     OW27511   3.868   2.782   7.760  0.3944 -0.2023  0.0369
 5293SOL    HW127512   3.864   2.876   7.781  1.2010 -0.3863  1.0041
 5293SOL    HW227513   3.835   2.789   7.671 -0.4317 -1.1699  0.2672
 5294SOL     OW27514   3.360   3.370   9.712 -0.1807  0.0994 -0.1415
 5294SOL    HW127515   3.285   3.318   9.682 -1.8525  3.1455 -1.2404
 5294SOL    HW227516   3.431   3.336   9.657 -0.1407 -3.2533  1.9366
 5295SOL     OW27517   3.341   2.926   5.173 -0.0401  0.7346  0.0739
 5295SOL    HW127518   3.433   2.906   5.158 -0.1264  1.3430 -1.2802
 5295SOL    HW227519   3.307   2.837   5.180  0.2167  0.5617 -0.9010
 5296SOL     OW27520   1.133   2.299  14.863 -0.1336 -0.1334 -0.0710
 5296SOL    HW127521   1.129   2.227  14.800  0.2116 -0.3275  0.1290
 5296SOL    HW227522   1.208   2.344  14.825 -1.9218  1.3539 -1.8542
 5297SOL     OW27523   4.168   3.048   8.751  0.5971  0.6514  0.1189
 5297SOL    HW127524   4.203   3.055   8.661  1.6184 -2.4909  0.2743
 5297SOL    HW227525   4.216   2.972   8.783 -0.5582  0.2325  0.8532
 5298SOL     OW27526   3.205   0.920   3.367 -0.1772 -0.2116  0.5621
 5298SOL    HW127527   3.259   0.951   3.440  1.4909  0.2690 -0.8658
 5298SOL    HW227528   3.259   0.854   3.322 -0.0719  0.2228  0.0617
 5299SOL     OW27529   3.012   3.737   3.013  0.7773  0.3492 -0.0097
 5299SOL    HW127530   3.043   3.810   3.065 -2.6900  2.3768 -0.8051
 5299SOL    HW227531   3.074   3.671   3.043  2.1295  1.3765 -0.5713
 5300SOL     OW27532   2.936   2.909   5.320 -0.1593 -0.6179  0.5767
 5300SOL    HW127533   2.841   2.907   5.331 -0.0479  1.4135  1.8455
 5300SOL    HW227534   2.926   2.907   5.225 -0.3204 -1.2052  0.6044
 5301SOL     OW27535   0.543   3.940  16.888 -0.1156 -0.1634 -0.3154
 5301SOL    HW127536   0.491   3.876  16.840  0.3273 -0.7450 -0.0148
 5301SOL    HW227537   0.476   3.965  16.952 -1.9631 -2.3928 -1.3730
 5302SOL     OW27538   2.281   0.108   4.676  0.4387  0.0381  0.1743
 5302SOL    HW127539   2.363   0.080   4.716 -0.6654 -1.4756  1.3995
 5302SOL    HW227540   2.308   0.116   4.584  0.0347  0.6177  0.1046
 5303SOL     OW27541   2.519   2.747   5.206  0.6711 -0.0334  0.0250
 5303SOL    HW127542   2.576   2.811   5.164 -0.6094  1.1973  0.1799
 5303SOL    HW227543   2.543   2.757   5.298  1.3987  0.1696 -0.1860
 5304SOL     OW27544   2.723   4.521   3.799  0.5099 -0.8533  0.0300
 5304SOL    HW127545   2.768   4.574   3.733  0.9700 -0.3920  0.7143
 5304SOL    HW227546   2.643   4.573   3.809 -0.3819 -2.0144 -0.9418
 5305SOL     OW27547   3.773   0.710   3.362  0.0722 -0.0333  0.4738
 5305SOL    HW127548   3.756   0.801   3.339 -2.1491 -0.4507  0.4775
 5305SOL    HW227549   3.848   0.683   3.309  0.7152  1.6309  0.5594
 5306SOL     OW27550   1.315   1.399  17.262  0.4098  0.8883 -0.1360
 5306SOL    HW127551   1.350   1.315  17.232  0.6632  0.6549  0.8265
 5306SOL    HW227552   1.269   1.429  17.183 -0.4514  0.1600  0.0964
 5307SOL     OW27553   3.248   2.098   8.757  0.2447  0.4967 -0.6018
 5307SOL    HW127554   3.252   2.154   8.680 -1.7568 -0.6967 -1.6044
 5307SOL    HW227555   3.161   2.061   8.740 -0.6624  2.6280 -0.5614
 5308SOL     OW27556   1.773   4.233   6.640 -0.3636  0.2110 -0.6031
 5308SOL    HW127557   1.701   4.172   6.624 -0.7643  0.9756 -1.7257
 5308SOL    HW227558   1.727   4.296   6.695  2.4540  1.1776  0.6672
 5309SOL     OW27559   3.231   0.088   5.203  0.5534  0.3706 -0.8609
 5309SOL    HW127560   3.278   0.068   5.284 -0.7192  0.4131 -0.1133
 5309SOL    HW227561   3.141   0.097   5.235  1.3319  1.1304  1.0929
 5310SOL     OW27562   0.571   2.699   5.714 -0.3079 -0.2409  0.2617
 5310SOL    HW127563   0.648   2.693   5.657 -0.3492 -0.0149  0.1825
 5310SOL    HW227564   0.503   2.724   5.651  0.4282  0.9998 -0.0441
 5311SOL     OW27565   3.682   1.141   8.782 -0.3303  0.0739  0.3781
 5311SOL    HW127566   3.651   1.106   8.698  1.8402 -0.5146 -0.1930
 5311SOL    HW227567   3.667   1.067   8.840  2.3599  0.6114  1.7708
 5312SOL     OW27568   1.050   3.526   5.607 -0.0068  0.4062  0.3096
 5312SOL    HW127569   0.990   3.597   5.629  0.6026  1.2951 -0.9195
 5312SOL    HW227570   1.124   3.559   5.658 -1.4560  1.3456  1.8287
 5313SOL     OW27571   0.997   4.306   4.734 -0.1780 -0.2863  0.6475
 5313SOL    HW127572   0.961   4.248   4.801 -0.4815  0.7919  1.4047
 5313SOL    HW227573   1.006   4.237   4.668 -1.2181 -1.8089  2.0973
 5314SOL     OW27574   3.434   1.648  15.705 -0.0077 -0.3730  0.5389
 5314SOL    HW127575   3.524   1.650  15.674 -0.0738  0.1361  0.3855
 5314SOL    HW227576   3.414   1.735  15.671 -1.9065 -0.3679  1.6282
 5315SOL     OW27577   1.982   1.169   6.634 -0.4124  0.3858  0.0702
 5315SOL    HW127578   1.966   1.243   6.693  0.2986  2.4757 -2.3427
 5315SOL    HW227579   2.068   1.141   6.664 -0.7757  1.6899  2.3452
 5316SOL     OW27580   0.829   2.150   5.469 -0.3283  0.0668 -0.0345
 5316SOL    HW127581   0.740   2.126   5.495 -0.1228 -0.9825 -0.2865
 5316SOL    HW227582   0.834   2.081   5.403  0.9810  1.6721 -1.6147
 5317SOL     OW27583   0.184   2.991   5.117  0.5055 -0.4623 -0.1879
 5317SOL    HW127584   0.236   2.989   5.036 -1.1337  0.2681 -1.2468
 5317SOL    HW227585   0.236   3.048   5.174 -0.8354  0.5867 -0.0305
 5318SOL     OW27586   4.463   3.229   3.569  0.3812  0.4898 -0.5430
 5318SOL    HW127587   4.428   3.259   3.653 -1.7577 -1.5747 -0.6874
 5318SOL    HW227588   4.499   3.144   3.594  2.5095  0.8667 -2.3134
 5319SOL     OW27589   1.764   0.652   5.897 -0.3991  0.3841 -0.2057
 5319SOL    HW127590   1.828   0.715   5.931 -0.0048 -0.0058 -0.2257
 5319SOL    HW227591   1.680   0.699   5.893 -1.1055 -0.5414  4.0035
 5320SOL     OW27592   2.908   1.706   4.126  0.4887  0.3709 -0.2770
 5320SOL    HW127593   2.819   1.725   4.096  0.9123  0.5596 -1.4505
 5320SOL    HW227594   2.967   1.755   4.068  0.8596 -2.4315 -2.2740
 5321SOL     OW27595   0.280   2.475  11.196  0.2031 -0.2477  0.3052
 5321SOL    HW127596   0.281   2.409  11.265  0.4645 -0.6397 -0.0710
 5321SOL    HW227597   0.322   2.547  11.242 -0.6105  0.6777 -0.3971
 5322SOL     OW27598   2.140   3.807   6.396 -0.2584 -0.2200 -0.0112
 5322SOL    HW127599   2.079   3.879   6.410  0.5844  0.0632  2.2515
 5322SOL    HW227600   2.196   3.811   6.474 -0.1372 -1.1418 -0.0495
 5323SOL     OW27601   0.940   3.061   3.108  0.0520  0.3566  0.2405
 5323SOL    HW127602   0.996   3.001   3.157 -0.5848 -0.7795 -0.4231
 5323SOL    HW227603   0.973   3.143   3.143  0.2861 -0.1584  1.2228
 5324SOL     OW27604   3.787   3.989   5.003  0.1659  0.1580 -0.3420
 5324SOL    HW127605   3.879   3.962   4.997 -0.6260 -2.3469 -1.4443
 5324SOL    HW227606   3.739   3.910   4.978  0.4335 -0.7228  1.8821
 5325SOL     OW27607   3.575   2.247   3.408 -0.0818  0.0205  0.6065
 5325SOL    HW127608   3.666   2.275   3.401 -0.5662  0.9272 -1.9904
 5325SOL    HW227609   3.570   2.163   3.454  1.9549 -0.1698  0.4843
 5326SOL     OW27610   3.302   3.854   0.333  0.2625 -0.2520 -0.5307
 5326SOL    HW127611   3.325   3.806   0.412  0.3086 -0.2280 -0.5294
 5326SOL    HW227612   3.386   3.898   0.319  0.0618  0.2061 -0.3002
 5327SOL     OW27613   2.331   3.546   6.163  0.4835 -0.2178  0.3221
 5327SOL    HW127614   2.305   3.486   6.093  0.2184  0.6453 -0.3113
 5327SOL    HW227615   2.414   3.508   6.191  0.3025 -0.8515  0.0004
 5328SOL     OW27616   2.574   0.901   2.064 -0.0081 -0.1644  0.0095
 5328SOL    HW127617   2.610   0.819   2.097 -0.1278 -0.4570 -0.5898
 5328SOL    HW227618   2.481   0.894   2.084 -0.1554  0.6215 -0.3843
 5329SOL     OW27619   4.300   3.331   9.877 -0.1112  0.6447 -0.5263
 5329SOL    HW127620   4.389   3.346   9.911 -0.4853  1.3532  0.1367
 5329SOL    HW227621   4.255   3.394   9.933  2.5603  1.7065  0.4160
 5330SOL     OW27622   4.439   0.570   0.970  0.0173 -0.1418  0.0697
 5330SOL    HW127623   4.492   0.504   0.927 -1.2351 -1.1348  0.0546
 5330SOL    HW227624   4.420   0.523   1.051  0.4333  0.0449  0.2736
 5331SOL     OW27625   1.837   0.707   3.861  0.0670  0.2168  0.0782
 5331SOL    HW127626   1.915   0.728   3.913  0.9682 -0.6997 -0.9082
 5331SOL    HW227627   1.778   0.670   3.926  1.2631  2.1638  2.3015
 5332SOL     OW27628   0.504   3.554   3.266  0.1434  0.0600  0.1126
 5332SOL    HW127629   0.597   3.537   3.278  0.2848  1.5616  1.1224
 5332SOL    HW227630   0.500   3.615   3.193 -1.7446  0.1169  0.2491
 5333SOL     OW27631   1.319   0.527   8.117  0.4101  0.7705  0.3091
 5333SOL    HW127632   1.242   0.583   8.127  1.3680  2.2944 -0.9649
 5333SOL    HW227633   1.346   0.543   8.027  0.0801  0.9189  0.2351
 5334SOL     OW27634   1.013   2.272   0.261 -0.3878  0.4324 -0.0425
 5334SOL    HW127635   0.983   2.259   0.350 -1.3795 -2.0863 -0.7367
 5334SOL    HW227636   1.074   2.197   0.263  1.8626  2.2189 -1.1594
 5335SOL     OW27637   2.673   2.721  15.494  0.0231  0.2688  0.4143
 5335SOL    HW127638   2.715   2.663  15.431 -0.5034 -1.0481  1.2490
 5335SOL    HW227639   2.621   2.651  15.534 -1.0618  0.3846 -0.8044
 5336SOL     OW27640   0.587   2.122  11.788 -0.2306  0.4523 -0.1841
 5336SOL    HW127641   0.669   2.118  11.837 -0.1135  1.8770 -0.2440
 5336SOL    HW227642   0.545   2.043  11.823  0.8036 -0.8996 -2.0272
 5337SOL     OW27643   1.677   3.259  10.997  0.0577  0.2467  0.2720
 5337SOL    HW127644   1.601   3.285  10.946  0.7631 -0.0251 -0.9091
 5337SOL    HW227645   1.732   3.336  10.984 -1.7284  1.5108  0.3209
 5338SOL     OW27646   0.856   1.809   6.890 -0.2968 -0.3332 -0.1847
 5338SOL    HW127647   0.899   1.884   6.847  0.1630 -0.5568 -0.1149
 5338SOL    HW227648   0.764   1.835   6.891 -0.3850 -0.4866 -2.5712
 5339SOL     OW27649   2.376   1.032  12.126 -0.1438 -0.0007  0.0829
 5339SOL    HW127650   2.299   0.984  12.096 -1.4083  0.9110  1.8482
 5339SOL    HW227651   2.382   1.091  12.051  2.0525  0.3796  0.5500
 5340SOL     OW27652   4.027   4.488   5.932 -0.0830  0.0438 -0.2106
 5340SOL    HW127653   4.113   4.461   5.966 -0.2246  2.0330  1.6777
 5340SOL    HW227654   4.026   4.576   5.969  1.0214  1.1793 -2.8634
 5341SOL     OW27655   3.830   1.680   1.285 -0.2043  0.2311  0.0676
 5341SOL    HW127656   3.829   1.762   1.335 -0.7819  0.2302  0.0516
 5341SOL    HW227657   3.765   1.698   1.218 -0.3855 -0.6304  0.0141
 5342SOL     OW27658   1.388   3.712   5.249 -0.3503  0.6437  0.7491
 5342SOL    HW127659   1.294   3.702   5.237 -0.1154  1.9624 -2.2720
 5342SOL    HW227660   1.382   3.807   5.260  1.9456  0.8571  0.2170
 5343SOL     OW27661   0.337   4.330  11.647  0.0581  0.6352 -0.2430
 5343SOL    HW127662   0.362   4.237  11.654  2.4910  1.3059  0.1132
 5343SOL    HW227663   0.242   4.328  11.653  0.1923 -0.2746  1.5539
 5344SOL     OW27664   2.363   0.978   1.289 -0.5406 -0.2379 -0.0647
 5344SOL    HW127665   2.426   1.006   1.355 -2.1179 -1.0551  1.7860
 5344SOL    HW227666   2.411   0.994   1.208  0.4791 -0.0628  0.5729
 5345SOL     OW27667   2.016   0.775   9.846  0.0318 -0.7882  0.2695
 5345SOL    HW127668   2.009   0.862   9.886 -2.1700 -1.0240  0.3930
 5345SOL    HW227669   2.038   0.795   9.755  1.6361  3.4340  1.5728
 5346SOL     OW27670   3.834   0.460   4.097  0.0164  0.6116 -0.1053
 5346SOL    HW127671   3.826   0.549   4.064 -1.3462  0.3462 -0.4942
 5346SOL    HW227672   3.769   0.457   4.168 -1.8032 -0.4286 -1.8386
 5347SOL     OW27673   0.599   2.257   9.479 -0.2124 -0.2206  0.2734
 5347SOL    HW127674   0.691   2.233   9.475  0.5526  2.6336  0.5669
 5347SOL    HW227675   0.562   2.172   9.503  0.2194 -0.8419 -1.2965
 5348SOL     OW27676   3.924   1.810   8.091 -0.1764  0.1543 -0.5195
 5348SOL    HW127677   3.977   1.750   8.040 -0.8925 -0.7287 -0.2154
 5348SOL    HW227678   3.978   1.887   8.108 -0.5188  0.4673 -0.8382
 5349SOL     OW27679   1.167   2.119  15.814  0.2119  0.4071  0.0708
 5349SOL    HW127680   1.203   2.161  15.736 -1.7443  1.2925 -0.3575
 5349SOL    HW227681   1.116   2.188  15.858  2.5939  0.2852  3.0156
 5350SOL     OW27682   3.895   3.972   7.863 -0.1304 -0.4355 -0.2470
 5350SOL    HW127683   3.942   3.953   7.782 -1.4183 -2.6616 -0.4792
 5350SOL    HW227684   3.809   3.974   7.820 -0.2651  0.1898  0.0369
 5351SOL     OW27685   4.682   0.407   1.205  0.0726 -0.2746  0.1393
 5351SOL    HW127686   4.673   0.389   1.298  2.1724 -2.4981 -0.1278
 5351SOL    HW227687   4.728   0.491   1.207 -0.2452 -0.0566 -1.2087
 5352SOL     OW27688   2.690   1.555   2.942  0.7094 -0.0155 -0.1024
 5352SOL    HW127689   2.628   1.486   2.966  0.8885  0.2503  1.1423
 5352SOL    HW227690   2.764   1.519   2.991  1.2546  0.2425 -0.7454
 5353SOL     OW27691   3.850   3.300   1.866 -0.1751 -0.8604  0.2925
 5353SOL    HW127692   3.888   3.279   1.951  0.4390 -1.1297 -0.0513
 5353SOL    HW227693   3.757   3.295   1.888 -0.1665 -1.8398  0.0908
 5354SOL     OW27694   1.311   0.240   7.868 -0.0217  0.4046  0.3957
 5354SOL    HW127695   1.246   0.269   7.932  0.3131  1.1180  0.4112
 5354SOL    HW227696   1.258   0.172   7.826  1.4531  0.2577 -1.2087
 5355SOL     OW27697   0.200   2.915  17.352 -0.1835  0.0698 -0.6562
 5355SOL    HW127698   0.106   2.919  17.337 -0.7541  0.0329  2.8076
 5355SOL    HW227699   0.204   2.964  17.435  0.4693  0.7499 -1.0864
 5356SOL     OW27700   0.981   2.026   1.414  0.6748  0.4639 -0.2869
 5356SOL    HW127701   1.024   2.094   1.362  0.4905  0.4332 -0.4791
 5356SOL    HW227702   0.897   2.022   1.368  0.0791  2.0017  0.6816
 5357SOL     OW27703   0.412   3.649   5.576 -0.0074 -0.2817  0.2194
 5357SOL    HW127704   0.499   3.643   5.536 -0.0596  0.3125  0.0059
 5357SOL    HW227705   0.377   3.732   5.543 -0.7767  0.4205  2.8339
 5358SOL     OW27706   4.316   0.370   3.275 -0.1369  0.1616 -0.0301
 5358SOL    HW127707   4.341   0.300   3.216  1.1361  1.7112 -1.3300
 5358SOL    HW227708   4.348   0.449   3.231  4.0793 -0.9839  0.9324
 5359SOL     OW27709   3.675   2.266   4.615  0.1828 -0.4591 -0.6576
 5359SOL    HW127710   3.628   2.294   4.694  0.9234 -0.1438 -0.3216
 5359SOL    HW227711   3.731   2.344   4.612 -2.5683  1.5764  0.4829
 5360SOL     OW27712   1.459   3.614   7.258 -0.1956  0.7202 -0.5437
 5360SOL    HW127713   1.368   3.591   7.244  0.0059  0.0915 -0.8175
 5360SOL    HW227714   1.488   3.666   7.183  1.0826  0.5305 -0.1903
 5361SOL     OW27715   2.910   0.744  16.837  0.5956 -0.4716 -0.0341
 5361SOL    HW127716   2.846   0.765  16.769  1.4260  0.0850 -0.6531
 5361SOL    HW227717   2.861   0.774  16.913  1.9954  3.0618 -0.5072
 5362SOL     OW27718   1.113   3.490   2.981 -0.4235 -0.1301 -0.4128
 5362SOL    HW127719   1.056   3.504   2.906  0.0319  0.9308 -0.5718
 5362SOL    HW227720   1.068   3.545   3.046 -1.3265  0.8857 -1.9181
 5363SOL     OW27721   4.498   0.902   3.179  0.6735  0.2034  0.1570
 5363SOL    HW127722   4.578   0.946   3.153  1.3605 -2.4519 -2.1899
 5363SOL    HW227723   4.436   0.934   3.113  2.0871  1.4261 -0.5613
 5364SOL     OW27724   3.279   4.420   8.806  0.0939  0.2902  0.7052
 5364SOL    HW127725   3.315   4.434   8.718 -0.3211 -0.5564  0.3993
 5364SOL    HW227726   3.358   4.383   8.844 -0.2760  0.8729  2.0571
 5365SOL     OW27727   1.775   4.343  16.442  0.4911 -0.0704  0.6948
 5365SOL    HW127728   1.757   4.437  16.445  0.0127 -0.1430 -0.0150
 5365SOL    HW227729   1.820   4.324  16.524 -1.1398 -1.1665  1.3321
 5366SOL     OW27730   4.541   0.412   6.122 -0.0721  0.0172  0.6368
 5366SOL    HW127731   4.531   0.448   6.034  3.9464 -2.2032 -0.7220
 5366SOL    HW227732   4.523   0.319   6.109 -0.4428  0.3092 -0.9840
 5367SOL     OW27733   0.500   2.805  10.641 -0.0526 -0.1949  0.3642
 5367SOL    HW127734   0.462   2.858  10.712 -3.0947 -1.0005 -0.6449
 5367SOL    HW227735   0.473   2.717  10.666 -0.7228 -0.4904 -1.3813
 5368SOL     OW27736   2.328   2.570   5.039 -0.5488 -0.3855 -0.2936
 5368SOL    HW127737   2.251   2.622   5.020  1.5263  1.6318 -3.1919
 5368SOL    HW227738   2.385   2.633   5.083  2.0364 -1.1605 -2.4676
 5369SOL     OW27739   1.858   3.818   8.011  0.4163 -0.1880 -1.3076
 5369SOL    HW127740   1.928   3.756   8.030  0.0126 -0.6219 -1.2519
 5369SOL    HW227741   1.890   3.845   7.925 -0.0654 -1.1466 -1.7796
 5370SOL     OW27742   1.918   3.714   3.357  0.3691 -0.0755 -0.3279
 5370SOL    HW127743   1.934   3.806   3.376  0.0893  0.2260 -1.6142
 5370SOL    HW227744   1.998   3.664   3.374  0.3579  0.1506  0.4195
 5371SOL     OW27745   4.715   2.523   8.309 -0.3212 -0.5805  0.2349
 5371SOL    HW127746   4.634   2.537   8.260 -0.1842 -0.5120  0.0294
 5371SOL    HW227747   4.706   2.432   8.338 -1.8886 -0.1354  1.1183
 5372SOL     OW27748   4.103   3.186   6.009  0.1587 -0.0324  0.7309
 5372SOL    HW127749   4.100   3.151   5.920 -3.4942  0.9921  0.4582
 5372SOL    HW227750   4.141   3.271   5.988 -1.5899 -0.3143 -3.5935
 5373SOL     OW27751   2.543   3.513   3.146 -0.5090 -0.4089 -0.0699
 5373SOL    HW127752   2.606   3.585   3.152 -0.3395 -0.6580  1.0162
 5373SOL    HW227753   2.536   3.488   3.053 -1.7334 -1.8428  0.4152
 5374SOL     OW27754   2.085   0.290   4.130  0.4573  0.3804 -0.2569
 5374SOL    HW127755   2.094   0.200   4.161 -1.7494  0.3824  0.3644
 5374SOL    HW227756   1.989   0.295   4.135  0.6530  1.2881  2.8752
 5375SOL     OW27757   1.213   4.056   3.583 -0.3508  0.4196 -0.8416
 5375SOL    HW127758   1.152   4.108   3.636 -1.1068 -0.3448 -0.9524
 5375SOL    HW227759   1.248   4.124   3.526  0.2127  0.6649 -0.2021
 5376SOL     OW27760   1.722   1.536   8.238  0.4478 -0.0083 -0.2011
 5376SOL    HW127761   1.672   1.468   8.283  1.3875 -1.7995 -1.9034
 5376SOL    HW227762   1.663   1.611   8.251  0.7504  0.2140 -0.1127
 5377SOL     OW27763   3.629   4.604   7.902  0.5748 -0.0037  0.1383
 5377SOL    HW127764   3.540   4.570   7.887  0.1908  0.1336  2.0985
 5377SOL    HW227765   3.609   4.657   7.980  1.4050 -0.3362  0.5756
 5378SOL     OW27766   2.050   2.391   9.474  0.2383  0.0004  0.2802
 5378SOL    HW127767   2.059   2.296   9.477 -2.8079 -0.3090  0.3931
 5378SOL    HW227768   2.040   2.411   9.568 -1.4997 -1.8530  0.4933
 5379SOL     OW27769   4.362   3.823   6.033 -0.9917 -0.3166 -0.5330
 5379SOL    HW127770   4.288   3.772   6.000 -0.1987 -1.5105 -0.4683
 5379SOL    HW227771   4.307   3.892   6.069 -0.7607 -1.3989  1.8480
 5380SOL     OW27772   2.526   3.476   0.620 -0.3360 -0.8981 -0.0151
 5380SOL    HW127773   2.548   3.544   0.682  0.8577 -1.1273 -0.1892
 5380SOL    HW227774   2.464   3.429   0.676  0.0499 -2.6853 -1.0589
 5381SOL     OW27775   3.281   2.360   0.670  0.4982  0.6067  0.3357
 5381SOL    HW127776   3.330   2.336   0.749  0.7685  0.2593  0.0659
 5381SOL    HW227777   3.216   2.290   0.675 -1.1775  2.1038 -1.0375
 5382SOL     OW27778   3.846   4.044   2.964  0.2225  0.3150  0.0800
 5382SOL    HW127779   3.786   4.005   3.027  2.0893 -0.8296  1.1411
 5382SOL    HW227780   3.852   3.978   2.895  0.3735  0.3371  0.0723
 5383SOL     OW27781   0.878   3.929   5.842 -0.3140  0.0870  0.2718
 5383SOL    HW127782   0.828   3.984   5.903 -1.4672 -2.9733  2.0682
 5383SOL    HW227783   0.965   3.916   5.879 -0.8332 -0.5213  1.2878
 5384SOL     OW27784   4.020   3.439   4.617  0.4445  0.3173  0.4970
 5384SOL    HW127785   3.988   3.355   4.584  0.2526  0.7474 -0.4165
 5384SOL    HW227786   4.049   3.413   4.705 -0.4984  0.4113  0.8396
 5385SOL     OW27787   2.730   2.128   7.147 -0.3266 -0.2620 -0.0806
 5385SOL    HW127788   2.765   2.094   7.064  0.9613  0.2112  0.2701
 5385SOL    HW227789   2.640   2.145   7.118 -0.3941  4.8864  3.1858
 5386SOL     OW27790   1.367   4.405  11.019  0.1941  0.2482  0.1807
 5386SOL    HW127791   1.356   4.496  10.993  2.9188  0.3864 -0.4828
 5386SOL    HW227792   1.386   4.409  11.113  3.8263  2.0994 -0.6433
 5387SOL     OW27793   2.240   0.369   3.410 -0.1987  0.1837 -1.0787
 5387SOL    HW127794   2.301   0.360   3.337  0.3019 -0.2791 -0.5979
 5387SOL    HW227795   2.199   0.283   3.404 -1.4734  0.6167  1.5020
 5388SOL     OW27796   0.737   3.319   8.662 -0.3915  0.1709  0.2694
 5388SOL    HW127797   0.723   3.265   8.739 -0.2549  0.9438  0.8394
 5388SOL    HW227798   0.738   3.402   8.709 -0.1947 -0.1369  0.8036
 5389SOL     OW27799   0.256   4.113   4.803 -0.1920 -0.3077  0.2448
 5389SOL    HW127800   0.190   4.182   4.789  0.5619  0.7784  2.0553
 5389SOL    HW227801   0.225   4.037   4.755 -0.4275  0.6871 -1.1963
 5390SOL     OW27802   1.257   0.856  14.128 -0.2891  0.5726  0.4163
 5390SOL    HW127803   1.298   0.781  14.085  0.7966  0.5505  1.5026
 5390SOL    HW227804   1.220   0.819  14.207  0.1650 -1.7351 -0.4498
 5391SOL     OW27805   1.658   1.674   9.425 -0.0056 -0.0976 -0.7550
 5391SOL    HW127806   1.593   1.718   9.370 -1.6910 -0.4012  0.9727
 5391SOL    HW227807   1.673   1.586   9.390 -0.7668 -0.4658 -0.1614
 5392SOL     OW27808   3.133   4.284   6.383 -0.1889  0.2037 -0.1352
 5392SOL    HW127809   3.219   4.326   6.381 -0.5336  0.7576 -2.9483
 5392SOL    HW227810   3.154   4.190   6.389  0.6308  0.4146  0.3226
 5393SOL     OW27811   0.092   3.096   6.344 -0.7593  0.3037 -0.0945
 5393SOL    HW127812   0.055   3.135   6.265 -2.3534 -1.4131 -0.2039
 5393SOL    HW227813   0.187   3.092   6.333 -0.5434  2.6273  0.9843
 5394SOL     OW27814   3.941   2.150   1.685  0.3959  0.0521 -0.1613
 5394SOL    HW127815   3.990   2.204   1.747 -0.5093 -1.6535  2.0475
 5394SOL    HW227816   3.867   2.122   1.739  1.0530  0.1372  0.7941
 5395SOL     OW27817   2.457   0.308   7.012 -0.1920 -0.0552  0.0647
 5395SOL    HW127818   2.447   0.353   7.096 -1.9237  0.2292 -0.2985
 5395SOL    HW227819   2.518   0.358   6.958 -0.6494  2.3877  1.8338
 5396SOL     OW27820   3.131   1.936   4.876 -0.3701 -0.2414 -0.1658
 5396SOL    HW127821   3.196   1.925   4.806 -0.5338 -2.6819  0.0510
 5396SOL    HW227822   3.053   1.928   4.822  0.5331  0.4542 -1.5812
 5397SOL     OW27823   3.364   4.345   8.067 -0.5041  0.7984  0.2665
 5397SOL    HW127824   3.331   4.372   7.981 -2.0594 -3.6349 -0.5550
 5397SOL    HW227825   3.341   4.252   8.059  1.2691  0.2263  1.9160
 5398SOL     OW27826   3.395   3.927   1.817 -0.1447  0.7169 -0.0957
 5398SOL    HW127827   3.362   4.011   1.850  2.1876  1.3553  0.6546
 5398SOL    HW227828   3.457   3.956   1.749 -1.8613 -0.3523 -2.1061
 5399SOL     OW27829   0.049   1.950   6.396 -0.3218 -0.7838  0.3001
 5399SOL    HW127830   0.056   2.045   6.383  1.3202 -1.0509 -0.7721
 5399SOL    HW227831   4.725   1.926   6.323 -1.8233 -0.4173  1.3809
 5400SOL     OW27832   3.321   0.805  12.559  0.0417  0.1355 -0.1856
 5400SOL    HW127833   3.383   0.760  12.617 -0.6093  0.8641  1.0695
 5400SOL    HW227834   3.271   0.850  12.627 -0.0198 -1.6259  0.9366
 5401SOL     OW27835   1.242   1.711   5.617 -0.4177  0.9513  0.5462
 5401SOL    HW127836   1.253   1.798   5.654 -1.3294  0.5014  1.8721
 5401SOL    HW227837   1.321   1.703   5.563 -0.3698 -0.3555  0.7938
 5402SOL     OW27838   1.806   3.450   4.986 -0.0862 -0.0635  0.5562
 5402SOL    HW127839   1.780   3.518   4.923  0.4595 -0.1199  0.2683
 5402SOL    HW227840   1.770   3.374   4.940  0.1056 -0.8800  1.7718
 5403SOL     OW27841   2.958   2.999  17.698  0.0854 -0.0391  0.6172
 5403SOL    HW127842   2.950   2.996   0.058  1.3886  1.7911  0.7877
 5403SOL    HW227843   2.894   3.066  17.675  1.2006  0.5671 -0.6878
 5404SOL     OW27844   2.450   1.830  10.025  0.2378  0.5890 -0.3093
 5404SOL    HW127845   2.543   1.809  10.041 -0.1903 -0.1268  1.2308
 5404SOL    HW227846   2.447   1.808   9.932  0.2602 -0.1838 -0.1315
 5405SOL     OW27847   1.419   1.624   6.057 -0.8004 -0.3136 -0.2251
 5405SOL    HW127848   1.467   1.626   5.974 -0.0438 -1.9885  0.1596
 5405SOL    HW227849   1.413   1.529   6.066 -0.6604 -0.4661 -1.7047
 5406SOL     OW27850   1.334   0.898   8.968  0.1620  0.0202  0.5218
 5406SOL    HW127851   1.327   0.957   8.894  3.0304  0.6016  0.7266
 5406SOL    HW227852   1.411   0.932   9.013  0.9559  0.6155 -1.3004
 5407SOL     OW27853   3.971   2.479  14.515  0.5413 -0.5747 -0.3682
 5407SOL    HW127854   3.914   2.442  14.446  1.5003 -0.1427 -1.3896
 5407SOL    HW227855   4.045   2.493  14.455 -0.2786  1.7737 -0.8219
 5408SOL     OW27856   0.919   0.154   7.141 -0.4078  0.0177 -0.1583
 5408SOL    HW127857   0.977   0.174   7.067 -0.0626 -0.1413  0.0688
 5408SOL    HW227858   0.841   0.144   7.087  0.2125 -0.5624 -0.9380
 5409SOL     OW27859   3.332   1.538  16.927  0.0244 -0.2999  0.1566
 5409SOL    HW127860   3.271   1.593  16.879 -1.1615 -0.8892  1.0079
 5409SOL    HW227861   3.286   1.455  16.919  1.0976 -0.7916 -0.9640
 5410SOL     OW27862   2.637   1.032  16.638  0.4000  0.1794 -0.2093
 5410SOL    HW127863   2.565   1.041  16.576 -0.6021 -1.5963  0.6905
 5410SOL    HW227864   2.719   1.028  16.588 -0.3512 -0.2501 -1.4132
 5411SOL     OW27865   0.063   4.046   5.877  0.3517 -0.0447  0.0377
 5411SOL    HW127866   4.709   4.054   5.915 -0.3743 -1.2529 -1.4049
 5411SOL    HW227867   0.089   3.955   5.889 -0.7122 -0.1999  1.1440
 5412SOL     OW27868   3.080   2.397   1.466  0.1174 -0.0340  0.3356
 5412SOL    HW127869   3.009   2.342   1.432 -1.4835  0.8935  2.1300
 5412SOL    HW227870   3.076   2.476   1.413  3.1948 -0.7085 -0.8826
 5413SOL     OW27871   2.496   2.012   6.728  0.0327  0.3569 -0.0071
 5413SOL    HW127872   2.573   2.060   6.697  1.4346 -1.8416  0.0485
 5413SOL    HW227873   2.535   1.925   6.734 -1.7408 -0.4779 -0.5884
 5414SOL     OW27874   2.424   1.204   6.515  0.1475 -0.3531 -0.3674
 5414SOL    HW127875   2.429   1.268   6.443 -0.8162  0.1552  0.0193
 5414SOL    HW227876   2.362   1.138   6.485  0.5233 -0.5805 -0.6543
 5415SOL     OW27877   4.709   3.357  15.787 -0.1616 -0.2663 -0.3189
 5415SOL    HW127878   4.661   3.312  15.857  4.2382 -2.2632  1.3900
 5415SOL    HW227879   4.715   3.289  15.720 -1.3021 -0.4762 -0.2166
 5416SOL     OW27880   3.124   4.519   1.375 -0.4152  0.5180 -0.1328
 5416SOL    HW127881   3.199   4.534   1.317 -1.0012 -0.4230 -1.1307
 5416SOL    HW227882   3.081   4.445   1.332  1.2538 -0.2260 -0.5139
 5417SOL     OW27883   1.055   1.125   7.539  0.0515 -0.0303  0.5203
 5417SOL    HW127884   1.129   1.077   7.577  0.9333  0.0372 -1.1079
 5417SOL    HW227885   1.088   1.147   7.452 -0.2721 -0.0079  0.4035
 5418SOL     OW27886   2.461   3.140   5.223 -0.0534  0.5846 -0.5641
 5418SOL    HW127887   2.451   3.196   5.146 -1.1615  1.8344  0.4976
 5418SOL    HW227888   2.403   3.069   5.195 -1.5177  1.6708 -0.2879
 5419SOL     OW27889   4.300   1.380   7.334 -0.5751 -0.3385  0.6995
 5419SOL    HW127890   4.284   1.304   7.389  1.2354  0.8959  2.9612
 5419SOL    HW227891   4.354   1.340   7.266 -0.1198  2.0922 -0.3684
 5420SOL     OW27892   3.942   0.311   6.399 -0.2261 -0.1586 -0.5269
 5420SOL    HW127893   3.899   0.378   6.345 -3.8156 -1.3356  0.8507
 5420SOL    HW227894   3.977   0.356   6.475 -0.7983 -0.0820 -0.3056
 5421SOL     OW27895   2.642   0.003  10.689  0.1559  0.0131 -0.3556
 5421SOL    HW127896   2.723   0.038  10.652 -0.1164  0.4838 -0.4954
 5421SOL    HW227897   2.681   4.696  10.766  1.4160  0.1646 -0.8992
 5422SOL     OW27898   2.344   0.053   5.639 -0.0261  0.4214  0.0106
 5422SOL    HW127899   2.384   0.133   5.674 -1.2972  0.9682  0.1825
 5422SOL    HW227900   2.257   0.072   5.674  0.2183  1.0664  0.2687
 5423SOL     OW27901   0.480   3.611  10.325  0.2103  0.2763 -0.3421
 5423SOL    HW127902   0.544   3.607  10.396 -2.9937 -0.5742  2.4627
 5423SOL    HW227903   0.444   3.523  10.329  1.3821 -0.3704 -3.8132
 5424SOL     OW27904   3.273   0.029  15.443 -0.0802  0.1576 -0.2221
 5424SOL    HW127905   3.196   0.001  15.393  0.5895  0.4355 -1.4227
 5424SOL    HW227906   3.248   0.119  15.465 -1.1068 -0.8400  2.6652
 5425SOL     OW27907   1.808   0.491   7.362  0.0078  0.8966  0.0644
 5425SOL    HW127908   1.834   0.481   7.453 -0.5415 -0.9973  0.0126
 5425SOL    HW227909   1.893   0.486   7.317 -0.1424  2.9001 -0.4564
 5426SOL     OW27910   3.652   3.117   9.206  0.1460  1.2298 -0.1442
 5426SOL    HW127911   3.715   3.059   9.248 -1.0229 -0.4075 -0.6502
 5426SOL    HW227912   3.709   3.191   9.185  0.8502  1.2691  1.8783
 5427SOL     OW27913   0.957   2.429   4.479  0.5155 -0.1190 -0.5799
 5427SOL    HW127914   0.938   2.410   4.571 -0.4693  0.5344 -0.6563
 5427SOL    HW227915   1.012   2.505   4.499 -0.4272  0.5170 -0.4263
 5428SOL     OW27916   4.265   2.917  17.376 -0.1242  0.5275 -0.0807
 5428SOL    HW127917   4.199   2.916  17.307 -0.4847  2.0045  0.2377
 5428SOL    HW227918   4.306   3.001  17.356 -0.6558  0.7498 -0.2210
 5429SOL     OW27919   4.430   2.473   9.669 -0.3192  0.0445  0.4319
 5429SOL    HW127920   4.376   2.549   9.686  0.8982  1.0036  0.0336
 5429SOL    HW227921   4.420   2.422   9.750  0.3404  0.9132  1.0676
 5430SOL     OW27922   0.316   0.356   7.901  0.7048  0.0912  0.2810
 5430SOL    HW127923   0.350   0.436   7.861  0.4691 -0.6824 -1.4765
 5430SOL    HW227924   0.254   0.389   7.965 -0.4746 -0.2647 -0.6816
 5431SOL     OW27925   0.130   1.673   7.132  0.3898  0.3405 -0.7582
 5431SOL    HW127926   0.215   1.652   7.093  1.1347  1.5255  0.2374
 5431SOL    HW227927   0.112   1.587   7.171 -2.6327  1.5879  0.5698
 5432SOL     OW27928   0.848   4.135   4.395 -0.2060  0.5213  0.4910
 5432SOL    HW127929   0.808   4.083   4.325  2.3680  0.1494 -0.7064
 5432SOL    HW227930   0.942   4.121   4.380 -0.3757  0.7509 -0.7389
 5433SOL     OW27931   0.534   4.072   0.404 -0.2212  0.0200 -0.2322
 5433SOL    HW127932   0.551   4.139   0.470  0.5996  0.7864 -1.2209
 5433SOL    HW227933   0.464   4.121   0.363 -2.1468  0.3125  3.4601
 5434SOL     OW27934   2.741   2.848   8.065  0.7452  0.1153  0.2765
 5434SOL    HW127935   2.736   2.756   8.092 -0.0894 -0.0585 -0.4618
 5434SOL    HW227936   2.766   2.827   7.975  0.2572 -0.2126  0.2195
 5435SOL     OW27937   3.346   2.814   3.188 -0.1166 -0.2764 -0.1893
 5435SOL    HW127938   3.286   2.746   3.218  1.9885 -1.4639  1.2723
 5435SOL    HW227939   3.390   2.765   3.118  1.2054  0.9984 -0.2484
 5436SOL     OW27940   3.331   1.335  12.035 -0.0323 -0.1600  0.5058
 5436SOL    HW127941   3.350   1.383  12.116 -2.9357  1.6392  0.1163
 5436SOL    HW227942   3.417   1.363  12.003 -0.1350  0.9217  1.1724
 5437SOL     OW27943   1.946   0.226   7.497 -0.1315 -0.1106 -0.1598
 5437SOL    HW127944   1.873   0.167   7.474 -2.3086  2.8006 -0.6464
 5437SOL    HW227945   1.909   0.292   7.556  0.1708  1.2422 -1.4961
 5438SOL     OW27946   3.434   0.417   7.649 -0.4361 -0.1847  0.0062
 5438SOL    HW127947   3.465   0.411   7.739  0.3644 -3.5220 -0.4867
 5438SOL    HW227948   3.357   0.360   7.652 -0.8067  0.3956  1.2811
 5439SOL     OW27949   0.682   2.573   3.987  0.1368  0.4461 -0.1446
 5439SOL    HW127950   0.763   2.531   3.958  0.6693  0.6127  1.0969
 5439SOL    HW227951   0.704   2.574   4.080 -0.1240  0.2691 -0.0807
 5440SOL     OW27952   4.290   4.429   6.073  0.1210  0.0775  0.3716
 5440SOL    HW127953   4.291   4.409   6.167 -1.1118 -0.2906  0.3054
 5440SOL    HW227954   4.367   4.375   6.056  0.0235  0.6193 -1.7460
 5441SOL     OW27955   2.517   2.945  16.602  0.0911 -0.0946 -0.8043
 5441SOL    HW127956   2.488   2.855  16.590 -1.4541  0.1330  1.2347
 5441SOL    HW227957   2.599   2.957  16.553  1.8415 -2.1272  1.6129
 5442SOL     OW27958   2.101   4.214   7.477 -0.5825 -0.0552 -0.2561
 5442SOL    HW127959   2.152   4.235   7.555 -1.0439  1.5579 -0.3856
 5442SOL    HW227960   2.144   4.134   7.447 -0.0556 -0.1409  0.7371
 5443SOL     OW27961   0.991   1.984   8.131 -0.1186  0.3550  0.3711
 5443SOL    HW127962   0.968   1.895   8.105  1.3434 -0.2130  1.0129
 5443SOL    HW227963   1.040   1.956   8.209  2.9868  1.7954 -1.0370
 5444SOL     OW27964   1.716   0.431   6.033  0.0001 -0.4880 -0.5012
 5444SOL    HW127965   1.700   0.367   5.964 -0.3159 -0.3722 -0.5334
 5444SOL    HW227966   1.735   0.506   5.976 -1.0002  0.4377  0.3791
 5445SOL     OW27967   1.355   1.612  13.805 -0.8081  1.3027  0.2925
 5445SOL    HW127968   1.359   1.696  13.851  1.5461  1.7897 -0.8182
 5445SOL    HW227969   1.344   1.642  13.715 -1.0797  2.2456  0.6331
 5446SOL     OW27970   1.429   1.767   6.528  0.2046 -0.0717 -0.6343
 5446SOL    HW127971   1.459   1.691   6.478  1.8295  0.7556 -0.8863
 5446SOL    HW227972   1.511   1.816   6.531  0.2470 -0.1455 -0.5824
 5447SOL     OW27973   2.534   4.486  16.227  0.1153  0.2512 -0.6502
 5447SOL    HW127974   2.550   4.448  16.313  0.6847 -1.9118 -1.7063
 5447SOL    HW227975   2.617   4.533  16.215 -0.8661  2.2187  0.3127
 5448SOL     OW27976   3.348   3.232   8.256 -0.6578 -0.1105 -0.3287
 5448SOL    HW127977   3.333   3.278   8.339 -2.5499 -1.4419  0.0568
 5448SOL    HW227978   3.327   3.143   8.284  0.5311 -0.0477  0.7699
 5449SOL     OW27979   1.597   4.119   3.804 -0.7463 -0.6328 -0.5006
 5449SOL    HW127980   1.648   4.068   3.741  0.3993 -0.8299  0.5960
 5449SOL    HW227981   1.532   4.163   3.748  0.7614  2.0953 -0.0983
 5450SOL     OW27982   3.488   2.835   1.188  0.0114  0.1140  0.1040
 5450SOL    HW127983   3.568   2.786   1.208  0.0142 -0.1848 -0.6065
 5450SOL    HW227984   3.477   2.885   1.268  1.1887 -0.7542  0.8108
 5451SOL     OW27985   4.051   0.238   8.965  0.5122  0.2142  1.0273
 5451SOL    HW127986   3.993   0.165   8.986 -0.4219  0.2578 -1.4652
 5451SOL    HW227987   4.035   0.288   9.045 -0.2132 -0.4547  1.3029
 5452SOL     OW27988   0.568   2.520  11.682 -0.0410 -0.2467 -0.4702
 5452SOL    HW127989   0.556   2.577  11.607 -0.3055  0.4617  0.1137
 5452SOL    HW227990   0.604   2.443  11.639  1.6051 -0.3567  1.0990
 5453SOL     OW27991   1.168   3.423   4.728  0.3158 -0.0986  0.4038
 5453SOL    HW127992   1.099   3.471   4.774 -0.3364  1.6542 -2.4113
 5453SOL    HW227993   1.116   3.352   4.693  0.7582 -0.8164  1.1960
 5454SOL     OW27994   2.792   2.946  13.683 -0.2840 -0.2562 -0.7831
 5454SOL    HW127995   2.724   2.998  13.727 -0.6116 -1.7239  0.4364
 5454SOL    HW227996   2.753   2.933  13.596 -0.9915  0.3426 -0.5516
 5455SOL     OW27997   2.003   1.404   5.276 -0.2386 -0.4354  0.4014
 5455SOL    HW127998   1.908   1.402   5.264 -0.0325  0.6562 -1.4849
 5455SOL    HW227999   2.025   1.488   5.316 -1.7707  0.8885 -1.5221
 5456SOL     OW28000   4.189   4.533   3.113  0.3015 -0.8699  0.4541
 5456SOL    HW128001   4.261   4.510   3.173  0.4824 -1.2478  0.0923
 5456SOL    HW228002   4.137   4.590   3.168 -0.9938 -0.6945 -0.9544
 5457SOL     OW28003   1.955   4.115   4.901  0.3235 -0.2617  0.1508
 5457SOL    HW128004   2.014   4.062   4.955 -1.3856 -3.2597 -0.9835
 5457SOL    HW228005   1.941   4.059   4.825 -2.0608  0.1177  0.3134
 5458SOL     OW28006   3.971   0.584   8.593  0.6357  0.5468 -0.0740
 5458SOL    HW128007   3.992   0.493   8.574  0.8082  0.3896  0.8931
 5458SOL    HW228008   4.033   0.608   8.662 -1.8669 -0.2707  2.4469
 5459SOL     OW28009   2.123   0.760   2.446 -0.0328  0.0756 -0.3932
 5459SOL    HW128010   2.102   0.668   2.432  1.5438  0.1223 -3.2124
 5459SOL    HW228011   2.063   0.799   2.382 -0.4737 -1.3423 -0.8348
 5460SOL     OW28012   0.055   0.580   0.292  0.1705  0.2992 -0.2008
 5460SOL    HW128013   0.142   0.616   0.277 -0.1835  1.2058 -0.0313
 5460SOL    HW228014   0.073   0.486   0.285  1.4458  0.4566  0.9546
 5461SOL     OW28015   4.544   2.031   2.793  0.5052 -0.1577  0.2388
 5461SOL    HW128016   4.605   1.986   2.852  1.9427  1.4954  0.0216
 5461SOL    HW228017   4.556   1.974   2.718 -2.5729 -1.0628  0.4165
 5462SOL     OW28018   1.170   0.973   4.204 -0.0975 -0.3712  0.2966
 5462SOL    HW128019   1.158   1.038   4.135  0.9432  0.4544  0.8881
 5462SOL    HW228020   1.211   0.902   4.154 -1.0593  0.0464 -1.0691
 5463SOL     OW28021   0.265   0.457   3.900 -0.0806 -0.0598 -0.3457
 5463SOL    HW128022   0.270   0.368   3.865 -1.9438 -0.1856 -0.2986
 5463SOL    HW228023   0.171   0.472   3.899  0.0137  0.1298 -4.4188
 5464SOL     OW28024   0.600   2.155   4.284  0.5725  0.1503 -0.2416
 5464SOL    HW128025   0.528   2.147   4.347  1.2418  1.1205  0.6428
 5464SOL    HW228026   0.564   2.212   4.216 -0.2051 -0.3775 -0.2771
 5465SOL     OW28027   0.479   1.964   3.973  0.1962 -0.0130 -0.0639
 5465SOL    HW128028   0.405   1.914   3.939  1.3473 -1.7038 -0.0657
 5465SOL    HW228029   0.531   1.917   4.038  0.7074  0.0233 -0.4498
 5466SOL     OW28030   1.526   3.681   6.667  0.1315  0.3135  0.2060
 5466SOL    HW128031   1.509   3.590   6.691 -0.4013  0.2193 -0.5508
 5466SOL    HW228032   1.439   3.714   6.648  0.1822 -0.7319 -1.8508
 5467SOL     OW28033   1.012   1.392  12.131 -0.3182 -0.5811  0.2547
 5467SOL    HW128034   1.015   1.329  12.203 -1.3173 -2.1124 -1.0315
 5467SOL    HW228035   1.100   1.430  12.127 -0.6298 -0.1091 -2.2937
 5468SOL     OW28036   0.915   1.036   2.954 -0.2049  0.3380  0.7139
 5468SOL    HW128037   0.926   1.100   3.025  0.0701  1.5340 -0.4138
 5468SOL    HW228038   0.832   0.991   2.968 -1.5842  2.7174  0.2794
 5469SOL     OW28039   0.147   1.675   8.736 -0.2538  0.6469  0.3832
 5469SOL    HW128040   0.132   1.766   8.759 -0.9375  0.9863 -1.3528
 5469SOL    HW228041   0.070   1.670   8.679  1.5689 -2.1843 -1.8282
 5470SOL     OW28042   4.377   2.083   1.942  0.1328  0.1434 -0.5430
 5470SOL    HW128043   4.445   2.029   1.983  0.2989  0.7887  0.0432
 5470SOL    HW228044   4.322   2.014   1.906  2.8348 -0.9300 -2.6488
 5471SOL     OW28045   3.150   0.387   8.070  0.4101  0.6193 -0.1309
 5471SOL    HW128046   3.101   0.454   8.021  1.4967  0.6830 -1.1520
 5471SOL    HW228047   3.165   0.323   8.000  0.8264 -0.3182  0.8329
 5472SOL     OW28048   2.100   1.698  14.633 -0.0758  0.2017  0.5343
 5472SOL    HW128049   2.021   1.750  14.618 -0.8977 -0.6182  2.1059
 5472SOL    HW228050   2.077   1.639  14.704  1.2635  1.2097  1.8057
 5473SOL     OW28051   2.923   3.121   3.438 -0.1061  0.1319  0.2191
 5473SOL    HW128052   2.946   3.107   3.529 -0.5743  0.4160  0.3829
 5473SOL    HW228053   2.970   3.054   3.389 -0.2256  1.1452 -1.2873
 5474SOL     OW28054   0.365   3.464   4.813 -0.1947 -0.3559 -0.3151
 5474SOL    HW128055   0.360   3.405   4.738 -1.2660 -0.3190 -0.2666
 5474SOL    HW228056   0.362   3.544   4.760 -0.4778 -1.1870 -1.5427
 5475SOL     OW28057   0.440   2.182   5.799  0.3550 -0.3197  0.4094
 5475SOL    HW128058   0.481   2.105   5.839  0.8057  0.3942  1.3498
 5475SOL    HW228059   0.421   2.243   5.871  0.6156  0.5571 -0.2715
 5476SOL     OW28060   3.945   2.101  15.846  0.6471  0.0623  0.1290
 5476SOL    HW128061   3.917   2.021  15.891 -0.8570 -0.3627 -1.5508
 5476SOL    HW228062   3.955   2.164  15.918  1.4780  0.6456 -0.5003
 5477SOL     OW28063   1.028   2.710  15.067  0.0486  0.2367 -0.0081
 5477SOL    HW128064   1.029   2.732  14.974 -1.2025  0.7953  0.1103
 5477SOL    HW228065   0.935   2.726  15.084 -0.9188 -2.2176 -3.0040
 5478SOL     OW28066   1.196   2.900   2.410 -0.1375  0.1123  0.2729
 5478SOL    HW128067   1.237   2.841   2.473  1.2653 -0.8754 -1.5391
 5478SOL    HW228068   1.179   2.833   2.344  1.4241  0.2618 -0.2698
 5479SOL     OW28069   3.799   1.324   2.372  0.3709 -0.2232 -0.6426
 5479SOL    HW128070   3.871   1.384   2.354 -2.2333  3.0242 -0.4007
 5479SOL    HW228071   3.793   1.278   2.288 -0.2229  0.8552 -1.1938
 5480SOL     OW28072   3.758   1.608   3.083 -0.0904 -0.0004 -0.2289
 5480SOL    HW128073   3.780   1.674   3.148 -2.0770 -1.4516  1.8841
 5480SOL    HW228074   3.765   1.654   2.999  0.3771  1.2911  0.5307
 5481SOL     OW28075   0.625   4.052   1.534 -0.6753  0.7549 -0.0293
 5481SOL    HW128076   0.565   3.997   1.585  2.0225 -0.9430  1.3083
 5481SOL    HW228077   0.649   3.981   1.474 -2.0632 -1.5401  2.0776
 5482SOL     OW28078   1.372   4.572   1.560 -0.6132  0.0161  0.0479
 5482SOL    HW128079   1.420   4.652   1.579 -0.7616  0.7689 -2.8058
 5482SOL    HW228080   1.351   4.576   1.467  0.0539  2.3685  0.0114
 5483SOL     OW28081   0.306   0.483   4.424  0.1371 -0.3404 -0.8992
 5483SOL    HW128082   0.381   0.428   4.399  0.4364 -0.2271 -0.2467
 5483SOL    HW228083   0.237   0.435   4.379  0.4510  1.8349 -3.7208
 5484SOL     OW28084   3.812   3.787   0.247 -0.1951 -0.3936  0.1996
 5484SOL    HW128085   3.883   3.726   0.270  1.6112  2.0565  1.1354
 5484SOL    HW228086   3.812   3.789   0.152 -0.8582  0.9010  0.2316
 5485SOL     OW28087   3.729   3.752   4.887 -0.2656  0.4566  0.1417
 5485SOL    HW128088   3.759   3.713   4.805  0.3042 -1.1796  1.1075
 5485SOL    HW228089   3.777   3.692   4.945  1.0979  0.2791 -1.1748
 5486SOL     OW28090   1.216   2.506  11.745  0.1343  0.1557 -0.1139
 5486SOL    HW128091   1.168   2.549  11.815  0.5926  0.8487 -0.2248
 5486SOL    HW228092   1.154   2.517  11.673 -0.8254  3.6583  1.2713
 5487SOL     OW28093   3.758   2.533   8.408  0.7278  0.0543  0.0616
 5487SOL    HW128094   3.671   2.495   8.402  1.6834 -2.1525  0.4660
 5487SOL    HW228095   3.811   2.455   8.420  1.0729  0.5178  1.5075
 5488SOL     OW28096   0.766   1.705   4.816 -0.3155 -0.2441  0.1955
 5488SOL    HW128097   0.855   1.705   4.782 -0.9213  1.1098 -1.4100
 5488SOL    HW228098   0.739   1.619   4.785  0.4825  0.2334 -1.8151
 5489SOL     OW28099   2.037   0.841   3.985  0.3352  0.1519  0.1261
 5489SOL    HW128100   2.127   0.832   4.016  0.3659  1.0091  0.2610
 5489SOL    HW228101   2.026   0.927   3.945  0.9007  0.2183  0.1176
 5490SOL     OW28102   2.988   2.232   9.026  0.0979  0.5701  0.3027
 5490SOL    HW128103   3.054   2.164   9.033  0.2220  0.4895 -1.7712
 5490SOL    HW228104   3.031   2.311   9.059  0.0127  1.0666 -0.7960
 5491SOL     OW28105   4.207   2.377   7.832 -0.3269 -0.0928 -0.0686
 5491SOL    HW128106   4.174   2.426   7.907 -0.1157  1.0989 -0.7388
 5491SOL    HW228107   4.238   2.448   7.775  0.3895 -0.8264 -0.5870
 5492SOL     OW28108   3.011   2.959   1.747  0.3983 -0.6301 -0.8161
 5492SOL    HW128109   3.087   2.935   1.801  0.4338 -0.1552 -0.6543
 5492SOL    HW228110   2.945   2.907   1.793  0.0007 -0.4777 -1.2197
 5493SOL     OW28111   2.606   0.815  15.216 -0.6068 -0.7492 -0.4303
 5493SOL    HW128112   2.520   0.806  15.257 -0.9198  0.6185 -0.7927
 5493SOL    HW228113   2.633   0.883  15.278 -2.1022 -0.2378 -0.3532
 5494SOL     OW28114   0.367   2.216  10.312 -0.0981  0.2612  0.0096
 5494SOL    HW128115   0.293   2.166  10.280  1.6696 -1.8191 -0.8505
 5494SOL    HW228116   0.423   2.141  10.332 -1.4627 -1.0503 -1.0858
 5495SOL     OW28117   1.003   1.360   2.678 -0.0383 -0.5503 -0.6415
 5495SOL    HW128118   1.023   1.401   2.594  0.7231  0.1057 -0.1451
 5495SOL    HW228119   0.915   1.390   2.700  0.4425  0.3722  0.0234
 5496SOL     OW28120   0.349   0.880   3.845 -0.2688  0.1012  0.2200
 5496SOL    HW128121   0.261   0.884   3.808 -0.0368 -0.5462 -0.4122
 5496SOL    HW228122   0.381   0.797   3.808 -1.1708 -0.5351  0.8649
 5497SOL     OW28123   3.349   3.513  16.989  0.4526  0.0799 -0.0240
 5497SOL    HW128124   3.336   3.534  17.082 -0.4458  1.2666 -0.4240
 5497SOL    HW228125   3.378   3.601  16.963 -0.1748  0.2770 -0.0669
 5498SOL     OW28126   0.433   3.701  13.606  0.2349  0.2251 -0.2041
 5498SOL    HW128127   0.473   3.788  13.604 -1.3444  1.0292  2.6245
 5498SOL    HW228128   0.507   3.657  13.648 -0.5248 -0.5512  0.3165
 5499SOL     OW28129   2.794   2.675   5.684  0.2206 -0.8034 -0.2029
 5499SOL    HW128130   2.821   2.765   5.701 -0.5204 -1.2191  3.2106
 5499SOL    HW228131   2.864   2.651   5.623 -1.4055 -2.9814 -1.2189
 5500SOL     OW28132   4.172   1.137   2.970 -0.1711  0.3618 -0.3761
 5500SOL    HW128133   4.154   1.226   3.000  0.1030 -0.1942  1.3999
 5500SOL    HW228134   4.267   1.136   2.968 -0.1331  2.9234  0.6905
 5501SOL     OW28135   2.923   0.418   2.074  0.1820 -0.4563 -0.0441
 5501SOL    HW128136   2.864   0.474   2.022 -0.4237 -1.6741 -0.6690
 5501SOL    HW228137   2.860   0.387   2.138  1.4155  0.0364  1.3911
 5502SOL     OW28138   3.245   4.029   4.761  0.2230 -0.0385 -0.1091
 5502SOL    HW128139   3.232   4.061   4.851  0.9811  2.4478 -0.8767
 5502SOL    HW228140   3.230   3.938   4.788 -0.1871 -0.7025 -2.5892
 5503SOL     OW28141   4.651   2.829   7.481  0.0269  0.2148  0.2527
 5503SOL    HW128142   0.009   2.804   7.489 -0.0659 -0.9361 -2.3908
 5503SOL    HW228143   4.612   2.754   7.526 -3.1093  0.7197 -1.6298
 5504SOL     OW28144   2.835   4.228   2.392 -0.3560  0.7490  0.4925
 5504SOL    HW128145   2.922   4.197   2.368 -0.6039  1.0961 -0.8492
 5504SOL    HW228146   2.779   4.158   2.358  1.5762 -1.1131  1.1467
 5505SOL     OW28147   1.257   3.641  17.696 -0.3671  0.1313  0.4402
 5505SOL    HW128148   1.316   3.711  17.669  0.0819  0.5176  2.3928
 5505SOL    HW228149   1.217   3.684   0.036 -2.2781 -1.9228  0.6198
 5506SOL     OW28150   4.076   3.030   9.421 -0.1476  0.4146  0.0308
 5506SOL    HW128151   4.134   2.967   9.379 -0.5891 -0.2731  0.4472
 5506SOL    HW228152   4.073   2.990   9.508  2.6774  0.2284  0.0562
 5507SOL     OW28153   2.943   1.378  15.140 -0.1557  0.2870  0.7811
 5507SOL    HW128154   2.917   1.434  15.213 -1.5143  1.0154 -0.2510
 5507SOL    HW228155   2.910   1.292  15.165 -3.1903  1.3369  0.4430
 5508SOL     OW28156   3.120   1.107  15.337  0.1278  0.1477 -0.4875
 5508SOL    HW128157   3.165   1.192  15.330  0.7782 -0.2177 -0.7117
 5508SOL    HW228158   3.197   1.057  15.362  0.8486  1.7576  0.5354
 5509SOL     OW28159   2.995   1.460   3.834 -1.1860 -0.1563 -0.6374
 5509SOL    HW128160   2.998   1.392   3.767  0.5349  0.1913 -0.9200
 5509SOL    HW228161   2.918   1.428   3.881 -0.3466  0.1329  0.9668
 5510SOL     OW28162   4.474   2.559   3.335 -0.0583 -0.3855 -0.0296
 5510SOL    HW128163   4.437   2.473   3.316 -3.2716  1.6773 -3.0969
 5510SOL    HW228164   4.408   2.610   3.288  1.6264  2.8409  1.0332
 5511SOL     OW28165   2.779   1.849  11.997  0.2463 -0.0006 -0.5632
 5511SOL    HW128166   2.855   1.846  12.055  1.2482  0.6689 -1.8579
 5511SOL    HW228167   2.811   1.888  11.916  0.8505  0.1282 -0.2579
 5512SOL     OW28168   1.001   4.026  16.786 -0.2969  0.2550  0.2797
 5512SOL    HW128169   1.024   4.050  16.696  0.1680 -0.2791  0.2542
 5512SOL    HW228170   0.912   3.990  16.779 -0.4284  0.2603  2.1022
 5513SOL     OW28171   1.155   2.658  11.962  0.1810 -0.4256 -0.9587
 5513SOL    HW128172   1.193   2.711  12.032  1.1084 -0.9252 -1.0829
 5513SOL    HW228173   1.151   2.577  12.013  1.5621 -0.0028 -0.1776
 5514SOL     OW28174   2.400   0.794  17.516 -0.3799  0.1239 -0.0838
 5514SOL    HW128175   2.385   0.740  17.438  1.1179 -0.1956 -0.1668
 5514SOL    HW228176   2.408   0.880  17.477  2.1299  0.1599  0.4488
 5515SOL     OW28177   1.450   3.063   8.554 -1.0545  0.5593 -0.1034
 5515SOL    HW128178   1.507   3.125   8.599 -2.6365  1.7355  0.2939
 5515SOL    HW228179   1.486   3.057   8.465  2.3856 -0.2274  1.3579
 5516SOL     OW28180   1.103   1.446   2.437 -0.3087 -0.3936  0.5323
 5516SOL    HW128181   1.076   1.530   2.400 -1.3319 -0.8287  0.2729
 5516SOL    HW228182   1.096   1.402   2.352  3.3952 -0.4902  0.2829
 5517SOL     OW28183   0.008   0.666   4.924  0.4166  0.2952  0.1248
 5517SOL    HW128184   0.033   0.716   4.846 -1.5169  1.8058  0.4785
 5517SOL    HW228185   0.053   0.707   4.998 -0.4817 -1.4485  1.6139
 5518SOL     OW28186   0.124   3.160   5.835 -0.1434  0.8992 -0.4592
 5518SOL    HW128187   0.059   3.116   5.780 -1.3586  2.2482 -0.0800
 5518SOL    HW228188   0.167   3.216   5.771 -1.2720  2.6430  0.3340
 5519SOL     OW28189   4.692   3.769   3.416 -0.1481  0.5987 -0.1652
 5519SOL    HW128190   0.036   3.787   3.364 -0.9672  0.0588 -1.5874
 5519SOL    HW228191   4.730   3.744   3.500 -0.5110 -0.8330 -0.4183
 5520SOL     OW28192   2.619   0.161   3.715  0.2626 -0.3600 -0.0425
 5520SOL    HW128193   2.690   0.213   3.677 -0.9595  0.8975 -0.6338
 5520SOL    HW228194   2.564   0.238   3.727 -0.1903 -0.5037 -1.1750
 5521SOL     OW28195   2.726   1.196   6.979  0.0927  0.1203  0.2498
 5521SOL    HW128196   2.685   1.125   7.029  3.6893 -2.3619 -0.2914
 5521SOL    HW228197   2.731   1.153   6.894 -1.5183 -0.0815  0.2597
 5522SOL     OW28198   4.224   2.101   4.843 -0.0279 -0.0472  0.1910
 5522SOL    HW128199   4.278   2.110   4.922 -1.3620  1.2677  0.9760
 5522SOL    HW228200   4.133   2.111   4.871 -0.1727 -1.5428  0.2622
 5523SOL     OW28201   2.393   4.691  13.079  0.3424  0.3484  0.8652
 5523SOL    HW128202   2.321   4.689  13.016 -0.3435 -0.5297  1.6754
 5523SOL    HW228203   2.448   4.621  13.044  3.2115  2.7602  0.5320
 5524SOL     OW28204   4.249   2.941  11.504 -0.2323  0.0627 -0.1229
 5524SOL    HW128205   4.340   2.957  11.527 -0.8588  1.0920  1.6213
 5524SOL    HW228206   4.219   2.926  11.593 -0.4300 -1.2983 -0.4125
 5525SOL     OW28207   1.990   4.006   3.715  0.6568  0.3193 -0.6039
 5525SOL    HW128208   2.031   3.941   3.658 -1.1738 -1.5442  0.1833
 5525SOL    HW228209   1.897   3.989   3.703  0.0921  0.5074  3.3648
 5526SOL     OW28210   0.796   2.848   4.906 -0.1116 -0.5404  0.0160
 5526SOL    HW128211   0.751   2.829   4.824  2.1256  1.3257 -1.6227
 5526SOL    HW228212   0.889   2.840   4.884  0.0262  2.4215 -0.4023
 5527SOL     OW28213   1.725   0.879   7.589  0.5709  0.1018 -0.0982
 5527SOL    HW128214   1.644   0.857   7.636  1.1283  1.1950  1.3922
 5527SOL    HW228215   1.769   0.930   7.657 -1.0945 -0.5380  1.4493
 5528SOL     OW28216   2.149   1.656   8.449  0.0705 -0.0935 -0.0011
 5528SOL    HW128217   2.103   1.728   8.491  1.1677  0.5741  0.0465
 5528SOL    HW228218   2.153   1.597   8.524  0.5887 -0.3173 -0.2015
 5529SOL     OW28219   2.241   0.736  16.461 -0.3575  0.0184 -0.4622
 5529SOL    HW128220   2.257   0.651  16.503  0.9277 -0.6343 -2.2629
 5529SOL    HW228221   2.147   0.747  16.470  0.0386 -0.5666  4.1989
 5530SOL     OW28222   2.695   0.417   5.738  0.4365 -0.2198  0.3268
 5530SOL    HW128223   2.716   0.435   5.830  0.6524 -0.8938  0.4096
 5530SOL    HW228224   2.776   0.452   5.702  0.7573  0.7481  1.9805
 5531SOL     OW28225   3.516   0.137  15.280  0.1546 -0.6957 -0.2921
 5531SOL    HW128226   3.548   0.186  15.357 -1.2641 -1.0004  0.4920
 5531SOL    HW228227   3.439   0.093  15.315 -0.4790  0.2843 -0.4646
 5532SOL     OW28228   0.006   0.732   0.524  0.3060 -0.5813  0.2597
 5532SOL    HW128229   4.657   0.774   0.503  0.9816  0.9269  0.5606
 5532SOL    HW228230   0.025   0.679   0.446 -0.1995 -1.3016  0.6344
 5533SOL     OW28231   2.721   3.115   1.693  0.2431  0.1704 -0.3986
 5533SOL    HW128232   2.669   3.045   1.734  0.1936  0.5530  0.1814
 5533SOL    HW228233   2.782   3.158   1.753  1.2995 -1.4872 -0.2826
 5534SOL     OW28234   4.206   2.741  16.374  0.3938  0.0871  0.1152
 5534SOL    HW128235   4.147   2.721  16.446 -0.0030  1.1962  0.0982
 5534SOL    HW228236   4.286   2.700  16.406  0.3913 -1.2802 -1.6448
 5535SOL     OW28237   0.837   1.659   3.819 -0.2892 -0.1066 -0.1617
 5535SOL    HW128238   0.754   1.615   3.837  0.8619 -1.0430  2.8933
 5535SOL    HW228239   0.901   1.590   3.838  0.0860 -0.4580 -2.7102
 5536SOL     OW28240   1.796   1.421   2.121 -1.1384  0.1309  0.0465
 5536SOL    HW128241   1.775   1.328   2.119 -0.5295 -0.0271  1.3327
 5536SOL    HW228242   1.731   1.445   2.055 -2.2170 -1.7168  0.4531
 5537SOL     OW28243   4.134   1.531   3.394  0.4353  0.0177 -0.2286
 5537SOL    HW128244   4.206   1.471   3.374  0.1223 -0.0275 -1.2190
 5537SOL    HW228245   4.065   1.467   3.412  0.2705  0.0765 -0.6384
 5538SOL     OW28246   0.044   1.115  13.681  0.1077  0.2945 -0.0001
 5538SOL    HW128247   0.068   1.207  13.666 -0.6130  0.8362  2.1435
 5538SOL    HW228248   4.690   1.115  13.719 -0.1698  0.3554 -0.6264
 5539SOL     OW28249   2.005   3.024   8.903 -0.2905 -0.2202 -0.5902
 5539SOL    HW128250   2.093   3.029   8.941  0.0693 -2.0336 -1.2005
 5539SOL    HW228251   1.970   3.103   8.945 -0.7533 -1.7789  1.9090
 5540SOL     OW28252   3.391   0.871  12.155 -0.0617 -0.2812  0.4750
 5540SOL    HW128253   3.377   0.921  12.074 -0.0918 -1.7338 -0.4202
 5540SOL    HW228254   3.482   0.841  12.151  0.7781  2.1049  1.4201
 5541SOL     OW28255   3.239   2.508   6.472 -0.3345  0.1931 -0.1342
 5541SOL    HW128256   3.182   2.582   6.453 -1.0445 -0.4391 -0.4658
 5541SOL    HW228257   3.269   2.470   6.389 -1.2149  2.0772 -1.3042
 5542SOL     OW28258   4.718   2.224  10.240  0.3622  0.2346 -0.3334
 5542SOL    HW128259   0.040   2.293  10.275  4.0913 -1.8834 -2.1824
 5542SOL    HW228260   4.658   2.279  10.191 -1.4026  0.1579  1.7327
 5543SOL     OW28261   3.449   0.401   0.570  0.1767 -0.3168  0.0119
 5543SOL    HW128262   3.475   0.311   0.549  1.6356 -0.6007  3.0296
 5543SOL    HW228263   3.519   0.431   0.628  0.1074  1.0561 -0.6122
 5544SOL     OW28264   2.154   1.327   5.690  0.0571  0.6368  0.5347
 5544SOL    HW128265   2.218   1.276   5.740  0.2764  0.0956 -0.3100
 5544SOL    HW228266   2.170   1.294   5.602 -2.9675  3.8380 -1.2401
 5545SOL     OW28267   3.952   1.313   4.417 -0.1919  0.2348  0.2280
 5545SOL    HW128268   3.878   1.333   4.475  1.0186  2.4063  1.0110
 5545SOL    HW228269   3.991   1.400   4.408  0.3592 -0.4317 -3.4819
 5546SOL     OW28270   3.212   1.387   2.796 -0.4339  0.7589  0.2756
 5546SOL    HW128271   3.247   1.456   2.740  0.5635  0.4008  0.4581
 5546SOL    HW228272   3.288   1.344   2.835 -0.0149  0.7390 -0.5707
 5547SOL     OW28273   2.551   1.966   9.139 -0.3728 -0.0059 -0.4127
 5547SOL    HW128274   2.576   2.043   9.191 -2.5869  1.5672 -1.6996
 5547SOL    HW228275   2.593   1.994   9.058  1.0340  2.0138  0.9991
 5548SOL     OW28276   1.559   0.626   0.534  0.1045  0.2561  0.3915
 5548SOL    HW128277   1.572   0.532   0.518  2.5229  0.8818 -1.3674
 5548SOL    HW228278   1.600   0.671   0.460 -1.4047  1.2558  0.1652
 5549SOL     OW28279   3.763   0.784  14.779  0.0275  0.5138  0.3127
 5549SOL    HW128280   3.735   0.787  14.687  1.2194 -0.0524 -0.0739
 5549SOL    HW228281   3.852   0.757  14.752 -0.3712  0.5020 -1.0111
 5550SOL     OW28282   2.771   0.880   5.809 -0.7256 -0.2971  0.2796
 5550SOL    HW128283   2.805   0.965   5.838  0.1814 -0.9055  0.9584
 5550SOL    HW228284   2.696   0.914   5.759 -0.4712 -0.2103 -0.0481
 5551SOL     OW28285   4.437   3.225   7.316 -0.3470  0.4259 -0.6106
 5551SOL    HW128286   4.399   3.264   7.236  0.5703  1.0335 -0.7485
 5551SOL    HW228287   4.442   3.295   7.381 -2.0983 -1.4333  1.5043
 5552SOL     OW28288   1.617   0.778   5.299  0.3378 -0.5477 -0.1016
 5552SOL    HW128289   1.678   0.788   5.372 -0.2138  2.3642 -0.0413
 5552SOL    HW228290   1.672   0.776   5.221  0.5251 -1.3993  0.0452
 5553SOL     OW28291   1.031   2.140  17.052  0.0687 -0.0200  0.0618
 5553SOL    HW128292   1.068   2.136  16.964 -0.2564  0.5254 -0.0980
 5553SOL    HW228293   0.960   2.076  17.056 -0.5316  0.5504 -1.5302
 5554SOL     OW28294   3.112   1.215   5.876  0.0902 -0.3593 -0.1666
 5554SOL    HW128295   3.022   1.189   5.894  0.1053  0.9153  1.7391
 5554SOL    HW228296   3.103   1.237   5.784 -0.4983 -1.6726 -0.4222
 5555SOL     OW28297   3.201   3.546   6.139  0.5017  0.2543  0.2089
 5555SOL    HW128298   3.156   3.630   6.132 -2.2766 -1.1173  1.5232
 5555SOL    HW228299   3.190   3.504   6.054 -1.9147 -1.4043  1.3502
 5556SOL     OW28300   3.383   3.940   8.241 -0.3311  0.5377 -0.0921
 5556SOL    HW128301   3.422   3.999   8.306  0.0133  1.2152 -0.9124
 5556SOL    HW228302   3.460   3.904   8.198 -2.4061 -1.4993 -2.1021
 5557SOL     OW28303   0.778   0.470  12.410  0.2378  0.4086  0.1830
 5557SOL    HW128304   0.813   0.460  12.321 -0.1977  1.2529 -0.0807
 5557SOL    HW228305   0.851   0.511  12.457 -0.8023  0.5946  1.6090
 5558SOL     OW28306   4.031   1.108   2.244 -0.1484 -0.0956 -0.0393
 5558SOL    HW128307   3.946   1.123   2.203 -0.3076 -0.5998  0.1023
 5558SOL    HW228308   4.037   1.012   2.236  1.4245  0.1794 -2.0666
 5559SOL     OW28309   1.967   0.019   6.639  0.3646  0.1164 -0.1625
 5559SOL    HW128310   1.964   0.115   6.636 -0.6500  0.1337  1.2587
 5559SOL    HW228311   2.004   4.722   6.556  1.5481 -3.7557  1.8201
 5560SOL     OW28312   3.876   0.416  13.762  0.3747  0.5774 -0.3106
 5560SOL    HW128313   3.911   0.365  13.688  1.1819  1.1829 -0.3407
 5560SOL    HW228314   3.847   0.341  13.814  0.9479  0.6264  0.0739
 5561SOL     OW28315   1.911   3.739   4.584  0.4808 -0.2022 -0.0544
 5561SOL    HW128316   1.902   3.710   4.675  2.2022  2.5387  0.9797
 5561SOL    HW228317   1.822   3.744   4.549  1.4230  0.7037 -2.3074
 5562SOL     OW28318   3.175   0.257   2.316 -0.1466 -0.8626  0.1083
 5562SOL    HW128319   3.241   0.267   2.248  2.0509 -1.2170  2.2027
 5562SOL    HW228320   3.127   0.185   2.276  0.9273 -1.5084  0.0081
 5563SOL     OW28321   2.642   1.340   6.648  0.1392  0.1803 -0.1350
 5563SOL    HW128322   2.551   1.316   6.664  0.3887 -0.7088 -0.0614
 5563SOL    HW228323   2.652   1.328   6.553  1.2724 -2.4345  0.3291
 5564SOL     OW28324   3.462   2.173  13.943 -0.1174  0.5421  0.0842
 5564SOL    HW128325   3.432   2.234  14.010  1.1504 -0.4976  1.6025
 5564SOL    HW228326   3.461   2.232  13.868 -0.5701 -1.2293 -1.2873
 5565SOL     OW28327   4.675   1.170  12.103  0.1398  0.0710  0.3766
 5565SOL    HW128328   0.033   1.144  12.108  0.3590  0.3763 -1.9968
 5565SOL    HW228329   4.633   1.104  12.158  1.7362 -1.5203 -0.2827
 5566SOL     OW28330   3.719   3.552   7.439 -0.1934  0.0313  0.5060
 5566SOL    HW128331   3.799   3.565   7.388  0.3991 -0.6563  1.2714
 5566SOL    HW228332   3.725   3.459   7.459  3.7687  0.1704  0.1031
 5567SOL     OW28333   2.039   1.896   8.098 -0.6078  0.1745 -0.0670
 5567SOL    HW128334   2.078   1.813   8.125 -1.0639  0.7408  2.2985
 5567SOL    HW228335   1.959   1.861   8.058 -1.7373  2.6810 -0.0334
 5568SOL     OW28336   2.259   0.680   7.964 -0.3814  0.3334  0.0946
 5568SOL    HW128337   2.282   0.670   8.056 -2.2014 -0.9876  0.3942
 5568SOL    HW228338   2.236   0.772   7.977 -0.5216  0.5188 -1.4316
 5569SOL     OW28339   1.818   3.993  11.947  0.0419 -0.1076  0.6314
 5569SOL    HW128340   1.766   3.930  11.897 -0.5520  0.9288 -0.0678
 5569SOL    HW228341   1.745   4.034  11.994 -0.5573 -1.5887  1.0059
 5570SOL     OW28342   4.120   4.317  15.925 -0.4800  0.9776 -0.1953
 5570SOL    HW128343   4.141   4.356  16.010  1.9745  1.0888 -0.8489
 5570SOL    HW228344   4.164   4.379  15.866  3.8508 -1.6162  0.3108
 5571SOL     OW28345   0.923   0.348   0.341 -0.3027 -0.1137 -0.1497
 5571SOL    HW128346   1.012   0.332   0.309 -0.4263 -0.9436 -0.0740
 5571SOL    HW228347   0.891   0.262   0.367 -1.5507 -0.0615 -1.4839
 5572SOL     OW28348   1.033   2.833   1.943 -0.2121 -0.4738 -0.0929
 5572SOL    HW128349   0.956   2.780   1.922  0.7235 -2.2007  0.8783
 5572SOL    HW228350   1.003   2.918   1.910  1.0101  0.2138  0.5589
 5573SOL     OW28351   0.811   2.811   7.765 -0.8513  0.0273 -0.1566
 5573SOL    HW128352   0.887   2.754   7.762 -0.0819  1.1043 -1.1033
 5573SOL    HW228353   0.851   2.898   7.769  2.8188 -1.7236  1.2642
 5574SOL     OW28354   1.696   2.474   8.385 -0.3201  0.0885 -0.3113
 5574SOL    HW128355   1.746   2.555   8.395  1.6380 -1.4342  2.1684
 5574SOL    HW228356   1.634   2.511   8.322  1.1680 -0.4844 -2.1493
 5575SOL     OW28357   4.254   1.872  10.549 -0.2200 -0.1374 -0.3690
 5575SOL    HW128358   4.228   1.955  10.509  2.5624  1.4839  1.1714
 5575SOL    HW228359   4.271   1.823  10.468 -1.2478  0.0479 -0.6984
 5576SOL     OW28360   1.098   3.555   8.444  0.3689 -0.9693 -0.3912
 5576SOL    HW128361   1.018   3.528   8.400  0.8158 -0.9301 -1.2326
 5576SOL    HW228362   1.097   3.651   8.448 -2.9688 -1.0836  1.0514
 5577SOL     OW28363   0.941   2.404   9.462 -0.9638  0.4263  0.9170
 5577SOL    HW128364   0.927   2.369   9.550 -3.6714  0.7744  0.6335
 5577SOL    HW228365   1.030   2.434   9.483 -0.5900 -0.2065  0.2414
 5578SOL     OW28366   2.522   2.158   1.086 -0.0345 -0.4434  0.4398
 5578SOL    HW128367   2.542   2.234   1.030 -2.4514 -0.2734 -0.1809
 5578SOL    HW228368   2.485   2.207   1.160 -0.2268  0.4965 -0.2743
 5579SOL     OW28369   3.009   3.029   4.803  0.1311  0.6565  0.5968
 5579SOL    HW128370   2.988   3.013   4.895  0.2341  1.4817  0.7637
 5579SOL    HW228371   2.919   3.051   4.779 -0.8108 -2.7042  1.0342
 5580SOL     OW28372   1.798   3.360   6.672 -0.1418  0.4313 -0.5134
 5580SOL    HW128373   1.767   3.284   6.721  0.0236  0.5335 -0.2506
 5580SOL    HW228374   1.720   3.412   6.656  0.9233  1.5125 -2.2592
 5581SOL     OW28375   3.757   0.523  17.185  0.5986  0.2569 -0.1904
 5581SOL    HW128376   3.747   0.430  17.164  0.4964  0.1037  0.5689
 5581SOL    HW228377   3.836   0.524  17.239  0.9251 -0.0741 -0.6567
 5582SOL     OW28378   3.835   4.690   5.795 -0.2853  0.4529  1.0580
 5582SOL    HW128379   3.891   4.642   5.735 -1.8784 -0.5135  0.3336
 5582SOL    HW228380   3.901   4.729   5.852 -0.0089 -0.6842  1.5232
 5583SOL     OW28381   0.461   0.386  14.263 -0.0901 -0.0817  0.3724
 5583SOL    HW128382   0.440   0.389  14.356 -2.9653 -0.2399 -0.2612
 5583SOL    HW228383   0.376   0.354  14.233  0.8400 -1.6406 -0.5913
 5584SOL     OW28384   4.152   0.123  12.237  0.1845  0.0712 -0.1546
 5584SOL    HW128385   4.127   0.200  12.185  0.8492  1.3506  1.4175
 5584SOL    HW228386   4.247   0.138  12.243  0.0522  1.4070 -1.2251
 5585SOL     OW28387   3.197   2.235   6.583  0.0808 -0.5176  0.4230
 5585SOL    HW128388   3.258   2.277   6.522 -0.6498 -0.9643 -0.6265
 5585SOL    HW228389   3.160   2.316   6.620  0.3009  0.1532 -0.7976
 5586SOL     OW28390   0.318   3.055  14.193  0.3559  0.3430  0.2737
 5586SOL    HW128391   0.249   3.104  14.148 -0.4293 -0.9472  0.0691
 5586SOL    HW228392   0.372   3.036  14.116  0.1033  1.9617 -0.2899
 5587SOL     OW28393   0.410   1.889   9.321  0.0037 -0.1338 -0.6747
 5587SOL    HW128394   0.414   1.871   9.415  0.1074  1.0272 -0.4638
 5587SOL    HW228395   0.427   1.798   9.296 -0.3790  0.1237 -1.8729
 5588SOL     OW28396   1.772   2.895  15.538 -0.0457 -0.3845  0.2429
 5588SOL    HW128397   1.842   2.951  15.504 -1.0386  1.1370  0.7092
 5588SOL    HW228398   1.776   2.908  15.633 -0.3510 -1.7981  0.4450
 5589SOL     OW28399   0.150   4.639  16.210 -0.3470 -0.2022 -0.6470
 5589SOL    HW128400   0.067   4.674  16.241 -0.0647  1.6274 -1.9223
 5589SOL    HW228401   0.211   4.694  16.261 -1.2116  0.8459 -0.7394
 5590SOL     OW28402   1.607   0.271   6.313  0.1858 -0.0260 -0.2524
 5590SOL    HW128403   1.550   0.320   6.372 -0.7003  0.2003 -1.3047
 5590SOL    HW228404   1.667   0.344   6.299 -1.0744  0.9196 -0.7032
 5591SOL     OW28405   2.453   3.704  15.217 -0.1112  0.8803  0.0959
 5591SOL    HW128406   2.455   3.793  15.180  0.4528  1.6052  1.8963
 5591SOL    HW228407   2.384   3.709  15.283  1.0731 -0.2241  1.4015
 5592SOL     OW28408   4.684   2.871   0.414 -0.4572 -0.3254 -0.0032
 5592SOL    HW128409   4.635   2.843   0.337 -0.0489  0.7521 -0.6490
 5592SOL    HW228410   0.027   2.814   0.400  1.5212  1.6990  2.6811
 5593SOL     OW28411   2.492   1.694   8.206  0.6166 -0.3083 -0.3243
 5593SOL    HW128412   2.547   1.631   8.254  0.7883 -0.4317 -0.6788
 5593SOL    HW228413   2.518   1.770   8.259  0.5125  0.9049 -2.0181
 5594SOL     OW28414   0.646   0.481   6.154  0.4525 -0.0183  0.1934
 5594SOL    HW128415   0.711   0.445   6.093  0.9528  1.4074 -0.1110
 5594SOL    HW228416   0.671   0.573   6.159  0.7643 -0.0538 -0.7791
 5595SOL     OW28417   2.189   2.855   8.170 -0.0573 -0.2145  0.2936
 5595SOL    HW128418   2.247   2.852   8.246 -0.1892  0.2182  0.4120
 5595SOL    HW228419   2.124   2.788   8.192  0.2531  0.1374  2.2417
 5596SOL     OW28420   2.873   1.920  10.982  0.5027  0.3653  0.9439
 5596SOL    HW128421   2.934   1.852  11.011 -0.5659 -1.0504 -0.1206
 5596SOL    HW228422   2.846   1.887  10.896 -0.3342  1.0968  0.9313
 5597SOL     OW28423   4.232   3.882   0.056 -0.2016 -0.3621  0.0684
 5597SOL    HW128424   4.177   3.803   0.053  1.4502 -1.5271  0.6240
 5597SOL    HW228425   4.170   3.948   0.024 -1.5769 -1.2835  0.7986
 5598SOL     OW28426   0.875   1.016  10.505  0.1591 -0.2085  0.1223
 5598SOL    HW128427   0.890   1.108  10.483  1.3343 -0.8717 -1.8650
 5598SOL    HW228428   0.783   1.033  10.523  0.3380  0.2423  0.6124
 5599SOL     OW28429   2.181   2.968   8.509 -0.1684  0.7091 -0.8655
 5599SOL    HW128430   2.166   2.873   8.508  1.4230  0.4465  0.1434
 5599SOL    HW228431   2.093   3.004   8.503 -2.0784 -3.4905  1.5331
 5600SOL     OW28432   2.109   2.637  13.140 -0.4685  0.5890 -0.0854
 5600SOL    HW128433   2.161   2.601  13.068  0.4135  0.7834  0.4535
 5600SOL    HW228434   2.039   2.575  13.119 -0.4900 -0.0585  1.9140
 5601SOL     OW28435   0.627   3.341   2.753  0.3172  0.5105 -0.2329
 5601SOL    HW128436   0.596   3.282   2.685  1.2867  0.5962 -0.7469
 5601SOL    HW228437   0.557   3.319   2.815  1.7254 -0.8877  0.8682
 5602SOL     OW28438   2.319   3.920   6.187  0.5268 -0.7490  0.6219
 5602SOL    HW128439   2.267   3.896   6.263  0.3812 -0.8641  0.4854
 5602SOL    HW228440   2.288   4.009   6.172  1.6632 -0.3554  0.5580
 5603SOL     OW28441   1.358   3.690   2.994  0.0781  0.3827  0.1906
 5603SOL    HW128442   1.323   3.671   3.081  0.8883  0.8787  0.6227
 5603SOL    HW228443   1.376   3.609   2.947  1.8532  0.9499 -0.1184
 5604SOL     OW28444   3.833   3.049   7.858  0.5683 -0.1321 -0.3490
 5604SOL    HW128445   3.766   3.041   7.926  0.3026 -0.9304 -0.7047
 5604SOL    HW228446   3.855   3.142   7.848 -1.0090  0.0957 -1.8140
 5605SOL     OW28447   0.387   1.104   2.572  0.4169 -0.1016 -0.6189
 5605SOL    HW128448   0.452   1.168   2.544 -1.0022  0.7816 -1.8445
 5605SOL    HW228449   0.415   1.095   2.663 -1.6292 -1.0958 -0.0900
 5606SOL     OW28450   2.752   1.390   2.118  0.2493  0.2370  0.2014
 5606SOL    HW128451   2.815   1.405   2.048 -1.7660 -0.7073 -1.7995
 5606SOL    HW228452   2.676   1.361   2.068 -0.3210  2.3235 -0.1037
 5607SOL     OW28453   4.081   4.484   8.722  0.5736 -0.1200  0.1405
 5607SOL    HW128454   4.056   4.459   8.811  2.9154  1.7070  1.3091
 5607SOL    HW228455   4.053   4.576   8.719 -0.1584 -0.3268  0.5091
 5608SOL     OW28456   1.657   4.300   3.125  0.2027 -0.4945  0.1565
 5608SOL    HW128457   1.634   4.209   3.109 -1.1091 -0.1498  0.1234
 5608SOL    HW228458   1.734   4.303   3.067 -1.2099  1.4234 -1.5996
 5609SOL     OW28459   1.171   1.136  11.091 -0.3604  0.1638 -0.0230
 5609SOL    HW128460   1.217   1.053  11.102 -0.2362  0.3126  0.5876
 5609SOL    HW228461   1.131   1.136  11.178 -1.5399 -1.6029 -0.5702
 5610SOL     OW28462   1.146   0.402   3.360  0.0872 -0.0622  0.0765
 5610SOL    HW128463   1.186   0.462   3.297  1.2062 -2.3051 -1.3582
 5610SOL    HW228464   1.072   0.458   3.383 -0.1978 -0.1662 -0.5612
 5611SOL     OW28465   0.693   0.147   6.998  0.2559  0.1171 -0.2070
 5611SOL    HW128466   0.698   0.190   6.913  0.2070  0.9031  0.1819
 5611SOL    HW228467   0.606   0.174   7.027  0.5201  0.0758  0.6491
 5612SOL     OW28468   0.052   4.444  10.132 -0.1866  0.5370 -0.0727
 5612SOL    HW128469   0.070   4.468  10.041  1.8304  1.7398  0.6424
 5612SOL    HW228470   0.140   4.413  10.152 -0.7659  0.0550  1.7306
 5613SOL     OW28471   1.525   2.234   1.093 -0.4673  0.2290  0.9906
 5613SOL    HW128472   1.554   2.312   1.046 -1.5005 -0.9604 -1.5804
 5613SOL    HW228473   1.433   2.259   1.101 -0.5042  0.2884  0.3742
 5614SOL     OW28474   2.228   2.177  16.851 -0.2689  0.3882 -0.0554
 5614SOL    HW128475   2.174   2.240  16.803 -0.9055 -0.8673 -1.0259
 5614SOL    HW228476   2.182   2.161  16.933 -0.7870  2.4884  0.0593
 5615SOL     OW28477   1.123   1.752   5.182  0.1376  0.6207  0.3087
 5615SOL    HW128478   1.201   1.703   5.210 -1.0894 -1.9320 -0.7273
 5615SOL    HW228479   1.056   1.688   5.207  2.6818 -0.9154  3.2621
 5616SOL     OW28480   4.348   3.525  14.878  0.1845  0.3891  0.4835
 5616SOL    HW128481   4.382   3.612  14.895  2.7295 -0.5498  0.2281
 5616SOL    HW228482   4.267   3.552  14.833  0.9888  3.1132  0.6802
 5617SOL     OW28483   3.715   2.763   9.126  0.0832  0.0496 -0.2232
 5617SOL    HW128484   3.732   2.792   9.215 -0.5663  0.3436 -0.1920
 5617SOL    HW228485   3.770   2.817   9.068  0.8504 -1.1229 -0.5777
 5618SOL     OW28486   2.013   4.674   7.577  0.3072 -0.2997 -0.2208
 5618SOL    HW128487   2.103   4.643   7.570  0.3331 -0.3490  0.3402
 5618SOL    HW228488   2.034   0.033   7.583  2.6253 -0.9547  1.5926
 5619SOL     OW28489   4.432   3.593  11.068 -0.2628  0.0074  0.2271
 5619SOL    HW128490   4.383   3.643  11.002 -1.0760 -1.1789 -0.0877
 5619SOL    HW228491   4.364   3.577  11.134  0.5848 -2.0982  0.6059
 5620SOL     OW28492   4.414   4.056   8.188  0.7165  0.2584 -0.4685
 5620SOL    HW128493   4.507   4.063   8.211  0.3425 -0.2532  1.2421
 5620SOL    HW228494   4.380   4.141   8.216 -1.2692 -0.0806 -1.9141
 5621SOL     OW28495   2.360   3.085   4.858 -0.1023  0.0948  0.1030
 5621SOL    HW128496   2.269   3.090   4.889  0.2608 -0.9821  1.3574
 5621SOL    HW228497   2.368   2.992   4.879  0.9860 -0.3012 -2.1262
 5622SOL     OW28498   4.154   4.193   7.463 -0.4297  0.1162 -0.3010
 5622SOL    HW128499   4.193   4.218   7.546 -0.0130 -2.9242  0.4332
 5622SOL    HW228500   4.225   4.213   7.401 -0.7387  0.8391 -0.4228
 5623SOL     OW28501   3.160   2.556   5.703 -0.5335  0.0829 -0.1708
 5623SOL    HW128502   3.251   2.535   5.680 -2.4448 -4.7716 -3.1907
 5623SOL    HW228503   3.164   2.652   5.710  1.9416 -0.1776  2.0639
 5624SOL     OW28504   0.858   2.773  12.613 -0.5764 -0.3858 -0.0912
 5624SOL    HW128505   0.816   2.691  12.638 -0.0580  0.7813  4.4864
 5624SOL    HW228506   0.840   2.821  12.693  0.2565  0.5264 -0.4464
 5625SOL     OW28507   4.652   2.677  15.009 -0.0477 -0.1531  0.6378
 5625SOL    HW128508   4.651   2.695  14.915 -0.4505 -0.4313  0.5852
 5625SOL    HW228509   4.706   2.598  15.013 -0.9944 -0.8362  0.1033
 5626SOL     OW28510   2.175   4.653  12.914  0.1464  0.3553  0.2150
 5626SOL    HW128511   2.087   4.692  12.911  0.2239  0.5806  0.9501
 5626SOL    HW228512   2.179   4.618  12.825  0.1933  0.7587  0.0592
 5627SOL     OW28513   1.980   2.882  10.480 -0.4299  0.7061 -0.0685
 5627SOL    HW128514   2.033   2.814  10.437 -0.1240  0.0070  1.4306
 5627SOL    HW228515   1.900   2.864  10.430  0.5771 -1.0670 -1.0566
 5628SOL     OW28516   1.591   3.344   6.392 -0.0470 -0.1242  0.0747
 5628SOL    HW128517   1.506   3.302   6.398 -2.1358  4.4244  2.4157
 5628SOL    HW228518   1.642   3.266   6.369 -0.2179 -0.7931  1.9655
 5629SOL     OW28519   4.335   3.633  12.250 -0.5242  0.0976 -0.1597
 5629SOL    HW128520   4.325   3.540  12.267  1.6803  0.0762  1.0124
 5629SOL    HW228521   4.288   3.619  12.167 -1.1063  0.5479  0.0995
 5630SOL     OW28522   3.049   0.675  11.381  0.1453 -0.4248  0.8387
 5630SOL    HW128523   2.995   0.612  11.332  0.7229 -1.0757  1.0381
 5630SOL    HW228524   3.118   0.616  11.411 -0.7738 -2.1114 -0.2840
 5631SOL     OW28525   2.445   1.715  13.566  0.4625 -0.0066 -0.0429
 5631SOL    HW128526   2.535   1.739  13.591 -0.5015  2.3698  1.1376
 5631SOL    HW228527   2.452   1.621  13.553  1.1164  0.2945 -1.9589
 5632SOL     OW28528   3.519   2.609   0.052  0.0931 -0.1630  0.3518
 5632SOL    HW128529   3.524   2.654  17.703 -0.4704 -0.6887  0.0434
 5632SOL    HW228530   3.441   2.653   0.084 -0.6053 -2.8724  2.3390
 5633SOL     OW28531   2.833   1.949  12.288  0.4438 -0.4571  0.1702
 5633SOL    HW128532   2.800   2.021  12.341 -2.2724 -0.2421 -1.8815
 5633SOL    HW228533   2.768   1.937  12.219 -0.2508  0.0493  0.7378
 5634SOL     OW28534   4.345   3.199  16.122  0.2255  0.2446 -0.0948
 5634SOL    HW128535   4.298   3.275  16.156 -1.1930 -0.2191 -0.9859
 5634SOL    HW228536   4.280   3.131  16.143  1.8509 -0.7309  1.7259
 5635SOL     OW28537   1.774   1.593   3.045 -0.1624 -0.3869  0.0856
 5635SOL    HW128538   1.753   1.678   3.084 -0.2495 -0.6566  0.6334
 5635SOL    HW228539   1.733   1.601   2.959 -0.7897  0.9481  0.5126
 5636SOL     OW28540   2.585   4.603   0.025  0.1612 -0.3413  0.1456
 5636SOL    HW128541   2.673   4.565   0.034  0.7432  0.5315 -1.8507
 5636SOL    HW228542   2.586   4.683   0.077  1.2230 -0.5268  0.4266
 5637SOL     OW28543   3.210   2.292   5.219 -0.0326 -0.7324 -0.1305
 5637SOL    HW128544   3.172   2.304   5.306 -1.6368 -1.4063 -0.7455
 5637SOL    HW228545   3.163   2.218   5.182  2.4307 -1.5597 -1.6081
 5638SOL     OW28546   3.133   3.978  10.072  0.4639 -0.7422  0.3955
 5638SOL    HW128547   3.059   3.926  10.103 -0.7599  1.4790  1.1567
 5638SOL    HW228548   3.138   4.047  10.138  1.3459 -0.1995 -0.2301
 5639SOL     OW28549   0.670   2.485   6.738 -0.3057 -0.2307 -0.1803
 5639SOL    HW128550   0.611   2.414   6.714 -0.1124 -0.3585 -0.2821
 5639SOL    HW228551   0.750   2.449   6.699 -0.5438 -2.0453  0.9875
 5640SOL     OW28552   4.398   0.729   4.275 -0.0049 -0.3251  0.0789
 5640SOL    HW128553   4.427   0.674   4.348 -1.0269 -0.4635  0.3720
 5640SOL    HW228554   4.303   0.723   4.283 -0.1177  2.0578  0.5982
 5641SOL     OW28555   4.087   2.013   8.589 -0.2600  0.4199 -0.8097
 5641SOL    HW128556   4.080   1.920   8.565  0.8020 -0.0546  0.7661
 5641SOL    HW228557   4.019   2.041   8.527  2.1308  0.2920 -3.4972
 5642SOL     OW28558   1.537   2.423   5.915 -0.2087 -0.0705  0.3627
 5642SOL    HW128559   1.600   2.493   5.897 -0.7979  0.1782 -0.7344
 5642SOL    HW228560   1.575   2.365   5.981 -1.2985  1.4563  2.3216
 5643SOL     OW28561   2.771   0.417   1.646 -0.2143 -0.3021  0.4052
 5643SOL    HW128562   2.788   0.322   1.643 -0.1297 -0.2894  0.4702
 5643SOL    HW228563   2.698   0.417   1.583 -0.2110  0.3904  0.4108
 5644SOL     OW28564   1.131   4.495   6.799  0.0523 -0.0198 -0.1655
 5644SOL    HW128565   1.067   4.448   6.852 -0.7167  1.3168  0.0904
 5644SOL    HW228566   1.083   4.576   6.785 -2.7646 -1.8542 -1.0078
 5645SOL     OW28567   4.723   0.604  11.510 -0.0825 -0.2205 -0.2717
 5645SOL    HW128568   4.654   0.539  11.505  1.2894 -1.4987 -2.6684
 5645SOL    HW228569   0.034   0.584  11.428 -2.0427  1.7278 -1.7993
 5646SOL     OW28570   1.320   3.798  16.977 -0.4320 -0.0742 -0.1070
 5646SOL    HW128571   1.307   3.779  17.070  0.5127  2.0487  0.4677
 5646SOL    HW228572   1.313   3.894  16.977 -0.6392 -0.0902 -0.1036
 5647SOL     OW28573   1.296   1.821   4.658  0.3592  0.1821  0.3457
 5647SOL    HW128574   1.274   1.822   4.751 -1.5900  1.3507 -0.1317
 5647SOL    HW228575   1.253   1.901   4.629  0.2170 -0.4983 -1.2649
 5648SOL     OW28576   3.670   3.701  11.837  0.3498 -0.3859 -0.5747
 5648SOL    HW128577   3.666   3.661  11.751  1.6192 -1.2934 -0.2104
 5648SOL    HW228578   3.697   3.624  11.887 -1.8383  0.4277  1.9140
 5649SOL     OW28579   1.277   4.311   8.216 -0.0016 -0.3318 -0.4010
 5649SOL    HW128580   1.192   4.280   8.184 -0.1430 -1.1928  0.8253
 5649SOL    HW228581   1.264   4.333   8.308  1.1496  1.2971 -0.6257
 5650SOL     OW28582   2.514   3.835   3.223  0.3638  0.0112  0.1489
 5650SOL    HW128583   2.486   3.927   3.227 -0.3986 -0.1691 -0.9286
 5650SOL    HW228584   2.601   3.834   3.184  1.1803  1.3342  1.9559
 5651SOL     OW28585   3.828   4.487   9.296  0.1186  0.0942 -0.3382
 5651SOL    HW128586   3.888   4.560   9.312 -0.0783  0.4037 -1.0216
 5651SOL    HW228587   3.829   4.437   9.378 -1.4828  0.4615 -0.1006
 5652SOL     OW28588   1.363   2.293  15.637 -0.2421 -0.2790  0.1759
 5652SOL    HW128589   1.275   2.311  15.604  0.4195  1.6283 -0.5631
 5652SOL    HW228590   1.399   2.232  15.573 -1.4734 -0.3666 -0.4183
 5653SOL     OW28591   3.450   4.489   0.639 -0.4842  0.4140 -0.0503
 5653SOL    HW128592   3.355   4.482   0.632 -0.3749  0.1502 -1.4685
 5653SOL    HW228593   3.471   4.437   0.561  1.7472  1.9773 -0.5031
 5654SOL     OW28594   0.137   3.736  16.899 -0.6424 -0.1042  0.6309
 5654SOL    HW128595   0.201   3.766  16.835 -0.9720 -0.0783  0.3149
 5654SOL    HW228596   0.087   3.817  16.908  2.2469  1.6748  0.7253
 5655SOL     OW28597   3.025   3.113   5.495 -0.2709 -0.3113  0.0681
 5655SOL    HW128598   2.984   3.055   5.432  1.3331 -1.1639 -0.1988
 5655SOL    HW228599   3.106   3.141   5.452 -0.3654  0.4714  0.3999
 5656SOL     OW28600   4.176   3.122   2.607  0.1219 -0.0712  0.0395
 5656SOL    HW128601   4.212   3.210   2.604  1.5055 -0.6260  0.3851
 5656SOL    HW228602   4.216   3.093   2.689  1.3618  0.7073 -0.2951
 5657SOL     OW28603   4.583   0.143   7.699  0.0403  1.1089 -0.0345
 5657SOL    HW128604   4.558   0.225   7.657  2.0538  1.2909 -0.8748
 5657SOL    HW228605   4.503   0.092   7.691  1.3652 -0.8880 -0.6380
 5658SOL     OW28606   1.750   3.142  11.830  0.4392 -0.6351  0.3082
 5658SOL    HW128607   1.838   3.151  11.793  0.0278  2.1472  0.0097
 5658SOL    HW228608   1.745   3.048  11.849  1.2458 -0.1080  3.1645
 5659SOL     OW28609   3.946   0.016   4.656 -0.9228 -0.3671  0.5681
 5659SOL    HW128610   3.917   4.712   4.574  3.2998  0.9678 -1.5351
 5659SOL    HW228611   3.885   4.700   4.711 -0.6625 -2.1612 -0.7657
 5660SOL     OW28612   0.304   4.146   6.115  0.0835 -0.1733  0.7342
 5660SOL    HW128613   0.384   4.114   6.073  1.8091  0.2408  3.7162
 5660SOL    HW228614   0.258   4.067   6.144  0.4807  0.6321  3.5261
 5661SOL     OW28615   3.762   0.524   1.418  0.1578 -0.2541 -0.2865
 5661SOL    HW128616   3.802   0.456   1.473  1.0787  1.6784  1.4379
 5661SOL    HW228617   3.740   0.591   1.483 -3.5685  0.1878 -1.9941
 5662SOL     OW28618   1.582   0.328   7.901  0.0126 -0.2430 -0.6392
 5662SOL    HW128619   1.495   0.298   7.875 -0.3392  0.8348 -0.7184
 5662SOL    HW228620   1.610   0.247   7.943  0.1274  1.6605  2.9169
 5663SOL     OW28621   4.214   2.065   4.580 -0.5968  0.2625  0.1112
 5663SOL    HW128622   4.209   2.158   4.556  1.4753  0.2893 -0.2063
 5663SOL    HW228623   4.208   2.072   4.675  1.8153 -1.5950  0.3834
 5664SOL     OW28624   3.186   2.676  14.980  0.2654 -0.2700  0.2537
 5664SOL    HW128625   3.101   2.715  15.002  0.5345 -0.1625  1.0967
 5664SOL    HW228626   3.172   2.588  15.013  0.2536 -0.2128  0.4014
 5665SOL     OW28627   2.232   4.689   7.211  0.8950  0.1096 -0.2514
 5665SOL    HW128628   2.207   4.599   7.193 -2.0358  1.4422 -2.7932
 5665SOL    HW228629   2.184   4.731   7.140 -1.4202  0.3654  1.4799
 5666SOL     OW28630   2.380   1.759   5.198 -0.4987  0.1943  0.1089
 5666SOL    HW128631   2.330   1.718   5.268  1.3518 -2.4522 -0.1220
 5666SOL    HW228632   2.402   1.678   5.153  0.0057  0.3531  0.0648
 5667SOL     OW28633   3.101   3.688  17.162  0.4967  0.0792 -0.4730
 5667SOL    HW128634   3.045   3.622  17.121  0.8375 -0.6245  0.1944
 5667SOL    HW228635   3.159   3.631  17.212 -1.2187 -1.5319 -0.3253
 5668SOL     OW28636   4.164   3.438   5.079 -0.0032 -0.4220 -0.4614
 5668SOL    HW128637   4.164   3.393   4.994 -0.4602 -0.1269 -0.6217
 5668SOL    HW228638   4.076   3.478   5.079 -0.5769 -1.6915 -0.8935
 5669SOL     OW28639   0.778   4.482   6.775  0.1732  0.1150  0.4423
 5669SOL    HW128640   0.823   4.560   6.744  2.2771 -1.0768  0.4687
 5669SOL    HW228641   0.707   4.476   6.711  1.3935 -3.4947 -0.6077
 5670SOL     OW28642   1.943   2.742   1.642 -0.2489  0.0657 -0.4374
 5670SOL    HW128643   1.939   2.728   1.737 -2.7380 -1.1475 -0.7389
 5670SOL    HW228644   1.850   2.763   1.633  0.1205  2.8262  2.1245
 5671SOL     OW28645   4.719   0.692   3.048 -0.3847 -0.0449 -0.3187
 5671SOL    HW128646   4.729   0.626   3.116 -1.2694  1.1029  0.9044
 5671SOL    HW228647   4.677   0.634   2.984  1.3751 -0.4731 -1.1074
 5672SOL     OW28648   2.558   0.294   8.147  0.2094 -0.3215 -0.7084
 5672SOL    HW128649   2.506   0.246   8.083  1.2335 -1.6838 -0.5099
 5672SOL    HW228650   2.530   0.245   8.224  1.3509  0.1136 -0.0138
 5673SOL     OW28651   4.327   4.241  16.822 -0.7536 -0.2446  0.1128
 5673SOL    HW128652   4.377   4.293  16.885 -0.5552 -0.7565  0.3787
 5673SOL    HW228653   4.360   4.249  16.732  0.4918 -0.0399  0.5835
 5674SOL     OW28654   1.471   3.944   3.567 -0.1544  0.1572 -0.4652
 5674SOL    HW128655   1.446   3.962   3.476  0.0431  1.1742 -0.3184
 5674SOL    HW228656   1.397   3.988   3.609 -0.3507 -1.5357  0.9375
 5675SOL     OW28657   1.542   1.071   7.905  0.0424 -0.4952  0.3817
 5675SOL    HW128658   1.457   1.056   7.946  0.4181  0.8444  1.6627
 5675SOL    HW228659   1.545   0.983   7.866 -0.5717 -0.3511  0.0071
 5676SOL     OW28660   1.319   0.288  11.331  0.0740  0.1946  0.5883
 5676SOL    HW128661   1.252   0.325  11.274 -0.3024 -2.0192 -0.4012
 5676SOL    HW228662   1.395   0.343  11.311 -0.2375 -0.0157 -1.1116
 5677SOL     OW28663   4.525   0.334  16.519  0.4755  0.1782  0.1387
 5677SOL    HW128664   4.585   0.260  16.513 -0.8120 -0.7667 -1.3489
 5677SOL    HW228665   4.558   0.394  16.452 -1.7538  0.6830 -0.5172
 5678SOL     OW28666   0.632   2.888   4.672 -0.1694 -0.2040  0.4992
 5678SOL    HW128667   0.669   2.839   4.599 -0.9492  0.7363 -0.5278
 5678SOL    HW228668   0.540   2.896   4.646 -0.2164 -0.2840  0.6375
 5679SOL     OW28669   0.775   3.537   2.221 -0.0720 -0.1302  0.3019
 5679SOL    HW128670   0.704   3.544   2.157  0.4232 -1.4616 -0.3978
 5679SOL    HW228671   0.813   3.450   2.207  0.0164  0.2179 -1.5829
 5680SOL     OW28672   3.419   2.478   5.611  0.5639  0.1027  0.3299
 5680SOL    HW128673   3.452   2.407   5.557  0.6240 -0.4474  1.0786
 5680SOL    HW228674   3.477   2.547   5.579 -1.0270  1.5052  0.4776
 5681SOL     OW28675   2.412   1.539   5.886 -0.0638 -0.3514 -0.4450
 5681SOL    HW128676   2.425   1.474   5.817  0.0845 -0.3988 -0.3720
 5681SOL    HW228677   2.427   1.620   5.837 -1.7359  2.2343  3.3767
 5682SOL     OW28678   3.584   4.732   8.162 -0.1819  0.2308  0.1965
 5682SOL    HW128679   3.676   4.717   8.183 -0.2046  0.9033  0.7642
 5682SOL    HW228680   3.578   0.091   8.186 -0.6055 -0.1245  1.4885
 5683SOL     OW28681   2.871   1.547   3.418  0.3314  0.3222  0.3234
 5683SOL    HW128682   2.843   1.588   3.501 -0.1751  0.6141  0.0098
 5683SOL    HW228683   2.804   1.478   3.416  0.2739  0.5266 -3.8995
 5684SOL     OW28684   4.445   1.567   8.586 -0.3125 -0.4862 -0.0328
 5684SOL    HW128685   4.454   1.480   8.546  0.5020 -1.3890  2.1474
 5684SOL    HW228686   4.375   1.546   8.647  0.3690  0.7427  1.1840
 5685SOL     OW28687   2.091   2.932   5.985 -0.5821  0.3796 -0.5433
 5685SOL    HW128688   2.121   2.842   5.969 -2.3357 -0.1163 -0.9466
 5685SOL    HW228689   2.150   2.984   5.931  0.9845 -1.7973 -0.9479
 5686SOL     OW28690   4.272   3.638   6.342  0.0220 -0.2679 -0.2944
 5686SOL    HW128691   4.204   3.572   6.336 -1.0315  0.9617 -1.7958
 5686SOL    HW228692   4.222   3.719   6.335  0.3471 -0.0899 -0.5696
 5687SOL     OW28693   3.570   3.525   4.072 -0.6355 -0.2465  0.1061
 5687SOL    HW128694   3.609   3.597   4.122  0.2158 -0.0171 -0.8917
 5687SOL    HW228695   3.504   3.494   4.134  0.6426 -1.4399  0.8709
 5688SOL     OW28696   3.966   3.469   9.702 -0.0475  0.5760 -0.5850
 5688SOL    HW128697   3.990   3.538   9.640  0.3328  0.0409 -1.0362
 5688SOL    HW228698   3.876   3.451   9.674 -0.3999 -0.3750  1.1452
 5689SOL     OW28699   3.243   4.378  10.574 -0.0985  0.1834 -0.3447
 5689SOL    HW128700   3.314   4.399  10.635 -2.1730 -0.1060  2.1983
 5689SOL    HW228701   3.219   4.291  10.606  2.6116 -1.5027 -2.8944
 5690SOL     OW28702   4.677   4.153   2.701  0.4687  0.0827  0.2342
 5690SOL    HW128703   4.585   4.142   2.726  0.9939 -0.7335  1.8315
 5690SOL    HW228704   4.707   4.238   2.732  2.5482 -1.1913  1.7356
 5691SOL     OW28705   2.250   2.818  12.772  0.4559  0.0898  0.0194
 5691SOL    HW128706   2.155   2.809  12.785  0.6240 -2.7547 -0.7487
 5691SOL    HW228707   2.259   2.867  12.854  2.1010 -0.4033  0.1246
 5692SOL     OW28708   2.590   3.899   7.385 -0.2150 -0.4044  0.0550
 5692SOL    HW128709   2.540   3.970   7.345  2.3931  1.8372  0.7410
 5692SOL    HW228710   2.537   3.823   7.360 -1.4687  0.3021  0.5604
 5693SOL     OW28711   2.436   2.874   6.384  0.4475  0.1733  0.2907
 5693SOL    HW128712   2.401   2.787   6.365 -1.2467  0.2602  2.9631
 5693SOL    HW228713   2.519   2.868   6.338  0.2166  0.3442 -0.1437
 5694SOL     OW28714   1.700   2.486  10.208 -0.2720 -0.7027 -0.3265
 5694SOL    HW128715   1.686   2.548  10.136  2.7016  1.6395  1.1062
 5694SOL    HW228716   1.611   2.461  10.231  0.5387 -1.5986  1.7506
 5695SOL     OW28717   2.327   1.639   3.643  0.1136  0.4348 -0.1740
 5695SOL    HW128718   2.324   1.726   3.605  1.3447 -0.2056 -1.6976
 5695SOL    HW228719   2.397   1.600   3.592 -0.2714 -3.3983  2.1952
 5696SOL     OW28720   3.879   2.010   8.404 -0.3320 -0.0360 -0.7530
 5696SOL    HW128721   3.818   1.962   8.460  0.7730  2.6835  2.7455
 5696SOL    HW228722   3.899   1.941   8.341  0.4039  1.2931 -1.9730
 5697SOL     OW28723   2.917   3.682  10.425  0.2849 -0.8788  0.1147
 5697SOL    HW128724   2.862   3.681  10.503 -0.3502  1.9335 -0.2703
 5697SOL    HW228725   2.895   3.596  10.390 -1.4763  0.1439 -1.2972
 5698SOL     OW28726   1.721   1.765   5.850 -0.3241 -0.0201 -0.0537
 5698SOL    HW128727   1.669   1.685   5.854 -0.4262  0.0557  0.1458
 5698SOL    HW228728   1.783   1.738   5.782  0.1855  1.9481 -0.3904
 5699SOL     OW28729   1.800   2.843   3.847  0.4727 -0.6220  0.1219
 5699SOL    HW128730   1.851   2.902   3.902 -0.4647  1.9416 -1.7299
 5699SOL    HW228731   1.755   2.789   3.911 -1.9456  1.0381 -0.1464
 5700SOL     OW28732   0.978   3.911  16.002  0.7933 -0.5230  0.6278
 5700SOL    HW128733   0.972   3.998  15.965 -2.0122 -0.4617  1.2217
 5700SOL    HW228734   0.907   3.862  15.961  1.3383 -0.2948 -0.5746
 5701SOL     OW28735   0.348   3.134   3.657  0.2465  0.1588 -0.0877
 5701SOL    HW128736   0.333   3.155   3.564 -1.3894 -1.0090 -0.0979
 5701SOL    HW228737   0.368   3.041   3.655 -0.0711  0.1149 -1.1954
 5702SOL     OW28738   0.403   2.008   5.016  0.5191 -0.1424  0.2296
 5702SOL    HW128739   0.446   1.987   5.098 -0.9646  2.5436  1.6945
 5702SOL    HW228740   0.460   2.071   4.972  0.8903 -0.1364  0.7199
 5703SOL     OW28741   4.197   3.458  12.090 -0.3657  0.3452 -0.0444
 5703SOL    HW128742   4.116   3.457  12.039 -0.7826  1.4292  0.5812
 5703SOL    HW228743   4.226   3.367  12.087 -0.2507  0.2792  3.1325
 5704SOL     OW28744   0.173   0.910  13.799 -0.8233 -0.2922  0.0922
 5704SOL    HW128745   0.119   0.979  13.761 -0.2501  1.3824  2.3522
 5704SOL    HW228746   0.240   0.970  13.832 -0.5231 -1.2155  1.1671
 5705SOL     OW28747   1.020   1.865   9.173  0.0647 -0.3469  0.4391
 5705SOL    HW128748   0.936   1.893   9.137  1.5373  2.1497 -1.1223
 5705SOL    HW228749   1.014   1.773   9.147  1.4554 -0.7741  1.6135
 5706SOL     OW28750   1.456   4.015  14.221 -0.5247 -0.2625  0.1282
 5706SOL    HW128751   1.460   4.104  14.256  1.4988 -1.3576  2.7515
 5706SOL    HW228752   1.427   3.970  14.301 -1.9245 -2.2084 -1.4609
 5707SOL     OW28753   0.516   2.224   8.915  0.0680  0.0173 -0.1587
 5707SOL    HW128754   0.432   2.233   8.960 -0.1386 -1.7601 -0.1809
 5707SOL    HW228755   0.496   2.243   8.824  2.7550 -1.0590 -0.9650
 5708SOL     OW28756   3.543   1.557  13.243 -0.9037 -0.2735 -0.0457
 5708SOL    HW128757   3.584   1.642  13.225  0.2534 -1.2517 -1.9692
 5708SOL    HW228758   3.451   1.560  13.217 -0.8027 -1.6815 -0.5896
 5709SOL     OW28759   1.457   4.005   0.897 -0.2534  0.0208  0.1327
 5709SOL    HW128760   1.374   4.035   0.859 -1.1058  0.0908  2.0422
 5709SOL    HW228761   1.518   4.048   0.836 -0.7664  1.6223  0.7322
 5710SOL     OW28762   4.715   2.935   8.964 -0.1299 -0.4690 -0.0546
 5710SOL    HW128763   0.012   3.014   8.919  0.1460  0.8588  2.4983
 5710SOL    HW228764   4.620   2.946   8.965 -0.1789 -0.6157 -1.9828
 5711SOL     OW28765   0.059   1.375   7.181 -0.4266 -0.0370 -0.2781
 5711SOL    HW128766   0.080   1.282   7.188  0.2884  0.0946 -0.5793
 5711SOL    HW228767   4.724   1.390   7.117 -0.4652 -1.3044 -0.5277
 5712SOL     OW28768   3.860   3.888  11.595 -0.0952 -0.0949 -0.3528
 5712SOL    HW128769   3.824   3.943  11.664  0.5536  1.9167 -1.6073
 5712SOL    HW228770   3.912   3.827  11.648 -2.6227 -0.9846  1.1241
 5713SOL     OW28771   0.121   1.210   7.838  0.3522  0.0430  0.2945
 5713SOL    HW128772   0.052   1.268   7.871  0.1283 -0.8271  1.3664
 5713SOL    HW228773   0.087   1.122   7.855  0.2736 -0.3748 -2.1310
 5714SOL     OW28774   3.662   3.953   8.954  0.8580 -0.3921  0.1339
 5714SOL    HW128775   3.679   3.974   8.862 -0.2053  3.1858  0.7766
 5714SOL    HW228776   3.754   3.933   8.971  0.2804 -2.1268  1.2042
 5715SOL     OW28777   3.863   3.097   5.469 -0.5341  0.5650  0.3116
 5715SOL    HW128778   3.828   3.154   5.401 -0.4370 -1.2021 -1.2211
 5715SOL    HW228779   3.898   3.163   5.530  0.2046 -0.0881  0.6011
 5716SOL     OW28780   1.898   1.666   5.395 -0.0547 -0.1567 -0.2217
 5716SOL    HW128781   1.819   1.679   5.342 -0.8236  1.3382  1.3116
 5716SOL    HW228782   1.938   1.751   5.375 -0.6901  0.1893 -0.0211
 5717SOL     OW28783   3.075   0.233  16.390 -0.2423  0.2044 -0.3324
 5717SOL    HW128784   3.033   0.318  16.373  0.9404  1.1176  1.4114
 5717SOL    HW228785   3.162   0.265  16.367  0.0504 -1.0147 -0.9138
 5718SOL     OW28786   0.528   3.567   4.137  0.4315 -0.6872  0.1329
 5718SOL    HW128787   0.587   3.591   4.066  0.0146  0.7824  0.2697
 5718SOL    HW228788   0.467   3.522   4.079 -0.3551 -1.4882  1.5848
 5719SOL     OW28789   3.530   0.638   8.976  0.0319  0.0172 -0.0357
 5719SOL    HW128790   3.591   0.577   9.017  1.0821 -0.1452 -1.8447
 5719SOL    HW228791   3.458   0.579   8.950 -0.0549  0.7566 -1.4587
 5720SOL     OW28792   0.132   0.604   6.692 -0.1875 -0.5259  0.0231
 5720SOL    HW128793   0.108   0.592   6.600 -1.9894 -0.4045  0.4847
 5720SOL    HW228794   0.220   0.567   6.700  1.2978  2.3184 -3.4903
 5721SOL     OW28795   1.561   4.050   6.564 -0.5443 -0.2178 -0.0866
 5721SOL    HW128796   1.590   4.012   6.647 -4.2224 -0.3550  1.1256
 5721SOL    HW228797   1.468   4.062   6.584 -0.1644  0.6881  1.1952
 5722SOL     OW28798   2.533   0.984  11.710 -0.8584  0.5069  0.1967
 5722SOL    HW128799   2.533   0.929  11.788  2.6565 -0.2792 -0.3802
 5722SOL    HW228800   2.610   0.961  11.658 -0.1413  2.1120  0.5493
 5723SOL     OW28801   3.260   2.773   8.924  0.0995  0.2432  0.4021
 5723SOL    HW128802   3.267   2.803   9.014  1.6526 -3.1859  1.4378
 5723SOL    HW228803   3.323   2.834   8.885 -1.8346  1.6619 -0.4778
 5724SOL     OW28804   1.863   4.602   3.647  0.2185 -0.4347 -0.0668
 5724SOL    HW128805   1.901   4.570   3.730 -2.8180 -0.5259  1.2693
 5724SOL    HW228806   1.773   4.571   3.650 -0.5128  1.8829  1.5806
 5725SOL     OW28807   2.442   4.015   6.492  0.5585  0.2614 -0.5577
 5725SOL    HW128808   2.468   3.933   6.450  0.5719 -0.2749  0.4840
 5725SOL    HW228809   2.456   4.079   6.422 -0.2280  2.6748  1.4981
 5726SOL     OW28810   1.964   2.145   7.678  0.4990 -0.0667 -0.1940
 5726SOL    HW128811   1.960   2.235   7.648 -2.7502  0.5830  2.1549
 5726SOL    HW228812   1.955   2.110   7.590 -0.5829  2.1683 -0.9714
 5727SOL     OW28813   2.462   0.730   3.123 -0.4806 -0.0425 -0.5474
 5727SOL    HW128814   2.430   0.770   3.204  0.5142  0.8859 -0.6228
 5727SOL    HW228815   2.555   0.718   3.142 -0.4006 -1.1150 -1.5900
 5728SOL     OW28816   0.562   2.777   8.247 -0.4083 -0.3494 -0.1329
 5728SOL    HW128817   0.594   2.823   8.325  0.8546  0.3875 -1.0891
 5728SOL    HW228818   0.641   2.788   8.195 -1.5747  1.4909 -1.5468
 5729SOL     OW28819   2.400   0.326   3.193 -0.0659 -0.2757  0.9151
 5729SOL    HW128820   2.474   0.348   3.136 -1.0631  0.0211 -0.2606
 5729SOL    HW228821   2.333   0.325   3.125  2.0282  1.4043 -1.1625
 5730SOL     OW28822   3.521   3.258  10.005 -0.1856 -0.4377  0.6479
 5730SOL    HW128823   3.561   3.308   9.934 -3.1066  1.1083  0.0660
 5730SOL    HW228824   3.581   3.184  10.011  1.2390  0.6023 -0.8785
 5731SOL     OW28825   3.923   2.848   6.009 -0.1394 -0.5987 -0.4892
 5731SOL    HW128826   3.916   2.765   5.960  0.4159  0.4253 -2.3254
 5731SOL    HW228827   4.016   2.863   6.024 -0.3889 -0.5079  0.9383
 5732SOL     OW28828   3.379   4.110  10.119 -0.0522  0.5709  0.0601
 5732SOL    HW128829   3.426   4.192  10.134 -1.8890  1.4642  0.9524
 5732SOL    HW228830   3.304   4.119  10.178  0.5204  0.9713  0.7293
 5733SOL     OW28831   0.466   2.609   5.127 -0.0828  0.2031 -0.1555
 5733SOL    HW128832   0.562   2.607   5.124 -0.1904 -1.2156 -2.7668
 5733SOL    HW228833   0.453   2.514   5.120  3.6270 -0.2551 -0.8187
 5734SOL     OW28834   4.215   2.954   0.151 -0.9175  0.2253  0.1996
 5734SOL    HW128835   4.208   2.962   0.056  1.5611  2.3908  0.2059
 5734SOL    HW228836   4.303   2.991   0.160 -0.7040 -0.2723  0.1588
 5735SOL     OW28837   0.967   0.789  10.656  0.0717  0.0583 -0.3389
 5735SOL    HW128838   0.937   0.860  10.598 -0.1888 -0.9282 -1.4025
 5735SOL    HW228839   0.981   0.841  10.735 -2.9080 -1.7709  1.3830
 5736SOL     OW28840   0.694   2.328  11.535 -0.2016  0.0939 -0.2917
 5736SOL    HW128841   0.703   2.234  11.555 -1.5384 -0.0099 -0.1813
 5736SOL    HW228842   0.670   2.331  11.442  1.0670  2.9667 -0.5152
 5737SOL     OW28843   0.523   0.619   0.254 -0.0711  0.1666 -0.2827
 5737SOL    HW128844   0.579   0.542   0.260 -1.0668 -0.4796  0.7844
 5737SOL    HW228845   0.580   0.691   0.280  0.4025 -0.9833  1.8853
 5738SOL     OW28846   3.993   4.368   5.012 -0.2701  0.0835  0.4515
 5738SOL    HW128847   4.009   4.289   5.063  0.0049  0.5815  1.1297
 5738SOL    HW228848   3.938   4.340   4.939 -1.5496  3.0435  0.2465
 5739SOL     OW28849   4.235   2.158   7.961 -0.0732 -0.4427 -0.4144
 5739SOL    HW128850   4.227   2.093   7.891 -0.2385  0.6351 -1.3899
 5739SOL    HW228851   4.244   2.238   7.910  2.1267 -0.0245  0.6299
 5740SOL     OW28852   3.394   3.963  10.913 -0.3492  0.0521 -0.0715
 5740SOL    HW128853   3.398   3.942  10.820  2.6536  0.2160  0.0195
 5740SOL    HW228854   3.329   4.032  10.900 -0.3758 -0.0849 -0.6599
 5741SOL     OW28855   1.548   0.876  11.631 -0.2474 -0.0417 -1.1360
 5741SOL    HW128856   1.481   0.926  11.677  0.9783  0.2804  0.3066
 5741SOL    HW228857   1.517   0.869  11.541  2.0701 -0.5105 -1.9030
 5742SOL     OW28858   1.876   3.889   7.479  0.9477  0.6025  0.1261
 5742SOL    HW128859   1.783   3.874   7.465  0.8561 -1.9882  3.6412
 5742SOL    HW228860   1.897   3.936   7.398 -0.5649  0.8595 -0.1043
 5743SOL     OW28861   0.988   3.963   0.987 -0.5106 -0.0054 -0.9737
 5743SOL    HW128862   1.030   3.952   1.072 -0.9452  0.1598 -0.7374
 5743SOL    HW228863   0.897   3.946   1.010 -0.8589  0.0957 -2.2726
 5744SOL     OW28864   4.637   0.486   8.308 -0.1638 -0.2306  0.5212
 5744SOL    HW128865   4.587   0.414   8.347  0.6977 -2.1324 -1.8389
 5744SOL    HW228866   4.568   0.541   8.270 -0.2137  0.6923  1.9644
 5745SOL     OW28867   3.142   0.992   2.088 -0.2860 -0.0963  0.2376
 5745SOL    HW128868   3.121   0.939   2.010 -0.1573  0.1654  0.0254
 5745SOL    HW228869   3.120   1.082   2.067  1.5397  0.2109 -0.3848
 5746SOL     OW28870   2.512   4.367  10.602 -0.4520 -0.2184  0.2674
 5746SOL    HW128871   2.531   4.375  10.695  0.8880  1.2635 -0.1469
 5746SOL    HW228872   2.524   4.274  10.581 -0.6996 -0.1631 -0.1338
 5747SOL     OW28873   0.110   0.965   7.400  0.4395 -0.4790 -0.0105
 5747SOL    HW128874   0.101   0.902   7.471 -3.0503  3.4068  3.0114
 5747SOL    HW228875   0.050   1.036   7.423  1.4861  0.6901 -0.8762
 5748SOL     OW28876   1.045   1.520  11.235  0.0043 -0.0918 -0.1252
 5748SOL    HW128877   1.128   1.473  11.243 -0.2765 -0.3059  1.6533
 5748SOL    HW228878   1.035   1.553  11.324 -2.2631 -0.5100 -0.2289
 5749SOL     OW28879   2.677   1.979  13.955 -0.1812  0.4984 -0.1370
 5749SOL    HW128880   2.657   2.067  13.923 -1.0103  0.4866  0.3525
 5749SOL    HW228881   2.747   1.990  14.019  1.6499  0.7338 -2.1900
 5750SOL     OW28882   0.188   3.763   0.015  0.3583  0.5423 -0.5706
 5750SOL    HW128883   0.101   3.745  17.717  0.9733 -3.5060 -0.0617
 5750SOL    HW228884   0.207   3.702   0.087 -0.6359 -0.3833 -1.1040
 5751SOL     OW28885   2.967   1.043   5.188 -0.4809  0.0273  0.3526
 5751SOL    HW128886   2.988   0.967   5.243 -1.3916 -0.0657  0.5743
 5751SOL    HW228887   2.924   1.001   5.114 -0.5190 -0.6771  0.7755
 5752SOL     OW28888   2.913   1.908   5.246  0.0197 -0.5780 -0.1089
 5752SOL    HW128889   2.824   1.873   5.235  0.4337 -1.7607  0.3193
 5752SOL    HW228890   2.892   1.950   5.329 -1.0951 -1.7356  0.2038
 5753SOL     OW28891   0.212   0.629   6.132  0.0418 -0.1861 -0.6309
 5753SOL    HW128892   0.159   0.595   6.204  2.1865 -1.5736  0.2807
 5753SOL    HW228893   0.280   0.566   6.112 -0.2679 -0.5425 -0.5581
 5754SOL     OW28894   1.195   1.202   3.826  0.0539  0.2427 -0.1151
 5754SOL    HW128895   1.227   1.291   3.818 -1.3719  0.8251  0.6512
 5754SOL    HW228896   1.280   1.158   3.819  0.1933  0.7148 -1.3786
 5755SOL     OW28897   1.996   0.813   5.959  0.2264 -0.4508 -0.1719
 5755SOL    HW128898   1.966   0.859   5.880  2.9351 -0.8648 -1.4636
 5755SOL    HW228899   2.089   0.810   5.935  0.2483 -1.4798  0.0503
 5756SOL     OW28900   1.329   0.934   5.254  0.1689 -0.3351 -0.3004
 5756SOL    HW128901   1.411   0.884   5.257  1.1669  1.4381  1.6107
 5756SOL    HW228902   1.312   0.963   5.164  0.6037 -1.2438 -0.6785
 5757SOL     OW28903   3.258   2.267  16.889  0.4022  0.3588 -0.5084
 5757SOL    HW128904   3.223   2.286  16.976  1.3041  0.0024 -0.0577
 5757SOL    HW228905   3.232   2.346  16.843  1.6812  0.1673 -1.5527
 5758SOL     OW28906   3.930   3.542   0.398  0.1653  0.1488  0.5421
 5758SOL    HW128907   3.843   3.502   0.389  0.0723  0.3322  0.6280
 5758SOL    HW228908   3.949   3.523   0.306 -2.3441 -1.6662  0.3799
 5759SOL     OW28909   3.059   4.387  10.361 -0.4077  0.9444 -0.6570
 5759SOL    HW128910   3.047   4.477  10.332  2.3104  1.8211  1.0311
 5759SOL    HW228911   3.112   4.409  10.437  2.0017 -1.7522 -1.5620
 5760SOL     OW28912   3.030   3.988   2.378  0.3879 -0.9519  0.1238
 5760SOL    HW128913   2.943   3.953   2.395  0.1601  0.2529  1.3568
 5760SOL    HW228914   3.081   3.922   2.425 -1.2825 -2.1920  0.2111
 5761SOL     OW28915   4.484   1.642   1.427 -0.2912 -0.1674 -0.1127
 5761SOL    HW128916   4.541   1.577   1.386  0.0599 -0.6665  1.1523
 5761SOL    HW228917   4.532   1.667   1.506  0.3677  0.2964 -0.6623
 5762SOL     OW28918   3.525   3.334   8.085  0.2516  0.0032  0.0861
 5762SOL    HW128919   3.500   3.425   8.103  0.8599  0.0706  0.5687
 5762SOL    HW228920   3.473   3.280   8.144 -1.2227 -0.6568 -1.7992
 5763SOL     OW28921   3.125   2.186   2.387  0.4819  0.3133  0.0476
 5763SOL    HW128922   3.087   2.098   2.389  1.1856  0.0347  0.9920
 5763SOL    HW228923   3.119   2.204   2.481 -0.6226 -1.4216  0.3109
 5764SOL     OW28924   4.675   3.840   5.321  0.7399  0.3016 -0.2664
 5764SOL    HW128925   4.697   3.926   5.357 -1.6113  0.5045  0.6634
 5764SOL    HW228926   0.002   3.780   5.364 -2.1568  0.8309  4.5551
 5765SOL     OW28927   3.670   1.689  15.581  0.4779 -0.4296 -0.1965
 5765SOL    HW128928   3.683   1.784  15.579  0.1326 -0.3906 -0.6795
 5765SOL    HW228929   3.710   1.664  15.664 -0.1324  1.5900  0.7256
 5766SOL     OW28930   0.271   2.686   2.709 -0.1841 -0.2257 -0.5664
 5766SOL    HW128931   0.238   2.596   2.704  0.5474 -0.5008 -0.4613
 5766SOL    HW228932   0.195   2.732   2.674 -0.6527 -0.1230  0.5901
 5767SOL     OW28933   2.806   3.813   1.332  0.4891  0.7044 -0.0291
 5767SOL    HW128934   2.861   3.740   1.361 -0.7369  0.0011  0.5508
 5767SOL    HW228935   2.840   3.894   1.368 -0.9737  1.8821 -1.3068
 5768SOL     OW28936   2.254   2.075   0.101  0.0058 -0.1657 -0.0862
 5768SOL    HW128937   2.346   2.100   0.101  0.3764 -1.5855 -1.8685
 5768SOL    HW228938   2.263   1.981   0.110  0.9316 -0.2215 -1.6685
 5769SOL     OW28939   4.028   3.091   9.916  0.6025  0.9532  0.5531
 5769SOL    HW128940   4.074   3.142   9.982  0.8868  0.7445  0.5153
 5769SOL    HW228941   4.086   3.091   9.840  1.8590 -1.2586  1.5099
 5770SOL     OW28942   1.167   2.988   7.209  0.1215  0.0376 -0.0371
 5770SOL    HW128943   1.111   3.038   7.269 -0.9070 -0.8368 -0.2585
 5770SOL    HW228944   1.247   3.035   7.229 -0.8218  1.1520  1.0689
 5771SOL     OW28945   0.284   1.764   3.458 -0.7459 -0.4569  0.5417
 5771SOL    HW128946   0.279   1.674   3.427  0.4426  0.5853 -2.6132
 5771SOL    HW228947   0.193   1.793   3.456 -0.7167 -0.3525  0.7668
 5772SOL     OW28948   4.346   3.317   3.340 -0.1327 -0.5561  0.1589
 5772SOL    HW128949   4.354   3.265   3.261  0.1028  2.1341 -1.5860
 5772SOL    HW228950   4.372   3.254   3.407 -0.3049 -2.2302 -1.3528
 5773SOL     OW28951   3.007   1.103   3.440 -0.0143  0.2038  0.3856
 5773SOL    HW128952   2.970   1.130   3.356 -0.4174 -0.7725  0.2570
 5773SOL    HW228953   3.070   1.039   3.407 -0.1766 -0.5688  1.5573
 5774SOL     OW28954   2.762   2.045   1.056 -0.1310 -0.0260 -0.1583
 5774SOL    HW128955   2.761   2.026   1.150 -1.6352  3.6850  0.6074
 5774SOL    HW228956   2.689   2.107   1.058  0.4097  0.6832 -2.2273
 5775SOL     OW28957   0.955   4.452   0.235 -0.0244  0.3310 -0.7196
 5775SOL    HW128958   0.877   4.471   0.287  0.7839  2.2332 -0.2040
 5775SOL    HW228959   1.010   4.526   0.261  0.3815 -0.0857 -0.4061
 5776SOL     OW28960   3.030   1.590   8.744 -0.2523  0.1558  0.5871
 5776SOL    HW128961   3.015   1.586   8.839  2.8145  1.8806  1.1371
 5776SOL    HW228962   3.000   1.502   8.719  2.2183  0.4171 -3.1436
 5777SOL     OW28963   0.946   0.351   5.420 -0.3190  0.5882  0.1700
 5777SOL    HW128964   0.934   0.446   5.424  2.0931  0.9542 -1.5470
 5777SOL    HW228965   0.891   0.325   5.346 -2.2670  2.7729  0.8468
 5778SOL     OW28966   4.111   2.667   8.145 -0.3809  0.7177  0.2744
 5778SOL    HW128967   4.106   2.664   8.050 -1.1323 -1.4170  0.3852
 5778SOL    HW228968   4.100   2.574   8.164 -1.6788  0.6216 -1.0384
 5779SOL     OW28969   0.286   2.018   7.664  0.3999  0.0772 -0.4521
 5779SOL    HW128970   0.325   2.027   7.751  0.3903 -0.3134 -0.4075
 5779SOL    HW228971   0.256   1.927   7.660  0.7971 -0.1031  0.6700
 5780SOL     OW28972   3.880   4.077  16.878 -0.6368  0.5186  0.4912
 5780SOL    HW128973   3.944   4.146  16.862 -0.4430  0.4217  0.8698
 5780SOL    HW228974   3.857   4.051  16.788 -0.1587 -1.8848  1.0655
 5781SOL     OW28975   3.740   3.295   5.345  0.0981 -0.7620 -0.5923
 5781SOL    HW128976   3.762   3.387   5.363 -2.2211 -0.1826 -0.6523
 5781SOL    HW228977   3.698   3.305   5.259 -0.7699  0.2109 -0.0522
 5782SOL     OW28978   1.199   2.323   1.836  0.4353  0.8333  0.9203
 5782SOL    HW128979   1.226   2.408   1.871  2.1367 -0.7372  3.3689
 5782SOL    HW228980   1.108   2.327   1.867 -0.1952 -0.6345 -0.7160
 5783SOL     OW28981   0.512   0.845   3.100 -0.1761 -0.0999 -0.4000
 5783SOL    HW128982   0.543   0.837   3.190 -0.8000 -1.2102 -0.2846
 5783SOL    HW228983   0.416   0.839   3.108 -0.1929 -4.0541 -3.1494
 5784SOL     OW28984   2.314   1.841   9.067  0.6103 -0.3995 -0.4046
 5784SOL    HW128985   2.275   1.849   9.154 -0.3599  0.1819 -0.9023
 5784SOL    HW228986   2.405   1.862   9.089  0.4765 -0.8568  0.5919
 5785SOL     OW28987   0.148   0.090  12.479  0.3506 -0.4722  0.6635
 5785SOL    HW128988   0.150   0.114  12.387 -1.2823  2.2921  1.3394
 5785SOL    HW228989   0.239   0.065  12.490  1.3819  2.3677 -1.5297
 5786SOL     OW28990   3.712   2.003   9.756  0.5805 -0.4838 -0.2647
 5786SOL    HW128991   3.657   1.967   9.824  1.2797  0.0568  0.5898
 5786SOL    HW228992   3.748   2.077   9.805 -0.5320 -0.4536  0.4900
 5787SOL     OW28993   0.661   2.931   5.127 -0.0418 -0.2914 -0.3868
 5787SOL    HW128994   0.577   2.956   5.089 -1.0724 -0.5549  1.6902
 5787SOL    HW228995   0.713   2.921   5.047 -1.0220  0.4687 -1.1184
 5788SOL     OW28996   2.158   1.581  10.910  0.1158 -0.1852 -0.0173
 5788SOL    HW128997   2.145   1.658  10.965 -1.7627  2.6541 -4.3859
 5788SOL    HW228998   2.082   1.527  10.930  0.7337 -0.6709  1.0341
 5789SOL     OW28999   4.112   2.998   6.414 -0.4070 -0.0431  0.5366
 5789SOL    HW129000   4.196   3.032   6.382 -0.3067  0.9061  1.7898
 5789SOL    HW229001   4.135   2.970   6.502 -0.6731 -0.6381  0.4144
 5790SOL     OW29002   1.786   1.074   9.423  0.1307 -0.7258 -0.3189
 5790SOL    HW129003   1.706   1.043   9.465 -0.5578 -0.2784 -1.2928
 5790SOL    HW229004   1.799   1.156   9.472  2.2077 -0.7676 -0.7865
 5791SOL     OW29005   3.729   3.008   5.946 -0.5443  0.2504 -0.1193
 5791SOL    HW129006   3.789   2.933   5.949  1.8060  2.1281 -1.0455
 5791SOL    HW229007   3.743   3.050   6.031 -0.7236 -1.0945  0.5818
 5792SOL     OW29008   2.340   0.620  12.388 -0.0882  0.4799  0.1843
 5792SOL    HW129009   2.363   0.560  12.460  1.0136 -0.3537 -0.8598
 5792SOL    HW229010   2.245   0.620  12.386 -0.1009 -0.5858  0.5869
 5793SOL     OW29011   3.578   4.465   8.458  0.4769  0.1223 -0.2315
 5793SOL    HW129012   3.658   4.430   8.419  1.1987  1.2158  0.2793
 5793SOL    HW229013   3.534   4.507   8.385 -0.2090  1.3254  0.8733
 5794SOL     OW29014   4.259   1.292   5.122 -0.3251 -0.4913  0.0413
 5794SOL    HW129015   4.191   1.225   5.118 -0.8252  0.1214 -1.5308
 5794SOL    HW229016   4.216   1.362   5.073  0.0563  0.3062  0.8366
 5795SOL     OW29017   0.375   4.016   4.281  0.2261  0.3073  0.2204
 5795SOL    HW129018   0.392   3.953   4.212 -1.2193  1.9335 -1.6242
 5795SOL    HW229019   0.303   3.976   4.330  0.3140  2.0225  1.7640
 5796SOL     OW29020   1.627   2.041   4.073 -0.6700 -0.6047 -0.6214
 5796SOL    HW129021   1.674   2.036   4.156 -1.6477 -0.4484 -0.0540
 5796SOL    HW229022   1.683   1.983   4.022  0.1199 -2.0387  1.8510
 5797SOL     OW29023   0.328   2.963   6.276 -0.2082  0.0753 -0.0491
 5797SOL    HW129024   0.422   2.975   6.289 -0.1334 -1.6414  1.1118
 5797SOL    HW229025   0.315   2.994   6.187 -2.0640  2.5342  1.0630
 5798SOL     OW29026   2.688   1.470   1.298  0.1187 -0.1572  0.3041
 5798SOL    HW129027   2.677   1.559   1.265  0.6973  0.0131  0.5725
 5798SOL    HW229028   2.780   1.474   1.323 -0.6398 -0.9764  3.1709
 5799SOL     OW29029   1.402   2.179  15.390  0.2204  0.1767 -0.7920
 5799SOL    HW129030   1.428   2.088  15.403  0.2997  0.5633  1.8195
 5799SOL    HW229031   1.434   2.201  15.302 -0.3653 -3.1399 -1.8168
 5800SOL     OW29032   3.958   4.366   7.499  0.1526  0.2409  0.3737
 5800SOL    HW129033   3.987   4.274   7.497 -2.2128 -0.4790 -0.7341
 5800SOL    HW229034   3.976   4.408   7.415  0.5906 -0.4014  0.1462
 5801SOL     OW29035   1.674   0.422   6.786  0.0820  0.3255  0.2142
 5801SOL    HW129036   1.716   0.367   6.720 -1.2486 -0.2496 -0.1493
 5801SOL    HW229037   1.668   0.507   6.742 -1.8901 -0.1002 -0.3567
 5802SOL     OW29038   0.610   2.007   1.869 -0.5298  0.5694  0.2506
 5802SOL    HW129039   0.616   1.923   1.915  0.5225  1.2052  1.2905
 5802SOL    HW229040   0.649   1.992   1.782  0.3582  0.0581  0.7369
 5803SOL     OW29041   2.547   1.962   3.219  0.3854 -0.6711  0.7080
 5803SOL    HW129042   2.602   2.039   3.202 -0.7527 -0.0421 -0.1213
 5803SOL    HW229043   2.467   1.981   3.171  0.9605  0.0981  0.0559
 5804SOL     OW29044   1.526   2.937  15.427 -0.4806  0.3963  0.2887
 5804SOL    HW129045   1.618   2.916  15.440 -0.6252 -0.7259 -0.4478
 5804SOL    HW229046   1.499   2.846  15.444  1.2369 -0.1402  0.1785
 5805SOL     OW29047   3.240   0.705   8.944  0.2159  0.0915  0.2033
 5805SOL    HW129048   3.287   0.622   8.934 -0.7243 -0.4882  0.5486
 5805SOL    HW229049   3.264   0.735   9.031 -0.8901 -0.7734  0.8050
 5806SOL     OW29050   3.982   1.791   4.198  0.3000 -0.7922 -0.4616
 5806SOL    HW129051   4.074   1.781   4.174  0.7998  2.6690  0.0710
 5806SOL    HW229052   3.995   1.823   4.288  0.2635 -2.6199  0.2021
 5807SOL     OW29053   0.385   0.474  11.022  0.6767  0.7944  0.1359
 5807SOL    HW129054   0.403   0.567  11.037  1.5501  0.5510  0.6141
 5807SOL    HW229055   0.413   0.445  11.109 -1.4461 -1.3894  0.0620
 5808SOL     OW29056   1.697   1.079   3.463 -0.4012  0.3154 -0.2641
 5808SOL    HW129057   1.742   1.011   3.513 -1.0703 -0.2724 -0.4595
 5808SOL    HW229058   1.695   1.040   3.376  0.5129  2.6943 -1.3475
 5809SOL     OW29059   0.483   0.131   4.868 -0.4349  0.5827 -0.0088
 5809SOL    HW129060   0.534   0.171   4.939 -1.5246  1.0103  0.5440
 5809SOL    HW229061   0.528   0.163   4.790  0.8037  1.3401  1.0241
 5810SOL     OW29062   2.822   1.140   8.386 -0.2764  0.3516  0.3197
 5810SOL    HW129063   2.866   1.137   8.471 -0.9126 -0.4798  0.6215
 5810SOL    HW229064   2.730   1.156   8.407 -0.8759 -2.2325 -0.2739
 5811SOL     OW29065   2.480   1.726   1.047 -0.2034  0.2647  0.1046
 5811SOL    HW129066   2.425   1.743   0.971  1.7115  0.1715 -1.3035
 5811SOL    HW229067   2.445   1.641   1.076 -1.3617  0.6840 -0.0494
 5812SOL     OW29068   2.961   2.641   2.830  0.6866 -0.2108 -0.1474
 5812SOL    HW129069   2.891   2.576   2.834  0.9328 -0.4248  0.7124
 5812SOL    HW229070   3.038   2.586   2.816 -0.6887 -1.9650 -0.9563
 5813SOL     OW29071   4.634   1.092   8.483 -0.0690  0.2352  0.1812
 5813SOL    HW129072   4.657   1.180   8.513 -1.0506  1.2940 -2.1470
 5813SOL    HW229073   4.645   1.035   8.559  1.0739  2.5732  1.7730
 5814SOL     OW29074   3.970   1.364  11.252  0.0024  0.4348  0.4993
 5814SOL    HW129075   4.034   1.303  11.290  1.8748  0.1712 -3.1002
 5814SOL    HW229076   3.936   1.416  11.325  1.1914  1.3770  0.3790
 5815SOL     OW29077   2.269   2.318   8.940  0.0369 -0.6648  0.1490
 5815SOL    HW129078   2.195   2.372   8.912 -0.7582 -0.8752  1.8146
 5815SOL    HW229079   2.232   2.273   9.016  0.9503 -1.6187  0.0284
 5816SOL     OW29080   3.086   2.958   2.837 -0.1690 -0.5481 -0.8761
 5816SOL    HW129081   3.141   2.919   2.769  0.7743  0.4310 -0.6779
 5816SOL    HW229082   3.064   2.882   2.891 -2.8496  1.1052  0.3392
 5817SOL     OW29083   2.080   2.107   4.539  0.3273 -0.0345  0.0885
 5817SOL    HW129084   2.014   2.052   4.580  2.4011 -1.4645  1.5482
 5817SOL    HW229085   2.029   2.187   4.547  0.7860  0.4027 -1.3006
 5818SOL     OW29086   2.977   0.699  12.458  0.2146  0.7974  0.1675
 5818SOL    HW129087   3.055   0.744  12.427  1.1153 -1.0201 -0.2116
 5818SOL    HW229088   2.937   0.671  12.375  1.0590 -1.1113  0.4064
 5819SOL     OW29089   1.055   2.957   9.464 -0.0501 -0.2776  0.1929
 5819SOL    HW129090   1.062   2.871   9.422 -1.9273  0.2849 -1.2920
 5819SOL    HW229091   1.138   2.993   9.432  0.3009 -0.1267  1.2867
 5820SOL     OW29092   0.593   1.320  17.194 -0.0258 -0.1559 -0.0078
 5820SOL    HW129093   0.654   1.274  17.251 -0.7221 -2.2779 -0.9697
 5820SOL    HW229094   0.629   1.408  17.192 -1.6729  0.5049 -0.5563
 5821SOL     OW29095   4.159   3.093   8.218 -0.3872  0.2423  0.0255
 5821SOL    HW129096   4.065   3.113   8.219 -0.4125  0.1564 -0.3596
 5821SOL    HW229097   4.208   3.176   8.217 -2.4821  1.4797  0.1833
 5822SOL     OW29098   1.556   0.959   9.091  0.4588 -0.3635  0.0028
 5822SOL    HW129099   1.618   0.893   9.122 -0.6321  0.2673  3.5223
 5822SOL    HW229100   1.528   0.996   9.174  2.4219 -0.6624  0.8022
 5823SOL     OW29101   0.216   3.693  10.270  0.4938 -0.2717 -0.5187
 5823SOL    HW129102   0.308   3.695  10.296  0.0518  1.0550  0.9316
 5823SOL    HW229103   0.216   3.751  10.193  1.5585 -1.1866 -1.2052
 5824SOL     OW29104   4.221   2.743   3.902 -0.7226  0.1683 -0.3273
 5824SOL    HW129105   4.190   2.831   3.926 -0.9258  0.3692 -1.3322
 5824SOL    HW229106   4.314   2.751   3.921 -1.3084  2.2451  1.6465
 5825SOL     OW29107   2.008   2.348  16.898 -0.0317  0.6160  0.4970
 5825SOL    HW129108   1.950   2.272  16.895 -0.9679  1.3025  1.1665
 5825SOL    HW229109   1.951   2.405  16.951 -0.9483  1.2165 -1.1185
 5826SOL     OW29110   0.354   3.285   2.977  0.5088 -0.4586  0.5131
 5826SOL    HW129111   0.353   3.338   2.897 -1.4491 -1.3321 -0.0416
 5826SOL    HW229112   0.276   3.302   3.030 -1.8041 -3.5526 -1.9211
 5827SOL     OW29113   0.353   0.329   5.528  1.0128  0.2507 -0.9462
 5827SOL    HW129114   0.354   0.255   5.588  0.6416  2.3156  1.5717
 5827SOL    HW229115   0.302   0.284   5.461 -0.4315 -0.5558  0.7222
 5828SOL     OW29116   0.552   2.190  15.201 -0.0529 -0.3619 -0.1610
 5828SOL    HW129117   0.635   2.235  15.219 -0.5448  0.5325 -0.1369
 5828SOL    HW229118   0.493   2.263  15.183 -1.8339 -1.8944 -0.5183
 5829SOL     OW29119   1.395   4.296  17.328 -0.7743  0.4866  0.3801
 5829SOL    HW129120   1.321   4.288  17.388 -0.3153  0.1776  0.9095
 5829SOL    HW229121   1.357   4.238  17.262  0.5581  1.3996 -1.1913
 5830SOL     OW29122   0.086   1.624  14.083 -0.9325 -0.4979  0.5858
 5830SOL    HW129123   0.162   1.667  14.121 -0.5559 -0.6782  0.0354
 5830SOL    HW229124   0.025   1.698  14.086 -1.5945 -1.0365  0.4770
 5831SOL     OW29125   0.221   2.533   1.280  0.2690 -0.8313  0.3292
 5831SOL    HW129126   0.217   2.439   1.259 -1.6766 -0.5876 -0.2917
 5831SOL    HW229127   0.313   2.560   1.290  0.7280 -1.4185 -2.1836
 5832SOL     OW29128   3.956   3.187   2.129 -0.0773  0.1806 -0.0567
 5832SOL    HW129129   3.878   3.166   2.180 -1.2349  0.0713 -1.8926
 5832SOL    HW229130   4.025   3.141   2.177 -0.0683  1.9419  1.6088
 5833SOL     OW29131   3.655   1.020   2.521  0.3037  0.2422 -0.0097
 5833SOL    HW129132   3.637   1.031   2.428 -2.8427  0.7267  0.6424
 5833SOL    HW229133   3.647   1.115   2.529 -0.1025  0.2777 -0.8403
 5834SOL     OW29134   2.185   0.780  15.895 -0.0078 -0.1295 -0.0965
 5834SOL    HW129135   2.237   0.782  15.975 -1.3995  0.2518  0.7950
 5834SOL    HW229136   2.168   0.686  15.889  1.4373 -0.3482 -0.8209
 5835SOL     OW29137   3.136   2.078   8.456 -0.2813  0.1688  0.1561
 5835SOL    HW129138   3.197   2.148   8.479  1.2121 -1.1461  0.2035
 5835SOL    HW229139   3.089   2.058   8.537  0.0384  0.5052  0.4250
 5836SOL     OW29140   0.855   1.649   1.617  0.2159  0.3366 -0.1828
 5836SOL    HW129141   0.850   1.723   1.677  2.1573 -0.8439  1.4706
 5836SOL    HW229142   0.933   1.673   1.566 -0.5061 -1.0501 -1.9488
 5837SOL     OW29143   4.053   1.189   6.292  0.0277  0.1537 -0.3357
 5837SOL    HW129144   4.027   1.280   6.297 -0.8590 -0.0540 -1.2520
 5837SOL    HW229145   4.073   1.177   6.199  1.6415 -0.2494  0.0498
 5838SOL     OW29146   0.579   1.046   7.215 -0.0283 -0.1155 -0.6984
 5838SOL    HW129147   0.508   1.109   7.226 -0.1678 -0.3805 -0.0893
 5838SOL    HW229148   0.538   0.964   7.244  0.2033 -0.3093 -0.9174
 5839SOL     OW29149   3.400   0.485   5.362 -0.0146 -0.1156 -0.2107
 5839SOL    HW129150   3.339   0.427   5.409 -0.0038 -0.3650 -0.5063
 5839SOL    HW229151   3.438   0.419   5.304 -0.5012  0.3448 -1.0542
 5840SOL     OW29152   2.809   1.923   9.419 -0.7444  0.0825 -0.0776
 5840SOL    HW129153   2.875   1.908   9.487 -0.8106 -0.6724 -0.1815
 5840SOL    HW229154   2.858   1.930   9.336 -0.3480 -4.5561 -0.2098
 5841SOL     OW29155   3.799   3.618   6.840  0.4294  0.5018 -0.3173
 5841SOL    HW129156   3.793   3.656   6.752 -0.8989  0.7240 -0.1263
 5841SOL    HW229157   3.720   3.642   6.887  1.0003 -0.1422  0.9559
 5842SOL     OW29158   2.120   2.435   3.362 -0.2013  0.5139 -0.0778
 5842SOL    HW129159   2.079   2.348   3.364  1.0321 -0.1029 -1.8107
 5842SOL    HW229160   2.044   2.492   3.367 -0.9450 -0.2003 -3.2701
 5843SOL     OW29161   0.136   1.112   4.313 -0.0805  0.5519 -0.5446
 5843SOL    HW129162   0.127   1.203   4.340  0.5554  1.1257 -2.3058
 5843SOL    HW229163   0.169   1.112   4.224  1.6932  2.3131  0.1222
 5844SOL     OW29164   2.805   0.076   3.156 -0.5050 -0.1740 -0.0134
 5844SOL    HW129165   2.808   0.119   3.242 -1.7629  0.2127 -0.1624
 5844SOL    HW229166   2.816   4.717   3.177  0.6464  0.0478  0.3380
 5845SOL     OW29167   4.719   1.182  16.179 -0.0355  0.4778 -0.4705
 5845SOL    HW129168   0.063   1.222  16.141  0.2413  1.0701  0.7446
 5845SOL    HW229169   4.689   1.119  16.113 -1.2241  2.0983 -1.4661
 5846SOL     OW29170   0.820   1.252   6.495  0.0114  0.1445  0.9792
 5846SOL    HW129171   0.896   1.308   6.507  1.5261 -1.5239 -0.8922
 5846SOL    HW229172   0.763   1.286   6.565 -0.7282  1.2937 -0.1782
 5847SOL     OW29173   0.829   2.349  16.125  0.5447 -0.1154  0.7863
 5847SOL    HW129174   0.828   2.445  16.127  2.7569 -0.0671 -0.4348
 5847SOL    HW229175   0.735   2.341  16.110  0.7639 -0.7769 -0.2194
 5848SOL     OW29176   1.951   4.380   1.758 -0.1900  0.2769 -0.0927
 5848SOL    HW129177   2.012   4.435   1.808 -0.9918  2.2774 -1.2889
 5848SOL    HW229178   1.863   4.406   1.786  0.4855  1.1198  1.2630
 5849SOL     OW29179   1.950   1.530  14.802 -0.2005  0.1717 -0.1791
 5849SOL    HW129180   1.983   1.479  14.876  2.3463  0.8487 -0.8646
 5849SOL    HW229181   1.867   1.553  14.844  0.5930  0.8714  1.0233
 5850SOL     OW29182   0.531   0.661  16.965  0.0811  0.0072  0.0635
 5850SOL    HW129183   0.565   0.598  16.902 -1.8921 -0.1548 -0.8365
 5850SOL    HW229184   0.508   0.605  17.040  2.5252 -0.7896  0.2058
 5851SOL     OW29185   2.904   2.531   6.556  0.0282  0.8634 -0.1802
 5851SOL    HW129186   2.832   2.491   6.604  0.7169 -0.3174 -0.1385
 5851SOL    HW229187   2.979   2.507   6.609 -1.3193 -2.1061  0.3656
 5852SOL     OW29188   1.368   4.490   3.494  0.3027  0.6551  0.3790
 5852SOL    HW129189   1.412   4.559   3.445  0.7125 -0.0826 -0.2871
 5852SOL    HW229190   1.278   4.505   3.466  0.6284  1.5751 -0.1686
 5853SOL     OW29191   2.837   3.608   4.816  0.6102  0.1072  0.0030
 5853SOL    HW129192   2.799   3.696   4.812  1.2426  0.3976  0.3018
 5853SOL    HW229193   2.781   3.568   4.750  0.6708 -1.0047  0.6309
 5854SOL     OW29194   1.796   0.907   4.812 -0.5028  0.0011 -0.0932
 5854SOL    HW129195   1.732   0.935   4.746  0.4428  0.4409 -0.8236
 5854SOL    HW229196   1.831   0.996   4.816 -0.7108  0.1254 -1.0454
 5855SOL     OW29197   3.184   3.061   8.710 -0.0526  0.1010 -0.5333
 5855SOL    HW129198   3.259   3.004   8.693 -1.8024 -2.0124 -1.2176
 5855SOL    HW229199   3.210   3.146   8.676  3.5240 -0.6307  0.4016
 5856SOL     OW29200   4.481   2.622  11.859 -0.0286  0.0432  0.1707
 5856SOL    HW129201   4.518   2.535  11.877 -0.6736 -0.6021 -1.6543
 5856SOL    HW229202   4.389   2.603  11.879  0.5214 -2.9789 -0.2004
 5857SOL     OW29203   4.732   0.392   4.675 -0.2523  0.6256 -0.4312
 5857SOL    HW129204   0.072   0.331   4.674 -1.0309 -0.3330  0.4187
 5857SOL    HW229205   0.019   0.466   4.619 -1.8264  2.3219  1.2399
 5858SOL     OW29206   1.326   4.711  11.778  0.2594 -0.4399  0.2613
 5858SOL    HW129207   1.239   0.011  11.799  0.3734 -1.2633  2.0216
 5858SOL    HW229208   1.366   4.687  11.861 -1.1571 -0.4971  0.9146
 5859SOL     OW29209   0.916   3.568   3.824  0.5726  0.3109  0.2623
 5859SOL    HW129210   0.942   3.479   3.800  0.3586  0.3747 -0.2014
 5859SOL    HW229211   1.000   3.595   3.861  0.1373 -1.7909  2.7815
 5860SOL     OW29212   0.839   3.379   5.765 -0.5605 -0.4610 -0.2655
 5860SOL    HW129213   0.908   3.401   5.702  0.9767 -3.0291  0.5505
 5860SOL    HW229214   0.862   3.443   5.833  2.2491 -0.9743 -0.7511
 5861SOL     OW29215   3.724   1.804   8.557  0.1285  0.2484 -0.4195
 5861SOL    HW129216   3.706   1.763   8.472  4.0017 -0.4881 -0.8662
 5861SOL    HW229217   3.638   1.806   8.600 -0.6943 -0.6603 -2.0214
 5862SOL     OW29218   4.163   3.631   5.995  0.3457  0.0074 -0.0438
 5862SOL    HW129219   4.188   3.574   5.922 -1.9044  0.2980 -1.0220
 5862SOL    HW229220   4.101   3.573   6.039  1.5763  0.1410  1.8605
 5863SOL     OW29221   0.877   2.360  13.335  0.1601 -0.3585  0.0866
 5863SOL    HW129222   0.871   2.346  13.430 -1.2408  0.3639  0.1132
 5863SOL    HW229223   0.967   2.387  13.317 -0.4678  1.9627  0.4558
 5864SOL     OW29224   2.289   0.523  14.531  0.0678  0.4384  0.1729
 5864SOL    HW129225   2.322   0.436  14.552 -0.3315 -0.1155 -1.5193
 5864SOL    HW229226   2.209   0.507  14.480 -1.2843  2.0143  1.7894
 5865SOL     OW29227   0.783   2.063  11.550  0.4714 -0.2917  0.7321
 5865SOL    HW129228   0.816   1.994  11.607  2.6247  1.7677  1.9688
 5865SOL    HW229229   0.863   2.117  11.546 -0.0049  0.3390 -0.4102
 5866SOL     OW29230   1.124   1.665   3.211  0.1984 -0.2785  0.2639
 5866SOL    HW129231   1.114   1.633   3.122 -1.4326 -0.7404  0.6077
 5866SOL    HW229232   1.033   1.659   3.241 -0.9276 -0.3083 -3.1399
 5867SOL     OW29233   1.384   4.603   4.116 -0.2703  0.1716 -0.3919
 5867SOL    HW129234   1.309   4.596   4.057  0.2838  0.7471 -1.1777
 5867SOL    HW229235   1.442   4.542   4.070  0.7066  0.9178 -0.1449
 5868SOL     OW29236   3.148   1.233  10.459 -0.8949  0.6113  0.7597
 5868SOL    HW129237   3.119   1.323  10.475  1.5519  1.6406 -0.6246
 5868SOL    HW229238   3.084   1.191  10.402  0.7242 -0.9209  0.0734
 5869SOL     OW29239   0.211   2.806  14.278  0.6971 -0.1799  0.7046
 5869SOL    HW129240   0.277   2.788  14.211 -1.9555 -4.0177 -0.8879
 5869SOL    HW229241   0.210   2.899  14.259 -0.6538  0.0568  1.9537
 5870SOL     OW29242   4.122   2.241   1.904 -0.0455  0.2600  0.4355
 5870SOL    HW129243   4.207   2.282   1.887  0.4166 -0.8699  0.0611
 5870SOL    HW229244   4.101   2.289   1.985 -0.3739 -0.4650  0.7780
 5871SOL     OW29245   0.497   1.785  15.396 -0.3894  0.2294 -0.1851
 5871SOL    HW129246   0.541   1.863  15.364 -0.6658 -0.4522 -2.2206
 5871SOL    HW229247   0.558   1.758  15.465  0.7656 -0.7285 -1.5846
 5872SOL     OW29248   2.796   4.496  10.519 -0.2255  0.0212 -0.0983
 5872SOL    HW129249   2.788   4.589  10.541 -2.7088 -0.6808  1.9623
 5872SOL    HW229250   2.723   4.487  10.459 -0.0459 -1.6271 -0.0795
 5873SOL     OW29251   0.809   0.343   4.588 -0.0042 -0.3209  0.1583
 5873SOL    HW129252   0.850   0.386   4.663 -1.7584 -1.5011  1.8030
 5873SOL    HW229253   0.877   0.359   4.522 -0.6307  2.2079  0.1066
 5874SOL     OW29254   1.173   1.599   7.512  0.0606 -0.2887 -0.4691
 5874SOL    HW129255   1.193   1.693   7.514 -1.8675  0.0905  1.3594
 5874SOL    HW229256   1.078   1.600   7.528 -0.0093  2.8751 -1.1464
 5875SOL     OW29257   4.664   4.151  11.043  0.5050 -0.0559 -0.1424
 5875SOL    HW129258   4.670   4.228  11.099 -0.2694 -1.1364  1.4421
 5875SOL    HW229259   4.734   4.092  11.071  1.6999  1.2073 -0.4835
 5876SOL     OW29260   0.354   2.018  14.955 -0.0250 -0.2486 -0.3249
 5876SOL    HW129261   0.301   2.036  15.033  0.7695 -1.9552  0.6154
 5876SOL    HW229262   0.293   2.033  14.883  0.1634  0.1391 -0.4065
 5877SOL     OW29263   1.611   3.067   3.441  0.1367 -0.3055  0.3075
 5877SOL    HW129264   1.662   3.010   3.498 -0.5917 -1.6920 -0.4149
 5877SOL    HW229265   1.634   3.156   3.468  1.1261 -0.1511 -1.0574
 5878SOL     OW29266   2.433   0.482   3.627 -0.1077  0.2061 -0.6902
 5878SOL    HW129267   2.366   0.549   3.639 -1.6428 -1.3813 -0.2431
 5878SOL    HW229268   2.502   0.539   3.593  0.2106  0.7754  0.9554
 5879SOL     OW29269   1.911   2.847  11.665 -0.5454 -0.4942  0.3472
 5879SOL    HW129270   1.966   2.908  11.617  1.0559 -0.7662  1.8529
 5879SOL    HW229271   1.846   2.830  11.596 -0.4119  1.8721 -0.3722
 5880SOL     OW29272   1.993   0.071   8.144  0.4381 -0.4978  0.3276
 5880SOL    HW129273   2.046   0.048   8.220  0.7482  0.0326  0.2657
 5880SOL    HW229274   1.976   4.715   8.114 -1.1155 -0.4443  1.0536
 5881SOL     OW29275   2.148   2.366   1.372  0.3960  0.2194 -0.4600
 5881SOL    HW129276   2.197   2.448   1.375 -1.5122  1.2890  1.4276
 5881SOL    HW229277   2.183   2.323   1.450  2.2551  1.0385 -0.8525
 5882SOL     OW29278   1.512   3.105   3.753 -0.1833  0.4626  0.3296
 5882SOL    HW129279   1.563   3.179   3.720  0.4783 -0.0229  0.2601
 5882SOL    HW229280   1.522   3.036   3.688 -0.7827 -0.3458  1.0986
 5883SOL     OW29281   1.074   1.373   6.584  0.3164  0.3049 -0.5037
 5883SOL    HW129282   1.102   1.406   6.669 -1.1353 -1.6993  0.7230
 5883SOL    HW229283   1.097   1.450   6.531 -3.7206  0.6907 -1.6857
 5884SOL     OW29284   3.629   2.927   0.939 -0.7444 -0.4230  0.7264
 5884SOL    HW129285   3.597   2.888   1.021 -0.7678 -0.6878  0.5927
 5884SOL    HW229286   3.549   2.973   0.915  0.6334  1.1964 -0.7806
 5885SOL     OW29287   4.626   0.151  13.939 -0.7378 -0.3565  0.5190
 5885SOL    HW129288   4.608   0.235  13.981  0.2339  0.8131 -1.4083
 5885SOL    HW229289   4.719   0.135  13.954 -0.6154 -0.8788 -0.7893
 5886SOL     OW29290   4.364   0.473   6.326  0.2558  0.9184  0.4204
 5886SOL    HW129291   4.369   0.387   6.367  2.6651  0.4082 -0.9569
 5886SOL    HW229292   4.443   0.474   6.272  0.3890 -1.8911  0.5642
 5887SOL     OW29293   3.746   3.093  10.994 -0.1766 -0.0485  0.5878
 5887SOL    HW129294   3.754   3.145  10.914 -1.9429 -0.1301  0.3402
 5887SOL    HW229295   3.682   3.032  10.958 -0.5354  1.0632 -0.6430
 5888SOL     OW29296   0.361   1.436   4.182  0.5009 -0.0717  0.3827
 5888SOL    HW129297   0.362   1.529   4.203 -1.9256  0.6069 -2.4095
 5888SOL    HW229298   0.360   1.452   4.087  0.0508 -0.4896  0.3173
 5889SOL     OW29299   2.788   4.600   6.026 -0.7980  0.1490 -0.1109
 5889SOL    HW129300   2.816   4.508   6.023  3.9428  1.6385 -1.5158
 5889SOL    HW229301   2.855   4.644   6.078 -0.8286 -1.6913  1.4932
 5890SOL     OW29302   0.334   1.807   2.047 -0.3002 -0.3416 -0.9437
 5890SOL    HW129303   0.299   1.775   2.130  2.3808 -1.3927 -0.2377
 5890SOL    HW229304   0.266   1.869   2.019  0.4916  1.7965  1.7967
 5891SOL     OW29305   1.433   0.731   2.071  0.7618 -0.4444 -0.0874
 5891SOL    HW129306   1.366   0.671   2.039  0.0269 -0.2553  1.1081
 5891SOL    HW229307   1.394   0.743   2.157  0.4431  1.2779 -0.4691
 5892SOL     OW29308   0.453   2.887  14.748 -0.0574 -0.0490  0.0681
 5892SOL    HW129309   0.365   2.925  14.756 -1.4328 -3.7530  2.1936
 5892SOL    HW229310   0.443   2.841  14.665 -1.4541  1.5247 -0.6497
 5893SOL     OW29311   3.046   0.912   1.312 -0.1812  0.3948 -0.1833
 5893SOL    HW129312   3.101   0.860   1.370  0.5820  0.2296 -1.0514
 5893SOL    HW229313   3.057   0.875   1.224 -0.5995 -1.6054  0.6068
 5894SOL     OW29314   1.083   4.079   2.055 -0.3005  0.3842  0.9120
 5894SOL    HW129315   1.012   4.072   1.992 -1.4914  1.4404  2.1352
 5894SOL    HW229316   1.046   4.148   2.111  0.9086  1.2227  0.6840
 5895SOL     OW29317   2.156   1.169   9.603 -0.1983 -0.1250 -0.0188
 5895SOL    HW129318   2.135   1.161   9.696 -2.0551  0.6190 -0.3692
 5895SOL    HW229319   2.244   1.132   9.610 -0.2639 -0.1662  0.6091
 5896SOL     OW29320   0.185   4.706   8.929 -0.3897 -0.5451  0.2590
 5896SOL    HW129321   0.199   0.063   8.953  0.6039 -0.8791  0.9454
 5896SOL    HW229322   0.233   4.703   8.846  0.0821 -1.9713  0.5787
 5897SOL     OW29323   3.578   4.515   4.952 -0.7504  0.0352 -0.7639
 5897SOL    HW129324   3.500   4.519   5.006 -0.1311 -0.3326  0.1600
 5897SOL    HW229325   3.545   4.460   4.881  1.3797 -0.5372 -1.3330
 5898SOL     OW29326   3.151   2.614   4.167 -0.5677  0.0854  0.2983
 5898SOL    HW129327   3.160   2.690   4.225  0.8424 -0.3707  0.6989
 5898SOL    HW229328   3.199   2.643   4.089  0.9398 -0.3707  1.0369
 5899SOL     OW29329   2.944   2.794  17.523  0.1090  0.3800 -0.0400
 5899SOL    HW129330   2.850   2.785  17.511 -0.0775  0.3712  1.4393
 5899SOL    HW229331   2.951   2.874  17.575 -1.2751  1.2197 -1.1482
 5900SOL     OW29332   2.475   2.984   9.186 -1.0733 -0.3605 -0.6534
 5900SOL    HW129333   2.507   3.073   9.177 -1.9604 -0.1974 -2.1371
 5900SOL    HW229334   2.483   2.959   9.093  1.4581 -0.2990 -0.4680
 5901SOL     OW29335   2.160   4.438  12.378  0.1609  0.0236  0.2749
 5901SOL    HW129336   2.079   4.401  12.412 -0.2048  1.6785  1.2241
 5901SOL    HW229337   2.145   4.465  12.288 -0.6642  0.1030  0.4349
 5902SOL     OW29338   0.269   3.601   7.982 -1.0776 -0.3591  0.3999
 5902SOL    HW129339   0.291   3.685   8.023 -1.5344 -0.0711  0.0558
 5902SOL    HW229340   0.288   3.607   7.889  1.4512  0.5179  0.9780
 5903SOL     OW29341   4.279   1.145   8.314 -0.3201 -0.1634 -0.3080
 5903SOL    HW129342   4.193   1.141   8.274 -0.0882  0.6440 -0.8871
 5903SOL    HW229343   4.333   1.166   8.237  2.2587 -0.4805  1.3889
 5904SOL     OW29344   0.295   2.591   7.738  0.2720 -0.1448 -0.0735
 5904SOL    HW129345   0.388   2.597   7.719  0.7429 -2.1964  1.6820
 5904SOL    HW229346   0.298   2.578   7.833 -2.2426  0.1098  0.0659
 5905SOL     OW29347   4.462   1.395   2.071  0.1126 -0.1361 -0.1664
 5905SOL    HW129348   4.487   1.337   2.144  1.3128 -0.1253 -0.5705
 5905SOL    HW229349   4.377   1.352   2.062  0.2644 -0.4588 -0.0934
 5906SOL     OW29350   1.184   0.183  11.964 -0.1733 -0.8533  0.5199
 5906SOL    HW129351   1.175   0.110  12.026 -0.0169 -1.0798  0.2779
 5906SOL    HW229352   1.253   0.235  12.005  0.2503  0.8763 -2.3714
 5907SOL     OW29353   1.058   0.106   5.242  0.0817 -0.3172  0.5103
 5907SOL    HW129354   1.000   0.071   5.309  0.6946  1.2335  1.8465
 5907SOL    HW229355   1.067   0.029   5.187 -3.3255 -0.2291 -0.1767
 5908SOL     OW29356   2.626   2.045   1.852  0.2460  0.1467 -0.3165
 5908SOL    HW129357   2.717   2.071   1.845  0.7155 -1.6733 -0.9311
 5908SOL    HW229358   2.634   1.963   1.901 -1.2644  0.8334  1.0708
 5909SOL     OW29359   1.326   0.555  15.504 -0.0425  0.1134 -0.6658
 5909SOL    HW129360   1.299   0.531  15.416  1.0018  0.4402 -1.0682
 5909SOL    HW229361   1.355   0.646  15.500 -1.4252  0.7480  3.0161
 5910SOL     OW29362   4.176   0.736   8.248 -0.4891 -0.1579 -0.1575
 5910SOL    HW129363   4.084   0.736   8.273 -0.2821  0.0801  0.6065
 5910SOL    HW229364   4.182   0.829   8.228 -0.8108 -0.0657  0.1826
 5911SOL     OW29365   4.390   2.262   7.591  0.1013 -0.1598  0.1702
 5911SOL    HW129366   4.480   2.232   7.604  0.2081  0.0149 -0.1759
 5911SOL    HW229367   4.391   2.352   7.623  2.4479 -0.9242  2.1718
 5912SOL     OW29368   3.163   0.125   9.040  0.0261  0.9624  0.2471
 5912SOL    HW129369   3.192   0.130   8.949 -2.5293  1.1185 -0.5297
 5912SOL    HW229370   3.163   0.031   9.057  2.7763  0.6919 -1.1974
 5913SOL     OW29371   0.386   4.023   1.002  0.2324  0.6871 -0.1379
 5913SOL    HW129372   0.305   3.984   1.034  1.0999  0.4983  1.8514
 5913SOL    HW229373   0.451   3.952   1.006 -1.1749 -0.5799  0.1654
 5914SOL     OW29374   3.135   0.649   8.326 -0.2258 -0.5148  0.3230
 5914SOL    HW129375   3.131   0.638   8.231  0.4485 -1.3436  0.3835
 5914SOL    HW229376   3.089   0.568   8.348  1.2400 -2.0484 -2.2497
 5915SOL     OW29377   0.822   0.006  10.526  0.1476 -0.1530  0.4480
 5915SOL    HW129378   0.848   0.094  10.500 -0.5919 -0.2377 -0.5600
 5915SOL    HW229379   0.864   4.726  10.612  2.4040  0.1965 -0.5990
 5916SOL     OW29380   0.639   0.101   6.205  0.5771  0.3369 -0.2445
 5916SOL    HW129381   0.552   0.064   6.220 -0.5587  2.8011 -0.7814
 5916SOL    HW229382   0.649   0.174   6.266  2.7467 -1.5363  1.6149
 5917SOL     OW29383   2.174   0.801  14.541 -0.5871  0.1107 -0.3053
 5917SOL    HW129384   2.167   0.833  14.451 -0.2838 -2.0459 -1.0779
 5917SOL    HW229385   2.224   0.720  14.535 -0.3253  0.2957 -0.6372
 5918SOL     OW29386   0.085   2.670   4.129 -0.6021 -0.1259  0.5866
 5918SOL    HW129387   0.077   2.578   4.154 -0.1296 -0.3778 -0.1883
 5918SOL    HW229388   0.155   2.674   4.063 -1.5654 -0.3811 -0.4487
 5919SOL     OW29389   1.923   0.798   6.549 -0.4128  0.5204 -0.2842
 5919SOL    HW129390   1.986   0.728   6.530  1.3519  1.5050  1.9437
 5919SOL    HW229391   1.964   0.828   6.630  0.1381  1.6798 -1.0007
 5920SOL     OW29392   4.305   2.529   4.389  0.3220 -0.4205 -0.0281
 5920SOL    HW129393   4.298   2.503   4.297 -1.8338  1.3627 -0.3619
 5920SOL    HW229394   4.362   2.603   4.366 -1.0980  0.3668 -0.9726
 5921SOL     OW29395   1.675   0.318   5.495  0.4033  0.0981  0.0106
 5921SOL    HW129396   1.736   0.376   5.541  0.9111 -1.1030  0.8574
 5921SOL    HW229397   1.733   0.266   5.439  1.3391 -3.2808  4.1142
 5922SOL     OW29398   3.355   0.013   5.796  0.0535 -0.1867  0.3170
 5922SOL    HW129399   3.292   0.030   5.866  0.1410 -0.0463  0.3619
 5922SOL    HW229400   3.331   4.658   5.770 -0.4092 -0.1002  0.4508
 5923SOL     OW29401   0.682   0.339   6.399 -0.3722  0.5461  0.4037
 5923SOL    HW129402   0.665   0.386   6.318 -1.4879  0.5308  0.6271
 5923SOL    HW229403   0.725   0.409   6.449  1.9584 -1.1896  0.8115
 5924SOL     OW29404   0.659   4.044   7.616  0.2279  1.3692 -0.0491
 5924SOL    HW129405   0.578   4.004   7.647  0.5749 -0.2956 -1.2720
 5924SOL    HW229406   0.724   4.020   7.683  0.6120 -1.9696 -1.5786
 5925SOL     OW29407   2.190   2.650   1.588 -0.3079 -0.0437 -0.0764
 5925SOL    HW129408   2.265   2.692   1.631  0.0388  0.1261 -0.8488
 5925SOL    HW229409   2.116   2.706   1.610 -0.3298 -0.0047 -0.2501
 5926SOL     OW29410   3.324   3.621   7.923  0.5895 -0.4307 -0.1511
 5926SOL    HW129411   3.399   3.614   7.982 -0.8351 -0.4858  1.6683
 5926SOL    HW229412   3.349   3.697   7.872  2.6741  0.1594  1.7686
 5927SOL     OW29413   4.610   2.844  11.026 -0.3287 -0.5076  0.7101
 5927SOL    HW129414   4.550   2.911  10.993 -0.0101 -0.3634  0.4239
 5927SOL    HW229415   4.560   2.820  11.104 -0.8116 -2.7052 -0.2860
 5928SOL     OW29416   3.167   0.820   3.715  0.0836  0.1130  0.0520
 5928SOL    HW129417   3.113   0.898   3.726 -0.7066 -0.3858 -0.2209
 5928SOL    HW229418   3.254   0.858   3.728 -0.9149  2.0863  0.9440
 5929SOL     OW29419   0.918   1.357   4.194 -0.1040 -0.8166  0.1139
 5929SOL    HW129420   0.825   1.350   4.213  0.1904  0.4650  2.1245
 5929SOL    HW229421   0.948   1.269   4.174 -0.4401 -0.4055 -2.1707
 5930SOL     OW29422   3.342   1.128   2.852  0.2393  0.2599 -0.3749
 5930SOL    HW129423   3.324   1.143   2.759 -1.3166  0.5821 -0.0302
 5930SOL    HW229424   3.404   1.055   2.854  0.3042  0.3378  0.4114
 5931SOL     OW29425   1.102   3.562   1.430 -0.1499 -0.4368  0.0823
 5931SOL    HW129426   1.148   3.500   1.486  0.8551 -0.0859 -0.3352
 5931SOL    HW229427   1.125   3.533   1.342  2.4245 -1.5718  1.1090
 5932SOL     OW29428   4.696   2.172   5.686  0.2942  0.3964 -0.0279
 5932SOL    HW129429   0.017   2.238   5.728 -2.0785  0.4847  2.9568
 5932SOL    HW229430   0.026   2.116   5.644 -1.5028 -1.1123 -0.7722
 5933SOL     OW29431   1.518   4.366   3.985  0.1334 -0.5434 -0.3800
 5933SOL    HW129432   1.560   4.286   3.954 -0.7386 -1.0126 -0.3190
 5933SOL    HW229433   1.585   4.412   4.037  0.6402 -2.3675  0.5876
 5934SOL     OW29434   0.242   2.938   1.103 -0.3049 -0.1283  0.5863
 5934SOL    HW129435   0.332   2.932   1.070 -1.1640  0.9744 -1.9048
 5934SOL    HW229436   0.236   2.861   1.160 -0.8042 -0.4967  0.0376
 5935SOL     OW29437   4.143   4.281  14.284  0.2180 -0.7058 -0.2344
 5935SOL    HW129438   4.166   4.189  14.278 -0.3215 -0.7430 -1.8397
 5935SOL    HW229439   4.226   4.318  14.313  0.3767 -1.4487  0.2431
 5936SOL     OW29440   0.749   1.893   6.140  0.1786 -0.1837  0.0169
 5936SOL    HW129441   0.692   1.966   6.115  0.6001 -0.6994 -2.3961
 5936SOL    HW229442   0.773   1.924   6.228  1.5853 -0.2225 -0.3561
 5937SOL     OW29443   0.755   3.857   6.645 -0.6803 -0.0939 -0.1750
 5937SOL    HW129444   0.666   3.842   6.677 -0.0440 -2.7544  0.3519
 5937SOL    HW229445   0.752   3.952   6.651  1.5486  0.0548 -1.4893
 5938SOL     OW29446   1.802   4.137   0.416 -0.0642 -0.3388 -0.3282
 5938SOL    HW129447   1.802   4.208   0.480  1.1281 -1.3553  0.8111
 5938SOL    HW229448   1.708   4.119   0.417 -0.0645 -0.2814  1.1864
 5939SOL     OW29449   1.472   4.610  14.540  0.0129 -0.7861  0.1698
 5939SOL    HW129450   1.468   4.527  14.587  0.0179 -1.3775 -0.8587
 5939SOL    HW229451   1.429   4.666  14.605 -0.1121  0.2090 -0.7624
 5940SOL     OW29452   3.356   4.196   7.147  0.9902 -0.2552  0.3205
 5940SOL    HW129453   3.291   4.266   7.138 -0.3330 -1.6927 -1.5131
 5940SOL    HW229454   3.344   4.167   7.237 -3.8854 -0.5032 -0.3884
 5941SOL     OW29455   1.432   0.572   3.733  0.0120  0.5565  0.2237
 5941SOL    HW129456   1.397   0.633   3.798  0.2403 -1.2555  2.0491
 5941SOL    HW229457   1.477   0.504   3.783  2.3250  1.5562 -0.5169
 5942SOL     OW29458   3.149   0.361   5.956  0.2525 -0.0306  0.1821
 5942SOL    HW129459   3.213   0.395   6.019 -0.3959 -0.5681  1.1374
 5942SOL    HW229460   3.161   0.428   5.888  0.5922 -0.2505  0.0280
 5943SOL     OW29461   1.676   3.955  15.952  0.0890 -0.1080  0.3355
 5943SOL    HW129462   1.614   3.985  15.886 -1.7335  0.8033  2.4837
 5943SOL    HW229463   1.729   3.891  15.903  2.3391 -0.1143  2.7558
 5944SOL     OW29464   3.324   3.580   1.269  0.0185 -0.0738 -0.3748
 5944SOL    HW129465   3.396   3.617   1.320  0.5099  0.8627 -1.7419
 5944SOL    HW229466   3.264   3.650   1.294 -1.6253 -1.4891 -0.3305
 5945SOL     OW29467   1.924   1.890   3.376 -0.0657 -0.1593 -0.1564
 5945SOL    HW129468   1.946   1.890   3.283 -0.6643 -0.8275 -0.3037
 5945SOL    HW229469   1.906   1.800   3.403  0.7444 -0.0041  0.8949
 5946SOL     OW29470   3.345   3.361   3.760  0.3610  0.1605 -0.3937
 5946SOL    HW129471   3.375   3.347   3.670 -0.7923 -0.6314 -0.6571
 5946SOL    HW229472   3.380   3.447   3.785  2.0245 -0.9809  1.2400
 5947SOL     OW29473   1.249   0.839  11.164 -0.4797  0.1751  0.0453
 5947SOL    HW129474   1.180   0.819  11.227 -1.1944 -2.6832 -1.6449
 5947SOL    HW229475   1.212   0.774  11.104  1.1510 -0.9994  0.3281
 5948SOL     OW29476   3.950   2.178  13.274  0.4903 -0.5785 -0.1769
 5948SOL    HW129477   3.980   2.098  13.315  2.3349 -0.3213 -1.0250
 5948SOL    HW229478   3.864   2.145  13.248  1.6623 -2.0562 -2.1749
 5949SOL     OW29479   3.345   3.997   2.831  0.3751  0.1931  0.3555
 5949SOL    HW129480   3.391   4.075   2.801 -2.3605  1.1409 -1.3041
 5949SOL    HW229481   3.297   4.041   2.901  0.9882  1.8824 -0.2876
 5950SOL     OW29482   4.507   2.879   2.093 -0.0039 -0.0368 -0.1558
 5950SOL    HW129483   4.489   2.958   2.043 -1.2153 -0.2021  0.0338
 5950SOL    HW229484   4.600   2.876   2.068 -0.1085  1.2222 -0.6876
 5951SOL     OW29485   2.526   0.712   5.106 -0.2864 -0.2897 -0.1286
 5951SOL    HW129486   2.521   0.690   5.199  1.4243  0.5007  0.1512
 5951SOL    HW229487   2.460   0.649   5.078  0.1732 -1.2956  1.0477
 5952SOL     OW29488   0.523   2.361   3.441  0.8065  0.0078 -0.2708
 5952SOL    HW129489   0.617   2.345   3.446  0.2972 -2.8569  0.1781
 5952SOL    HW229490   0.485   2.275   3.458  0.1550  0.3408 -0.0262
 5953SOL     OW29491   1.244   2.071   8.569 -0.0801  0.2543 -0.0390
 5953SOL    HW129492   1.237   1.985   8.610 -0.3369 -0.6049 -1.8872
 5953SOL    HW229493   1.335   2.095   8.589 -0.5508  0.1724  2.2146
 5954SOL     OW29494   0.476   1.102   5.423  0.2164  0.0525 -1.0390
 5954SOL    HW129495   0.571   1.109   5.417  0.1809  1.3882 -0.0136
 5954SOL    HW229496   0.469   1.020   5.471 -2.1092 -0.4333 -2.2291
 5955SOL     OW29497   1.252   4.322   4.821 -0.0711 -0.4927 -0.0062
 5955SOL    HW129498   1.161   4.332   4.792  0.8570  3.0506 -1.7623
 5955SOL    HW229499   1.302   4.400   4.797 -1.6136  0.2914 -0.6108
 5956SOL     OW29500   4.714   0.195   5.111 -0.0839  0.4208  1.4530
 5956SOL    HW129501   4.646   0.193   5.044 -0.4119 -0.8064  1.8191
 5956SOL    HW229502   0.023   0.279   5.096  0.9984 -0.6525 -1.4262
 5957SOL     OW29503   3.894   0.425   3.103  0.4825 -0.5254  0.7140
 5957SOL    HW129504   3.846   0.491   3.053 -0.0126 -0.1290  1.7109
 5957SOL    HW229505   3.825   0.393   3.162 -0.0786 -1.8300 -0.6512
 5958SOL     OW29506   1.829   0.564  17.302 -0.1691 -0.0059 -0.3182
 5958SOL    HW129507   1.913   0.601  17.277  0.2656 -1.0274 -0.3637
 5958SOL    HW229508   1.783   0.592  17.223 -2.9983  1.5341  1.8489
 5959SOL     OW29509   0.305   2.699   6.328  0.2737  0.1865  0.3643
 5959SOL    HW129510   0.289   2.789   6.298  0.8701  0.5678  1.1881
 5959SOL    HW229511   0.303   2.721   6.421 -1.9325  0.3966  0.2823
 5960SOL     OW29512   2.191   4.442   3.729 -0.3969 -0.0914 -0.3073
 5960SOL    HW129513   2.217   4.372   3.788  1.0482  1.0813  0.4510
 5960SOL    HW229514   2.144   4.408   3.653  0.0305  0.2258 -0.7127
 5961SOL     OW29515   0.004   1.797   3.449  0.1334 -0.2963 -0.2458
 5961SOL    HW129516   4.718   1.745   3.526  1.2128 -1.6425 -0.8700
 5961SOL    HW229517   4.694   1.751   3.378 -0.3513  0.6306 -0.5511
 5962SOL     OW29518   3.788   2.812  10.905 -0.4012 -0.2206  0.4656
 5962SOL    HW129519   3.730   2.736  10.909 -1.0583  0.1846 -1.4775
 5962SOL    HW229520   3.856   2.785  10.967 -2.0389 -0.7694  2.0162
 5963SOL     OW29521   0.758   0.771   4.229  0.1533 -0.4102  0.5718
 5963SOL    HW129522   0.688   0.758   4.294 -0.7932 -0.5227 -0.4665
 5963SOL    HW229523   0.810   0.691   4.228 -0.2459 -0.6756  0.7776
 5964SOL     OW29524   0.817   4.492   7.795 -0.6769 -0.0018 -0.6486
 5964SOL    HW129525   0.864   4.417   7.758  2.1153 -0.1196  3.1963
 5964SOL    HW229526   0.838   4.488   7.888  0.3117  1.2370 -0.8249
 5965SOL     OW29527   3.279   4.484   1.996  0.0741 -0.5146 -0.7876
 5965SOL    HW129528   3.289   4.450   2.086  2.3056  3.0361  0.3149
 5965SOL    HW229529   3.345   4.553   1.996 -0.5764  0.1060 -2.9535
 5966SOL     OW29530   4.460   4.278  16.583 -0.1241 -0.1391  0.6928
 5966SOL    HW129531   4.545   4.324  16.580 -0.8845  1.2941  1.0183
 5966SOL    HW229532   4.494   4.189  16.573 -0.7428 -0.1123 -1.7101
 5967SOL     OW29533   0.199   3.689   0.739 -0.0813  0.5310 -0.1654
 5967SOL    HW129534   0.155   3.659   0.659  2.4284  0.3897 -1.4791
 5967SOL    HW229535   0.181   3.782   0.755  0.2299  0.4302  0.7318
 5968SOL     OW29536   4.731   2.476   4.467  1.2976 -0.0896 -0.9505
 5968SOL    HW129537   4.649   2.516   4.497  0.7331 -1.0854 -1.1635
 5968SOL    HW229538   0.043   2.489   4.550 -1.0865  0.9264  0.1930
 5969SOL     OW29539   4.604   0.766   5.319 -0.3773 -0.1256 -0.2421
 5969SOL    HW129540   4.568   0.736   5.236  1.9910  0.2461 -1.3868
 5969SOL    HW229541   4.592   0.684   5.368  1.4712  0.7698  1.7321
 5970SOL     OW29542   0.051   4.504  10.626  0.3577  0.2927  0.0958
 5970SOL    HW129543   4.716   4.557  10.665  1.6471  0.5777  1.9612
 5970SOL    HW229544   0.127   4.551  10.659  0.1185  0.2593  0.6985
 5971SOL     OW29545   4.589   2.164   5.328  0.4382 -0.1491  0.2985
 5971SOL    HW129546   4.546   2.245   5.301 -0.5113 -0.4901  0.7722
 5971SOL    HW229547   4.657   2.155   5.261 -2.4538  0.3638 -2.7268
 5972SOL     OW29548   4.470   4.372   8.685 -0.3591  0.0334 -0.0398
 5972SOL    HW129549   4.550   4.404   8.726 -0.1940 -0.8994  0.3789
 5972SOL    HW229550   4.491   4.279   8.677  0.4809  0.2084  0.1196
 5973SOL     OW29551   2.563   2.385   3.447  0.1409 -0.0955 -0.1165
 5973SOL    HW129552   2.597   2.310   3.399  0.7883 -0.3507  0.7539
 5973SOL    HW229553   2.537   2.345   3.530  0.6360  0.7282  0.4309
 5974SOL     OW29554   1.013   3.653   9.776 -0.2035  0.4770 -0.4929
 5974SOL    HW129555   1.101   3.628   9.748  0.6688  3.6294 -0.5438
 5974SOL    HW229556   0.987   3.693   9.693  2.4573  1.6098 -0.7594
 5975SOL     OW29557   0.003   0.634   3.754 -0.0460 -0.8436 -0.1774
 5975SOL    HW129558   0.008   0.613   3.661 -1.3388  2.0190 -0.8943
 5975SOL    HW229559   4.651   0.599   3.777 -0.3583 -0.1634 -0.2878
 5976SOL     OW29560   4.641   0.326   4.247 -0.2133 -0.7746 -0.4957
 5976SOL    HW129561   4.558   0.290   4.217  1.3700 -2.3320 -2.9876
 5976SOL    HW229562   4.652   0.271   4.325  0.4627  0.2371  0.1178
 5977SOL     OW29563   3.847   2.793   8.630 -0.4246  0.7169  0.5071
 5977SOL    HW129564   3.788   2.738   8.579 -2.1464  1.4914  1.6509
 5977SOL    HW229565   3.911   2.815   8.562 -0.1959 -2.2771 -0.2426
 5978SOL     OW29566   2.095   1.906   8.612 -0.6447 -0.0803  0.4392
 5978SOL    HW129567   2.114   1.999   8.620 -0.0065 -0.0613 -1.3691
 5978SOL    HW229568   2.162   1.864   8.667  1.0158  0.9975 -0.7656
 5979SOL     OW29569   2.880   2.897   5.047  1.2136  0.1162  0.5020
 5979SOL    HW129570   2.823   2.972   5.063 -1.9084 -2.5998  2.2716
 5979SOL    HW229571   2.814   2.842   5.004 -0.0748  1.7758  0.3872
 5980SOL     OW29572   4.032   1.624  11.441 -0.2362 -0.1767  0.0188
 5980SOL    HW129573   4.083   1.700  11.412 -0.7912 -0.1181 -0.7862
 5980SOL    HW229574   3.986   1.664  11.515 -0.4151 -1.8675  0.8441
 5981SOL     OW29575   0.230   0.036  14.257 -0.2303 -0.0138 -0.1501
 5981SOL    HW129576   0.310   4.724  14.284  0.5781  1.1335 -0.5765
 5981SOL    HW229577   0.176   4.702  14.219 -1.7998  1.5560 -0.7468
 5982SOL     OW29578   2.131   1.752   4.553 -0.5677 -0.3377  0.0386
 5982SOL    HW129579   2.142   1.728   4.645  1.0244  0.1555 -0.0321
 5982SOL    HW229580   2.073   1.827   4.566  0.1000  0.6500 -2.7057
 5983SOL     OW29581   4.674   1.677  17.099 -0.0159 -0.3852 -0.4698
 5983SOL    HW129582   0.018   1.720  17.135 -1.9132  1.3682  1.5584
 5983SOL    HW229583   4.606   1.712  17.156  0.9446  1.2751 -0.3403
 5984SOL     OW29584   3.574   0.693   0.631  0.3135 -0.4416 -0.2666
 5984SOL    HW129585   3.667   0.671   0.631  0.6531  0.9611  1.5086
 5984SOL    HW229586   3.569   0.745   0.712  0.7949  1.2468 -1.3435
 5985SOL     OW29587   2.690   1.682   9.469  0.1513 -0.4038 -0.0738
 5985SOL    HW129588   2.714   1.771   9.443 -0.6457  0.0615  0.7823
 5985SOL    HW229589   2.696   1.692   9.564  1.1810  0.7610 -0.2776
 5986SOL     OW29590   1.894   1.409  16.499 -0.2534 -0.4202  0.2891
 5986SOL    HW129591   1.945   1.331  16.518 -0.6107 -0.7483 -0.0848
 5986SOL    HW229592   1.929   1.437  16.414 -2.2163  1.1192 -0.0198
 5987SOL     OW29593   1.315   2.370   6.410 -0.5243 -0.0342 -0.2524
 5987SOL    HW129594   1.289   2.381   6.318  0.2227 -0.5559 -0.5232
 5987SOL    HW229595   1.364   2.288   6.406  1.2101  0.9956  0.2615
 5988SOL     OW29596   3.569   2.338   7.472 -0.0959  0.1201 -0.5075
 5988SOL    HW129597   3.525   2.340   7.557 -1.0796 -0.7041 -0.9946
 5988SOL    HW229598   3.602   2.427   7.469  1.4347 -0.3402  2.4358
 5989SOL     OW29599   3.484   4.592  14.350  0.0522  0.1060 -0.2681
 5989SOL    HW129600   3.541   4.516  14.339 -0.2325 -0.0497 -0.6509
 5989SOL    HW229601   3.404   4.553  14.385 -0.5342  2.6551  1.2806
 5990SOL     OW29602   3.295   1.926   4.656 -0.4651  0.3164 -0.7363
 5990SOL    HW129603   3.265   1.934   4.565 -0.4003  3.4101 -0.4807
 5990SOL    HW229604   3.302   2.017   4.684 -1.3824  0.2657 -0.3237
 5991SOL     OW29605   3.610   0.436   7.929  0.0276  0.1476  0.4311
 5991SOL    HW129606   3.623   0.380   8.006  0.4618 -0.7967 -0.3416
 5991SOL    HW229607   3.565   0.512   7.968 -0.3371  1.2062 -2.0717
 5992SOL     OW29608   2.410   3.640   4.746  0.0689 -0.0881 -0.4165
 5992SOL    HW129609   2.321   3.637   4.712 -1.2021  1.7847  2.7999
 5992SOL    HW229610   2.448   3.721   4.713  2.6554 -1.1568 -0.1165
 5993SOL     OW29611   0.297   1.151  10.134 -0.0780 -0.1658  0.1280
 5993SOL    HW129612   0.351   1.209  10.188 -2.6607  1.4070  1.0056
 5993SOL    HW229613   0.209   1.188  10.139  0.4488  1.2944 -1.4564
 5994SOL     OW29614   2.179   2.944   7.263  0.0397  0.4114 -0.0973
 5994SOL    HW129615   2.151   2.883   7.195 -0.5662 -0.0521  0.5782
 5994SOL    HW229616   2.187   3.023   7.209  0.3701  0.4139 -0.0442
 5995SOL     OW29617   4.233   1.570   8.984 -0.3868 -0.2885 -0.0812
 5995SOL    HW129618   4.168   1.617   9.037 -0.6161 -1.1449  0.4082
 5995SOL    HW229619   4.315   1.584   9.031 -0.9534 -0.8104  1.0764
 5996SOL     OW29620   1.510   1.148   8.631 -0.2121 -0.0319 -0.7001
 5996SOL    HW129621   1.588   1.193   8.600  0.0270 -1.3718 -2.0545
 5996SOL    HW229622   1.546   1.076   8.683  0.9461  0.3010 -1.0414
 5997SOL     OW29623   3.440   2.620   1.615 -0.1896  0.4495 -0.0718
 5997SOL    HW129624   3.413   2.612   1.524  0.6616  0.4403 -0.3281
 5997SOL    HW229625   3.531   2.650   1.605 -0.1999  0.0438 -1.3447
 5998SOL     OW29626   0.174   1.980  16.904  0.3477 -0.0091  0.1708
 5998SOL    HW129627   0.260   1.991  16.943 -0.0456 -0.9302  1.3188
 5998SOL    HW229628   0.193   1.918  16.834 -0.2555  1.6150 -1.4091
 5999SOL     OW29629   2.873   1.444   3.142  0.0377 -0.1592 -0.5242
 5999SOL    HW129630   2.870   1.494   3.223 -0.8316  1.0755 -1.3204
 5999SOL    HW229631   2.836   1.361   3.174 -0.5256  0.8034  1.2577
 6000SOL     OW29632   0.422   0.157   7.037  0.2892  0.3930 -0.3888
 6000SOL    HW129633   0.358   0.216   7.076  0.7488  1.2538 -0.9368
 6000SOL    HW229634   0.366   0.080   7.026  2.4345 -1.1742 -0.2569
 6001SOL     OW29635   3.196   0.693   9.513 -0.2264 -0.4859  0.2317
 6001SOL    HW129636   3.163   0.729   9.596 -0.1069  1.1817 -0.4579
 6001SOL    HW229637   3.279   0.650   9.536 -1.5813 -2.1119  2.0887
 6002SOL     OW29638   0.065   1.998  17.184 -0.4958 -0.2922 -0.2484
 6002SOL    HW129639   0.082   2.092  17.184  0.9796 -0.5456  0.2399
 6002SOL    HW229640   0.116   1.972  17.107  1.3091 -0.9834  1.1602
 6003SOL     OW29641   1.396   0.491   4.170  0.6910  0.1517  0.5453
 6003SOL    HW129642   1.397   0.452   4.257 -2.0226  1.9807  1.4303
 6003SOL    HW229643   1.373   0.581   4.194 -0.6602 -0.2237  0.6658
 6004SOL     OW29644   4.645   2.429   1.591 -0.4595  0.2368  0.1996
 6004SOL    HW129645   4.638   2.394   1.502  2.3074 -1.3566  0.6109
 6004SOL    HW229646   4.600   2.365   1.646 -0.1666  1.0738  1.4176
 6005SOL     OW29647   4.032   0.600   2.689  0.4702 -0.3827 -0.2985
 6005SOL    HW129648   3.976   0.602   2.767 -1.3238  0.9573 -1.6197
 6005SOL    HW229649   3.979   0.550   2.627  0.3934  0.9860 -1.3497
 6006SOL     OW29650   1.367   4.531   6.960 -0.1197 -0.1924  0.3919
 6006SOL    HW129651   1.292   4.526   6.902  1.1114 -0.1516 -1.2037
 6006SOL    HW229652   1.361   4.615   7.006 -1.0008 -0.0660  0.0427
 6007SOL     OW29653   3.060   4.240   0.157 -0.2647  0.4180 -0.3259
 6007SOL    HW129654   3.047   4.163   0.101 -1.5900  2.4044 -2.7683
 6007SOL    HW229655   3.091   4.300   0.089 -0.5760  1.0151  0.0558
 6008SOL     OW29656   1.391   2.610  11.551 -0.4645  0.7475 -0.2498
 6008SOL    HW129657   1.375   2.571  11.465 -2.4988 -0.0486  0.5040
 6008SOL    HW229658   1.341   2.555  11.611 -1.7700  1.9844 -0.1990
 6009SOL     OW29659   3.660   3.967  12.483 -0.4392  0.1310  0.4483
 6009SOL    HW129660   3.660   3.937  12.392 -0.9281 -0.6174  0.6984
 6009SOL    HW229661   3.619   4.053  12.472  4.0123  2.2462  0.0661
 6010SOL     OW29662   0.130   2.117  12.583 -0.0666 -0.5407  0.2658
 6010SOL    HW129663   0.169   2.071  12.658  2.2783  0.6266 -0.2339
 6010SOL    HW229664   0.039   2.130  12.608 -0.0750  0.1874 -0.1288
 6011SOL     OW29665   4.038   4.596  11.065  0.0613  0.6664  0.4578
 6011SOL    HW129666   4.097   4.618  11.137 -1.6248  2.5526  1.2831
 6011SOL    HW229667   3.973   4.551  11.120  2.6322 -1.3791  1.8345
 6012SOL     OW29668   0.753   0.542   2.763 -0.4346  0.4247  0.3774
 6012SOL    HW129669   0.828   0.485   2.749 -0.9781 -0.2867  0.3629
 6012SOL    HW229670   0.707   0.510   2.841 -0.6804 -0.6171 -0.1929
 6013SOL     OW29671   0.545   4.057  15.356  0.0341 -0.5055 -0.0516
 6013SOL    HW129672   0.548   3.978  15.303 -0.7922 -0.4757 -0.1548
 6013SOL    HW229673   0.633   4.061  15.393 -0.6500  1.5324  1.3833
 6014SOL     OW29674   1.016   2.427  15.062  0.6164  0.2558  0.0415
 6014SOL    HW129675   1.043   2.519  15.053  0.3608  0.4088  0.8137
 6014SOL    HW229676   1.053   2.387  14.984 -0.8630  1.5151 -1.3003
 6015SOL     OW29677   1.491   2.760   5.892  0.4807 -0.7618  0.1891
 6015SOL    HW129678   1.448   2.837   5.855  1.7083 -0.6143 -0.9334
 6015SOL    HW229679   1.411   2.713   5.913 -0.0484 -0.3439 -0.8895
 6016SOL     OW29680   3.342   1.692   7.520 -0.7571  0.1400 -0.7972
 6016SOL    HW129681   3.385   1.653   7.444  0.1846  1.2717 -0.8441
 6016SOL    HW229682   3.351   1.626   7.590  1.0208  2.8637  1.5482
 6017SOL     OW29683   2.430   4.482   5.548 -0.4744  0.2871 -0.1195
 6017SOL    HW129684   2.402   4.561   5.501 -1.4400  0.5299  0.8696
 6017SOL    HW229685   2.398   4.410   5.493 -0.8799  0.8272 -0.5969
 6018SOL     OW29686   4.489   2.605   1.721 -0.3043 -0.8079  0.5598
 6018SOL    HW129687   4.530   2.556   1.649  0.6059  1.6253 -0.5602
 6018SOL    HW229688   4.556   2.667   1.746  2.3885 -2.5912 -2.2034
 6019SOL     OW29689   1.243   1.783   9.367  0.3564  0.8972  0.4080
 6019SOL    HW129690   1.160   1.828   9.358  1.5435  2.9439 -0.1888
 6019SOL    HW229691   1.291   1.845   9.421  1.0505  0.6991  0.0276
 6020SOL     OW29692   1.850   2.747   2.681  0.1854  0.2564 -0.1330
 6020SOL    HW129693   1.904   2.675   2.712 -1.7736 -1.1668  0.0075
 6020SOL    HW229694   1.770   2.697   2.662  0.1863 -0.6919  2.3278
 6021SOL     OW29695   3.346   0.224   0.951  0.0828  0.2740 -0.0069
 6021SOL    HW129696   3.296   0.163   0.897 -0.4009  0.1026  0.6346
 6021SOL    HW229697   3.421   0.242   0.895 -1.7730 -0.2858 -2.7264
 6022SOL     OW29698   1.968   4.021   4.665  0.9171 -0.1057 -0.3136
 6022SOL    HW129699   2.011   3.936   4.663 -0.5363 -0.8448  0.0041
 6022SOL    HW229700   2.028   4.076   4.616  1.1308 -1.1326 -1.1942
 6023SOL     OW29701   2.537   3.752   6.422 -0.1925  0.3782 -0.5642
 6023SOL    HW129702   2.526   3.692   6.496  0.3861 -0.2318 -0.9741
 6023SOL    HW229703   2.516   3.687   6.356  0.5545 -0.2047 -0.2224
 6024SOL     OW29704   3.818   0.340   7.408 -0.0082  0.0057  0.0015
 6024SOL    HW129705   3.830   0.276   7.478 -1.4271  1.1559  1.3072
 6024SOL    HW229706   3.722   0.335   7.401  0.1558 -1.3365 -1.2986
 6025SOL     OW29707   1.701   3.945   8.178 -0.8380  0.1751 -1.1776
 6025SOL    HW129708   1.750   3.905   8.107  2.7648  0.6746  1.0166
 6025SOL    HW229709   1.641   3.997   8.126  1.4998  0.7276 -3.3339
 6026SOL     OW29710   4.532   0.069   5.645 -0.7684 -0.5456  0.3930
 6026SOL    HW129711   4.476   0.030   5.578  1.2887 -0.3586 -1.4247
 6026SOL    HW229712   4.468   0.134   5.674 -0.2542  0.4227 -0.6763
 6027SOL     OW29713   2.497   1.151   3.758  0.0559 -0.6991  0.3112
 6027SOL    HW129714   2.446   1.072   3.775 -0.2643 -0.2237  1.6077
 6027SOL    HW229715   2.577   1.126   3.803 -0.7692 -2.1743  0.9542
 6028SOL     OW29716   0.835   0.025   3.957 -0.0559  0.0556  0.2264
 6028SOL    HW129717   0.842   0.094   4.024  2.3506 -0.6603  0.7216
 6028SOL    HW229718   0.834   4.680   4.010 -0.6990  1.1561  1.8717
 6029SOL     OW29719   2.698   0.400   1.206 -0.1858  0.5054 -0.7787
 6029SOL    HW129720   2.794   0.406   1.204 -0.2578  2.1850  0.0064
 6029SOL    HW229721   2.685   0.430   1.116 -1.2428 -1.6873 -1.3314
 6030SOL     OW29722   3.878   2.367   6.306  0.4137  0.3680  0.2599
 6030SOL    HW129723   3.857   2.405   6.392 -0.8075 -1.7082  0.8790
 6030SOL    HW229724   3.893   2.276   6.331 -1.0126  0.4524  1.4154
 6031SOL     OW29725   1.337   0.192   6.275 -0.2923 -0.5047  0.0270
 6031SOL    HW129726   1.354   0.246   6.197  0.0788 -1.4884 -0.5732
 6031SOL    HW229727   1.427   0.163   6.287  0.2114  1.2707  0.5111
 6032SOL     OW29728   4.592   0.208   3.624  0.1299  0.0464 -0.6549
 6032SOL    HW129729   4.536   0.160   3.685  0.8949 -2.7139 -2.1621
 6032SOL    HW229730   4.522   0.269   3.599  0.4798  1.5993  2.0760
 6033SOL     OW29731   3.518   1.252   8.042  0.4202 -0.4615  0.0736
 6033SOL    HW129732   3.590   1.203   8.002 -0.8993 -1.4399 -1.0783
 6033SOL    HW229733   3.566   1.285   8.118  0.6822 -2.5366  0.7964
 6034SOL     OW29734   4.396   0.051   5.287  0.2293  0.3516 -0.3775
 6034SOL    HW129735   4.376   4.693   5.302 -0.0408  0.0502 -2.6220
 6034SOL    HW229736   4.316   0.076   5.242  0.4424 -2.7869 -2.5401
 6035SOL     OW29737   4.698   2.804   3.754 -0.0545  0.1274 -0.0625
 6035SOL    HW129738   0.041   2.810   3.810  1.4740 -1.4907 -1.9966
 6035SOL    HW229739   4.732   2.739   3.693  0.8986  0.0631  0.5414
 6036SOL     OW29740   1.727   3.776   5.132 -0.4242 -0.5492  0.1644
 6036SOL    HW129741   1.677   3.739   5.059  2.3940  0.7810 -2.4172
 6036SOL    HW229742   1.685   3.863   5.131 -0.3726 -0.5402 -3.1705
 6037SOL     OW29743   0.767   0.882   7.496 -0.4572 -0.3027 -0.3237
 6037SOL    HW129744   0.797   0.953   7.440 -0.7551 -0.9281 -1.2866
 6037SOL    HW229745   0.838   0.865   7.558  1.0097  2.6002 -1.2189
 6038SOL     OW29746   2.808   3.253   0.257  0.3505  0.3787  0.5928
 6038SOL    HW129747   2.783   3.232   0.347 -0.6025 -0.9013  0.0319
 6038SOL    HW229748   2.733   3.232   0.202  1.9506 -1.0162 -1.0505
 6039SOL     OW29749   2.775   3.240   6.526  0.4753  0.6593  0.0334
 6039SOL    HW129750   2.843   3.224   6.591  0.2061  0.0967  0.1747
 6039SOL    HW229751   2.799   3.173   6.462  1.2170 -0.5737  1.6232
 6040SOL     OW29752   2.761   4.114   4.838  0.3904  0.3134 -0.7543
 6040SOL    HW129753   2.666   4.123   4.833  0.4308  0.7838 -0.6344
 6040SOL    HW229754   2.772   4.087   4.747  0.1137 -0.1149 -0.6620
 6041SOL     OW29755   0.066   0.935  13.056 -0.1953 -0.2746 -0.8017
 6041SOL    HW129756   4.718   0.936  13.104  0.0796 -1.0890 -0.3301
 6041SOL    HW229757   0.064   1.024  13.020 -1.3822  0.8307  2.0099
 6042SOL     OW29758   2.695   0.666   2.178 -0.1784 -0.3405  0.6032
 6042SOL    HW129759   2.602   0.645   2.176 -0.1473 -0.3791 -0.3398
 6042SOL    HW229760   2.720   0.577   2.155 -3.8582 -1.3856  0.5913
 6043SOL     OW29761   4.659   2.247   7.714  0.1436  0.4569  0.0123
 6043SOL    HW129762   4.675   2.341   7.707 -0.4077  0.3126 -2.9362
 6043SOL    HW229763   4.646   2.242   7.809 -0.8193 -1.0414 -0.1994
 6044SOL     OW29764   2.978   3.759   5.003 -0.3528 -0.1909 -0.2412
 6044SOL    HW129765   3.030   3.706   4.942  0.6096 -0.8484  1.1530
 6044SOL    HW229766   2.893   3.751   4.960 -0.5916 -1.0184  0.3925
 6045SOL     OW29767   0.846   3.593  16.653  0.2974  0.2305 -0.5629
 6045SOL    HW129768   0.883   3.507  16.674 -0.6649 -0.5087 -1.8407
 6045SOL    HW229769   0.906   3.659  16.686 -0.1131  0.5686 -0.4972
 6046SOL     OW29770   0.869   3.373   6.282 -0.0222  0.1011 -0.1831
 6046SOL    HW129771   0.854   3.309   6.352 -0.6355 -0.4328 -0.8005
 6046SOL    HW229772   0.943   3.420   6.321  1.1825  0.0363 -2.3861
 6047SOL     OW29773   1.445   3.712   5.900 -0.2294 -0.2433 -0.0250
 6047SOL    HW129774   1.540   3.702   5.903 -0.1016  0.3988 -1.5918
 6047SOL    HW229775   1.421   3.696   5.991  2.0536  0.9908  0.7867
 6048SOL     OW29776   3.585   2.897   1.869  0.5828 -0.5560  0.5670
 6048SOL    HW129777   3.565   2.991   1.869 -1.7357 -1.0390 -1.3332
 6048SOL    HW229778   3.629   2.897   1.954 -0.3812 -2.6216  1.0622
 6049SOL     OW29779   0.990   1.397   3.784 -0.4765 -0.0564  0.4808
 6049SOL    HW129780   0.903   1.364   3.805  0.0260 -0.1860  2.3192
 6049SOL    HW229781   1.036   1.317   3.757 -0.3390 -0.3423  1.5868
 6050SOL     OW29782   2.609   1.968  11.384  0.1420 -0.3430 -0.3149
 6050SOL    HW129783   2.544   2.016  11.435  1.3003 -0.8167  1.6304
 6050SOL    HW229784   2.611   1.889  11.439  0.4820  0.2174  0.4793
 6051SOL     OW29785   4.699   2.068   3.429  0.0697 -0.4330 -0.0304
 6051SOL    HW129786   4.729   1.977   3.440 -1.0045 -0.7205  0.5220
 6051SOL    HW229787   0.045   2.103   3.467 -0.6491  0.8422  0.3056
 6052SOL     OW29788   0.733   0.778   4.609 -0.1245 -0.1811 -0.0781
 6052SOL    HW129789   0.675   0.736   4.546  1.6302 -2.9847  0.1697
 6052SOL    HW229790   0.795   0.823   4.552 -2.2498  0.0521 -2.2059
 6053SOL     OW29791   0.705   1.457   4.679  0.2419 -0.1521 -0.1597
 6053SOL    HW129792   0.793   1.420   4.686 -0.3441 -1.4330  0.3676
 6053SOL    HW229793   0.653   1.377   4.678  1.9654 -1.2349 -1.9879
 6054SOL     OW29794   1.222   2.777   8.893  0.0795 -0.5710 -0.0317
 6054SOL    HW129795   1.215   2.870   8.915 -2.3835 -0.3663 -1.7573
 6054SOL    HW229796   1.313   2.774   8.863  0.2376 -1.0722  0.4896
 6055SOL     OW29797   1.515   0.787   6.507 -0.0816  0.5094  0.0120
 6055SOL    HW129798   1.536   0.747   6.423  2.0011  2.4894 -0.4022
 6055SOL    HW229799   1.504   0.878   6.479 -0.3146  0.9886  1.6060
 6056SOL     OW29800   1.732   1.745   2.110 -0.0007 -0.1739 -1.0364
 6056SOL    HW129801   1.824   1.754   2.084 -0.3079  1.2284 -1.5950
 6056SOL    HW229802   1.737   1.737   2.205  0.8713  0.4928 -1.0244
 6057SOL     OW29803   1.919   2.307  12.039 -0.1859 -0.0667 -0.3144
 6057SOL    HW129804   1.940   2.226  12.086  0.8729  0.7893  0.6618
 6057SOL    HW229805   1.934   2.283  11.947 -0.5702 -0.1824 -0.3493
 6058SOL     OW29806   4.435   4.275   1.430  0.5949  0.0664  0.0916
 6058SOL    HW129807   4.452   4.228   1.349  2.0168 -0.5281  0.7205
 6058SOL    HW229808   4.507   4.337   1.422  0.5882 -0.0591 -0.8721
 6059SOL     OW29809   0.640   0.189   5.109 -0.2704 -0.3928 -0.0045
 6059SOL    HW129810   0.695   0.115   5.080 -0.4775 -0.6045  0.1383
 6059SOL    HW229811   0.709   0.251   5.133  0.2292 -1.0968  0.3809
 6060SOL     OW29812   1.946   3.110   2.346  0.9453 -0.0903  0.4345
 6060SOL    HW129813   1.982   3.035   2.393 -1.3935 -2.4199 -1.4727
 6060SOL    HW229814   1.941   3.174   2.417  2.1469  2.5055 -1.8111
 6061SOL     OW29815   3.340   2.355   1.353  0.6408  0.1490 -0.0282
 6061SOL    HW129816   3.263   2.355   1.410  0.3680 -2.4081 -0.4232
 6061SOL    HW229817   3.361   2.449   1.351 -1.0299  0.4674 -3.1301
 6062SOL     OW29818   2.066   2.300   9.770  0.3272 -0.3302  0.5261
 6062SOL    HW129819   2.106   2.216   9.746  2.3072  0.6471  0.3909
 6062SOL    HW229820   2.026   2.282   9.855  1.0907  0.5998  1.0862
 6063SOL     OW29821   4.636   4.229  10.273 -0.6733  0.2990 -0.3938
 6063SOL    HW129822   4.622   4.253  10.365 -0.4661 -2.5189  0.3732
 6063SOL    HW229823   4.682   4.308  10.245 -0.8047  0.2732 -0.6793
 6064SOL     OW29824   4.460   3.698  13.452 -0.2742  0.7909 -0.3409
 6064SOL    HW129825   4.433   3.627  13.393 -1.3868  1.3374 -0.4844
 6064SOL    HW229826   4.545   3.665  13.482  0.0306  0.0226 -2.0482
 6065SOL     OW29827   3.692   4.512   7.559 -0.1590  0.2489  0.2924
 6065SOL    HW129828   3.697   4.539   7.467  0.8174 -0.1180  0.2305
 6065SOL    HW229829   3.600   4.509   7.585 -0.5077 -0.1877 -0.9838
 6066SOL     OW29830   4.719   1.596   6.327  0.6705  0.2012  0.1510
 6066SOL    HW129831   4.659   1.556   6.391 -0.1651 -3.0168 -2.6061
 6066SOL    HW229832   0.059   1.535   6.329 -0.9109 -1.7434  0.5821
 6067SOL     OW29833   4.517   0.272   8.384 -0.1415  0.4394  0.5269
 6067SOL    HW129834   4.514   0.260   8.479 -0.1236 -2.3409  0.1607
 6067SOL    HW229835   4.465   0.198   8.352  0.8605  0.5809 -1.3738
 6068SOL     OW29836   1.226   1.896   6.322  0.3042 -0.3447 -0.5605
 6068SOL    HW129837   1.308   1.910   6.368  0.8672  1.8782 -2.2482
 6068SOL    HW229838   1.256   1.910   6.232  0.1863  0.0561 -0.5364
 6069SOL     OW29839   2.357   1.403  10.816 -0.2396 -0.1633  0.6147
 6069SOL    HW129840   2.316   1.480  10.854  0.7681  0.3779  0.5965
 6069SOL    HW229841   2.437   1.403  10.869  0.9931 -0.6946 -1.2064
 6070SOL     OW29842   0.607   1.481   3.208  0.1014  0.2694  0.1808
 6070SOL    HW129843   0.525   1.476   3.160  0.7892  0.5923 -1.0314
 6070SOL    HW229844   0.626   1.570   3.177 -1.1711  0.1646 -0.8949
 6071SOL     OW29845   3.354   2.711   0.732 -0.3322  0.6183  0.2318
 6071SOL    HW129846   3.283   2.757   0.776 -0.4102  1.4268 -0.7367
 6071SOL    HW229847   3.391   2.653   0.798  0.0429  0.1605 -0.3825
 6072SOL     OW29848   0.398   2.672   5.520 -0.0782 -0.7143 -0.3240
 6072SOL    HW129849   0.409   2.747   5.461  0.6809 -0.7621 -0.2379
 6072SOL    HW229850   0.389   2.601   5.456 -0.2587  0.6292 -1.8032
 6073SOL     OW29851   1.606   3.033   9.522  0.1311 -0.1007  0.1622
 6073SOL    HW129852   1.667   3.106   9.525  1.5150 -1.2802  0.6430
 6073SOL    HW229853   1.529   3.080   9.555 -0.8070 -1.6053  0.1017
 6074SOL     OW29854   1.023   2.020   6.788  0.3833 -0.3547  0.6881
 6074SOL    HW129855   1.082   2.009   6.863  1.8323  0.2433 -0.3718
 6074SOL    HW229856   1.081   1.998   6.715  0.6793  0.3383  0.7130
 6075SOL     OW29857   2.396   1.269   4.355  0.6589  0.1270 -0.5062
 6075SOL    HW129858   2.308   1.281   4.391  0.2696 -2.3196 -0.6391
 6075SOL    HW229859   2.371   1.214   4.280 -0.2626  1.3558 -1.1009
 6076SOL     OW29860   1.655   3.493   0.418 -0.2014  0.7420 -0.3118
 6076SOL    HW129861   1.584   3.534   0.465 -0.9018 -0.9856  0.1402
 6076SOL    HW229862   1.722   3.562   0.419 -0.6423  1.2060 -2.4769
 6077SOL     OW29863   1.089   2.328  15.573 -0.1869 -0.1618 -0.5156
 6077SOL    HW129864   1.002   2.308  15.608 -0.1494  0.2607 -0.1840
 6077SOL    HW229865   1.082   2.321  15.478  1.3057 -2.3111 -0.4666
 6078SOL     OW29866   0.795   2.241   2.983  0.0944  0.5588  0.0822
 6078SOL    HW129867   0.713   2.276   3.017 -0.6269 -0.4374 -0.6548
 6078SOL    HW229868   0.789   2.262   2.890 -0.1664  0.5953  0.1073
 6079SOL     OW29869   1.009   4.239   6.431 -0.6266 -0.4941 -0.3224
 6079SOL    HW129870   1.072   4.290   6.481 -1.1327  1.1282 -1.3576
 6079SOL    HW229871   0.930   4.289   6.447 -0.7286 -0.7575 -0.0009
 6080SOL     OW29872   2.075   1.770   7.617 -0.0874  0.1293  0.3279
 6080SOL    HW129873   2.028   1.731   7.544  2.1109 -1.7916 -0.0556
 6080SOL    HW229874   2.029   1.732   7.692  0.1454 -2.8613 -1.0755
 6081SOL     OW29875   1.185   4.362   2.906 -0.1854  0.1053 -0.3978
 6081SOL    HW129876   1.163   4.277   2.946  1.2846  0.0043  0.1977
 6081SOL    HW229877   1.126   4.416   2.958  0.6917  2.0115 -1.3984
 6082SOL     OW29878   1.032   1.169  17.260 -0.1989 -0.3807 -0.1757
 6082SOL    HW129879   1.050   1.079  17.234 -0.8195 -0.7265  0.5963
 6082SOL    HW229880   0.951   1.187  17.212 -0.3263  1.6490  0.8117
 6083SOL     OW29881   3.760   3.590   4.264  0.3630 -0.2613 -0.1211
 6083SOL    HW129882   3.730   3.512   4.310  0.3146  0.2488  0.7030
 6083SOL    HW229883   3.718   3.669   4.299 -1.1258  0.0605 -2.5967
 6084SOL     OW29884   1.725   3.807   1.850  0.0175  0.5242 -0.2447
 6084SOL    HW129885   1.749   3.799   1.758  1.0247  0.8565 -0.0150
 6084SOL    HW229886   1.709   3.901   1.860 -1.3858  0.2668 -0.0840
 6085SOL     OW29887   4.507   1.111  13.728  0.3027  0.1752  0.4797
 6085SOL    HW129888   4.489   1.022  13.760  0.6865 -0.3851 -0.8564
 6085SOL    HW229889   4.441   1.124  13.659 -1.0388 -1.6266  1.4181
 6086SOL     OW29890   0.729   3.313   3.552  0.4151  1.2547 -0.1104
 6086SOL    HW129891   0.715   3.268   3.469 -0.7469  2.6468 -0.6669
 6086SOL    HW229892   0.678   3.266   3.618  2.0969 -1.1298 -0.5217
 6087SOL     OW29893   1.496   2.103  11.106 -0.1038  0.1063 -0.3163
 6087SOL    HW129894   1.403   2.082  11.115  0.3903 -0.8744  2.6937
 6087SOL    HW229895   1.523   2.122  11.196  0.6887 -2.5739 -0.0056
 6088SOL     OW29896   0.667   4.522   1.132 -0.2606 -0.0580 -0.1694
 6088SOL    HW129897   0.644   4.430   1.124  2.9661 -0.9630  0.9909
 6088SOL    HW229898   0.621   4.546   1.213 -2.6050 -1.0361 -1.2480
 6089SOL     OW29899   3.538   2.076   8.861 -0.4769 -0.1063 -0.1354
 6089SOL    HW129900   3.462   2.098   8.916  1.0072  0.7492  1.5713
 6089SOL    HW229901   3.494   2.038   8.785  0.7247 -0.0427 -0.8530
 6090SOL     OW29902   1.023   1.302   4.490  0.4940 -0.2815 -0.1133
 6090SOL    HW129903   0.977   1.266   4.566 -0.3358 -0.7263 -0.8249
 6090SOL    HW229904   0.948   1.337   4.443  1.2834 -0.4407 -1.4977
 6091SOL     OW29905   4.561   3.505  11.349 -1.0847  0.2270  0.1916
 6091SOL    HW129906   4.580   3.496  11.256 -1.4617  2.9071 -0.1459
 6091SOL    HW229907   4.588   3.420  11.384 -2.2373  0.2400  1.1091
 6092SOL     OW29908   2.143   2.082   5.775 -0.0108  0.0538 -0.4266
 6092SOL    HW129909   2.093   2.080   5.694 -1.2576  0.8089  0.3195
 6092SOL    HW229910   2.081   2.041   5.835  0.3371 -1.6955 -1.2514
 6093SOL     OW29911   2.510   2.524   4.072 -0.5408  0.2603 -0.0040
 6093SOL    HW129912   2.523   2.444   4.122  1.4015 -0.7940 -2.2207
 6093SOL    HW229913   2.472   2.491   3.991 -2.4994  1.1546  0.5483
 6094SOL     OW29914   3.651   4.091   4.801 -0.2367  0.1931  0.2713
 6094SOL    HW129915   3.597   4.020   4.766  1.4899 -1.4183  0.8529
 6094SOL    HW229916   3.687   4.052   4.881 -2.5197  1.1697  1.7921
 6095SOL     OW29917   2.009   1.477   9.840  0.4400  0.2578 -0.0596
 6095SOL    HW129918   2.004   1.382   9.826 -1.4489  0.0625  1.9662
 6095SOL    HW229919   1.980   1.497   9.929  0.4908  1.2236 -0.2627
 6096SOL     OW29920   3.672   4.565   5.444  0.1739 -0.3715 -0.4768
 6096SOL    HW129921   3.683   4.659   5.428  2.2029 -0.6672 -0.8347
 6096SOL    HW229922   3.653   4.538   5.354 -0.3373  0.2287 -0.5510
 6097SOL     OW29923   0.896   3.735   5.641  0.0952 -0.5210 -0.1308
 6097SOL    HW129924   0.813   3.728   5.593  0.3673  2.0992 -0.9936
 6097SOL    HW229925   0.880   3.805   5.704  1.6387 -0.3861  0.1184
 6098SOL     OW29926   2.601   4.040  14.889  0.0683  0.2046  0.0264
 6098SOL    HW129927   2.669   3.974  14.871 -1.4439 -0.7561 -2.2250
 6098SOL    HW229928   2.547   4.000  14.957  0.6385  0.9793  0.9362
 6099SOL     OW29929   4.458   3.586   2.193  0.2221 -0.3280  0.3982
 6099SOL    HW129930   4.374   3.539   2.189 -0.8065  1.2861  3.2091
 6099SOL    HW229931   4.487   3.567   2.282 -0.5140  0.2980  0.7746
 6100SOL     OW29932   1.604   3.439   2.685 -0.0761 -0.6371 -0.3189
 6100SOL    HW129933   1.647   3.364   2.725  1.6749 -0.1934 -1.4020
 6100SOL    HW229934   1.516   3.422   2.719 -0.5333  0.2672 -1.0494
 6101SOL     OW29935   1.740   4.560   7.488  0.6554  0.2646 -0.3221
 6101SOL    HW129936   1.820   4.542   7.538  1.2220  1.2603 -0.8740
 6101SOL    HW229937   1.726   4.644   7.531  1.7814  0.3821 -0.1903
 6102SOL     OW29938   4.039   1.380   4.097  0.3118  0.0006  0.3915
 6102SOL    HW129939   4.067   1.306   4.151  0.6701 -0.0055  0.2029
 6102SOL    HW229940   3.960   1.422   4.130 -0.4295  0.1791 -1.6049
 6103SOL     OW29941   2.170   0.266   4.866  0.4261  0.4289 -0.0947
 6103SOL    HW129942   2.212   0.206   4.804  0.4520 -2.1400  2.4410
 6103SOL    HW229943   2.245   0.319   4.891  0.5767 -0.7664  1.9208
 6104SOL     OW29944   3.463   0.073   7.635  0.0651 -0.4415 -0.2552
 6104SOL    HW129945   3.466   0.100   7.727 -1.1527 -2.1654  0.2906
 6104SOL    HW229946   3.430   4.718   7.639  0.1506 -0.5141 -1.3349
 6105SOL     OW29947   2.550   3.912  15.882 -0.0678 -0.0611 -0.1590
 6105SOL    HW129948   2.537   3.938  15.973  0.7354 -2.4457  0.6212
 6105SOL    HW229949   2.469   3.941  15.841 -0.6450 -0.4576  0.7094
 6106SOL     OW29950   0.095   0.916   5.309 -0.0606 -0.1741  0.2246
 6106SOL    HW129951   0.156   0.878   5.372  0.9196  2.6958  1.0308
 6106SOL    HW229952   0.014   0.867   5.324 -0.6888  0.3020 -1.6493
 6107SOL     OW29953   1.206   2.803   3.756 -0.1554  0.2066 -0.5517
 6107SOL    HW129954   1.152   2.724   3.766 -0.3092  0.5690  1.3136
 6107SOL    HW229955   1.284   2.786   3.808 -1.5189 -1.5890  0.9219
 6108SOL     OW29956   0.864   1.698   9.937  0.3122 -0.1287  0.4916
 6108SOL    HW129957   0.919   1.723   9.863  0.5692 -2.4818 -0.1085
 6108SOL    HW229958   0.798   1.767   9.936  2.6761  2.1505  1.9855
 6109SOL     OW29959   1.186   4.361   5.449  0.3222  0.4273 -0.6430
 6109SOL    HW129960   1.192   4.298   5.521 -2.0313  0.6628 -0.2600
 6109SOL    HW229961   1.163   4.440   5.498  1.8856  2.1459 -2.6879
 6110SOL     OW29962   2.602   0.137  11.130 -0.6893 -0.3349  0.2336
 6110SOL    HW129963   2.583   0.216  11.080 -2.3741 -1.4300 -0.8816
 6110SOL    HW229964   2.510   0.108  11.135 -0.6735 -0.2683  0.8707
 6111SOL     OW29965   4.432   1.187  17.248  0.5485 -0.1248 -0.2466
 6111SOL    HW129966   4.458   1.127  17.317 -2.0419 -1.7723 -0.7043
 6111SOL    HW229967   4.419   1.258  17.311  0.8950 -1.7749  1.6819
 6112SOL     OW29968   4.544   2.563  14.156 -0.5781 -0.1162  0.2661
 6112SOL    HW129969   4.592   2.644  14.172  1.8248 -1.3737 -0.6052
 6112SOL    HW229970   4.478   2.568  14.224  2.3985  1.5241  3.0011
 6113SOL     OW29971   3.017   2.146   4.172  0.2562 -0.0496  0.1367
 6113SOL    HW129972   2.941   2.101   4.137  3.0204 -2.1762 -3.1396
 6113SOL    HW229973   2.992   2.237   4.155  1.8110  0.9005  2.8131
 6114SOL     OW29974   1.951   1.589   3.671 -0.1975 -0.4684 -0.0923
 6114SOL    HW129975   2.044   1.612   3.663 -0.3990  0.7074  0.9721
 6114SOL    HW229976   1.921   1.581   3.580 -0.0141  4.0357 -0.5215
 6115SOL     OW29977   4.633   3.662  11.569 -0.2200 -0.0865 -0.0823
 6115SOL    HW129978   4.649   3.586  11.625 -2.5097  0.0791  0.7663
 6115SOL    HW229979   4.589   3.616  11.497 -1.4839 -1.5181  1.6208
 6116SOL     OW29980   1.986   2.949   3.346 -0.3271  0.3535 -0.5725
 6116SOL    HW129981   1.978   3.023   3.286  0.9419  0.6545 -0.3562
 6116SOL    HW229982   2.044   2.884   3.306 -2.2439 -2.0224  0.4845
 6117SOL     OW29983   1.780   0.787   9.032 -0.3322 -0.1658  0.6967
 6117SOL    HW129984   1.842   0.716   9.046  1.7330  0.9771 -2.8201
 6117SOL    HW229985   1.719   0.745   8.972  1.4017 -0.4490 -0.8376
 6118SOL     OW29986   3.998   2.581   3.896  0.2879  0.7861 -0.6115
 6118SOL    HW129987   3.961   2.622   3.974  0.0434  0.2423 -0.4395
 6118SOL    HW229988   4.076   2.632   3.875 -0.3043  1.8530 -0.2401
 6119SOL     OW29989   4.700   3.580   8.717  0.4025  0.4756  0.1500
 6119SOL    HW129990   0.002   3.667   8.701 -3.0460  1.6672 -1.1354
 6119SOL    HW229991   4.647   3.576   8.637  1.7610 -1.8478 -0.6546
 6120SOL     OW29992   1.361   2.242   6.121  0.2616  0.1004  0.4057
 6120SOL    HW129993   1.305   2.310   6.084 -0.9250  0.3067  2.5502
 6120SOL    HW229994   1.329   2.170   6.067  0.7000  0.4831 -0.3507
 6121SOL     OW29995   2.966   2.821  16.772  0.1421 -0.1625  0.4735
 6121SOL    HW129996   2.954   2.769  16.692 -0.9425  0.7032  0.0612
 6121SOL    HW229997   3.035   2.770  16.813  0.3341  2.3128  3.2229
 6122SOL     OW29998   0.953   2.913   1.664 -0.2830 -0.5657  0.0758
 6122SOL    HW129999   1.022   2.890   1.601  0.7949 -0.1504  1.1061
 6122SOL    HW230000   0.898   2.980   1.623  3.1528  1.9851 -0.3066
 6123SOL     OW30001   4.456   1.006  17.678  0.1920 -0.1171  0.1444
 6123SOL    HW130002   4.394   1.016   0.014 -0.1526  0.0467 -0.1733
 6123SOL    HW230003   4.536   1.010  17.729  0.4936 -0.5854 -0.2893
 6124SOL     OW30004   0.459   0.042   3.701  0.2222 -0.2786  0.3014
 6124SOL    HW130005   0.377   0.013   3.741  1.6501  0.2792  3.7179
 6124SOL    HW230006   0.421   0.111   3.646  0.9105 -0.1658 -0.0257
 6125SOL     OW30007   1.715   0.202   5.029 -0.6083  0.5765  0.0705
 6125SOL    HW130008   1.810   0.193   5.035 -0.6782 -1.5666 -2.0486
 6125SOL    HW230009   1.703   0.286   5.073 -0.4848  1.2930 -1.2370
 6126SOL     OW30010   3.848   4.684   2.897  0.3995 -0.1110  0.4454
 6126SOL    HW130011   3.760   4.648   2.888 -0.2636  1.6617 -0.1927
 6126SOL    HW230012   3.847   0.019   2.831 -0.3569 -0.0655  0.5089
 6127SOL     OW30013   1.004   2.955   9.914 -0.6532  1.0040 -0.3120
 6127SOL    HW130014   1.016   2.878   9.970 -1.9271  1.4704  0.6105
 6127SOL    HW230015   0.983   3.016   9.986 -0.6791 -0.8216  1.2289
 6128SOL     OW30016   0.848   4.536   4.438 -0.5375 -0.0430 -0.0831
 6128SOL    HW130017   0.795   4.459   4.462 -2.1495  1.2590  0.5580
 6128SOL    HW230018   0.811   4.601   4.498  0.9506  1.1755 -0.4863
 6129SOL     OW30019   4.268   0.346  13.093 -0.0789  0.6404 -0.2680
 6129SOL    HW130020   4.350   0.298  13.104 -0.3444  0.1067 -0.5723
 6129SOL    HW230021   4.201   0.283  13.064 -1.0965  0.8463  1.6311
 6130SOL     OW30022   1.658   1.973  13.695  0.7346 -0.5064 -0.9029
 6130SOL    HW130023   1.749   2.003  13.687  1.0345 -0.9556  0.7959
 6130SOL    HW230024   1.615   2.046  13.652 -0.6156 -0.4911  0.4967
 6131SOL     OW30025   2.021   2.762   7.543 -0.0111 -0.5804  0.4493
 6131SOL    HW130026   2.050   2.853   7.536 -0.8224 -0.3798 -0.3679
 6131SOL    HW230027   1.945   2.756   7.485  0.0112 -1.0592  0.4687
 6132SOL     OW30028   3.115   4.727   6.601  0.5342  0.0925 -0.3476
 6132SOL    HW130029   3.208   4.710   6.615  0.8169  1.5118 -0.5254
 6132SOL    HW230030   3.106   0.083   6.570 -1.1590  0.2572  0.5941
 6133SOL     OW30031   2.896   3.449   7.350 -0.1661 -0.2311  0.2621
 6133SOL    HW130032   2.830   3.510   7.383  1.0662  0.6828  1.0227
 6133SOL    HW230033   2.888   3.374   7.409  0.3969 -0.3551  0.1770
 6134SOL     OW30034   2.120   3.300   6.279  0.1450  0.0435 -0.0685
 6134SOL    HW130035   2.158   3.231   6.333 -0.0203 -1.3820 -1.7715
 6134SOL    HW230036   2.131   3.377   6.334 -0.2362 -0.3553  0.5511
 6135SOL     OW30037   4.583   0.738   0.121 -0.0433  0.1118 -0.2054
 6135SOL    HW130038   4.632   0.680   0.179 -0.4817  0.3448  0.3907
 6135SOL    HW230039   4.621   0.824   0.139  0.8067 -0.0198 -1.3404
 6136SOL     OW30040   1.692   4.676   5.534  0.0880  0.6911  0.4295
 6136SOL    HW130041   1.648   4.698   5.452 -1.3473  2.8236  1.7784
 6136SOL    HW230042   1.661   4.586   5.544 -0.3800  0.7944 -0.1193
 6137SOL     OW30043   2.170   3.420  15.957 -0.1541  0.6271 -0.0723
 6137SOL    HW130044   2.106   3.374  16.011 -0.9042  0.8038 -0.8202
 6137SOL    HW230045   2.176   3.505  15.999  0.0101  0.0765  1.0248
 6138SOL     OW30046   3.818   2.093   5.123  0.3331 -0.2216  0.3650
 6138SOL    HW130047   3.856   2.043   5.194  0.3902 -0.5938  0.0728
 6138SOL    HW230048   3.750   2.150   5.159 -1.0894 -1.6238 -0.1098
 6139SOL     OW30049   2.491   2.298  11.013 -0.2010 -0.7849 -0.1184
 6139SOL    HW130050   2.542   2.378  11.023  0.2857 -1.2029  0.7579
 6139SOL    HW230051   2.563   2.234  11.009  1.4801  1.0380  1.0063
 6140SOL     OW30052   4.158   3.126   2.328  0.0344 -0.7560  0.3089
 6140SOL    HW130053   4.253   3.139   2.329  0.1115 -1.2938  0.0050
 6140SOL    HW230054   4.145   3.135   2.422  2.1505  1.5627  0.3789
 6141SOL     OW30055   3.109   3.580   9.849 -0.1166 -0.0613  0.2356
 6141SOL    HW130056   3.200   3.573   9.879  0.6073  2.3156 -1.4270
 6141SOL    HW230057   3.062   3.581   9.932 -0.2539  1.3846  0.1354
 6142SOL     OW30058   2.154   1.915   1.718  0.3272  0.3639  0.0422
 6142SOL    HW130059   2.101   1.896   1.640  0.4607  2.8914 -0.6561
 6142SOL    HW230060   2.099   1.913   1.797 -0.5127 -0.3761 -0.5524
 6143SOL     OW30061   2.435   4.553   3.738 -0.6784  0.3504  0.3868
 6143SOL    HW130062   2.444   4.578   3.646  1.2277 -0.7260  0.2922
 6143SOL    HW230063   2.346   4.520   3.727 -0.5523 -0.1734  0.9695
 6144SOL     OW30064   3.345   3.811   9.964  0.1754 -0.2457 -0.4302
 6144SOL    HW130065   3.360   3.792  10.057 -1.1233  0.2019 -0.1301
 6144SOL    HW230066   3.340   3.720   9.933  2.1280 -0.6324  0.3546
 6145SOL     OW30067   1.132   3.198   2.206 -0.5627  0.5543  0.2823
 6145SOL    HW130068   1.153   3.286   2.176 -2.8708  0.8235 -0.4751
 6145SOL    HW230069   1.220   3.164   2.189 -0.8246  0.7190 -1.3606
 6146SOL     OW30070   2.126   3.287   3.543 -0.0967 -0.1934  0.0731
 6146SOL    HW130071   2.187   3.283   3.617 -0.1050  1.2617  0.1541
 6146SOL    HW230072   2.080   3.203   3.546 -0.0171 -0.1826  1.4792
 6147SOL     OW30073   4.679   1.045  13.404  0.2590  0.0475  0.2530
 6147SOL    HW130074   0.018   1.079  13.352  2.2583 -3.5971  0.6311
 6147SOL    HW230075   4.720   1.008  13.482  2.9210 -0.7757 -1.5346
 6148SOL     OW30076   0.384   3.211   5.619  0.1916  0.5886  0.0535
 6148SOL    HW130077   0.425   3.152   5.682  1.3714  0.6429 -0.6659
 6148SOL    HW230078   0.463   3.262   5.603  1.6267 -1.8676 -0.6830
 6149SOL     OW30079   4.408   3.228   9.007 -0.3172 -0.2935  0.3103
 6149SOL    HW130080   4.467   3.204   9.079 -1.5432 -1.9219  0.7623
 6149SOL    HW230081   4.410   3.142   8.965  1.4242 -0.5263  0.8700
 6150SOL     OW30082   2.509   4.169   7.471 -0.2176  0.6368  0.2450
 6150SOL    HW130083   2.484   4.257   7.441  0.1731  1.0204  1.0433
 6150SOL    HW230084   2.427   4.121   7.477  0.3726 -0.5069 -0.8924
 6151SOL     OW30085   2.557   0.902   4.036 -0.1894 -0.1441 -0.1897
 6151SOL    HW130086   2.625   0.847   4.076  0.1987  1.1195  0.9009
 6151SOL    HW230087   2.609   0.963   3.983  0.6790 -0.2875  0.4789
 6152SOL     OW30088   3.193   4.455   0.544  0.1124  1.3162  0.1288
 6152SOL    HW130089   3.100   4.467   0.563 -0.1204 -0.2841 -0.0475
 6152SOL    HW230090   3.196   4.367   0.507  0.9440  0.0561  3.2838
 6153SOL     OW30091   0.750   0.712   6.180  0.5076  0.0922  0.4246
 6153SOL    HW130092   0.823   0.704   6.118 -1.7743 -3.8364 -1.7544
 6153SOL    HW230093   0.690   0.776   6.143  0.9985  0.2455 -0.1042
 6154SOL     OW30094   3.876   3.225   4.281 -0.0126  0.1785 -0.2016
 6154SOL    HW130095   3.877   3.130   4.291 -0.1230  0.2565  0.5018
 6154SOL    HW230096   3.882   3.259   4.370 -0.8448  1.6854 -0.7096
 6155SOL     OW30097   0.269   4.410  15.508 -0.4140 -0.1234 -0.4208
 6155SOL    HW130098   0.191   4.372  15.466 -0.8267  0.1490  0.1092
 6155SOL    HW230099   0.232   4.434  15.592 -1.3107  0.7429 -1.0614
 6156SOL     OW30100   0.197   2.917   7.323 -0.3678  0.3117 -0.1162
 6156SOL    HW130101   0.152   2.868   7.254  3.3019 -0.8266 -1.6836
 6156SOL    HW230102   0.197   2.864   7.403 -0.0056  0.2349 -0.1665
 6157SOL     OW30103   4.284   3.100   8.502 -0.6406 -0.4033  0.2835
 6157SOL    HW130104   4.318   3.015   8.474 -1.5567 -0.3686 -0.9733
 6157SOL    HW230105   4.199   3.113   8.460 -0.2855 -1.3776 -0.7496
 6158SOL     OW30106   0.782   0.807   5.806  0.4652  0.3814 -0.0756
 6158SOL    HW130107   0.856   0.833   5.750 -1.6767 -1.1421 -3.6248
 6158SOL    HW230108   0.780   0.887   5.859 -0.7270 -0.5560  1.2968
 6159SOL     OW30109   0.824   3.437   4.153  0.2764 -0.7336 -0.2516
 6159SOL    HW130110   0.796   3.387   4.077 -2.5945 -0.0088  0.3628
 6159SOL    HW230111   0.899   3.475   4.107  0.5634 -0.4591  0.4354
 6160SOL     OW30112   1.382   2.447   3.383  0.0754  0.4110 -0.3201
 6160SOL    HW130113   1.475   2.469   3.378  0.5133 -0.8942  2.6126
 6160SOL    HW230114   1.385   2.352   3.395  0.9368  0.2945 -1.4220
 6161SOL     OW30115   3.445   0.354   5.968  0.1374 -0.2773  0.3560
 6161SOL    HW130116   3.485   0.273   5.999 -0.9692 -0.9413  0.0192
 6161SOL    HW230117   3.528   0.390   5.936 -0.5456  3.2382  2.5224
 6162SOL     OW30118   0.482   4.158   5.017  0.5921  0.4573 -0.3095
 6162SOL    HW130119   0.529   4.194   4.942  1.4033  0.2514  0.0950
 6162SOL    HW230120   0.398   4.199   4.998  0.7524  0.7199 -0.4446
 6163SOL     OW30121   1.346   3.488  15.763  0.5330  0.4609  0.0428
 6163SOL    HW130122   1.369   3.578  15.739 -2.6875  0.8802 -1.4173
 6163SOL    HW230123   1.291   3.493  15.842  0.5296 -0.9031  0.1185
 6164SOL     OW30124   2.777   3.878  15.756  0.3402 -0.1943  0.3224
 6164SOL    HW130125   2.799   3.786  15.768 -1.2537 -0.5363  0.6913
 6164SOL    HW230126   2.700   3.887  15.813  1.6966  1.2301  1.8982
 6165SOL     OW30127   0.665   2.599   2.711 -0.3832  0.0178  0.4605
 6165SOL    HW130128   0.675   2.676   2.656 -0.1939 -0.2135  0.1761
 6165SOL    HW230129   0.740   2.594   2.771  1.4089  3.9940 -1.4744
 6166SOL     OW30130   0.210   2.584  17.018 -0.1851  0.1895  0.4188
 6166SOL    HW130131   0.273   2.598  17.089 -1.3783  0.7931  1.3549
 6166SOL    HW230132   0.263   2.527  16.963  0.3580 -0.4032  1.5587
 6167SOL     OW30133   0.020   4.287   0.114 -0.5807  0.1289  0.5569
 6167SOL    HW130134   4.671   4.318   0.079 -0.8947  2.0777  3.0539
 6167SOL    HW230135   0.042   4.370   0.157  2.4137  0.2210 -1.1825
 6168SOL     OW30136   0.335   4.216   0.271 -0.1821  0.5158  1.0017
 6168SOL    HW130137   0.355   4.195   0.180  1.5473  1.6944  1.1292
 6168SOL    HW230138   0.250   4.256   0.251 -1.0089 -1.7535 -0.0580
 6169SOL     OW30139   4.062   4.095   5.929  0.4647 -0.1544  0.8132
 6169SOL    HW130140   4.109   4.062   6.006 -0.3138  0.8393  1.7225
 6169SOL    HW230141   3.999   4.157   5.966  1.1103  2.2807 -2.1806
 6170SOL     OW30142   0.112   3.886   8.638  0.1461  0.3630 -0.5313
 6170SOL    HW130143   0.188   3.859   8.587 -0.0531 -0.1172 -0.5746
 6170SOL    HW230144   0.167   3.908   8.714  0.0439  2.3114 -1.0098
 6171SOL     OW30145   2.450   2.024   1.629 -0.6548  0.5445 -0.1719
 6171SOL    HW130146   2.470   1.941   1.586 -0.1615 -0.1311  1.3721
 6171SOL    HW230147   2.503   2.010   1.707 -0.9070  3.4958  0.5435
 6172SOL     OW30148   4.607   2.067  12.013  0.3841  0.6159  0.1516
 6172SOL    HW130149   4.547   2.110  12.073 -4.1149 -1.1946 -3.0611
 6172SOL    HW230150   4.690   2.104  12.042  1.6282 -0.4085 -2.0468
 6173SOL     OW30151   1.474   2.708   9.102  0.1414 -0.5490  0.8522
 6173SOL    HW130152   1.562   2.703   9.139  0.4444 -2.2064 -0.0786
 6173SOL    HW230153   1.438   2.787   9.141  1.4470  0.7049 -0.4821
 6174SOL     OW30154   2.672   0.009   6.808  0.0092 -0.1372 -0.5223
 6174SOL    HW130155   2.723   4.691   6.747  0.6197 -1.4572  1.1067
 6174SOL    HW230156   2.698   4.684   6.879 -1.0709  0.3093  0.2490
 6175SOL     OW30157   2.276   2.890   2.428  0.5654 -0.2615 -0.1727
 6175SOL    HW130158   2.230   2.926   2.353  0.8912  2.3505  0.8599
 6175SOL    HW230159   2.211   2.861   2.492 -0.6856 -0.2779 -1.4650
 6176SOL     OW30160   0.069   3.621   7.484  0.0902  0.1804  0.0251
 6176SOL    HW130161   0.022   3.704   7.491  3.3399  2.1343 -1.2798
 6176SOL    HW230162   0.107   3.622   7.396  0.3326 -0.9495  0.1149
 6177SOL     OW30163   3.149   2.034  11.068 -0.6220  0.3446  0.3126
 6177SOL    HW130164   3.060   2.066  11.054  0.2276  1.3661 -2.6526
 6177SOL    HW230165   3.197   2.115  11.082 -0.1947 -0.0583  1.1883
 6178SOL     OW30166   3.194   1.088  13.986  0.8239 -0.4304 -0.1192
 6178SOL    HW130167   3.159   1.047  14.065 -0.6143  1.2421  0.1244
 6178SOL    HW230168   3.228   1.017  13.932  1.7922  1.2608 -1.7760
 6179SOL     OW30169   4.674   4.596   3.299  0.5006 -0.5482  0.0423
 6179SOL    HW130170   4.700   4.534   3.231  1.2332 -2.0471  1.6919
 6179SOL    HW230171   0.020   4.606   3.350  0.8799  2.0046 -1.0337
 6180SOL     OW30172   4.570   0.951  15.552 -0.4224  0.0398 -0.0652
 6180SOL    HW130173   4.602   1.007  15.623  0.6250  1.0415 -1.3478
 6180SOL    HW230174   4.645   0.895  15.534 -1.8605 -1.9413  0.0159
 6181SOL     OW30175   4.520   2.744  15.764 -0.6905 -0.5134 -0.4326
 6181SOL    HW130176   4.610   2.752  15.797 -1.1496 -1.6015  1.0776
 6181SOL    HW230177   4.496   2.837  15.764 -1.6395 -0.7650  1.0251
 6182SOL     OW30178   0.771   4.331   6.373  0.1232 -0.0062  0.5105
 6182SOL    HW130179   0.840   4.338   6.306 -1.3149 -1.1068 -1.0676
 6182SOL    HW230180   0.695   4.308   6.320 -0.4982  2.5847  0.2566
 6183SOL     OW30181   3.342   1.386   5.124  0.1979 -0.0563 -0.0869
 6183SOL    HW130182   3.281   1.335   5.177 -0.1715 -1.0571 -1.4620
 6183SOL    HW230183   3.333   1.340   5.040  1.1487 -3.0726  1.4548
 6184SOL     OW30184   0.664   0.757  13.230 -0.0470  0.8596 -0.0394
 6184SOL    HW130185   0.598   0.705  13.185 -1.8074  4.1217 -1.2841
 6184SOL    HW230186   0.733   0.743  13.164 -1.4422 -3.2363 -0.5697
 6185SOL     OW30187   1.614   4.734  11.704 -0.2381  0.1029  0.0956
 6185SOL    HW130188   1.578   4.716  11.791  0.2817 -0.2205  0.2450
 6185SOL    HW230189   1.565   0.080  11.687 -1.2170 -0.3647  0.6652
 6186SOL     OW30190   1.969   0.422   3.173  0.1497 -0.0705 -0.5077
 6186SOL    HW130191   1.945   0.409   3.265  0.0094  1.3417 -0.3511
 6186SOL    HW230192   2.003   0.510   3.187 -0.6580  0.2416 -0.4778
 6187SOL     OW30193   2.461   0.451  17.618  0.3077  0.1837  0.3249
 6187SOL    HW130194   2.434   0.383  17.679  0.3422 -1.8159 -1.8837
 6187SOL    HW230195   2.554   0.458  17.639  1.0693 -1.5537 -2.4729
 6188SOL     OW30196   1.703   3.147  11.350  0.4006  0.3203  0.2545
 6188SOL    HW130197   1.712   3.068  11.297  0.2793 -0.0768  0.8360
 6188SOL    HW230198   1.748   3.216  11.300 -1.5744  0.9404 -0.6850
 6189SOL     OW30199   1.208   2.980   9.703  0.1041  0.7283  0.5778
 6189SOL    HW130200   1.158   2.985   9.785 -1.8787  0.3608 -0.6069
 6189SOL    HW230201   1.140   2.962   9.638 -2.1158  1.0020  2.8087
 6190SOL     OW30202   1.492   1.651  14.597  0.3558  0.1024 -0.3359
 6190SOL    HW130203   1.582   1.632  14.571  0.0450 -2.9111  0.8616
 6190SOL    HW230204   1.456   1.640  14.509 -0.6940  0.9533 -0.0136
 6191SOL     OW30205   3.586   3.577   2.377  0.2939 -0.5297  0.1145
 6191SOL    HW130206   3.641   3.526   2.318  2.5802  0.8752  1.0443
 6191SOL    HW230207   3.508   3.522   2.378 -0.6757  0.8419  0.3700
 6192SOL     OW30208   4.360   3.631   5.671 -0.4699 -0.2323 -0.3233
 6192SOL    HW130209   4.362   3.588   5.585  0.1522  0.5152 -0.6868
 6192SOL    HW230210   4.308   3.573   5.727  0.3310 -0.5207  0.1138
 6193SOL     OW30211   3.255   2.491   0.056 -0.1654  0.3558  0.0067
 6193SOL    HW130212   3.346   2.477   0.030 -0.2220  1.0546 -0.5983
 6193SOL    HW230213   3.226   2.557  17.729  0.7273  0.7431 -0.0044
 6194SOL     OW30214   1.746   0.327  13.408 -0.0979  0.6185  0.4593
 6194SOL    HW130215   1.696   0.245  13.412 -1.2358  1.3364  1.2230
 6194SOL    HW230216   1.821   0.306  13.463  0.4392  1.8360  0.1984
 6195SOL     OW30217   2.610   1.257   5.732  0.4350 -0.1929 -0.0400
 6195SOL    HW130218   2.640   1.309   5.807  1.1127 -0.7403  0.0674
 6195SOL    HW230219   2.696   1.216   5.721  0.8129  0.3993  0.7232
 6196SOL     OW30220   2.174   3.931  11.138  0.2002 -0.6744  0.2159
 6196SOL    HW130221   2.156   3.847  11.180  0.6048 -0.7056  0.3296
 6196SOL    HW230222   2.218   3.976  11.210  0.6281 -0.9673  0.1400
 6197SOL     OW30223   2.826   3.804   2.421  0.4152  0.6061 -0.0137
 6197SOL    HW130224   2.731   3.814   2.433  0.2730 -1.7529  0.7266
 6197SOL    HW230225   2.833   3.741   2.349 -0.2413  0.5849 -0.0645
 6198SOL     OW30226   4.513   1.652   6.759  0.6434 -0.2636  0.8280
 6198SOL    HW130227   4.558   1.692   6.833 -1.3000 -0.8661  2.3406
 6198SOL    HW230228   4.572   1.678   6.689  1.4127 -2.2406  0.7374
 6199SOL     OW30229   0.990   2.679   0.216 -0.0840 -0.1705  0.0917
 6199SOL    HW130230   0.972   2.765   0.178  2.0918  1.1450  2.0725
 6199SOL    HW230231   1.029   2.713   0.296  0.5216 -1.0946  0.1917
 6200SOL     OW30232   2.779   2.248  15.385 -0.8356  0.6368 -0.3918
 6200SOL    HW130233   2.758   2.229  15.294 -2.1458 -2.3461  0.5261
 6200SOL    HW230234   2.851   2.190  15.409 -1.5140  0.0508  0.2313
 6201SOL     OW30235   1.078   3.524   4.085 -0.1984 -0.0598 -0.4136
 6201SOL    HW130236   1.143   3.454   4.097 -0.4563 -0.3030 -0.4233
 6201SOL    HW230237   1.125   3.603   4.110 -2.0686  0.9339 -0.0749
 6202SOL     OW30238   3.536   2.991   6.750  0.0093 -0.9514 -0.1493
 6202SOL    HW130239   3.498   2.933   6.683  0.6849  1.4450 -2.6326
 6202SOL    HW230240   3.492   2.953   6.826  0.6610 -1.5201 -0.0423
 6203SOL     OW30241   1.913   3.274   7.401 -0.3056  0.2735 -0.7215
 6203SOL    HW130242   1.982   3.318   7.451  0.2437 -1.7001  0.2457
 6203SOL    HW230243   1.922   3.305   7.311  0.0782 -0.3375 -0.8902
 6204SOL     OW30244   2.296   3.995   1.730 -0.4303 -0.3844  0.3219
 6204SOL    HW130245   2.202   4.008   1.741  0.3617  3.9339  1.6179
 6204SOL    HW230246   2.307   4.049   1.652  0.8143 -0.2196  0.6227
 6205SOL     OW30247   2.510   3.631   9.384  0.0739 -0.8338  0.1002
 6205SOL    HW130248   2.445   3.687   9.342  0.4377 -0.2605  0.2992
 6205SOL    HW230249   2.571   3.698   9.414  1.0058 -2.0271  0.8744
 6206SOL     OW30250   0.752   2.612   9.435  0.1234 -0.3000 -0.0443
 6206SOL    HW130251   0.820   2.658   9.483 -0.5450  0.7815 -0.1302
 6206SOL    HW230252   0.786   2.523   9.428  0.4081 -0.1610 -0.4006
 6207SOL     OW30253   1.640   4.545   6.340  0.3463 -0.2480  0.6621
 6207SOL    HW130254   1.651   4.596   6.259  0.5387  0.3335  1.0547
 6207SOL    HW230255   1.546   4.545   6.355  0.3247  0.4669  0.5325
 6208SOL     OW30256   0.309   1.880   3.784  0.6017  0.1070 -0.4813
 6208SOL    HW130257   0.294   1.924   3.701  0.5502 -0.7550 -0.9226
 6208SOL    HW230258   0.221   1.903   3.816  1.0493  0.2754  0.6110
 6209SOL     OW30259   2.612   1.806   1.966  0.0206  0.4849  0.4591
 6209SOL    HW130260   2.634   1.826   2.057  1.7685  1.0429 -0.0833
 6209SOL    HW230261   2.516   1.802   1.966  0.0707 -0.7990 -0.0314
 6210SOL     OW30262   3.824   4.358   9.578  0.2248 -0.2397 -0.4716
 6210SOL    HW130263   3.915   4.348   9.605 -0.1748 -0.6292  0.7537
 6210SOL    HW230264   3.803   4.430   9.638 -3.5235  0.4400 -2.5613
 6211SOL     OW30265   4.608   1.981   7.915  0.1383  0.0244  0.2191
 6211SOL    HW130266   4.616   1.978   7.819 -1.5823 -3.6969  0.2288
 6211SOL    HW230267   4.516   1.957   7.922  0.4030 -0.7491  0.9324
 6212SOL     OW30268   3.353   4.458   6.804 -0.1634 -0.6756 -0.4320
 6212SOL    HW130269   3.321   4.503   6.882  1.2146 -0.1716 -0.1598
 6212SOL    HW230270   3.274   4.455   6.751  0.7338 -0.4873 -1.7754
 6213SOL     OW30271   1.411   1.952   8.232 -0.4257 -0.3822  0.2042
 6213SOL    HW130272   1.431   2.020   8.167 -1.0673  0.0263  0.4430
 6213SOL    HW230273   1.495   1.949   8.277 -1.2759  0.2687  1.8168
 6214SOL     OW30274   0.576   0.085  14.046  0.3185  0.4270  0.2503
 6214SOL    HW130275   0.620   0.003  14.023  1.3936  1.0060  0.2671
 6214SOL    HW230276   0.512   0.065  14.115  1.1974 -1.4161  0.5502
 6215SOL     OW30277   0.095   2.022   3.044  0.4890 -0.1317 -0.5067
 6215SOL    HW130278   0.123   1.951   3.101  0.1259  0.3749  0.3038
 6215SOL    HW230279   0.006   2.036   3.077  0.6382  2.2026 -1.1078
 6216SOL     OW30280   1.198   3.507   7.224 -0.1718 -0.2450 -0.5996
 6216SOL    HW130281   1.158   3.495   7.137  2.7448 -3.2321 -1.5229
 6216SOL    HW230282   1.146   3.448   7.277 -0.4424 -1.6135 -2.3698
 6217SOL     OW30283   3.281   0.473  12.699  0.5287 -0.3562 -0.4736
 6217SOL    HW130284   3.323   0.399  12.656  1.5362 -0.3421  0.4945
 6217SOL    HW230285   3.357   0.522  12.731  0.3371  0.1965 -0.8653
 6218SOL     OW30286   4.077   0.962   0.982  0.4895  0.1970 -0.4622
 6218SOL    HW130287   4.138   1.026   0.946 -3.8209  2.7099 -3.2127
 6218SOL    HW230288   4.112   0.878   0.951  1.3898  0.9527 -1.5223
 6219SOL     OW30289   2.150   1.238   8.527  0.3690  0.2768 -0.6831
 6219SOL    HW130290   2.141   1.306   8.593 -0.2467  2.2272 -2.7540
 6219SOL    HW230291   2.100   1.266   8.450 -0.9126 -0.4249 -0.0946
 6220SOL     OW30292   3.401   2.286   7.117  0.6262 -0.0448  0.1536
 6220SOL    HW130293   3.481   2.333   7.143 -1.0162  1.4169  2.5682
 6220SOL    HW230294   3.441   2.207   7.082  0.9380  0.6357 -1.0351
 6221SOL     OW30295   0.053   1.639   5.181 -0.0788 -0.4453 -0.1388
 6221SOL    HW130296   0.111   1.573   5.144 -1.2144 -1.0590 -0.8370
 6221SOL    HW230297   0.113   1.703   5.219 -2.6582  0.9626  1.6051
 6222SOL     OW30298   1.135   4.705   8.032 -0.0299  0.0395  0.5584
 6222SOL    HW130299   1.162   4.685   7.942 -0.2275  3.3284 -0.2282
 6222SOL    HW230300   1.100   0.059   8.019 -0.7754 -0.3512 -0.0896
 6223SOL     OW30301   4.551   1.008  12.253  0.4113  0.0011  0.0567
 6223SOL    HW130302   4.517   0.922  12.276  0.7127  0.1200  0.9432
 6223SOL    HW230303   4.471   1.059  12.262 -0.0540 -0.8997  0.9786
 6224SOL     OW30304   0.684   0.577   3.544 -0.3610  0.7707 -0.3028
 6224SOL    HW130305   0.692   0.646   3.610 -1.2812 -0.6195  1.2674
 6224SOL    HW230306   0.701   0.504   3.604  2.5581  0.3034 -1.7026
 6225SOL     OW30307   1.288   1.384   5.811  0.8869 -0.5316  0.3750
 6225SOL    HW130308   1.193   1.386   5.822  0.8502 -2.5959  0.4568
 6225SOL    HW230309   1.311   1.334   5.889 -1.1063 -2.1010 -0.0600
 6226SOL     OW30310   0.700   4.019   0.751  0.2809 -0.0441  0.4598
 6226SOL    HW130311   0.649   4.011   0.832  0.6194 -3.4046  0.3275
 6226SOL    HW230312   0.783   4.048   0.788  1.3560  1.0248 -2.8313
 6227SOL     OW30313   2.702   3.943  11.688 -0.1046  0.0784 -0.1975
 6227SOL    HW130314   2.777   3.921  11.744  0.5575  1.6501 -0.4593
 6227SOL    HW230315   2.722   4.036  11.692  2.8254 -0.5187 -0.2273
 6228SOL     OW30316   1.150   1.908  16.006 -0.4786  0.2963  0.1436
 6228SOL    HW130317   1.218   1.845  15.981  0.2564  1.2951 -0.3810
 6228SOL    HW230318   1.151   1.979  15.942  0.6960  0.1282 -0.0346
 6229SOL     OW30319   2.277   3.728  10.415  0.3459  0.1722 -0.0087
 6229SOL    HW130320   2.336   3.698  10.484  0.4519  1.8881  0.6693
 6229SOL    HW230321   2.234   3.647  10.387 -0.3757  0.1972  1.0198
 6230SOL     OW30322   1.012   1.810   9.747 -0.0807  0.3773  0.2668
 6230SOL    HW130323   1.031   1.822   9.654 -1.0280 -2.0672 -0.2271
 6230SOL    HW230324   1.019   1.899   9.783 -0.1824 -0.3629  2.1428
 6231SOL     OW30325   4.692   3.523  16.044  0.0824  0.5558 -0.0097
 6231SOL    HW130326   4.700   3.458  15.975 -1.0639  1.4712 -0.9958
 6231SOL    HW230327   4.659   3.594  15.990 -0.7211  1.8582  2.1711
 6232SOL     OW30328   4.357   3.392   1.919 -0.4298 -0.4625 -0.0742
 6232SOL    HW130329   4.372   3.321   1.856  1.0968  0.9493 -1.3099
 6232SOL    HW230330   4.443   3.392   1.961 -1.2136 -0.7131  1.5109
 6233SOL     OW30331   3.370   1.270   7.638 -0.1112  0.4603  0.1982
 6233SOL    HW130332   3.456   1.239   7.610  0.3013 -0.0537  2.0185
 6233SOL    HW230333   3.393   1.358   7.669 -0.8438  0.5538  0.4790
 6234SOL     OW30334   0.806   0.320   3.664  0.2501 -0.2250 -0.1399
 6234SOL    HW130335   0.766   0.276   3.739  0.4573  2.2307  1.4308
 6234SOL    HW230336   0.759   0.284   3.589 -2.1122  3.3063 -0.3329
 6235SOL     OW30337   2.325   0.703   2.889  0.5909 -0.5485  0.0219
 6235SOL    HW130338   2.369   0.699   2.974 -0.9880  0.9055  0.8926
 6235SOL    HW230339   2.393   0.747   2.838 -0.1586  0.8495  0.2407
 6236SOL     OW30340   2.798   2.859  12.630 -0.1208  0.1820  0.1987
 6236SOL    HW130341   2.735   2.906  12.684  0.3571  0.7790  0.2436
 6236SOL    HW230342   2.874   2.914  12.651 -0.4183 -0.3479  2.6637
 6237SOL     OW30343   1.405   3.564   2.243  0.3036 -0.1375 -0.2501
 6237SOL    HW130344   1.370   3.529   2.162  0.4685  0.0636 -0.4067
 6237SOL    HW230345   1.497   3.559   2.220  0.1875 -0.6732 -0.6049
 6238SOL     OW30346   1.750   3.929   3.604  0.7343 -0.0156  0.2834
 6238SOL    HW130347   1.799   3.957   3.526 -0.6417 -2.0037 -1.3029
 6238SOL    HW230348   1.661   3.948   3.575  0.3719 -1.1682  0.6600
 6239SOL     OW30349   3.513   0.633   4.953  0.3621  0.0013 -0.4865
 6239SOL    HW130350   3.466   0.552   4.932  0.7037 -0.4789  0.5537
 6239SOL    HW230351   3.493   0.689   4.878  0.5639  0.8558  0.0962
 6240SOL     OW30352   2.121   3.895   5.878 -0.2073 -0.6759  0.0568
 6240SOL    HW130353   2.214   3.875   5.890 -0.0033 -0.0504 -0.4895
 6240SOL    HW230354   2.077   3.846   5.948 -0.9577  0.8700  0.6843
 6241SOL     OW30355   1.779   2.326  14.364 -0.2674 -0.2057 -0.0794
 6241SOL    HW130356   1.814   2.344  14.277 -3.1154  0.3656 -1.1122
 6241SOL    HW230357   1.839   2.359  14.430 -0.4975  0.0756 -0.0081
 6242SOL     OW30358   3.500   2.388   9.369 -0.0108 -0.2639 -0.1604
 6242SOL    HW130359   3.466   2.476   9.358 -0.7442 -0.7054 -1.3778
 6242SOL    HW230360   3.498   2.384   9.465 -0.7297  0.0084 -0.1646
 6243SOL     OW30361   4.571   0.547   5.480  0.0438 -0.5406  0.1137
 6243SOL    HW130362   4.612   0.473   5.435  0.4821  0.7244 -1.5494
 6243SOL    HW230363   4.488   0.504   5.501  0.2568 -1.3276 -0.6400
 6244SOL     OW30364   0.608   3.592   6.216 -0.0299 -0.4248 -0.0595
 6244SOL    HW130365   0.633   3.562   6.129  1.0797  0.4593 -0.0390
 6244SOL    HW230366   0.514   3.606   6.205  0.2845  1.2001 -0.7110
 6245SOL     OW30367   2.347   4.436  11.356  0.0050  0.7506  0.9978
 6245SOL    HW130368   2.262   4.469  11.385 -0.3125  0.3318  0.5403
 6245SOL    HW230369   2.372   4.495  11.285  2.2560 -0.6847  0.5960
 6246SOL     OW30370   3.814   2.617   2.323 -0.2434  0.7778  0.0706
 6246SOL    HW130371   3.843   2.527   2.339 -1.8325  0.2678  0.0275
 6246SOL    HW230372   3.764   2.626   2.404  1.1536  0.9912  0.9152
 6247SOL     OW30373   2.860   3.994   3.240 -0.2230  0.1270 -0.4015
 6247SOL    HW130374   2.781   3.993   3.186  0.4792 -4.1273 -1.3345
 6247SOL    HW230375   2.870   4.089   3.239  0.1144  0.0982  0.1425
 6248SOL     OW30376   4.005   3.425  11.671  0.1898  0.6330 -0.2824
 6248SOL    HW130377   3.987   3.517  11.688 -1.8166 -0.0915  1.5261
 6248SOL    HW230378   3.918   3.395  11.643  0.4643  1.8036 -2.3727
 6249SOL     OW30379   3.714   2.858   7.523 -0.0057  0.5306  0.1535
 6249SOL    HW130380   3.677   2.945   7.538 -0.6848  0.2002  0.4497
 6249SOL    HW230381   3.719   2.850   7.428 -1.7715 -0.8974  0.1679
 6250SOL     OW30382   0.207   0.492   9.234 -0.3691  0.9670 -0.3872
 6250SOL    HW130383   0.216   0.405   9.195 -0.3061  1.8533 -2.3273
 6250SOL    HW230384   0.126   0.490   9.285 -0.2948  1.7707 -0.2311
 6251SOL     OW30385   0.227   3.624   4.567  0.0466  0.1363  0.3651
 6251SOL    HW130386   0.141   3.653   4.536  0.6607 -0.4006 -1.8503
 6251SOL    HW230387   0.285   3.641   4.493  0.2035  0.7187  0.6216
 6252SOL     OW30388   0.232   3.074   8.853 -0.1591  0.2456  0.5146
 6252SOL    HW130389   0.178   3.152   8.868  1.2931  1.4977 -0.7324
 6252SOL    HW230390   0.253   3.050   8.943 -1.3500  2.5371  1.4217
 6253SOL     OW30391   1.939   2.326   2.225  0.0960  0.0960  0.3655
 6253SOL    HW130392   2.028   2.306   2.253  0.7130  1.6444 -0.5086
 6253SOL    HW230393   1.913   2.236   2.205 -0.2810  0.8367 -2.5750
 6254SOL     OW30394   2.672   2.038   4.454  0.3059  0.5778 -0.3922
 6254SOL    HW130395   2.691   2.039   4.360 -0.0079  0.0151 -0.4613
 6254SOL    HW230396   2.640   1.948   4.451 -1.5474  1.2118  1.0382
 6255SOL     OW30397   4.454   2.087  16.111 -0.4129  0.1460  0.1469
 6255SOL    HW130398   4.373   2.083  16.060 -0.2775  0.8739 -0.1266
 6255SOL    HW230399   4.447   2.165  16.167  0.5418 -0.8806  1.6967
 6256SOL     OW30400   3.429   2.758   6.911 -0.5414  0.2648 -0.5018
 6256SOL    HW130401   3.386   2.783   6.994 -0.4429 -2.8493  0.4640
 6256SOL    HW230402   3.508   2.710   6.936 -1.8915  0.1276  3.5876
 6257SOL     OW30403   3.017   2.010   7.594 -0.3189  0.2692  0.5591
 6257SOL    HW130404   3.058   2.096   7.600  0.4243 -0.0690  0.3419
 6257SOL    HW230405   2.984   2.021   7.505 -0.4381 -1.4182  0.3883
 6258SOL     OW30406   1.281   0.527   4.789 -0.2143  0.0491 -0.1634
 6258SOL    HW130407   1.322   0.460   4.734 -3.6986 -1.9555 -0.2739
 6258SOL    HW230408   1.189   0.503   4.779  0.0340 -1.4566  1.1555
 6259SOL     OW30409   1.719   4.690   7.172 -0.3129 -0.1327 -0.4548
 6259SOL    HW130410   1.754   0.033   7.127  0.4900  0.0065  0.4034
 6259SOL    HW230411   1.656   4.726   7.235 -0.9663 -1.2799 -0.4561
 6260SOL     OW30412   3.149   3.143   3.688 -0.2028 -0.0831  0.2028
 6260SOL    HW130413   3.158   3.168   3.780 -1.0474  1.7412 -0.2206
 6260SOL    HW230414   3.096   3.065   3.702  0.0302  0.0402  1.8244
 6261SOL     OW30415   3.176   4.445   3.008  0.3196 -0.4840  0.7578
 6261SOL    HW130416   3.086   4.412   3.010  0.2910 -0.2574  3.0419
 6261SOL    HW230417   3.194   4.482   3.095 -0.0079 -0.4402  0.8089
 6262SOL     OW30418   2.137   2.111  10.271 -0.2764  0.3153  0.5228
 6262SOL    HW130419   2.167   2.029  10.233 -2.1427  0.5540 -1.4778
 6262SOL    HW230420   2.118   2.166  10.195  0.7892 -0.7899 -0.5321
 6263SOL     OW30421   2.631   4.315  14.140  0.1066 -0.3122  0.4060
 6263SOL    HW130422   2.618   4.228  14.179 -1.0014 -0.3674 -0.1037
 6263SOL    HW230423   2.680   4.289  14.062 -0.9984  1.4041 -0.8747
 6264SOL     OW30424   3.205   0.327   1.784 -0.5884  0.3381  0.9403
 6264SOL    HW130425   3.176   0.349   1.695  1.8016  1.7622  0.4979
 6264SOL    HW230426   3.264   0.252   1.775 -1.9682 -0.7232  0.6918
 6265SOL     OW30427   0.865   0.003   8.455  0.2445  0.2235  0.0305
 6265SOL    HW130428   0.885   4.667   8.517  1.0089  0.1396 -0.3142
 6265SOL    HW230429   0.863   4.687   8.373  0.9814 -0.8699  0.6702
 6266SOL     OW30430   1.742   1.888   1.854  0.4802 -0.2173  0.0080
 6266SOL    HW130431   1.772   1.798   1.844  0.8252 -0.1255  0.2076
 6266SOL    HW230432   1.733   1.901   1.948 -1.5075  1.7938 -0.4512
 6267SOL     OW30433   2.026   2.905   9.239 -0.1677 -0.1352  0.1665
 6267SOL    HW130434   2.075   2.960   9.301  2.8533 -3.7628  0.9612
 6267SOL    HW230435   1.946   2.956   9.222  0.5399 -0.0874 -2.8744
 6268SOL     OW30436   3.911   0.631   8.297 -0.4709 -0.0498  0.0173
 6268SOL    HW130437   3.834   0.660   8.345  0.3565 -0.5623  1.6466
 6268SOL    HW230438   3.915   0.538   8.322  1.0910 -0.2147 -0.7941
 6269SOL     OW30439   3.364   2.628   1.339 -0.3011  0.1720 -0.6888
 6269SOL    HW130440   3.276   2.665   1.326 -0.1097  1.0701  0.5426
 6269SOL    HW230441   3.407   2.685   1.275  0.7899 -1.3960 -1.3567
 6270SOL     OW30442   2.704   0.537   6.266 -0.1343 -0.3255  0.5565
 6270SOL    HW130443   2.641   0.570   6.330 -1.8247 -0.7178 -0.9157
 6270SOL    HW230444   2.774   0.603   6.265 -0.3218 -0.1536 -1.0509
 6271SOL     OW30445   1.763   3.993  14.562  0.1741 -0.2712  0.7325
 6271SOL    HW130446   1.720   3.950  14.488 -4.2297  0.6061  2.8119
 6271SOL    HW230447   1.763   3.924  14.629  3.3577  0.5265  1.5685
 6272SOL     OW30448   4.227   1.666   7.311  0.4131 -0.0471 -0.2637
 6272SOL    HW130449   4.227   1.621   7.226  0.5768  2.4654 -1.5910
 6272SOL    HW230450   4.320   1.656   7.330  0.8166  0.6708 -1.8819
 6273SOL     OW30451   4.477   1.082   2.037  0.5041 -0.1126  0.3566
 6273SOL    HW130452   4.409   1.128   2.088  2.1124  2.9481 -0.2213
 6273SOL    HW230453   4.438   0.997   2.020  0.0745  0.1941 -0.1735
 6274SOL     OW30454   1.667   2.898   3.637 -0.2572  0.4197  0.1504
 6274SOL    HW130455   1.717   2.868   3.713 -0.4200  1.0604  0.5099
 6274SOL    HW230456   1.626   2.819   3.602  0.6462  0.0613 -0.0906
 6275SOL     OW30457   0.239   4.518  15.204  0.3422 -0.6638 -0.5333
 6275SOL    HW130458   0.206   4.590  15.257  0.9063 -0.7423 -0.0721
 6275SOL    HW230459   0.243   4.444  15.265  0.4918 -0.4817 -0.3226
 6276SOL     OW30460   1.752   1.576   6.851  0.0828  0.2032 -0.1412
 6276SOL    HW130461   1.748   1.524   6.931  0.5882  0.5089  0.0837
 6276SOL    HW230462   1.706   1.656   6.877 -2.7325 -1.6565  0.6448
 6277SOL     OW30463   1.103   1.027  12.291  0.3532  0.5562 -0.6870
 6277SOL    HW130464   1.187   1.065  12.318  0.7402 -0.7867 -0.0149
 6277SOL    HW230465   1.051   1.105  12.313  0.3477  0.3441  0.0476
 6278SOL     OW30466   2.926   3.987   1.498 -0.0593  0.3820 -0.0831
 6278SOL    HW130467   2.967   4.073   1.495 -0.4066  0.5953  1.1712
 6278SOL    HW230468   2.944   3.966   1.590  2.0839 -0.5508 -0.7091
 6279SOL     OW30469   3.253   4.001   4.383 -0.0612  0.1603 -0.4288
 6279SOL    HW130470   3.320   3.940   4.353 -0.4292  0.0010 -0.9244
 6279SOL    HW230471   3.189   3.991   4.312 -0.8049 -1.7906  0.5146
 6280SOL     OW30472   2.387   1.335   1.386  0.4241 -0.1660 -0.3739
 6280SOL    HW130473   2.455   1.273   1.357  0.8917 -0.1015  0.6127
 6280SOL    HW230474   2.340   1.286   1.453  3.0381 -0.2340  1.3998
 6281SOL     OW30475   1.467   2.389   3.065 -0.1293  0.4326 -0.0685
 6281SOL    HW130476   1.554   2.411   3.097 -0.1374 -1.2464  1.0796
 6281SOL    HW230477   1.422   2.473   3.060 -0.5003  0.2816  0.8816
 6282SOL     OW30478   4.060   0.449   1.865  0.4724  0.1300 -0.4117
 6282SOL    HW130479   4.053   0.531   1.913 -1.2316 -1.3784  1.9268
 6282SOL    HW230480   4.101   0.478   1.784 -0.8161  0.1354 -1.0590
 6283SOL     OW30481   3.136   1.929   4.333  0.1777  0.2194 -0.0643
 6283SOL    HW130482   3.231   1.920   4.320  0.4100  0.5425  1.4467
 6283SOL    HW230483   3.117   1.997   4.269  1.8356 -2.3195 -3.3207
 6284SOL     OW30484   3.295   1.449   6.526 -0.6072 -0.4352 -0.0817
 6284SOL    HW130485   3.311   1.389   6.599 -1.6736  2.9984  2.9443
 6284SOL    HW230486   3.305   1.536   6.563 -2.7607  0.1790 -0.9768
 6285SOL     OW30487   0.706   1.325   7.588 -0.3305 -0.1564  0.3266
 6285SOL    HW130488   0.784   1.289   7.630 -0.0341  0.0308 -0.0669
 6285SOL    HW230489   0.691   1.405   7.638  1.3708  0.3597  0.0190
 6286SOL     OW30490   2.698   2.172  10.667 -0.0310 -0.1889 -0.0256
 6286SOL    HW130491   2.679   2.206  10.754 -0.7677 -1.0419  0.1470
 6286SOL    HW230492   2.618   2.121  10.657 -0.9211  0.9374  1.4276
 6287SOL     OW30493   0.127   1.182   4.936 -0.1398 -1.1881  0.4393
 6287SOL    HW130494   0.031   1.192   4.934 -0.0254  0.2431  2.5191
 6287SOL    HW230495   0.145   1.211   5.025  0.9037 -0.5634  0.0253
 6288SOL     OW30496   1.431   4.601   5.916 -0.1274  0.1315  0.3217
 6288SOL    HW130497   1.384   4.588   5.998 -2.0511 -0.1434 -0.7974
 6288SOL    HW230498   1.418   4.519   5.868 -0.5326  0.0825  0.5154
 6289SOL     OW30499   0.751   3.181   8.008 -0.5524  0.5218  0.2882
 6289SOL    HW130500   0.773   3.095   8.046 -0.0814  0.6769  0.3713
 6289SOL    HW230501   0.666   3.167   7.968  0.8056  1.3004 -2.8368
 6290SOL     OW30502   2.274   2.094  12.092 -0.6206  0.7616  0.3606
 6290SOL    HW130503   2.293   2.041  12.014 -2.5244  1.2111 -0.4227
 6290SOL    HW230504   2.303   2.180  12.062  2.9778 -0.3799  0.6606
 6291SOL     OW30505   2.910   2.945   3.667  0.3749  0.1760 -0.4606
 6291SOL    HW130506   2.909   2.987   3.753 -1.3864  0.2080 -0.4976
 6291SOL    HW230507   2.821   2.910   3.660  1.6304 -2.8973 -1.3875
 6292SOL     OW30508   1.326   1.625   1.669  0.3448 -0.1399 -0.5512
 6292SOL    HW130509   1.411   1.669   1.664  0.5906 -0.6293 -0.6318
 6292SOL    HW230510   1.289   1.672   1.744  1.7298 -0.2642  0.2221
 6293SOL     OW30511   3.249   0.134   0.127 -0.4883 -0.0651  0.4159
 6293SOL    HW130512   3.321   0.189   0.158 -0.2138  0.1824 -0.6657
 6293SOL    HW230513   3.235   0.095   0.213 -0.2027  1.4307  1.1374
 6294SOL     OW30514   4.006   4.657  12.304  0.0751 -0.1889  0.3957
 6294SOL    HW130515   4.061   4.732  12.281  0.1848 -0.5549 -0.5523
 6294SOL    HW230516   3.941   4.691  12.365 -0.2433 -0.6525  0.3215
 6295SOL     OW30517   0.146   4.103   3.437  0.4285 -0.5670  0.1534
 6295SOL    HW130518   0.150   4.021   3.387  0.8455 -1.4874  1.7221
 6295SOL    HW230519   0.061   4.120   3.478 -0.0399  0.8159 -1.4020
 6296SOL     OW30520   2.910   0.055  10.923 -0.3967  0.2099 -0.4399
 6296SOL    HW130521   2.854   4.713  10.906 -0.0486  0.2197 -1.6277
 6296SOL    HW230522   2.902   0.054  11.019 -0.5368  0.7388 -0.4449
 6297SOL     OW30523   2.246   3.395   4.421  0.4231 -0.4803 -0.3027
 6297SOL    HW130524   2.267   3.357   4.336  0.6472 -0.4621 -0.2570
 6297SOL    HW230525   2.216   3.320   4.473 -1.2079  0.5363  0.2265
 6298SOL     OW30526   1.755   2.033   7.841 -0.3650 -0.6031 -0.0479
 6298SOL    HW130527   1.736   2.125   7.822  0.7909  0.0374  1.9548
 6298SOL    HW230528   1.847   2.045   7.815 -0.4604 -1.1210 -0.6340
 6299SOL     OW30529   3.715   1.417   3.852  0.2858 -0.2092  0.9768
 6299SOL    HW130530   3.777   1.490   3.850 -1.3548  1.1524  0.0211
 6299SOL    HW230531   3.637   1.472   3.863 -0.6703 -1.2553 -0.5639
 6300SOL     OW30532   1.844   4.080  10.250 -0.6083 -0.5046  0.0042
 6300SOL    HW130533   1.928   4.057  10.211 -0.8698 -0.1886 -0.7293
 6300SOL    HW230534   1.871   4.159  10.297  0.9846  0.6253 -2.8071
 6301SOL     OW30535   0.299   3.497   5.773 -0.3218  0.3189  0.1370
 6301SOL    HW130536   0.370   3.434   5.789  0.2962  0.8617 -0.5314
 6301SOL    HW230537   0.338   3.530   5.692 -0.8193  0.9012  0.1375
 6302SOL     OW30538   0.652   0.018   2.339  0.6180  0.5009  0.7213
 6302SOL    HW130539   0.686   0.106   2.354 -1.9133  1.0431  3.2352
 6302SOL    HW230540   0.595   0.012   2.416  1.1785 -0.0827  1.0926
 6303SOL     OW30541   3.837   1.139   1.031  0.2854  0.3952  0.0816
 6303SOL    HW130542   3.906   1.079   1.060  0.6359  0.2817 -0.9770
 6303SOL    HW230543   3.832   1.105   0.942  0.6186  0.5269  0.0132
 6304SOL     OW30544   2.624   0.433   2.782 -0.0423  0.1958  0.1387
 6304SOL    HW130545   2.535   0.400   2.781 -0.3999  1.2150 -1.1444
 6304SOL    HW230546   2.673   0.360   2.743 -2.4247 -0.7245 -1.1434
 6305SOL     OW30547   0.992   0.358  16.208 -0.0082 -0.3177 -0.3291
 6305SOL    HW130548   0.954   0.412  16.277 -1.7427  0.4110 -1.8327
 6305SOL    HW230549   0.973   0.267  16.228 -1.6874  0.2518  0.6588
 6306SOL     OW30550   0.193   2.204   2.851  0.3516  0.0864  0.1184
 6306SOL    HW130551   0.157   2.151   2.922 -2.0422  0.5542 -0.7565
 6306SOL    HW230552   0.203   2.287   2.898  0.0471  0.1911 -0.0008
 6307SOL     OW30553   2.936   2.396   5.855 -0.1465 -0.4961  0.3107
 6307SOL    HW130554   2.990   2.473   5.838 -0.3836 -0.3361  0.2740
 6307SOL    HW230555   2.899   2.383   5.768  0.2232  2.4236 -0.2846
 6308SOL     OW30556   3.592   0.968   4.296 -0.4482  0.3259 -0.2876
 6308SOL    HW130557   3.588   0.965   4.392  3.2426  1.8715 -0.0392
 6308SOL    HW230558   3.608   1.061   4.276 -0.1307  0.4941  0.7293
 6309SOL     OW30559   4.397   1.275   1.202 -0.8185  0.6377 -0.6385
 6309SOL    HW130560   4.452   1.353   1.206 -1.0665  0.7738  0.1499
 6309SOL    HW230561   4.314   1.322   1.212  0.5152  2.5302  1.4415
 6310SOL     OW30562   2.416   1.097   5.419 -0.3425  0.5713 -0.0479
 6310SOL    HW130563   2.357   1.021   5.416 -2.5226  2.0965  4.0004
 6310SOL    HW230564   2.485   1.056   5.367 -0.0692  0.7525  0.1755
 6311SOL     OW30565   1.451   0.196  11.570  0.1889  0.2070  0.0103
 6311SOL    HW130566   1.397   0.232  11.500  2.2321  0.3164 -1.5098
 6311SOL    HW230567   1.529   0.251  11.562  0.2847  0.1737  0.7339
 6312SOL     OW30568   1.617   4.166   5.506  0.3765  0.1628  0.3020
 6312SOL    HW130569   1.580   4.098   5.563 -1.9943 -1.5978 -3.3598
 6312SOL    HW230570   1.704   4.175   5.544  0.0124  0.8298  0.9852
 6313SOL     OW30571   0.746   1.290   9.372  0.0981  0.2393 -0.3428
 6313SOL    HW130572   0.759   1.342   9.452 -0.0911  0.7300 -0.6304
 6313SOL    HW230573   0.657   1.259   9.389  0.3651 -0.4268 -0.1758
 6314SOL     OW30574   4.673   0.507   3.517 -0.3517 -0.2328  0.1479
 6314SOL    HW130575   4.709   0.422   3.492  2.2808  0.7478  0.5520
 6314SOL    HW230576   4.585   0.502   3.479 -0.2883  0.4221 -0.0945
 6315SOL     OW30577   2.018   1.185   1.678  0.0367  0.3938  0.0852
 6315SOL    HW130578   1.968   1.143   1.608 -0.4456 -0.0734  0.7116
 6315SOL    HW230579   2.104   1.176   1.639  0.4623 -1.1481  1.3770
 6316SOL     OW30580   3.480   2.319   2.768 -0.2271 -0.3865 -0.3868
 6316SOL    HW130581   3.476   2.275   2.854  1.5603  0.0876 -0.0570
 6316SOL    HW230582   3.556   2.280   2.724  0.4345 -0.7667  1.0808
 6317SOL     OW30583   4.552   2.607   5.903 -0.0638 -0.0013  0.6342
 6317SOL    HW130584   4.478   2.627   5.845 -0.1297  0.4527  0.8758
 6317SOL    HW230585   4.522   2.534   5.957 -0.9573 -1.8467 -2.3632
 6318SOL     OW30586   3.457   3.234   3.966  0.5910 -0.4384 -0.1890
 6318SOL    HW130587   3.495   3.315   3.999 -2.1888  0.9481 -0.4260
 6318SOL    HW230588   3.430   3.261   3.878  0.0396 -0.2873  0.0240
 6319SOL     OW30589   0.869   3.570   8.009  0.3607 -0.1030 -0.2003
 6319SOL    HW130590   0.843   3.651   7.966  1.4680  0.0233 -0.6469
 6319SOL    HW230591   0.858   3.509   7.936 -0.8414 -3.3892  2.7100
 6320SOL     OW30592   0.429   2.009   2.240  0.0399  0.3713 -0.1222
 6320SOL    HW130593   0.436   2.099   2.208  0.2886  1.0214  1.7712
 6320SOL    HW230594   0.436   1.963   2.156 -1.3935  0.3830 -0.2366
 6321SOL     OW30595   1.431   3.892  11.450  0.3496  0.3123  0.5121
 6321SOL    HW130596   1.519   3.922  11.476  0.7865  0.5242 -1.2430
 6321SOL    HW230597   1.373   3.939  11.510 -0.4545 -0.0390  0.0134
 6322SOL     OW30598   0.143   1.451   2.464 -0.3579 -0.3262 -0.0413
 6322SOL    HW130599   0.156   1.366   2.421  1.4447  0.7080 -1.5831
 6322SOL    HW230600   0.235   1.462   2.490 -0.3592 -1.8959  0.6416
 6323SOL     OW30601   4.192   0.220  13.780  0.9599  0.0170 -0.2090
 6323SOL    HW130602   4.273   0.177  13.754  0.7054 -0.3335 -0.4202
 6323SOL    HW230603   4.181   0.190  13.870 -2.0741 -1.1387 -0.9657
 6324SOL     OW30604   3.116   1.514   3.038 -0.2338  0.0880 -0.0435
 6324SOL    HW130605   3.038   1.469   3.071 -0.4556  1.3506  1.1427
 6324SOL    HW230606   3.140   1.457   2.965 -0.5964 -1.6711  1.2057
 6325SOL     OW30607   0.239   2.118   3.518  0.4678  0.3592  0.4218
 6325SOL    HW130608   0.328   2.106   3.484 -0.7434 -0.3629 -2.5292
 6325SOL    HW230609   0.251   2.185   3.585 -1.7466  0.2688  0.9047
 6326SOL     OW30610   3.409   4.271   5.127  0.0521  0.1429 -0.5062
 6326SOL    HW130611   3.353   4.349   5.125  1.7220  1.4275  1.4708
 6326SOL    HW230612   3.489   4.316   5.155 -0.5091  1.6896 -1.3729
 6327SOL     OW30613   3.195   0.724   1.522 -0.0850  0.2978  0.0477
 6327SOL    HW130614   3.233   0.720   1.434  1.0354  1.2132  0.4952
 6327SOL    HW230615   3.129   0.655   1.512 -0.0814  0.2247  0.5158
 6328SOL     OW30616   1.217   4.506  17.164 -0.4750 -0.2689 -0.1317
 6328SOL    HW130617   1.264   4.435  17.120  0.0395 -0.3194  0.4908
 6328SOL    HW230618   1.291   4.547  17.210  0.3215 -0.5196 -1.1835
 6329SOL     OW30619   3.593   1.959   1.872 -0.1538 -0.4973 -0.1707
 6329SOL    HW130620   3.587   1.884   1.931 -2.4863  0.3777  0.6988
 6329SOL    HW230621   3.625   1.914   1.794  2.0425  1.2550 -0.2994
 6330SOL     OW30622   1.186   0.817  17.387 -0.4541  0.0744 -0.4985
 6330SOL    HW130623   1.132   0.833  17.309  0.1187 -1.7698 -1.2906
 6330SOL    HW230624   1.256   0.880  17.371 -1.8107  1.6441 -0.2626
 6331SOL     OW30625   3.229   0.764   4.310  0.6173 -0.2778  0.0141
 6331SOL    HW130626   3.221   0.764   4.215 -0.4191 -0.0928  0.0982
 6331SOL    HW230627   3.204   0.856   4.324 -0.0828 -0.4943  0.1671
 6332SOL     OW30628   2.350   2.408  13.239 -0.1992  0.5426 -0.2326
 6332SOL    HW130629   2.338   2.481  13.300 -3.3742  0.8484 -1.2296
 6332SOL    HW230630   2.256   2.393  13.226 -0.4503 -0.7072  3.0792
 6333SOL     OW30631   2.611   1.773  11.565 -0.2523 -0.2291  0.0467
 6333SOL    HW130632   2.587   1.684  11.592 -0.6379 -0.9841 -2.7712
 6333SOL    HW230633   2.706   1.776  11.582 -0.5361  0.2829  1.4569
 6334SOL     OW30634   0.391   3.509   6.501 -0.1837 -0.0726 -0.3006
 6334SOL    HW130635   0.372   3.445   6.432  1.9194  1.8160 -2.6433
 6334SOL    HW230636   0.314   3.566   6.503 -0.3540 -0.3477  1.0127
 6335SOL     OW30637   0.330   1.142   7.364 -0.2409  0.2384 -0.0557
 6335SOL    HW130638   0.252   1.088   7.354 -0.2398  0.3836 -0.8945
 6335SOL    HW230639   0.339   1.140   7.459  0.1207 -0.9746 -0.1146
 6336SOL     OW30640   1.447   2.182   8.046 -0.1691 -0.3799  0.5319
 6336SOL    HW130641   1.401   2.258   8.080  2.3339  2.0684 -1.5774
 6336SOL    HW230642   1.534   2.205   8.078 -0.2593 -1.8308  1.8161
 6337SOL     OW30643   2.132   1.858   6.307  0.2699  0.2860  0.3800
 6337SOL    HW130644   2.188   1.861   6.384 -0.2560 -0.1972  0.7850
 6337SOL    HW230645   2.066   1.923   6.329  0.1956  0.0129  0.9569
 6338SOL     OW30646   1.528   3.966   5.681  0.2529  0.3825 -0.0000
 6338SOL    HW130647   1.475   3.960   5.760  0.3708  2.3389  0.2230
 6338SOL    HW230648   1.506   3.898   5.617 -2.1201  2.1151 -1.0028
 6339SOL     OW30649   3.229   3.156   9.581  0.2695  0.6931 -0.0070
 6339SOL    HW130650   3.200   3.079   9.629  0.6530  0.0552 -0.8079
 6339SOL    HW230651   3.311   3.125   9.543 -2.0932 -3.7550 -1.3936
 6340SOL     OW30652   1.362   3.998   5.949  0.1229 -0.3734  0.2308
 6340SOL    HW130653   1.379   4.091   5.961  0.6758 -0.9190  3.6730
 6340SOL    HW230654   1.447   3.968   5.981  0.9126 -0.9396 -2.4362
 6341SOL     OW30655   4.227   4.040   6.146  0.1787 -0.3664 -0.3360
 6341SOL    HW130656   4.180   4.006   6.222  1.8342 -1.7367  0.0685
 6341SOL    HW230657   4.266   4.113   6.194 -0.4805  0.0862 -0.4894
 6342SOL     OW30658   2.830   1.990   2.580 -0.0100  0.0648  0.0477
 6342SOL    HW130659   2.838   1.981   2.675 -1.8752 -0.6791  0.1394
 6342SOL    HW230660   2.762   2.055   2.562  1.2743  1.3267 -0.2826
 6343SOL     OW30661   2.008   3.785   1.953 -0.1031  0.4246  0.2857
 6343SOL    HW130662   1.950   3.716   1.985 -2.3404  1.3230 -1.8779
 6343SOL    HW230663   1.946   3.834   1.901 -1.4074 -1.3749  0.1487
 6344SOL     OW30664   0.698   3.422   1.761  0.1556  0.3838 -0.3492
 6344SOL    HW130665   0.680   3.386   1.675 -1.2069 -1.1817  0.6019
 6344SOL    HW230666   0.767   3.362   1.791  0.9124  1.3627 -0.1132
 6345SOL     OW30667   2.952   2.435   4.075  0.0389  0.0369 -0.1389
 6345SOL    HW130668   3.011   2.503   4.106 -0.2441  0.5433 -0.7250
 6345SOL    HW230669   2.872   2.438   4.128 -0.6016  2.1861 -1.2638
 6346SOL     OW30670   1.947   1.957  13.916  0.8496  0.3533  0.0007
 6346SOL    HW130671   1.925   1.940  13.824  1.0049 -1.4531  0.2811
 6346SOL    HW230672   2.011   1.888  13.934  1.6023  1.3412  1.1023
 6347SOL     OW30673   3.281   3.279   4.318  0.4121  0.0199  0.0890
 6347SOL    HW130674   3.215   3.228   4.365  1.2037 -1.0015  0.0939
 6347SOL    HW230675   3.360   3.232   4.345 -1.7927 -4.3181 -0.8776
 6348SOL     OW30676   3.593   1.753   1.132 -0.0328 -0.2715  0.6159
 6348SOL    HW130677   3.540   1.730   1.056 -2.2445  3.6128  1.0182
 6348SOL    HW230678   3.536   1.721   1.202  0.5236  2.3794  2.2754
 6349SOL     OW30679   2.619   0.855   6.131 -0.1913 -0.0926 -0.7436
 6349SOL    HW130680   2.702   0.817   6.102 -0.0634 -0.3680 -0.0089
 6349SOL    HW230681   2.638   0.879   6.221 -0.9591 -0.9679 -0.3520
 6350SOL     OW30682   4.076   3.402  11.178 -0.3915 -0.1584  0.1765
 6350SOL    HW130683   4.129   3.476  11.208 -1.6742  1.0125 -0.4250
 6350SOL    HW230684   4.053   3.364  11.262 -1.0991  0.5698  0.3229
 6351SOL     OW30685   1.369   4.571   4.710 -0.3402 -0.2769  0.0033
 6351SOL    HW130686   1.439   4.549   4.771 -0.7104 -0.8380  0.2251
 6351SOL    HW230687   1.308   4.609   4.773  0.4323 -0.8286  1.0856
 6352SOL     OW30688   2.077   2.435   0.576 -0.2264  0.6204  0.1860
 6352SOL    HW130689   2.005   2.429   0.639 -2.0186 -0.5824 -1.9290
 6352SOL    HW230690   2.047   2.515   0.533 -0.2549  0.1792 -0.6330
 6353SOL     OW30691   0.976   4.448  14.570 -0.3093  0.2131 -0.0220
 6353SOL    HW130692   0.896   4.412  14.609  0.5406 -0.8964  0.7064
 6353SOL    HW230693   0.936   4.511  14.510  1.2836  2.8675  1.7478
 6354SOL     OW30694   1.942   4.379   3.190 -0.4522 -0.4314  0.2792
 6354SOL    HW130695   1.856   4.420   3.204 -0.4956 -0.9026  1.3489
 6354SOL    HW230696   1.939   4.300   3.244 -2.4631 -1.9416 -2.0603
 6355SOL     OW30697   1.163   0.452   8.638 -0.3533  0.3250  0.6685
 6355SOL    HW130698   1.108   0.374   8.643 -1.7259  1.2462  0.0201
 6355SOL    HW230699   1.143   0.507   8.714  0.5710  1.6905 -0.0863
 6356SOL     OW30700   3.062   0.325   7.332  0.2161 -0.1468  0.1328
 6356SOL    HW130701   2.998   0.277   7.280  0.9124 -2.6382  1.5755
 6356SOL    HW230702   3.077   0.401   7.276  0.5029 -1.5441 -1.6652
 6357SOL     OW30703   2.550   0.422   8.742  0.4167  0.5214  0.1109
 6357SOL    HW130704   2.635   0.455   8.771 -0.3623  1.4515  1.3388
 6357SOL    HW230705   2.492   0.434   8.817 -0.5793  1.0768 -0.7524
 6358SOL     OW30706   3.823   3.706  13.488  0.3744 -0.0808 -0.4741
 6358SOL    HW130707   3.880   3.743  13.555 -0.3086 -0.9148  0.5735
 6358SOL    HW230708   3.888   3.652  13.444 -0.8128 -1.8959 -0.0013
 6359SOL     OW30709   2.889   2.947  11.747  0.0366  0.5991  0.0357
 6359SOL    HW130710   2.914   3.011  11.680  1.7129  0.4664  0.5131
 6359SOL    HW230711   2.979   2.936  11.780 -0.1375 -1.8134 -0.2420
 6360SOL     OW30712   2.372   2.021   8.053  0.1285 -0.0628  0.0490
 6360SOL    HW130713   2.296   1.996   7.999  0.0278  0.7242 -0.1765
 6360SOL    HW230714   2.365   2.115   8.039  1.6309 -0.2163 -1.6283
 6361SOL     OW30715   0.823   1.924   3.841 -0.1782 -0.2896  0.1828
 6361SOL    HW130716   0.855   1.835   3.825 -0.0529 -0.4523  1.3073
 6361SOL    HW230717   0.839   1.927   3.936 -0.5920  2.0083  0.1790
 6362SOL     OW30718   1.123   0.298   7.521  0.3508  0.0132  0.2501
 6362SOL    HW130719   1.044   0.254   7.492  0.9406 -2.4120  2.3352
 6362SOL    HW230720   1.085   0.325   7.605  1.7602  0.4029  0.7751
 6363SOL     OW30721   0.918   3.946   8.306  0.0946  0.4327 -0.5875
 6363SOL    HW130722   0.948   3.908   8.223  0.7094  1.1510 -0.6878
 6363SOL    HW230723   0.825   3.952   8.283 -0.4251 -1.0533  1.0948
 6364SOL     OW30724   1.599   0.586  16.700  0.6744  0.3189 -0.1107
 6364SOL    HW130725   1.664   0.607  16.633 -0.1575  0.8846 -0.7348
 6364SOL    HW230726   1.622   0.498  16.728  1.1063  1.0358  1.8271
 6365SOL     OW30727   0.332   1.203   5.949  0.0392  0.4512 -0.6359
 6365SOL    HW130728   0.261   1.140   5.962 -0.1333  0.5573 -1.0629
 6365SOL    HW230729   0.392   1.187   6.022 -1.0681  1.4494  0.4960
 6366SOL     OW30730   2.753   3.201   5.666 -0.2170 -0.2733  0.1652
 6366SOL    HW130731   2.824   3.263   5.683  0.1654 -0.1428 -1.9075
 6366SOL    HW230732   2.724   3.222   5.578 -0.8206 -2.6679 -0.2134
 6367SOL     OW30733   3.132   3.812   2.534  0.3793 -0.2039 -0.6118
 6367SOL    HW130734   3.076   3.780   2.606  1.3349  0.8440  0.5942
 6367SOL    HW230735   3.212   3.770   2.564  0.5481  0.8416  0.4064
 6368SOL     OW30736   2.387   0.920   0.190  0.5271  0.1874 -0.8858
 6368SOL    HW130737   2.315   0.912   0.127 -0.2244  0.5826 -0.0695
 6368SOL    HW230738   2.366   1.011   0.210  0.0115 -0.1834  0.2479
 6369SOL     OW30739   0.973   0.309   6.258  0.0353 -0.2415  0.1681
 6369SOL    HW130740   1.031   0.254   6.310  1.0256 -0.4401 -1.1630
 6369SOL    HW230741   0.908   0.335   6.324 -0.7748 -1.3154 -0.2061
 6370SOL     OW30742   4.245   3.840  15.532 -0.0020 -0.1950  0.1451
 6370SOL    HW130743   4.222   3.862  15.622  0.4138 -0.0467  0.2184
 6370SOL    HW230744   4.162   3.798  15.512 -1.0474  1.2832  1.4006
 6371SOL     OW30745   1.053   3.287   3.190  0.1838 -0.4428  0.4995
 6371SOL    HW130746   1.061   3.359   3.127 -0.7619 -0.1662  0.6949
 6371SOL    HW230747   1.126   3.315   3.246  0.5774  0.1471 -0.3079
 6372SOL     OW30748   0.971   3.075  16.093  1.0293  0.4214 -0.4901
 6372SOL    HW130749   0.896   3.101  16.040 -1.2294 -1.3056  1.8640
 6372SOL    HW230750   1.018   3.159  16.099  1.2792  0.3470 -1.4672
 6373SOL     OW30751   4.247   1.641   5.445  0.2828  0.1467 -0.1429
 6373SOL    HW130752   4.316   1.681   5.498 -0.4693  1.3537 -0.0668
 6373SOL    HW230753   4.295   1.564   5.414 -0.7641 -0.4962 -0.1664
 6374SOL     OW30754   4.052   1.611  16.842 -0.5760 -0.1394  0.5383
 6374SOL    HW130755   4.070   1.682  16.904 -1.5924 -0.2383  0.9407
 6374SOL    HW230756   4.094   1.539  16.889  0.9384 -0.8333 -1.8593
 6375SOL     OW30757   2.448   2.685  11.271  0.0971  0.2167 -0.2770
 6375SOL    HW130758   2.537   2.707  11.244  0.2589  1.0144  0.9003
 6375SOL    HW230759   2.427   2.776  11.294 -0.2343 -0.5842  2.4850
 6376SOL     OW30760   1.751   2.967  13.328  0.4352  0.2673 -0.0064
 6376SOL    HW130761   1.805   3.045  13.323 -2.0013  1.9197 -0.8199
 6376SOL    HW230762   1.669   3.005  13.361  0.2270 -0.8413  0.7756
 6377SOL     OW30763   0.203   2.405   3.021  0.2970 -0.0916  0.1623
 6377SOL    HW130764   0.213   2.488   3.068  0.1259 -0.5147  0.9415
 6377SOL    HW230765   0.218   2.352   3.099  1.4854  0.2201  0.1480
 6378SOL     OW30766   1.204   0.439  16.045  0.0310  0.4972 -0.6109
 6378SOL    HW130767   1.125   0.450  16.097 -1.5690 -0.4313 -2.8425
 6378SOL    HW230768   1.191   0.496  15.969 -2.3361  0.1751 -0.4552
 6379SOL     OW30769   0.161   3.692   1.567  0.5087 -0.4968 -0.1353
 6379SOL    HW130770   0.066   3.681   1.579  0.7339  1.3931  3.4598
 6379SOL    HW230771   0.186   3.782   1.588  1.0340 -0.8624  0.8198
 6380SOL     OW30772   0.047   0.683   1.463  0.0971  0.3468 -0.4060
 6380SOL    HW130773   4.710   0.718   1.409 -0.3961  1.4686  0.9721
 6380SOL    HW230774   0.010   0.726   1.539 -0.3928 -0.0316 -0.4327
 6381SOL     OW30775   1.426   3.269   2.100  0.3566  0.4742 -0.3474
 6381SOL    HW130776   1.420   3.198   2.163  0.1922  0.8232  0.0260
 6381SOL    HW230777   1.511   3.307   2.121  0.2657  0.2810  0.3680
 6382SOL     OW30778   3.182   0.069   5.988 -0.1332  0.5979  0.2835
 6382SOL    HW130779   3.196   0.162   5.970  0.2453 -0.1371 -3.3804
 6382SOL    HW230780   3.107   0.069   6.047  0.1165  0.5120  0.6006
 6383SOL     OW30781   0.096   2.753   2.495  0.2162 -0.3534  0.0597
 6383SOL    HW130782   0.111   2.723   2.405  1.4418  0.1862  0.0941
 6383SOL    HW230783   0.077   2.846   2.481  1.0655  0.1694  2.4009
 6384SOL     OW30784   2.732   4.714   2.205  0.9935 -0.2273 -0.1865
 6384SOL    HW130785   2.721   0.002   2.298 -0.7589 -1.4265 -0.1153
 6384SOL    HW230786   2.655   4.658   2.197 -0.0775  1.4195 -1.3381
 6385SOL     OW30787   3.573   4.161   6.021 -0.2088 -0.6143 -0.1156
 6385SOL    HW130788   3.523   4.135   6.098  1.1634  1.0333  1.3324
 6385SOL    HW230789   3.605   4.247   6.046  0.8755 -0.9011 -0.4748
 6386SOL     OW30790   3.692   3.218   3.771  0.0783  0.0606  0.2995
 6386SOL    HW130791   3.732   3.304   3.756 -1.2615  0.1822 -2.6631
 6386SOL    HW230792   3.687   3.220   3.867 -1.0055 -1.3995  0.2677
 6387SOL     OW30793   2.960   3.229  12.481 -0.2729  0.1453 -0.0639
 6387SOL    HW130794   2.886   3.194  12.530 -0.9016  0.9114 -0.4754
 6387SOL    HW230795   3.023   3.160  12.501 -2.1915 -1.0091  1.9427
 6388SOL     OW30796   1.965   3.475   1.942  0.3063 -0.7230 -0.6754
 6388SOL    HW130797   1.884   3.432   1.914 -0.9114  1.9542 -1.2189
 6388SOL    HW230798   2.002   3.411   2.003  3.6330  1.8735  0.0604
 6389SOL     OW30799   2.511   4.617   6.172  0.3478 -0.3391  0.2286
 6389SOL    HW130800   2.448   4.545   6.169 -1.2475  1.0628  0.4319
 6389SOL    HW230801   2.595   4.570   6.166 -0.1163 -1.3407  1.5252
 6390SOL     OW30802   3.802   3.577   8.172  0.0628 -0.6492  0.2938
 6390SOL    HW130803   3.889   3.618   8.173  0.3182 -1.1919 -0.2781
 6390SOL    HW230804   3.826   3.492   8.208  0.8042 -1.0453 -1.1533
 6391SOL     OW30805   0.762   3.756  15.628 -0.3268  0.5546  0.1715
 6391SOL    HW130806   0.723   3.724  15.547 -0.0775  1.7224 -0.4043
 6391SOL    HW230807   0.823   3.687  15.654  0.7538  1.4112 -0.1226
 6392SOL     OW30808   4.079   1.390   5.671 -0.2351  0.1758 -0.3068
 6392SOL    HW130809   4.102   1.426   5.586 -1.0518 -1.5838 -1.2643
 6392SOL    HW230810   4.014   1.326   5.643 -1.0159 -0.1027  2.1291
 6393SOL     OW30811   0.949   3.507   4.429  0.6125  0.1059  0.0592
 6393SOL    HW130812   0.951   3.495   4.334  0.0611 -0.6825  0.1473
 6393SOL    HW230813   0.909   3.421   4.437 -0.0568  0.3765 -0.4594
 6394SOL     OW30814   3.636   0.681   3.795 -0.2879  0.3665 -0.5641
 6394SOL    HW130815   3.600   0.609   3.744 -0.9648  1.5453 -1.7742
 6394SOL    HW230816   3.643   0.644   3.883 -0.6740  1.1010 -0.2225
 6395SOL     OW30817   2.664   4.001   3.744 -0.5173 -0.4963  0.4214
 6395SOL    HW130818   2.580   4.027   3.784 -0.5079  1.1587 -0.6042
 6395SOL    HW230819   2.629   3.922   3.703  0.0264 -1.1354  1.1906
 6396SOL     OW30820   1.438   0.602   5.387  0.6448 -0.6733  0.0452
 6396SOL    HW130821   1.425   0.648   5.470 -1.8424 -1.0315 -0.1643
 6396SOL    HW230822   1.503   0.659   5.347 -0.3114  0.1065 -0.3814
 6397SOL     OW30823   4.538   2.912  16.367 -0.2558  0.2183 -0.1161
 6397SOL    HW130824   4.509   2.989  16.319  1.3734 -0.0133 -1.4546
 6397SOL    HW230825   4.484   2.910  16.446 -0.4183 -2.6520 -0.2668
 6398SOL     OW30826   2.661   2.777  10.920  0.3721  0.2054  1.0623
 6398SOL    HW130827   2.651   2.819  10.834 -0.7927 -1.8724  0.1797
 6398SOL    HW230828   2.716   2.842  10.964  4.4399 -1.7346 -1.1462
 6399SOL     OW30829   4.683   4.601   5.828  0.0305  0.4170  0.0638
 6399SOL    HW130830   4.645   4.652   5.756 -0.1064 -1.1939 -1.0183
 6399SOL    HW230831   0.014   4.548   5.782 -2.8093 -1.8266 -1.4067
 6400SOL     OW30832   3.121   1.275  13.768  0.0895  0.2594  0.0668
 6400SOL    HW130833   3.159   1.231  13.844 -1.5984  0.0358  0.7903
 6400SOL    HW230834   3.030   1.244  13.766  0.3098 -0.4960  1.5244
 6401SOL     OW30835   2.043   2.713   3.701  0.8998  0.0216 -0.3110
 6401SOL    HW130836   2.135   2.721   3.675  0.6045  2.1690 -0.6470
 6401SOL    HW230837   2.057   2.752   3.787 -0.3024 -0.4994  0.1219
 6402SOL     OW30838   2.499   2.311   4.315 -0.2872  0.4635 -0.7366
 6402SOL    HW130839   2.489   2.302   4.410 -1.0707  2.1162 -0.6642
 6402SOL    HW230840   2.488   2.224   4.278 -0.1432  1.5586 -3.3525
 6403SOL     OW30841   3.084   2.264   7.545 -0.2290  0.0066  0.4141
 6403SOL    HW130842   3.147   2.285   7.476 -1.6455 -0.5412 -1.0531
 6403SOL    HW230843   3.132   2.304   7.617 -0.0692 -0.2810  0.4645
 6404SOL     OW30844   4.720   2.504   7.692 -0.3720  0.3960  0.4088
 6404SOL    HW130845   0.023   2.497   7.604  1.2040  1.4020  0.9777
 6404SOL    HW230846   0.048   2.567   7.729 -2.5879  2.8748 -0.1463
 6405SOL     OW30847   0.434   4.373  15.053  0.7808 -0.1459 -0.3185
 6405SOL    HW130848   0.387   4.437  15.106  0.7104  0.8681 -1.6319
 6405SOL    HW230849   0.407   4.292  15.098  0.9167 -0.4309 -0.7518
 6406SOL     OW30850   0.760   3.909  11.827  0.2211  0.1301 -0.4200
 6406SOL    HW130851   0.799   3.855  11.758  2.6576  0.9872  0.3036
 6406SOL    HW230852   0.755   3.844  11.897  0.4981  0.8190  0.2372
 6407SOL     OW30853   2.404   0.107  10.722  0.8250 -0.7645 -0.1978
 6407SOL    HW130854   2.485   0.058  10.710  0.1378 -1.8848 -0.2955
 6407SOL    HW230855   2.357   0.049  10.783 -1.1652 -2.2897 -3.1692
 6408SOL     OW30856   2.114   2.724   5.142  0.3791 -0.0199  0.1657
 6408SOL    HW130857   2.027   2.697   5.173 -0.2325  2.1096  0.3012
 6408SOL    HW230858   2.169   2.691   5.213  1.7322  0.8952 -0.4683
 6409SOL     OW30859   1.962   1.933   5.339  0.2684  0.4305 -0.2573
 6409SOL    HW130860   1.927   1.962   5.255 -1.0778  2.8948  1.1483
 6409SOL    HW230861   1.898   1.975   5.396  2.3057  1.6304  1.1365
 6410SOL     OW30862   2.336   1.413   4.744  0.0214  0.0322  0.3359
 6410SOL    HW130863   2.287   1.482   4.789 -0.6268 -0.1077 -0.1623
 6410SOL    HW230864   2.336   1.450   4.656  0.3496 -0.6585  0.0417
 6411SOL     OW30865   4.203   2.109  10.434  0.0848 -0.0338 -0.1073
 6411SOL    HW130866   4.127   2.160  10.405  0.4781  1.0579  0.7815
 6411SOL    HW230867   4.271   2.172  10.408  0.3360 -0.1316  0.3126
 6412SOL     OW30868   2.326   4.453  17.064  0.2551 -0.3798  0.0061
 6412SOL    HW130869   2.239   4.472  17.100 -0.1324 -2.3433  0.0997
 6412SOL    HW230870   2.359   4.433  17.152  1.1415 -2.7275 -0.8600
 6413SOL     OW30871   2.561   0.070   1.821  0.0197 -0.3643 -0.1676
 6413SOL    HW130872   2.633   0.115   1.777 -0.0073 -1.6389 -1.5023
 6413SOL    HW230873   2.549   4.729   1.763 -5.3403 -0.0304  0.5069
 6414SOL     OW30874   0.454   0.067  12.368 -0.1321  0.1538 -0.0286
 6414SOL    HW130875   0.458   0.142  12.427  2.7064  0.4746 -0.6224
 6414SOL    HW230876   0.547   0.049  12.356 -0.1181  1.6354 -2.0215
 6415SOL     OW30877   4.599   0.714   2.624 -0.3840 -0.4484 -0.4787
 6415SOL    HW130878   4.557   0.800   2.634  1.0082 -0.3577  4.3140
 6415SOL    HW230879   4.672   0.731   2.564  0.1186 -0.1916  0.2160
 6416SOL     OW30880   3.656   4.431   5.220 -0.0651  0.2328  0.0094
 6416SOL    HW130881   3.689   4.342   5.231 -1.2385 -0.2762 -0.6037
 6416SOL    HW230882   3.680   4.433   5.127 -0.7421 -0.2284 -0.1709
 6417SOL     OW30883   4.157   1.772  13.846  0.6395 -0.1211 -0.4433
 6417SOL    HW130884   4.150   1.720  13.926  0.9015  2.6463  1.3476
 6417SOL    HW230885   4.072   1.816  13.851  0.1877 -1.1221  0.7591
 6418SOL     OW30886   3.549   0.947   2.760  0.2763  0.5128  0.5734
 6418SOL    HW130887   3.599   0.991   2.692 -0.5676 -0.4956 -0.6809
 6418SOL    HW230888   3.581   0.857   2.755  0.0498  0.4076  1.0254
 6419SOL     OW30889   0.762   2.972   9.094  0.1961 -0.6051 -0.4730
 6419SOL    HW130890   0.680   2.947   9.052  2.4782 -1.1824 -4.5791
 6419SOL    HW230891   0.792   2.886   9.122  0.4215 -0.9954 -1.9464
 6420SOL     OW30892   1.373   2.875  11.625  0.4555 -0.0482 -0.1577
 6420SOL    HW130893   1.402   2.790  11.591  2.3477 -0.9081  3.5785
 6420SOL    HW230894   1.452   2.928  11.608 -0.4296  0.9915 -1.0120
 6421SOL     OW30895   0.492   0.490  17.192  0.1569 -0.3251  0.0867
 6421SOL    HW130896   0.464   0.498  17.283 -0.6979  0.1265 -0.2135
 6421SOL    HW230897   0.557   0.423  17.212  0.0878 -0.1214  0.9968
 6422SOL     OW30898   3.676   1.691   5.350 -0.7547 -0.0980  0.1796
 6422SOL    HW130899   3.584   1.666   5.360 -0.9346  0.5569  0.1504
 6422SOL    HW230900   3.709   1.679   5.439  0.7125  0.9816 -0.2248
 6423SOL     OW30901   2.869   3.018  15.111 -0.0067  0.6154  0.3975
 6423SOL    HW130902   2.849   3.111  15.114  0.7691  0.7005  3.0033
 6423SOL    HW230903   2.844   2.985  15.198 -0.7502 -1.6804 -0.6784
 6424SOL     OW30904   2.969   4.593   5.228  0.0223 -1.0501 -0.6804
 6424SOL    HW130905   2.880   4.560   5.241  0.2951 -1.3909  0.3371
 6424SOL    HW230906   2.983   4.549   5.144  1.1209  1.5943 -1.9105
 6425SOL     OW30907   3.959   3.956  17.134  0.1918  0.5163 -0.1634
 6425SOL    HW130908   3.917   4.009  17.067  1.0735  0.7992 -0.4887
 6425SOL    HW230909   4.052   3.961  17.113  0.6356 -2.5322  1.0558
 6426SOL     OW30910   2.859   3.950   2.690  0.5752 -0.5898  0.0858
 6426SOL    HW130911   2.881   3.939   2.597 -0.0739  0.5522 -0.2051
 6426SOL    HW230912   2.909   3.876   2.725 -1.3128 -2.4287 -1.1421
 6427SOL     OW30913   4.287   4.664   9.801  0.1032  0.1567 -0.1119
 6427SOL    HW130914   4.249   4.726   9.863 -0.6080  0.1585 -0.5385
 6427SOL    HW230915   4.242   4.680   9.718  0.0132 -3.6095 -0.8141
 6428SOL     OW30916   3.401   1.744   5.414  0.3302  0.4776 -0.5982
 6428SOL    HW130917   3.306   1.733   5.407  0.4899 -1.3176  0.1960
 6428SOL    HW230918   3.409   1.837   5.437 -1.4135  0.9384 -1.8317
 6429SOL     OW30919   1.638   3.193   6.090  0.3722  0.2284 -0.4283
 6429SOL    HW130920   1.607   3.247   6.162 -0.1456  0.3457 -0.7415
 6429SOL    HW230921   1.729   3.178   6.115 -0.1007 -2.2884 -0.2232
 6430SOL     OW30922   0.115   3.262   9.859  0.2023  0.2602 -0.1410
 6430SOL    HW130923   0.038   3.257   9.803 -0.0008 -0.2144  0.1769
 6430SOL    HW230924   0.137   3.355   9.867  0.0637  0.5995 -3.6258
 6431SOL     OW30925   0.282   0.410   7.075  0.4054 -0.3473  0.1774
 6431SOL    HW130926   0.337   0.398   6.998  1.3588  0.0189  0.8057
 6431SOL    HW230927   0.203   0.371   7.037 -0.0834 -0.5651  1.4133
 6432SOL     OW30928   3.185   3.034  12.454  0.0217 -0.0027 -0.2074
 6432SOL    HW130929   3.194   2.946  12.417 -1.1868 -0.2191 -0.0190
 6432SOL    HW230930   3.271   3.039  12.494 -0.5375 -0.5536  1.0761
 6433SOL     OW30931   4.357   2.121  14.576 -0.3348  0.5784  0.6646
 6433SOL    HW130932   4.385   2.057  14.642  1.8389 -0.1144 -0.9388
 6433SOL    HW230933   4.304   2.072  14.512  0.8025  0.3078 -0.0711
 6434SOL     OW30934   3.606   4.079   2.529 -0.3047  0.4709 -0.5682
 6434SOL    HW130935   3.634   3.988   2.519  0.3616  0.5242  0.8019
 6434SOL    HW230936   3.685   4.128   2.550 -0.5119  0.6583 -0.2152
 6435SOL     OW30937   2.414   2.694   6.098  0.4625 -0.4051  0.1681
 6435SOL    HW130938   2.395   2.626   6.033  2.3647 -0.4962 -0.2877
 6435SOL    HW230939   2.507   2.701   6.078  0.3820  2.4204  0.7901
 6436SOL     OW30940   2.891   0.584  12.194  0.0841 -0.1051  0.0625
 6436SOL    HW130941   2.864   0.611  12.106  0.0296  0.2789  0.1952
 6436SOL    HW230942   2.814   0.552  12.240 -0.8316  2.5297  0.4020
 6437SOL     OW30943   1.109   2.388   8.624  0.2018  0.1881  0.0774
 6437SOL    HW130944   1.072   2.318   8.571  1.6775 -0.9941  0.6041
 6437SOL    HW230945   1.042   2.454   8.609 -0.7635 -0.7554  0.2125
 6438SOL     OW30946   2.461   0.247   5.791  0.6655  0.1642  0.2757
 6438SOL    HW130947   2.547   0.220   5.821 -0.8678 -3.8360  1.1198
 6438SOL    HW230948   2.425   0.292   5.868 -0.2226 -0.7763  0.4156
 6439SOL     OW30949   0.797   1.670   3.530  0.1837  0.1730 -0.1891
 6439SOL    HW130950   0.711   1.702   3.503 -0.5302 -0.8333  0.8880
 6439SOL    HW230951   0.777   1.657   3.623 -2.4535 -0.6210 -0.8332
 6440SOL     OW30952   3.447   4.592   9.284  0.0061  0.5715 -0.1839
 6440SOL    HW130953   3.471   4.593   9.192 -0.6946  1.1259 -0.3613
 6440SOL    HW230954   3.364   4.545   9.284  1.1688 -1.4939  1.0682
 6441SOL     OW30955   1.883   1.203   7.222  0.2660 -0.0304 -0.2051
 6441SOL    HW130956   1.972   1.236   7.230  0.6486 -0.9663 -0.7325
 6441SOL    HW230957   1.838   1.251   7.292 -2.2831 -1.3270 -0.9573
 6442SOL     OW30958   1.577   2.626   8.026 -0.0021 -0.0135 -0.0558
 6442SOL    HW130959   1.485   2.623   7.997  0.4807 -3.1515 -1.2317
 6442SOL    HW230960   1.612   2.690   7.964  0.8863 -1.0227 -0.5875
 6443SOL     OW30961   4.250   3.166   7.644  0.1502 -0.7487  0.1724
 6443SOL    HW130962   4.331   3.125   7.614  0.9316 -0.3815  1.7853
 6443SOL    HW230963   4.283   3.247   7.682 -1.1914  0.4674 -1.2263
 6444SOL     OW30964   3.323   2.358  12.936  0.1752 -0.2860 -0.5191
 6444SOL    HW130965   3.244   2.361  12.882 -1.0806  1.2600  1.3833
 6444SOL    HW230966   3.284   2.418  12.999 -0.9184  0.4278 -1.8615
 6445SOL     OW30967   1.135   2.544   4.736  0.0260  0.0308  0.3221
 6445SOL    HW130968   1.205   2.579   4.792  0.6713 -2.2872  0.9819
 6445SOL    HW230969   1.152   2.450   4.739  1.9460  0.2859 -2.1533
 6446SOL     OW30970   3.820   1.720  16.686  0.0132  0.4103 -0.4153
 6446SOL    HW130971   3.849   1.680  16.604  1.0238 -0.7897  0.5417
 6446SOL    HW230972   3.873   1.688  16.758 -0.8512 -0.5770 -0.2130
 6447SOL     OW30973   4.181   2.208   3.368  0.7655  0.7855 -0.4601
 6447SOL    HW130974   4.271   2.203   3.400  0.6953 -2.1611 -0.6735
 6447SOL    HW230975   4.140   2.205   3.454  1.2930 -1.5098 -0.2738
 6448SOL     OW30976   4.076   4.428  16.584  0.4142 -0.1657  0.6453
 6448SOL    HW130977   3.983   4.427  16.562  0.3993  1.0325  0.6569
 6448SOL    HW230978   4.115   4.472  16.509 -0.9842  1.9699  1.1350
 6449SOL     OW30979   3.914   3.096   8.358 -0.6764  0.5153 -0.5460
 6449SOL    HW130980   3.820   3.085   8.342 -0.5735 -0.8291 -0.2359
 6449SOL    HW230981   3.921   3.041   8.436 -0.0815  1.5409  0.1247
 6450SOL     OW30982   0.247   3.485   2.422  0.1099  0.5413  0.3958
 6450SOL    HW130983   0.276   3.533   2.499 -1.5720  1.8673  0.1941
 6450SOL    HW230984   0.304   3.524   2.355 -1.3771 -1.3488 -1.9702
 6451SOL     OW30985   3.528   1.161  11.107 -0.2056  0.2956 -0.4075
 6451SOL    HW130986   3.463   1.094  11.127 -2.2035  1.9956 -1.2131
 6451SOL    HW230987   3.560   1.149  11.018 -0.6682 -1.0207 -0.3943
 6452SOL     OW30988   4.082   2.331   9.065 -0.1780  0.2582 -0.3488
 6452SOL    HW130989   4.160   2.311   9.117 -0.1544 -1.5655 -1.0704
 6452SOL    HW230990   4.019   2.260   9.074 -0.1634  0.4677  1.3855
 6453SOL     OW30991   2.170   3.030   5.526 -0.0223 -0.1343  0.4894
 6453SOL    HW130992   2.157   2.935   5.529 -2.2542  0.1120 -1.1473
 6453SOL    HW230993   2.092   3.053   5.576 -0.4144 -0.2113 -0.0837
 6454SOL     OW30994   1.634   4.266  17.185  0.1295  0.2272 -0.5673
 6454SOL    HW130995   1.697   4.227  17.246  0.9568  0.8195 -1.0453
 6454SOL    HW230996   1.555   4.286  17.236  1.1700  0.6202  0.9114
 6455SOL     OW30997   3.192   1.494   5.952  0.3320  0.1195  0.2231
 6455SOL    HW130998   3.219   1.431   6.019  2.6114 -3.2052 -3.8223
 6455SOL    HW230999   3.279   1.514   5.917  0.5000  1.6478  1.5426
 6456SOL     OW31000   0.950   4.467   3.343 -0.3843 -0.6680 -0.8750
 6456SOL    HW131001   0.948   4.426   3.256  0.2503 -0.0416 -1.1775
 6456SOL    HW231002   1.021   4.529   3.329 -0.8399  0.6336  2.5789
 6457SOL     OW31003   4.521   0.934  13.170  0.0840  0.2170 -0.2857
 6457SOL    HW131004   4.429   0.914  13.159  0.2525 -1.4970  1.3791
 6457SOL    HW231005   4.531   0.917  13.263 -0.3899  2.5487  0.1757
 6458SOL     OW31006   0.795   0.721   8.336  0.4524  0.3897 -0.5939
 6458SOL    HW131007   0.746   0.748   8.259 -1.0883  1.1463  0.6395
 6458SOL    HW231008   0.874   0.681   8.300  1.0731 -0.1989  1.3730
 6459SOL     OW31009   3.928   3.454   0.103  0.1476  0.5481  0.3761
 6459SOL    HW131010   3.864   3.465   0.033  0.9990 -0.0220 -0.5027
 6459SOL    HW231011   3.952   3.362   0.090 -0.0889  0.2625  2.0335
 6460SOL     OW31012   2.582   0.371   9.143 -0.3490  0.0841 -0.1451
 6460SOL    HW131013   2.656   0.421   9.177  0.3367 -0.3868 -0.9432
 6460SOL    HW231014   2.608   0.287   9.181 -1.8428  0.1059  0.9078
 6461SOL     OW31015   3.230   0.945   7.089  0.0840 -0.2223 -0.2448
 6461SOL    HW131016   3.215   0.887   7.015  0.2867 -2.0610  1.1398
 6461SOL    HW231017   3.143   0.984   7.101  0.6398  1.5368 -1.9989
 6462SOL     OW31018   0.572   2.961   2.969 -0.0966  0.1474  0.0841
 6462SOL    HW131019   0.508   2.978   2.900 -3.2753  0.0508  2.9882
 6462SOL    HW231020   0.653   2.977   2.920  0.8757  2.2108  2.3628
 6463SOL     OW31021   2.431   2.861   2.158  0.3523  0.2776 -0.0557
 6463SOL    HW131022   2.522   2.852   2.188  0.2580  0.9913  0.4666
 6463SOL    HW231023   2.406   2.929   2.221  2.6036  0.3171  0.8157
 6464SOL     OW31024   0.721   2.186   5.110 -0.5974 -1.0261 -0.4519
 6464SOL    HW131025   0.802   2.232   5.088 -1.1551  0.3090  0.3045
 6464SOL    HW231026   0.754   2.106   5.150 -0.9927 -0.7527  0.4109
 6465SOL     OW31027   3.217   0.099   3.315 -0.6592  0.1381 -0.2696
 6465SOL    HW131028   3.149   0.033   3.328 -1.2706  0.7338 -0.4476
 6465SOL    HW231029   3.170   0.179   3.336  0.4677  0.0597  2.5483
 6466SOL     OW31030   4.575   1.045  16.579  0.1554 -0.1528 -0.5652
 6466SOL    HW131031   4.632   1.046  16.502 -0.2952 -1.9556 -0.9222
 6466SOL    HW231032   4.582   0.953  16.605  0.6600 -0.0413 -0.2861
 6467SOL     OW31033   0.837   2.974  12.858 -0.5470 -0.5415 -0.6402
 6467SOL    HW131034   0.775   3.006  12.923 -1.5758 -0.0724 -1.8467
 6467SOL    HW231035   0.852   3.052  12.804 -0.9252 -0.2655 -0.3446
 6468SOL     OW31036   4.575   3.941   6.620 -0.7277 -0.6346 -0.4872
 6468SOL    HW131037   4.612   3.972   6.703 -0.2769  1.4476 -1.4760
 6468SOL    HW231038   4.499   3.999   6.607  0.4671  0.7760 -1.1106
 6469SOL     OW31039   2.266   2.864   1.386 -0.2831  0.0776  0.0417
 6469SOL    HW131040   2.314   2.935   1.344  1.3430 -0.6617  0.6683
 6469SOL    HW231041   2.278   2.881   1.480 -0.0212 -0.0057  0.0216
 6470SOL     OW31042   3.157   0.277  11.898 -0.2771 -0.7703 -0.0924
 6470SOL    HW131043   3.215   0.230  11.958  0.9788 -0.2524 -0.8759
 6470SOL    HW231044   3.118   0.345  11.952  0.9982  0.9861 -1.3410
 6471SOL     OW31045   1.792   0.489   6.292  0.2848 -1.2254  0.0127
 6471SOL    HW131046   1.791   0.482   6.196  0.9095  1.0283 -0.1529
 6471SOL    HW231047   1.884   0.479   6.313  0.5727  2.2550  0.4059
 6472SOL     OW31048   2.188   2.352   8.595  0.0049  0.0692  0.2498
 6472SOL    HW131049   2.243   2.423   8.561  0.5913 -0.1439  0.7448
 6472SOL    HW231050   2.143   2.401   8.663 -1.0632  0.2564 -0.6041
 6473SOL     OW31051   4.333   3.744   7.467  0.0030 -0.0983 -0.2207
 6473SOL    HW131052   4.380   3.783   7.393  0.3476  1.7639  0.9942
 6473SOL    HW231053   4.282   3.673   7.428  1.5157 -2.1504  1.6111
 6474SOL     OW31054   0.961   0.659  12.528 -0.2360 -0.2645 -0.3906
 6474SOL    HW131055   1.020   0.731  12.554  0.4045 -1.7032  2.1699
 6474SOL    HW231056   0.927   0.696  12.447  0.1238  1.6241  0.3055
 6475SOL     OW31057   2.598   2.575   7.488 -0.0773  0.5631 -0.4701
 6475SOL    HW131058   2.674   2.615   7.529  0.2117 -0.2149 -0.2425
 6475SOL    HW231059   2.618   2.485   7.517  1.1307  1.8202  2.6071
 6476SOL     OW31060   2.725   0.334   4.556  0.0303 -0.5241 -0.4804
 6476SOL    HW131061   2.795   0.285   4.512 -1.5857 -3.2746 -0.0001
 6476SOL    HW231062   2.659   0.334   4.487 -0.8702  1.9536  0.3677
 6477SOL     OW31063   1.057   0.616  17.512 -0.3564  0.1825 -0.3803
 6477SOL    HW131064   1.081   0.703  17.479  0.1227  0.4913  0.7755
 6477SOL    HW231065   1.058   0.550  17.443  0.2752  1.1335 -1.2974
 6478SOL     OW31066   3.027   0.261   6.856 -0.0266 -0.3667 -0.5528
 6478SOL    HW131067   2.938   0.252   6.891  0.0525  0.0918 -0.2224
 6478SOL    HW231068   3.067   0.175   6.861 -0.0196 -0.4713 -2.4478
 6479SOL     OW31069   1.312   2.168  17.445 -0.1564 -0.7049 -0.0151
 6479SOL    HW131070   1.225   2.150  17.409 -1.5230  1.2706  2.2660
 6479SOL    HW231071   1.302   2.162  17.540 -1.3280  1.3951 -0.0001
 6480SOL     OW31072   2.066   3.202  13.899  0.7309 -0.0562 -0.3930
 6480SOL    HW131073   2.025   3.198  13.985 -0.1786 -1.5015 -0.8949
 6480SOL    HW231074   2.110   3.287  13.898 -0.8214  0.7337 -1.7654
 6481SOL     OW31075   4.674   2.116   2.135 -0.4592 -0.0896  0.1156
 6481SOL    HW131076   4.733   2.086   2.204 -0.5720  1.3311  0.8355
 6481SOL    HW231077   4.674   2.043   2.073 -0.7437 -0.4048  0.4859
 6482SOL     OW31078   4.532   2.560   7.388 -0.2229 -0.5542  0.1013
 6482SOL    HW131079   4.506   2.471   7.364 -0.6905 -0.3139 -0.2823
 6482SOL    HW231080   4.612   2.553   7.335  0.3037 -0.3009  0.8760
 6483SOL     OW31081   1.024   0.152  12.758  0.5276 -0.1263  0.2179
 6483SOL    HW131082   1.046   0.134  12.849  1.2317 -2.5458 -0.4252
 6483SOL    HW231083   1.036   0.247  12.762 -1.3687  0.0305  2.0788
 6484SOL     OW31084   2.842   1.455   9.420  0.8447  0.1838  0.1302
 6484SOL    HW131085   2.768   1.468   9.479  1.0463 -3.0130  1.0672
 6484SOL    HW231086   2.804   1.498   9.343 -1.4584 -3.8112 -0.9595
 6485SOL     OW31087   2.280   3.085   5.866 -0.0525  0.7034  0.3282
 6485SOL    HW131088   2.362   3.040   5.844 -0.9890 -1.7451  1.9282
 6485SOL    HW231089   2.267   3.130   5.782 -0.1011  1.8100  0.9255
 6486SOL     OW31090   3.942   3.615   7.324  0.3499 -0.0430 -0.1243
 6486SOL    HW131091   3.988   3.542   7.283  1.7981  1.6009 -1.4182
 6486SOL    HW231092   3.985   3.690   7.282 -0.4160  0.9733  0.9109
 6487SOL     OW31093   3.666   3.448   2.609 -0.0248 -0.3920  0.2620
 6487SOL    HW131094   3.757   3.422   2.624 -0.9476 -2.2022  2.7737
 6487SOL    HW231095   3.670   3.491   2.524  2.5387 -1.3899 -0.1334
 6488SOL     OW31096   3.325   0.933  10.353  0.6827 -0.2375 -0.3052
 6488SOL    HW131097   3.409   0.946  10.398  1.3247  0.4774 -1.7138
 6488SOL    HW231098   3.271   0.922  10.431  0.8099 -3.5521 -0.6801
 6489SOL     OW31099   0.505   0.436   9.250 -0.0837 -0.1923 -0.8123
 6489SOL    HW131100   0.441   0.410   9.317  1.1081  0.4502  0.5919
 6489SOL    HW231101   0.518   0.353   9.205 -0.0337 -0.6597  0.0541
 6490SOL     OW31102   3.051   3.706   7.512  0.3854  0.2197  0.4631
 6490SOL    HW131103   3.127   3.702   7.453  0.2880  1.9198  0.2042
 6490SOL    HW231104   3.046   3.613   7.531 -0.7577 -0.4983 -3.2516
 6491SOL     OW31105   2.455   3.549   8.869 -0.2911  0.3882  0.8639
 6491SOL    HW131106   2.466   3.486   8.797 -0.8977  1.2517  0.0177
 6491SOL    HW231107   2.361   3.556   8.883 -0.5961 -0.8149 -0.5064
 6492SOL     OW31108   2.804   0.146   4.848 -0.3383  1.0089 -0.5188
 6492SOL    HW131109   2.792   0.114   4.938  0.4582  2.0150 -0.0550
 6492SOL    HW231110   2.736   0.089   4.813 -0.8286 -0.3414  2.6050
 6493SOL     OW31111   0.520   2.789  11.054 -0.2383  0.4763 -0.0514
 6493SOL    HW131112   0.566   2.719  11.008 -0.1119  0.7120 -0.2816
 6493SOL    HW231113   0.510   2.756  11.143 -2.9296 -1.7978 -1.1806
 6494SOL     OW31114   0.046   4.589  14.501  0.1090 -0.2629 -0.0786
 6494SOL    HW131115   0.089   4.505  14.518 -0.2436 -0.6982 -1.3881
 6494SOL    HW231116   4.699   4.565  14.456 -0.0983 -0.6920  0.5163
 6495SOL     OW31117   2.734   2.906   2.710  0.6732  0.1397 -0.0063
 6495SOL    HW131118   2.639   2.895   2.703  0.7636  0.2893 -1.6242
 6495SOL    HW231119   2.772   2.889   2.623  0.6003 -0.6761  0.1188
 6496SOL     OW31120   1.529   2.731   3.305  0.0075 -0.0994  0.4661
 6496SOL    HW131121   1.566   2.674   3.372 -0.9175 -1.9868 -0.6468
 6496SOL    HW231122   1.469   2.771   3.368  1.1142 -0.3891  1.6787
 6497SOL     OW31123   0.333   3.267   5.011 -0.0103  0.2315  0.1620
 6497SOL    HW131124   0.361   3.304   4.927 -0.8177 -0.8568 -0.5933
 6497SOL    HW231125   0.280   3.335   5.052 -1.5495 -0.5910 -0.4439
 6498SOL     OW31126   0.534   1.199   6.845 -0.0420 -0.3432  0.0407
 6498SOL    HW131127   0.465   1.140   6.813  0.5493 -1.8700  1.5674
 6498SOL    HW231128   0.576   1.139   6.907 -1.2441 -0.3571  0.8505
 6499SOL     OW31129   0.688   1.392  10.699 -0.1948  0.1681  0.1210
 6499SOL    HW131130   0.632   1.424  10.769 -0.7756 -1.3686  0.3695
 6499SOL    HW231131   0.765   1.448  10.708  0.0553  0.0339 -1.1618
 6500SOL     OW31132   0.296   2.227   3.210 -0.4887 -0.7039  0.2520
 6500SOL    HW131133   0.366   2.167   3.183 -0.4627 -0.0301 -1.1577
 6500SOL    HW231134   0.227   2.163   3.229  0.2301 -1.4193  0.4632
 6501SOL     OW31135   1.661   0.500  17.024 -0.6754 -0.1085  0.2446
 6501SOL    HW131136   1.672   0.443  16.948 -0.2510 -0.8154  0.8287
 6501SOL    HW231137   1.605   0.448  17.082  0.1747 -2.5386 -1.0757
 6502SOL     OW31138   0.530   2.084   6.142 -0.1200  0.1715  0.5633
 6502SOL    HW131139   0.437   2.081   6.118  0.7173 -0.7442 -2.5643
 6502SOL    HW231140   0.550   2.177   6.151 -0.6439  0.1709  1.8260
 6503SOL     OW31141   0.800   3.679   1.025 -0.3736 -0.0131  0.1831
 6503SOL    HW131142   0.777   3.587   1.038 -0.6821 -0.0583 -0.6534
 6503SOL    HW231143   0.834   3.683   0.935 -0.6240  0.6389  0.1167
 6504SOL     OW31144   3.391   1.161   8.459 -0.5577  0.1853 -0.1155
 6504SOL    HW131145   3.382   1.228   8.392 -0.8531 -0.1028 -0.3602
 6504SOL    HW231146   3.305   1.160   8.501  0.4113  1.0788  1.9050
 6505SOL     OW31147   2.112   2.789   3.941 -1.0549 -0.6965  0.7426
 6505SOL    HW131148   2.072   2.859   3.993  1.4480  2.2230 -1.2555
 6505SOL    HW231149   2.207   2.801   3.944 -1.4175  2.3247  0.7676
 6506SOL     OW31150   1.669   3.352   7.112  0.2144 -0.0853  0.1212
 6506SOL    HW131151   1.598   3.311   7.063  0.1363  0.2732 -0.0704
 6506SOL    HW231152   1.678   3.284   7.179 -2.3523  1.0618  1.6623
 6507SOL     OW31153   2.628   2.902  13.095 -0.1031  0.1421 -0.5612
 6507SOL    HW131154   2.577   2.915  13.174  0.8741  0.0377  0.0855
 6507SOL    HW231155   2.585   2.823  13.063 -1.8160  0.0755  1.9560
 6508SOL     OW31156   0.846   3.051   2.843 -0.7492 -0.2031  0.1111
 6508SOL    HW131157   0.901   3.113   2.795 -1.0363 -1.5559 -1.9688
 6508SOL    HW231158   0.869   3.070   2.934  0.2974 -2.0447  0.2333
 6509SOL     OW31159   3.804   2.870   6.717  0.0967  0.7588  0.0502
 6509SOL    HW131160   3.733   2.933   6.726 -0.5411 -0.0403  0.6719
 6509SOL    HW231161   3.766   2.783   6.732  1.5464 -0.0515 -0.9026
 6510SOL     OW31162   3.343   1.386   8.958 -0.1944 -0.2641 -0.2575
 6510SOL    HW131163   3.279   1.399   9.028 -1.5012 -2.8365 -0.9674
 6510SOL    HW231164   3.385   1.308   8.995  1.0512  0.8010  0.5730
 6511SOL     OW31165   2.818   1.649   6.034 -0.2551 -0.0267 -0.2773
 6511SOL    HW131166   2.895   1.668   6.087  0.2254  0.2490 -1.0744
 6511SOL    HW231167   2.781   1.734   6.010 -3.0385 -1.3506 -0.7039
 6512SOL     OW31168   2.601   4.463   8.130  0.5439 -0.2697 -1.0118
 6512SOL    HW131169   2.507   4.463   8.148  1.1173  0.8024  1.9727
 6512SOL    HW231170   2.599   4.415   8.047 -0.9285 -0.8056 -0.6548
 6513SOL     OW31171   3.872   3.219   6.873 -0.3817 -0.5836  0.1167
 6513SOL    HW131172   3.844   3.302   6.912  1.3874  0.3485 -0.6187
 6513SOL    HW231173   3.800   3.166   6.907 -1.2171 -0.2260 -1.0880
 6514SOL     OW31174   1.976   2.602   6.283  0.3492  0.3018 -0.8806
 6514SOL    HW131175   1.970   2.589   6.188  0.0146 -3.9168 -0.2928
 6514SOL    HW231176   2.056   2.551   6.285  0.8136  1.0613  0.2348
 6515SOL     OW31177   0.994   3.194   2.669  0.5374  0.3271  0.1062
 6515SOL    HW131178   1.076   3.180   2.622 -0.2855  1.9066 -1.7820
 6515SOL    HW231179   1.011   3.279   2.710  0.1771  0.6262 -0.3585
 6516SOL     OW31180   0.335   0.505   3.202  0.2880 -0.8287  0.5125
 6516SOL    HW131181   0.331   0.474   3.111  3.4917  0.1149  0.0500
 6516SOL    HW231182   0.257   0.561   3.199  0.8274  0.0159  2.0469
 6517SOL     OW31183   2.467   2.924   5.509 -0.2423 -0.3181 -0.9012
 6517SOL    HW131184   2.468   2.871   5.588  0.9907 -1.5601 -1.7456
 6517SOL    HW231185   2.413   2.998   5.536 -1.6067 -0.9504 -1.8810
 6518SOL     OW31186   4.526   1.143  15.389 -0.3827 -0.4593  0.1889
 6518SOL    HW131187   4.515   1.080  15.317 -3.0623 -0.0297  0.2179
 6518SOL    HW231188   4.543   1.080  15.458 -0.2603 -1.4494 -0.7376
 6519SOL     OW31189   0.386   2.968   2.448 -1.1615  0.0405 -0.0940
 6519SOL    HW131190   0.302   3.012   2.432 -1.3497 -0.2421  0.1215
 6519SOL    HW231191   0.404   2.905   2.378 -0.4109 -0.7457  0.8164
 6520SOL     OW31192   3.211   1.703   7.061 -0.0602 -0.1023 -0.1425
 6520SOL    HW131193   3.206   1.755   7.142 -1.4191 -1.1049  0.4201
 6520SOL    HW231194   3.151   1.632   7.084  1.8530 -1.7733 -0.3913
 6521SOL     OW31195   2.594   3.390   9.450 -0.3180 -0.1415 -0.0666
 6521SOL    HW131196   2.652   3.378   9.375  0.4489 -2.1678  0.8250
 6521SOL    HW231197   2.549   3.472   9.430  0.6601  0.8520  1.7542
 6522SOL     OW31198   0.061   2.765  10.709  0.1627  0.2178  0.0711
 6522SOL    HW131199   0.126   2.780  10.777  0.7828  1.3646 -0.7808
 6522SOL    HW231200   0.082   2.822  10.635  0.0600 -0.5132 -0.5197
 6523SOL     OW31201   2.170   3.643  16.107  0.3034 -0.5771  0.4926
 6523SOL    HW131202   2.181   3.738  16.098  1.8527 -0.7885  0.1453
 6523SOL    HW231203   2.108   3.637  16.179 -1.6866  0.3201 -1.1328
 6524SOL     OW31204   1.614   0.116   3.198 -0.2952  0.0891  0.2546
 6524SOL    HW131205   1.700   0.118   3.156  0.4205  1.6748  1.7994
 6524SOL    HW231206   1.625   0.149   3.288 -0.3945 -1.6964  0.9264
 6525SOL     OW31207   3.200   0.704   4.038  0.0929  0.0764 -0.3702
 6525SOL    HW131208   3.239   0.711   3.951  3.1112  2.8929  1.2192
 6525SOL    HW231209   3.214   0.611   4.056 -0.2192 -0.2825 -2.0084
 6526SOL     OW31210   0.740   3.857   5.222 -0.7155 -0.6176 -0.1428
 6526SOL    HW131211   0.725   3.892   5.134 -1.3856  0.9325  0.5865
 6526SOL    HW231212   0.722   3.930   5.281  1.8142 -0.4316  0.4040
 6527SOL     OW31213   0.480   0.551   1.662 -0.2657 -0.5470 -0.3343
 6527SOL    HW131214   0.540   0.507   1.722 -2.4773 -0.5439  1.8893
 6527SOL    HW231215   0.545   0.603   1.614  1.7524 -0.4462  2.4897
 6528SOL     OW31216   1.420   1.875   6.130  0.1529 -1.5578  0.0510
 6528SOL    HW131217   1.440   1.900   6.039 -1.8605  1.2447  0.3787
 6528SOL    HW231218   1.413   1.780   6.120 -3.8580 -1.2479 -0.1573
 6529SOL     OW31219   0.933   0.662   6.396 -0.2731 -0.1416  0.0060
 6529SOL    HW131220   0.857   0.666   6.338  1.1677 -0.6162 -1.8824
 6529SOL    HW231221   0.891   0.716   6.463 -1.2782 -0.7405 -0.1296
 6530SOL     OW31222   3.055   2.412   6.735 -0.1187 -1.0629  0.0936
 6530SOL    HW131223   2.991   2.377   6.797 -0.5301  1.3650  1.0425
 6530SOL    HW231224   3.132   2.419   6.792  0.8310 -0.7088 -1.2332
 6531SOL     OW31225   0.722   4.040   5.425  0.1770  0.9065 -0.4587
 6531SOL    HW131226   0.640   4.088   5.409  0.6552  2.5108  1.8722
 6531SOL    HW231227   0.774   4.110   5.465 -0.1301  0.3136  1.0039
 6532SOL     OW31228   0.782   0.378   3.002  0.4551 -0.2407 -0.0893
 6532SOL    HW131229   0.785   0.284   2.985 -0.2147 -0.1833 -0.5599
 6532SOL    HW231230   0.863   0.408   2.961  0.4719  0.7457  0.6634
 6533SOL     OW31231   4.086   2.441   6.865  0.1976 -0.3437  0.7430
 6533SOL    HW131232   4.127   2.356   6.850  1.4473  0.4340 -0.1721
 6533SOL    HW231233   4.056   2.455   6.775  0.3709  0.4197  0.8053
 6534SOL     OW31234   0.690   0.890   2.865  0.7071  0.4886  0.4609
 6534SOL    HW131235   0.645   0.851   2.940 -3.0755  1.2929 -1.4161
 6534SOL    HW231236   0.631   0.870   2.792 -0.4278 -1.3990  1.8881
 6535SOL     OW31237   1.328   4.605   1.286 -0.0439 -0.4822  0.0700
 6535SOL    HW131238   1.356   4.559   1.206  0.6515 -0.3195  0.2229
 6535SOL    HW231239   1.253   4.651   1.249 -1.7573 -1.0475  2.7899
 6536SOL     OW31240   3.777   1.064   7.174 -0.2470  0.4310  0.4190
 6536SOL    HW131241   3.698   1.041   7.126 -0.2963 -1.4240  1.3883
 6536SOL    HW231242   3.804   0.972   7.176 -0.4735  0.4185  3.6678
 6537SOL     OW31243   1.819   1.869   6.109 -0.3453 -0.5406  0.2330
 6537SOL    HW131244   1.800   1.848   6.201  0.3640 -0.8438  0.3043
 6537SOL    HW231245   1.741   1.835   6.064 -0.7575  0.0832  0.4635
 6538SOL     OW31246   3.778   3.340   7.980  0.0512 -0.1250  0.2228
 6538SOL    HW131247   3.694   3.351   8.023  0.0100 -0.4001  0.2148
 6538SOL    HW231248   3.836   3.326   8.056 -0.1541  1.2382  0.6257
 6539SOL     OW31249   3.160   0.785  17.019  0.3375  0.2782  0.5314
 6539SOL    HW131250   3.073   0.757  16.990  0.5214  0.9836 -0.6968
 6539SOL    HW231251   3.206   0.786  16.935  1.2797  1.5311  1.0681
 6540SOL     OW31252   3.841   3.749   3.906 -0.3800  0.1599 -0.4445
 6540SOL    HW131253   3.768   3.807   3.885 -1.4230 -1.2129 -0.5565
 6540SOL    HW231254   3.907   3.785   3.847 -0.9210  1.0580 -0.4986
 6541SOL     OW31255   2.215   0.954   7.958 -0.3638  0.4643  0.1367
 6541SOL    HW131256   2.304   0.990   7.958  0.2224 -0.9636 -1.0991
 6541SOL    HW231257   2.169   1.028   7.919  1.7013  0.7880 -1.6679
 6542SOL     OW31258   3.981   4.280  10.986  0.3616  0.2687 -0.1989
 6542SOL    HW131259   3.959   4.335  10.910 -2.7844  1.1095  1.3167
 6542SOL    HW231260   3.966   4.334  11.063  1.8746 -0.4763  0.6109
 6543SOL     OW31261   1.351   1.979  13.837 -0.2231 -0.4359 -0.6148
 6543SOL    HW131262   1.412   1.951  13.905 -0.3033  0.2150 -0.2816
 6543SOL    HW231263   1.268   1.933  13.850 -1.8637  2.2754 -1.6034
 6544SOL     OW31264   1.378   4.491   9.289 -0.0658 -0.7639 -0.9597
 6544SOL    HW131265   1.297   4.490   9.341  0.5797  2.5506  0.1677
 6544SOL    HW231266   1.442   4.466   9.356 -0.5146 -0.0912 -0.2742
 6545SOL     OW31267   0.718   1.312  14.241  0.4583 -0.5035  0.3889
 6545SOL    HW131268   0.753   1.335  14.155 -1.3371 -1.6405 -0.6526
 6545SOL    HW231269   0.792   1.345  14.292  0.5802 -0.6587  0.3111
 6546SOL     OW31270   2.003   0.925   9.613 -0.2349  0.0192 -0.1738
 6546SOL    HW131271   1.978   0.932   9.521 -1.7727  0.6727  0.2857
 6546SOL    HW231272   2.031   1.016   9.620  0.0718  0.0422 -1.5970
 6547SOL     OW31273   3.787   0.087   9.144 -0.3321  0.5225  0.2575
 6547SOL    HW131274   3.837   0.042   9.212 -0.0775 -1.2854 -1.1015
 6547SOL    HW231275   3.821   0.044   9.065 -0.4136  1.2364 -0.1568
 6548SOL     OW31276   3.068   1.004   4.323  0.0933  0.3635 -0.0050
 6548SOL    HW131277   3.008   0.956   4.381  0.1076 -1.5088 -1.5288
 6548SOL    HW231278   3.067   1.086   4.372 -1.0707  0.3943 -0.0712
 6549SOL     OW31279   3.471   1.947   9.535  0.2261 -0.4374 -0.6654
 6549SOL    HW131280   3.481   2.013   9.604  0.3245  0.8701 -1.9274
 6549SOL    HW231281   3.557   1.905   9.533 -0.6460 -2.1616 -1.3959
 6550SOL     OW31282   1.531   0.846   1.777 -0.2574 -0.2821  0.0037
 6550SOL    HW131283   1.543   0.883   1.865  0.5718 -1.7736  0.5115
 6550SOL    HW231284   1.581   0.912   1.729 -1.6254  1.8941  1.5767
 6551SOL     OW31285   3.853   0.084   3.123 -0.4775  0.0630  0.7312
 6551SOL    HW131286   3.817   0.021   3.185 -2.5994  2.0641  1.5105
 6551SOL    HW231287   3.856   0.039   3.039  1.3693  1.4431  0.0689
 6552SOL     OW31288   0.154   2.700   8.210  0.8192  0.2913  0.4034
 6552SOL    HW131289   0.088   2.738   8.151  0.1558  0.7104  1.4088
 6552SOL    HW231290   0.103   2.632   8.255 -2.3132  0.2023 -3.2719
 6553SOL     OW31291   4.025   3.390   3.302 -0.3611 -0.0913  0.0423
 6553SOL    HW131292   4.020   3.306   3.257 -1.5829  0.6936 -1.2686
 6553SOL    HW231293   4.120   3.386   3.319 -0.5453 -1.9928  0.6728
 6554SOL     OW31294   2.524   2.458   4.645  0.2154 -0.1945 -0.2139
 6554SOL    HW131295   2.584   2.392   4.611  0.8062 -0.0078  0.4820
 6554SOL    HW231296   2.565   2.468   4.731  0.0749  0.8602 -0.2748
 6555SOL     OW31297   1.851   1.663   8.735  0.7345 -0.2862  0.3293
 6555SOL    HW131298   1.871   1.746   8.777 -1.1589  0.4141 -0.1424
 6555SOL    HW231299   1.788   1.690   8.668  1.6110  0.2185 -0.2851
 6556SOL     OW31300   4.604   3.694   1.134 -0.4855 -0.2396  0.5864
 6556SOL    HW131301   4.537   3.634   1.167 -0.4917 -0.1032  0.8234
 6556SOL    HW231302   4.668   3.637   1.092  0.5780  0.6290  1.0275
 6557SOL     OW31303   0.014   3.341   7.417 -0.2523 -0.3450 -0.0274
 6557SOL    HW131304   0.014   3.431   7.450 -2.3284 -0.8398  1.2721
 6557SOL    HW231305   4.699   3.349   7.335 -0.6034  0.5445  0.2769
 6558SOL     OW31306   1.836   2.541   2.057 -0.5135 -1.1821 -0.1985
 6558SOL    HW131307   1.865   2.456   2.090  1.2717  0.5050  2.5481
 6558SOL    HW231308   1.921   2.567   2.021 -0.4768 -0.1801  0.6018
 6559SOL     OW31309   3.998   4.127   5.393 -0.1974  0.0261 -0.0131
 6559SOL    HW131310   3.919   4.096   5.348  0.2809  1.0724 -1.5818
 6559SOL    HW231311   3.969   4.140   5.483  0.3444  3.6217 -0.3492
 6560SOL     OW31312   2.551   1.754   4.809 -0.2500  0.1763 -0.7498
 6560SOL    HW131313   2.638   1.734   4.843  0.9724 -0.4638 -4.1845
 6560SOL    HW231314   2.568   1.741   4.715 -0.9837 -0.6671 -0.7696
 6561SOL     OW31315   0.873   1.419   9.606 -0.2838 -0.2080 -0.0793
 6561SOL    HW131316   0.850   1.503   9.647  0.3509 -0.0163 -0.1202
 6561SOL    HW231317   0.900   1.374   9.686  0.8885 -0.9419 -0.8902
 6562SOL     OW31318   1.735   2.337   2.746 -0.0427 -0.4854  0.4470
 6562SOL    HW131319   1.764   2.345   2.655  0.9348 -1.3467  0.6822
 6562SOL    HW231320   1.711   2.245   2.753 -1.5650 -0.0861  0.3114
 6563SOL     OW31321   4.476   2.899  17.670 -0.0465 -0.2772 -0.5302
 6563SOL    HW131322   4.409   2.837  17.640 -1.1052  0.1322  0.9747
 6563SOL    HW231323   4.550   2.839  17.671 -0.9454 -1.3781  0.4145
 6564SOL     OW31324   1.811   0.267   3.663 -0.1730  0.1613 -1.2519
 6564SOL    HW131325   1.733   0.239   3.615  0.1131 -1.5048 -0.7318
 6564SOL    HW231326   1.821   0.193   3.723 -2.4937  0.3496 -0.6213
 6565SOL     OW31327   2.888   3.712  14.236 -0.0039  0.2704 -0.0135
 6565SOL    HW131328   2.929   3.740  14.317  0.3968  1.9807 -0.7993
 6565SOL    HW231329   2.879   3.621  14.263  0.4881  0.5207  0.9795
 6566SOL     OW31330   3.943   1.052   5.326 -0.2630  0.3026 -0.3447
 6566SOL    HW131331   4.011   0.985   5.319 -1.1344 -0.3814 -2.3167
 6566SOL    HW231332   3.865   1.005   5.296 -0.0038  0.4513 -1.2622
 6567SOL     OW31333   2.676   2.956   5.331 -0.4699 -0.4448  0.4287
 6567SOL    HW131334   2.662   3.040   5.287  4.7939  0.5659  0.6017
 6567SOL    HW231335   2.605   2.959   5.395 -0.0724 -0.9181  0.8894
 6568SOL     OW31336   3.655   2.508   5.058 -0.7309  0.0508 -0.0210
 6568SOL    HW131337   3.577   2.458   5.081  0.1300  0.3078  3.4901
 6568SOL    HW231338   3.716   2.459   5.113  0.1681  1.6123  0.3782
 6569SOL     OW31339   0.468   2.606   2.906 -0.4676  0.4818 -0.1234
 6569SOL    HW131340   0.402   2.636   2.844 -0.3751 -3.0250 -1.9327
 6569SOL    HW231341   0.538   2.599   2.841 -1.0712 -0.2585 -0.6870
 6570SOL     OW31342   1.087   1.583  14.072 -0.3698 -0.1359 -0.2003
 6570SOL    HW131343   1.154   1.538  14.019  0.9268  0.4994  0.9196
 6570SOL    HW231344   1.057   1.654  14.016  0.6886  0.4525 -0.0154
 6571SOL     OW31345   3.067   3.317   3.085  0.3658 -0.4140 -0.4865
 6571SOL    HW131346   2.978   3.351   3.076  1.1434  0.8131 -3.3564
 6571SOL    HW231347   3.044   3.237   3.134  0.3605  0.9617  1.7565
 6572SOL     OW31348   1.244   2.219   3.117  0.4349 -0.5429 -0.0792
 6572SOL    HW131349   1.259   2.165   3.196  0.2674  0.1431  0.4203
 6572SOL    HW231350   1.332   2.255   3.113  0.7642 -1.1445  1.3985
 6573SOL     OW31351   2.371   4.644   2.869 -0.2697 -0.4110 -0.2296
 6573SOL    HW131352   2.281   4.667   2.893  0.3591  2.9462 -1.0642
 6573SOL    HW231353   2.394   4.700   2.795  0.0953  0.5401  0.5891
 6574SOL     OW31354   2.152   1.961   1.279  0.3401  0.2162 -0.2395
 6574SOL    HW131355   2.239   1.968   1.317  0.0364  1.0491  0.2970
 6574SOL    HW231356   2.141   2.045   1.236  0.1501 -0.4874 -1.5797
 6575SOL     OW31357   2.102   1.286   8.901 -0.0999 -0.4053 -0.2408
 6575SOL    HW131358   2.179   1.230   8.916  0.7121  0.8268  0.2128
 6575SOL    HW231359   2.078   1.311   8.990 -0.9192 -0.2734 -0.5061
 6576SOL     OW31360   1.645   3.912  17.085  0.0542 -0.0545  0.2212
 6576SOL    HW131361   1.622   3.882  16.997 -1.5168 -2.5664  1.4960
 6576SOL    HW231362   1.704   3.844  17.118  1.0543 -0.5249 -2.5558
 6577SOL     OW31363   2.054   3.405   2.285 -0.2401  0.1574 -0.0355
 6577SOL    HW131364   1.993   3.334   2.266 -1.7151  0.9405  1.7539
 6577SOL    HW231365   1.991   3.472   2.312 -0.0164  0.2110  0.3514
 6578SOL     OW31366   3.834   4.426   7.076 -0.0622  0.1244 -0.5591
 6578SOL    HW131367   3.837   4.352   7.137  0.0073 -0.3852 -1.1820
 6578SOL    HW231368   3.749   4.457   7.109  0.3889  0.8434 -0.0569
 6579SOL     OW31369   2.852   2.707   7.440  0.2035 -0.5799  0.3744
 6579SOL    HW131370   2.843   2.800   7.418  3.5375 -0.2546  0.4397
 6579SOL    HW231371   2.788   2.666   7.382 -2.0122 -0.2530  2.5947
 6580SOL     OW31372   1.851   4.579  12.308  0.0068 -0.1321  0.7030
 6580SOL    HW131373   1.884   4.489  12.316  1.5172  0.3086 -0.6337
 6580SOL    HW231374   1.827   4.579  12.216  0.5616 -2.5411  0.5543
 6581SOL     OW31375   1.111   3.112   8.370 -0.1857  0.1360 -0.3284
 6581SOL    HW131376   1.026   3.156   8.372 -0.1021  0.2461  1.1689
 6581SOL    HW231377   1.166   3.190   8.362 -0.5706  0.3524 -0.9134
 6582SOL     OW31378   0.157   3.830  17.385  0.3858  0.5233 -0.3716
 6582SOL    HW131379   0.081   3.821  17.442 -0.5032  2.3200 -1.2827
 6582SOL    HW231380   0.145   3.758  17.323 -3.6058  2.4145 -1.7713
 6583SOL     OW31381   0.182   2.454   6.728 -0.0624  0.0469 -0.6473
 6583SOL    HW131382   0.230   2.509   6.666  2.6791 -0.3095  1.1561
 6583SOL    HW231383   0.203   2.367   6.696  3.1388  0.2329  1.0125
 6584SOL     OW31384   2.505   4.196  16.034 -1.3463 -0.8073 -0.2987
 6584SOL    HW131385   2.520   4.288  16.058  1.1342 -0.7597 -1.9936
 6584SOL    HW231386   2.477   4.210  15.943 -1.3626  1.2539  0.0268
 6585SOL     OW31387   0.155   0.126  14.017  0.5233  0.0938 -0.3862
 6585SOL    HW131388   0.184   0.101  14.105  1.2466  0.4519 -0.5229
 6585SOL    HW231389   0.235   0.170  13.988  0.6772  0.6118  0.7999
 6586SOL     OW31390   2.059   2.540   0.849  0.2909  0.5263  0.5088
 6586SOL    HW131391   2.120   2.466   0.847 -0.2181  0.1662 -1.4084
 6586SOL    HW231392   2.077   2.577   0.935 -0.3601 -1.0548  1.3365
 6587SOL     OW31393   0.855   3.501   6.015 -0.0394  0.3919 -0.2450
 6587SOL    HW131394   0.857   3.446   6.094  2.0131 -0.1364 -0.6683
 6587SOL    HW231395   0.915   3.573   6.033 -0.0926 -0.0780  1.7734
 6588SOL     OW31396   2.158   0.521   7.201 -0.8005 -0.3227 -0.3144
 6588SOL    HW131397   2.176   0.526   7.295 -0.0301 -1.9923 -0.3784
 6588SOL    HW231398   2.153   0.427   7.187 -2.1849 -0.3279  0.2406
 6589SOL     OW31399   0.907   4.642   2.461 -0.0568  0.2456 -0.2487
 6589SOL    HW131400   0.833   4.635   2.400  0.3687  1.6721 -0.9560
 6589SOL    HW231401   0.964   4.643   2.383 -0.9076  1.1800 -0.8630
 6590SOL     OW31402   1.607   2.884   6.418 -0.7295 -0.0385 -0.0786
 6590SOL    HW131403   1.526   2.899   6.467 -1.3774 -0.0790 -1.1304
 6590SOL    HW231404   1.588   2.799   6.378  0.1650 -1.0516  1.6660
 6591SOL     OW31405   4.375   2.374   6.621 -0.2197 -0.0460  0.1836
 6591SOL    HW131406   4.401   2.340   6.706  0.4786  0.3670  0.1325
 6591SOL    HW231407   4.437   2.446   6.609  1.7209 -1.8560 -0.8212
 6592SOL     OW31408   4.573   3.509   2.444  0.2604  0.2783  0.2081
 6592SOL    HW131409   4.544   3.592   2.483  0.0765  0.2453  0.1415
 6592SOL    HW231410   4.618   3.465   2.515 -1.9584 -1.6488  0.4214
 6593SOL     OW31411   1.268   1.820   8.668 -0.6076 -0.4809 -0.3481
 6593SOL    HW131412   1.211   1.765   8.721 -0.1403 -1.1966 -0.5864
 6593SOL    HW231413   1.343   1.801   8.725 -0.5119  3.2947  0.8079
 6594SOL     OW31414   1.977   1.060   4.343 -0.1483 -0.2067  0.1391
 6594SOL    HW131415   1.956   1.146   4.307  1.0911  1.3008  3.0803
 6594SOL    HW231416   1.932   0.998   4.285  1.5668 -0.3117 -1.0720
 6595SOL     OW31417   4.196   2.866   9.082 -0.0956 -0.0881 -0.7374
 6595SOL    HW131418   4.158   2.781   9.060 -0.2752 -0.2150  0.0754
 6595SOL    HW231419   4.218   2.853   9.174 -1.9707  0.2366 -0.2396
 6596SOL     OW31420   4.549   3.830   5.689  0.3951  0.1418  0.6645
 6596SOL    HW131421   4.626   3.775   5.702 -0.5694 -1.2305  0.6334
 6596SOL    HW231422   4.476   3.768   5.688  1.2892 -0.7931 -4.3316
 6597SOL     OW31423   1.686   3.977  11.526 -0.5629  0.1236 -0.1685
 6597SOL    HW131424   1.670   3.918  11.600  2.3446 -0.5135 -0.0482
 6597SOL    HW231425   1.749   4.041  11.558 -0.6342  1.1643 -2.0930
 6598SOL     OW31426   1.935   0.270   4.716 -0.6472 -0.0006 -0.3747
 6598SOL    HW131427   1.932   0.182   4.678  0.5278  0.4587 -1.5271
 6598SOL    HW231428   1.990   0.255   4.793 -0.0877 -0.6977 -0.9071
 6599SOL     OW31429   1.033   2.371   5.471 -0.5637  0.4569 -0.4136
 6599SOL    HW131430   0.960   2.310   5.468  0.1492 -0.4077 -0.2840
 6599SOL    HW231431   1.030   2.417   5.387 -0.7324 -1.7465 -1.6015
 6600SOL     OW31432   1.071   2.727   7.509  0.7344 -0.2654 -0.6830
 6600SOL    HW131433   1.137   2.764   7.449  0.0143  2.4301  0.1782
 6600SOL    HW231434   1.000   2.700   7.450 -0.4820  2.5371 -0.5070
 6601SOL     OW31435   1.613   0.875   4.292  0.0032 -0.1011 -0.1006
 6601SOL    HW131436   1.590   0.960   4.254 -2.3037 -1.1401 -0.9925
 6601SOL    HW231437   1.698   0.854   4.254 -0.4242 -1.5034 -0.2581
 6602SOL     OW31438   0.584   4.556   2.729 -0.1701  0.0354 -0.1041
 6602SOL    HW131439   0.679   4.554   2.742  0.0110 -0.7965 -1.6801
 6602SOL    HW231440   0.588   4.477   2.676 -1.7374  0.4924 -0.9158
 6603SOL     OW31441   2.940   3.636   1.478 -0.2991 -0.5404  0.2408
 6603SOL    HW131442   3.027   3.675   1.493  0.1122 -0.8712 -1.3407
 6603SOL    HW231443   2.969   3.548   1.503  2.1757 -0.3430 -1.9407
 6604SOL     OW31444   3.414   1.347   0.657  0.1321  0.0270  0.2996
 6604SOL    HW131445   3.334   1.316   0.614 -0.1560  0.9518  0.1852
 6604SOL    HW231446   3.411   1.307   0.744 -0.4491  1.4522  0.9353
 6605SOL     OW31447   0.114   1.524  10.886 -0.3121 -0.5725  0.2583
 6605SOL    HW131448   0.141   1.539  10.795  0.5038 -0.1852  0.5700
 6605SOL    HW231449   0.045   1.588  10.904  0.9523  0.8864 -0.0741
 6606SOL     OW31450   2.951   1.342   7.814 -0.3697  0.3257 -0.6059
 6606SOL    HW131451   2.997   1.320   7.896 -2.5019  1.0012  0.7851
 6606SOL    HW231452   2.862   1.362   7.843  0.4181  1.5362  1.0223
 6607SOL     OW31453   1.025   4.712  17.243 -0.8225  0.0606 -1.1140
 6607SOL    HW131454   1.022   0.012  17.154 -1.6728 -0.6840 -1.3722
 6607SOL    HW231455   1.105   4.661  17.228 -1.6406 -1.5625 -0.0039
 6608SOL     OW31456   1.543   1.534   5.802  0.4551  0.0239  1.0627
 6608SOL    HW131457   1.461   1.498   5.768  0.9190  0.4165 -0.4858
 6608SOL    HW231458   1.586   1.455   5.835 -0.1172 -1.1456 -0.9525
 6609SOL     OW31459   3.745   1.758   3.767 -0.8297 -0.2338 -0.2792
 6609SOL    HW131460   3.813   1.721   3.824 -0.5053  0.6390 -0.0967
 6609SOL    HW231461   3.660   1.726   3.798 -0.9976  0.2910 -0.2035
 6610SOL     OW31462   0.673   4.429  15.632 -1.0959 -0.3172 -0.3983
 6610SOL    HW131463   0.753   4.457  15.589 -1.4379 -0.5108 -1.1585
 6610SOL    HW231464   0.613   4.423  15.558  0.6853 -1.8720 -1.7096
 6611SOL     OW31465   2.397   3.328   4.169  0.0561 -0.1901  0.3373
 6611SOL    HW131466   2.365   3.402   4.117  1.8972  1.4526  1.5592
 6611SOL    HW231467   2.353   3.255   4.125 -1.6728  2.4900 -2.3914
 6612SOL     OW31468   3.447   2.370   5.115  0.4044  0.1134  0.3650
 6612SOL    HW131469   3.459   2.281   5.081  0.3807  0.4882 -0.6407
 6612SOL    HW231470   3.368   2.354   5.166  1.3786 -1.7948  1.2694
 6613SOL     OW31471   3.163   2.996   9.295 -0.7125  0.0452 -0.1583
 6613SOL    HW131472   3.112   2.923   9.258 -0.2494 -0.8469  0.9643
 6613SOL    HW231473   3.091   3.039   9.342 -0.7343 -1.3851  1.1126
 6614SOL     OW31474   2.400   3.701   7.551  0.2480 -0.0994  0.1100
 6614SOL    HW131475   2.326   3.674   7.497  0.6431 -1.2686  0.1434
 6614SOL    HW231476   2.367   3.785   7.583  0.8472 -0.1686  0.9208
 6615SOL     OW31477   4.415   2.283   7.294 -0.2456 -0.6062  0.1759
 6615SOL    HW131478   4.331   2.246   7.265  0.5599  0.2841 -3.2876
 6615SOL    HW231479   4.409   2.277   7.389 -1.9389 -2.8772 -0.0534
 6616SOL     OW31480   2.699   1.782   1.678  0.0129 -0.0901 -0.2682
 6616SOL    HW131481   2.686   1.757   1.769  1.0293  0.1971 -0.0444
 6616SOL    HW231482   2.775   1.839   1.685 -0.2623 -0.0260  2.0146
 6617SOL     OW31483   1.890   3.454   1.555  0.0896  0.3242  0.0867
 6617SOL    HW131484   1.933   3.450   1.470 -1.5180  1.6980 -0.8050
 6617SOL    HW231485   1.808   3.496   1.528  1.6940  1.0275 -3.6461
 6618SOL     OW31486   0.111   0.717  11.707  0.0303  0.3203 -0.6537
 6618SOL    HW131487   0.071   0.662  11.640  0.9197 -1.5526  0.3653
 6618SOL    HW231488   0.194   0.670  11.711 -0.1949 -0.0841 -0.7460
 6619SOL     OW31489   0.262   2.287  11.406  0.3964 -0.3449  1.0503
 6619SOL    HW131490   0.318   2.318  11.478  0.7077  0.3509  0.5099
 6619SOL    HW231491   0.179   2.280  11.454 -0.3039  0.3397 -0.0429
 6620SOL     OW31492   0.347   4.568   5.392  0.3060  0.1492 -0.2994
 6620SOL    HW131493   0.288   4.618   5.336  0.7757  0.9442 -0.0735
 6620SOL    HW231494   0.324   4.480   5.361 -0.0085  0.1461 -0.0627
 6621SOL     OW31495   1.069   0.903  17.141 -0.1564 -0.4392  0.3365
 6621SOL    HW131496   1.000   0.875  17.080  0.8013 -2.2068  0.0553
 6621SOL    HW231497   1.146   0.892  17.086 -1.5101 -2.3042 -1.2059
 6622SOL     OW31498   0.049   0.077   5.990  0.2399  0.2199 -0.4565
 6622SOL    HW131499   0.009   0.129   5.921  0.6679 -0.4008 -1.1743
 6622SOL    HW231500   0.046   4.727   5.944  0.6086 -0.4479  0.7164
 6623SOL     OW31501   1.515   1.738   8.783  0.4526  0.5118  0.1094
 6623SOL    HW131502   1.568   1.807   8.744  1.5448 -0.1070  0.4911
 6623SOL    HW231503   1.559   1.666   8.738 -1.6801 -0.6117 -0.2110
 6624SOL     OW31504   1.512   0.311  15.518 -0.4687  0.1343 -0.0043
 6624SOL    HW131505   1.459   0.235  15.493  1.6752 -0.5851 -2.3677
 6624SOL    HW231506   1.441   0.352  15.567 -0.9486  1.3043 -1.6725
 6625SOL     OW31507   4.009   0.316   5.066  0.1916  0.1539 -0.0155
 6625SOL    HW131508   4.068   0.391   5.059  1.2572 -0.6605  0.1874
 6625SOL    HW231509   4.010   0.285   4.976  0.4146  1.4629 -0.4674
 6626SOL     OW31510   4.585   0.533  16.336 -0.4685 -0.5700  0.0236
 6626SOL    HW131511   4.560   0.625  16.332 -0.1063 -0.3811  1.9553
 6626SOL    HW231512   4.677   0.543  16.310 -1.0947 -0.9872 -2.3254
 6627SOL     OW31513   2.043   0.296  14.077 -0.3814 -0.2487  0.1864
 6627SOL    HW131514   1.959   0.250  14.084 -1.3641  1.4289 -0.4163
 6627SOL    HW231515   2.028   0.383  14.116 -0.6301  0.5204 -1.6227
 6628SOL     OW31516   1.451   3.793   2.445 -0.6802  0.2723 -0.2268
 6628SOL    HW131517   1.393   3.865   2.422 -1.4453 -0.8974 -1.9258
 6628SOL    HW231518   1.405   3.721   2.401  0.0436 -0.4622  0.2109
 6629SOL     OW31519   3.949   1.622   3.874 -0.1626  0.4559  0.3006
 6629SOL    HW131520   3.982   1.533   3.884  1.1548  0.9214  0.0673
 6629SOL    HW231521   4.030   1.670   3.859 -0.1190  0.6792  1.2484
 6630SOL     OW31522   1.076   3.123  15.665 -0.0747 -0.7359  0.1785
 6630SOL    HW131523   1.028   3.183  15.607 -1.0018 -1.0638  0.6057
 6630SOL    HW231524   1.157   3.148  15.620 -0.4631  2.0509  1.0414
 6631SOL     OW31525   2.729   2.110   8.978  0.0523  0.2275  0.4291
 6631SOL    HW131526   2.816   2.073   8.970 -0.7068 -0.8900 -2.5389
 6631SOL    HW231527   2.748   2.192   9.023  1.7982  0.1568 -0.1882
 6632SOL     OW31528   3.395   0.615   8.636 -0.6207 -0.4065 -0.4103
 6632SOL    HW131529   3.403   0.635   8.543 -0.5119  1.4868 -0.0007
 6632SOL    HW231530   3.485   0.585   8.649  0.5966  2.1694 -2.8803
 6633SOL     OW31531   2.749   3.061   2.016 -0.4445 -0.0665 -0.1490
 6633SOL    HW131532   2.662   3.096   2.032 -1.3312 -2.2557 -0.0911
 6633SOL    HW231533   2.802   3.138   1.998 -2.9342  1.1559 -2.2477
 6634SOL     OW31534   3.711   4.196   6.749  0.0721  0.3317  0.1731
 6634SOL    HW131535   3.800   4.204   6.784  0.3739  0.1503 -0.5450
 6634SOL    HW231536   3.654   4.192   6.826 -1.9827 -0.4266 -1.3871
 6635SOL     OW31537   3.841   0.471   2.518 -0.0462 -0.4059 -0.1899
 6635SOL    HW131538   3.770   0.519   2.476 -2.4263 -2.9808  0.8725
 6635SOL    HW231539   3.863   0.410   2.447 -2.8425 -1.1232 -0.4422
 6636SOL     OW31540   3.133   2.236  13.930  0.4987 -0.6327  0.4012
 6636SOL    HW131541   3.203   2.271  13.984 -2.2615  3.2721  1.4351
 6636SOL    HW231542   3.054   2.289  13.945 -0.6133 -2.0415 -0.5325
 6637SOL     OW31543   4.105   4.511   1.434 -0.1565  0.4466 -0.1348
 6637SOL    HW131544   4.050   4.498   1.511 -0.0367 -1.3780 -0.3447
 6637SOL    HW231545   4.185   4.463   1.456 -0.2269  0.3549 -0.0777
 6638SOL     OW31546   4.623   1.591   5.403  0.5792 -0.4884 -0.3532
 6638SOL    HW131547   4.660   1.601   5.315 -2.1399  2.3591 -1.1515
 6638SOL    HW231548   4.655   1.505   5.429  0.3516 -0.2966  0.5468
 6639SOL     OW31549   2.259   2.781   2.952 -0.2448 -0.1263  0.2674
 6639SOL    HW131550   2.238   2.784   2.858 -0.3882 -1.4727  0.2545
 6639SOL    HW231551   2.264   2.873   2.975 -1.1016  0.3003 -1.2335
 6640SOL     OW31552   4.029   1.039   3.254  0.3079  0.1716  0.5494
 6640SOL    HW131553   4.033   0.945   3.271 -1.8130 -0.1914 -1.0246
 6640SOL    HW231554   4.104   1.049   3.195 -1.0346 -1.9046 -1.5552
 6641SOL     OW31555   2.785   1.104  15.193  0.1733 -0.4272 -0.2337
 6641SOL    HW131556   2.804   1.034  15.131  0.1545 -0.1992 -0.4970
 6641SOL    HW231557   2.845   1.073  15.261 -0.2931 -1.1576 -0.1572
 6642SOL     OW31558   3.464   3.959   6.966  0.5552  0.2814  0.3437
 6642SOL    HW131559   3.377   3.992   6.948  0.3845  0.3333  1.2957
 6642SOL    HW231560   3.532   4.023   6.945 -0.4452  0.8214 -1.1998
 6643SOL     OW31561   2.916   3.339   7.589  0.4721  0.1775 -0.7658
 6643SOL    HW131562   2.889   3.372   7.675 -0.2670 -1.0978 -0.5065
 6643SOL    HW231563   2.979   3.269   7.609 -0.0998 -0.5532 -1.5300
 6644SOL     OW31564   3.665   3.752   7.702 -0.1883  0.0329 -0.4591
 6644SOL    HW131565   3.617   3.680   7.661  1.0034  0.0494 -1.8612
 6644SOL    HW231566   3.743   3.712   7.739 -0.2386 -0.6576 -1.1007
 6645SOL     OW31567   1.357   1.271   3.233  1.1416 -0.0202 -0.3018
 6645SOL    HW131568   1.411   1.224   3.297  0.6083  1.4548  1.2194
 6645SOL    HW231569   1.339   1.352   3.280 -1.0781 -1.6532  1.6529
 6646SOL     OW31570   0.376   1.770   4.913 -0.4240  0.0819  0.3263
 6646SOL    HW131571   0.357   1.846   4.969  0.2974  0.0215  0.6664
 6646SOL    HW231572   0.437   1.727   4.974 -0.0517 -0.2828 -0.3099
 6647SOL     OW31573   1.338   2.462   7.314  0.2965  0.2451  0.0913
 6647SOL    HW131574   1.336   2.558   7.312 -1.3232  0.1855 -0.8524
 6647SOL    HW231575   1.425   2.441   7.280  0.2376 -1.4482  0.9891
 6648SOL     OW31576   0.878   3.276   2.196 -0.1867 -0.4054  0.4731
 6648SOL    HW131577   0.961   3.229   2.192 -0.6161 -1.2344  1.2676
 6648SOL    HW231578   0.840   3.226   2.268 -0.6645  0.7101  0.9815
 6649SOL     OW31579   1.798   1.660  17.334  0.4138  0.3303 -0.0214
 6649SOL    HW131580   1.796   1.700  17.421  0.0327 -1.8659  0.9849
 6649SOL    HW231581   1.704   1.646  17.321  0.9107 -1.1101 -2.1796
 6650SOL     OW31582   4.221   2.461   2.408  0.4914 -0.0654  0.1002
 6650SOL    HW131583   4.171   2.527   2.456  3.0085  2.2371 -0.4625
 6650SOL    HW231584   4.310   2.495   2.419  1.0852 -1.4747 -0.3110
 6651SOL     OW31585   4.589   2.181  12.651  0.0220 -0.8511 -0.7769
 6651SOL    HW131586   4.569   2.136  12.733 -1.2496 -1.8503 -1.6381
 6651SOL    HW231587   4.498   2.203  12.633  0.4689  1.3234 -0.3626
 6652SOL     OW31588   2.275   3.621   7.798  0.2720  0.3206  0.5540
 6652SOL    HW131589   2.341   3.567   7.843  1.0220  2.2442  1.7685
 6652SOL    HW231590   2.326   3.643   7.720 -0.5424  0.0383 -0.0578
 6653SOL     OW31591   2.030   3.984  15.303 -0.0130 -0.1073  0.4085
 6653SOL    HW131592   1.970   3.943  15.365  0.8919 -2.6681 -0.3895
 6653SOL    HW231593   1.987   3.958  15.221  0.6636 -1.6793  0.5582
 6654SOL     OW31594   0.052   1.279   2.919  1.2406 -0.0740  0.1694
 6654SOL    HW131595   4.728   1.249   2.849  0.3947  0.0918  0.8034
 6654SOL    HW231596   0.123   1.218   2.899  0.2666 -0.3545 -2.3900
 6655SOL     OW31597   0.561   4.574  15.825  0.1690  0.0398  0.2074
 6655SOL    HW131598   0.598   4.513  15.762  0.4372  0.4790 -0.0601
 6655SOL    HW231599   0.586   4.536  15.909  0.2355  0.9998  0.6227
 6656SOL     OW31600   1.907   3.207  14.122 -0.0380  0.7423 -0.2058
 6656SOL    HW131601   1.870   3.170  14.202  1.8931 -0.5895  0.0641
 6656SOL    HW231602   1.869   3.294  14.131  1.8112  1.1887  3.1449
 6657SOL     OW31603   0.627   1.812  11.469 -0.2096  0.0575  0.2936
 6657SOL    HW131604   0.678   1.733  11.489 -1.1503 -0.5537  0.2869
 6657SOL    HW231605   0.627   1.800  11.374  3.5606  0.4517  0.2536
 6658SOL     OW31606   3.056   1.002   7.886 -0.5749  0.0633  0.3321
 6658SOL    HW131607   3.010   0.923   7.857 -0.9283  0.7418 -0.9440
 6658SOL    HW231608   2.977   1.049   7.911 -0.7535  0.4660 -0.9683
 6659SOL     OW31609   2.351   1.789   1.891  0.4477  0.0205 -0.1395
 6659SOL    HW131610   2.308   1.869   1.921 -1.8032 -2.3480  2.8869
 6659SOL    HW231611   2.320   1.796   1.801 -0.3981  0.0436  0.1597
 6660SOL     OW31612   4.040   0.854   1.224  0.1237 -0.3010  0.6700
 6660SOL    HW131613   4.072   0.886   1.140 -3.4410  2.4419  0.3847
 6660SOL    HW231614   3.990   0.775   1.200  0.4134 -0.3220  0.1449
 6661SOL     OW31615   3.682   4.293   1.668 -0.1029 -0.0804  0.0536
 6661SOL    HW131616   3.605   4.339   1.701 -0.1304  0.9557 -1.4157
 6661SOL    HW231617   3.747   4.308   1.737  0.2960 -1.7035  0.0317
 6662SOL     OW31618   4.117   0.296  14.366  0.1161 -0.1384 -0.2885
 6662SOL    HW131619   4.213   0.291  14.360  0.1471 -0.1223  0.1582
 6662SOL    HW231620   4.099   0.325  14.277 -0.7367 -1.8752 -0.6876
 6663SOL     OW31621   4.510   2.068   4.250  0.5217  0.2831 -0.2253
 6663SOL    HW131622   4.548   2.069   4.337 -0.8937 -0.6216  0.4133
 6663SOL    HW231623   4.542   1.986   4.213  1.2640 -0.0166  1.0972
 6664SOL     OW31624   3.107   3.434   8.964 -0.5919  0.3983  0.3513
 6664SOL    HW131625   3.112   3.340   8.981 -3.5304  0.9349  4.1541
 6664SOL    HW231626   3.026   3.448   8.916 -1.0490  0.2315  1.0783
 6665SOL     OW31627   2.839   0.913  15.000 -0.1696  0.1463  0.3841
 6665SOL    HW131628   2.846   0.979  14.931  0.0412  0.7718  1.0111
 6665SOL    HW231629   2.759   0.864  14.978  1.2857 -2.0135 -0.1186
 6666SOL     OW31630   3.483   3.147   4.462  0.4978  0.2381  0.1968
 6666SOL    HW131631   3.449   3.170   4.548  2.0174  1.1504  0.5455
 6666SOL    HW231632   3.447   3.059   4.451 -0.7315  0.7524  0.1737
 6667SOL     OW31633   4.055   4.492   0.976 -0.3154 -0.0957 -0.4098
 6667SOL    HW131634   4.066   4.582   1.008 -0.5361 -0.6828  1.3391
 6667SOL    HW231635   4.091   4.453   1.056  0.9427  1.0746 -0.4049
 6668SOL     OW31636   4.649   4.628  14.239 -0.0804 -0.0115 -0.6389
 6668SOL    HW131637   4.620   4.582  14.160  1.5523  0.0697 -1.2990
 6668SOL    HW231638   4.580   4.689  14.263 -0.3741 -0.1830 -1.0450
 6669SOL     OW31639   3.079   4.089   6.003  0.6429  0.3296 -0.3219
 6669SOL    HW131640   3.046   4.094   5.913  0.8262  0.6714 -0.3692
 6669SOL    HW231641   3.088   3.994   6.013  3.5968  0.5180 -1.2232
 6670SOL     OW31642   1.328   1.533   9.244  0.6903 -0.0862 -0.2417
 6670SOL    HW131643   1.335   1.588   9.167  4.3116 -2.2917 -1.4809
 6670SOL    HW231644   1.279   1.587   9.307  0.9712  0.9664 -0.9384
 6671SOL     OW31645   4.112   1.496   2.481 -0.0384 -0.2686 -0.2878
 6671SOL    HW131646   4.079   1.409   2.501  2.2668 -1.1891 -0.4604
 6671SOL    HW231647   4.054   1.521   2.410 -0.4258  0.5365  0.3068
 6672SOL     OW31648   3.091   3.507   5.492  0.2607 -0.5158  0.0683
 6672SOL    HW131649   3.017   3.565   5.513  0.4127 -0.3670  0.1904
 6672SOL    HW231650   3.086   3.423   5.538 -0.2623  0.5370  1.9591
 6673SOL     OW31651   0.113   3.112   1.829  0.0368  0.1303 -0.2097
 6673SOL    HW131652   0.127   3.198   1.868 -0.6385  0.7600 -1.3426
 6673SOL    HW231653   0.135   3.128   1.738  0.5139  0.5110 -0.0243
 6674SOL     OW31654   2.811   2.672   9.191 -0.1104  0.5190 -0.5437
 6674SOL    HW131655   2.718   2.674   9.217  0.6387 -1.4159  2.2614
 6674SOL    HW231656   2.816   2.590   9.142 -2.4171 -0.4747  0.8728
 6675SOL     OW31657   1.201   1.837   8.348 -0.0360 -0.1482  0.0457
 6675SOL    HW131658   1.266   1.902   8.324 -0.1173 -0.1405 -0.1507
 6675SOL    HW231659   1.233   1.831   8.438 -2.2747  0.2542  0.8868
 6676SOL     OW31660   3.640   1.645   5.963  0.3456  0.8449  0.1823
 6676SOL    HW131661   3.565   1.587   5.973 -1.0830  2.7351  0.4982
 6676SOL    HW231662   3.703   1.595   5.910  0.9067 -0.4029  2.0517
 6677SOL     OW31663   3.108   2.125  12.235 -0.5344 -0.4344 -0.2993
 6677SOL    HW131664   3.176   2.059  12.248  2.0395  2.6492  2.1558
 6677SOL    HW231665   3.065   2.108  12.319  0.2032  0.1475  0.1973
 6678SOL     OW31666   1.959   1.083   4.977 -0.0330  0.1748  0.1769
 6678SOL    HW131667   2.028   1.044   4.922 -0.7322  0.5545 -0.9642
 6678SOL    HW231668   1.992   1.168   5.006  3.1781 -1.0106  0.0141
 6679SOL     OW31669   1.308   3.698  12.590 -0.6875 -0.1608  0.0531
 6679SOL    HW131670   1.349   3.726  12.508  1.9984 -1.7124  0.8555
 6679SOL    HW231671   1.215   3.702  12.569 -0.8916  0.4876  1.1013
 6680SOL     OW31672   4.667   4.066   8.294 -0.4793  0.0527 -0.0420
 6680SOL    HW131673   4.687   4.155   8.325  0.0784 -0.0664 -0.0650
 6680SOL    HW231674   4.624   4.040   8.376 -0.3334 -2.5275 -0.7947
 6681SOL     OW31675   3.968   2.380   4.698  0.2119 -0.0183 -0.3807
 6681SOL    HW131676   3.917   2.452   4.736 -0.8989 -1.4236  0.8096
 6681SOL    HW231677   3.944   2.410   4.611  0.5270  0.4410 -0.3066
 6682SOL     OW31678   0.364   3.192  14.695  0.0733  0.0732  0.0378
 6682SOL    HW131679   0.449   3.173  14.735  0.8183 -0.8756 -1.9987
 6682SOL    HW231680   0.380   3.137  14.618 -1.3310 -0.6080  0.2498
 6683SOL     OW31681   1.284   1.071   8.360  0.2150 -0.3173  0.1830
 6683SOL    HW131682   1.254   1.058   8.450  1.4024  0.7444  0.7312
 6683SOL    HW231683   1.346   0.999   8.371  0.2394  0.0057  2.2646
 6684SOL     OW31684   0.965   0.282   5.689  0.2419  0.1513 -0.2936
 6684SOL    HW131685   0.972   0.280   5.594  1.0401  0.4126 -0.2411
 6684SOL    HW231686   0.874   0.308   5.706 -0.7591 -1.8897 -2.6703
 6685SOL     OW31687   0.558   4.403   7.840 -0.1024 -0.0429  0.7065
 6685SOL    HW131688   0.527   4.390   7.750  0.3098  0.7306  0.4536
 6685SOL    HW231689   0.648   4.427   7.816 -0.5600 -0.6602 -1.7119
 6686SOL     OW31690   0.308   0.537   4.957  0.1623  0.2152 -0.2369
 6686SOL    HW131691   0.350   0.554   4.873  2.7230  0.1579  1.0482
 6686SOL    HW231692   0.265   0.619   4.982  3.4971  1.6217  0.8317
 6687SOL     OW31693   2.886   2.230  13.158 -0.0630  0.0458 -0.3298
 6687SOL    HW131694   2.799   2.252  13.191 -0.8042 -1.2188 -1.4740
 6687SOL    HW231695   2.906   2.319  13.129  1.3196  0.5815  2.2533
 6688SOL     OW31696   4.418   0.330   4.054  0.1571  0.2274  0.5039
 6688SOL    HW131697   4.361   0.393   4.011  3.6172  2.4001 -0.9085
 6688SOL    HW231698   4.349   0.298   4.111 -0.8265 -0.2604 -0.9612
 6689SOL     OW31699   2.348   3.985  11.355 -0.0464  0.1106 -0.1337
 6689SOL    HW131700   2.412   3.918  11.381  0.6003  0.1767 -1.5457
 6689SOL    HW231701   2.396   4.060  11.389  4.7834 -2.1143 -2.0586
 6690SOL     OW31702   3.862   2.557   4.858 -0.2178  0.1757  0.0589
 6690SOL    HW131703   3.872   2.649   4.882  0.3504 -0.1137  0.9279
 6690SOL    HW231704   3.798   2.535   4.925 -0.0099  0.0077  0.2032
 6691SOL     OW31705   0.850   0.573  13.362  0.3583 -0.3724 -0.1729
 6691SOL    HW131706   0.843   0.613  13.449  0.1355 -2.5643  0.8109
 6691SOL    HW231707   0.802   0.640  13.313  1.0854 -1.5390 -2.4846
 6692SOL     OW31708   2.847   3.449   4.408 -0.5077 -0.1045 -0.0389
 6692SOL    HW131709   2.799   3.374   4.443 -0.8278 -0.6240 -1.6064
 6692SOL    HW231710   2.878   3.410   4.327  1.2404  1.7044 -0.2372
 6693SOL     OW31711   2.956   0.632   6.388  0.0502 -0.1944 -0.0376
 6693SOL    HW131712   3.028   0.614   6.449 -1.5752  0.1621  1.9711
 6693SOL    HW231713   2.991   0.686   6.317  2.6964 -1.9286 -0.0841
 6694SOL     OW31714   2.298   0.896   4.050 -0.7960  0.4084 -0.0152
 6694SOL    HW131715   2.391   0.915   4.064 -0.6213  0.0305 -0.6818
 6694SOL    HW231716   2.254   0.963   4.103 -1.0621 -0.5924  1.0330
 6695SOL     OW31717   2.534   2.774  15.750  0.6943  0.0803 -0.0509
 6695SOL    HW131718   2.576   2.860  15.749  0.3837  0.2568  1.1985
 6695SOL    HW231719   2.586   2.722  15.689  1.5927 -0.3589  1.0993
 6696SOL     OW31720   1.077   3.180  17.563 -0.1058 -0.3192  0.1500
 6696SOL    HW131721   1.040   3.205  17.478  0.1471  1.9363  0.7077
 6696SOL    HW231722   1.168   3.178  17.532  0.5340 -0.9913  2.1281
 6697SOL     OW31723   1.543   0.625  10.317 -0.4864  0.7818 -0.1957
 6697SOL    HW131724   1.622   0.616  10.264 -0.0484 -2.1645  0.9579
 6697SOL    HW231725   1.570   0.583  10.399 -0.9536  0.7333 -0.0621
 6698SOL     OW31726   2.663   2.791   4.935  0.1419 -0.0165 -0.3236
 6698SOL    HW131727   2.672   2.704   4.894  1.2488  0.7077 -1.6012
 6698SOL    HW231728   2.573   2.807   4.906  0.3402  1.6674  0.0000
 6699SOL     OW31729   2.354   1.572  11.604  0.6844 -0.4609  0.0876
 6699SOL    HW131730   2.337   1.484  11.636  2.8932 -0.4428  1.2573
 6699SOL    HW231731   2.439   1.581  11.646  1.3944  0.0479 -1.4368
 6700SOL     OW31732   2.734   4.459  13.818 -0.2725  0.3723 -0.7179
 6700SOL    HW131733   2.804   4.451  13.753  0.9340  3.5477  0.1966
 6700SOL    HW231734   2.741   4.383  13.876 -2.1769  0.2000 -0.7130
 6701SOL     OW31735   2.896   2.737   1.063  0.2504 -0.1431 -0.0197
 6701SOL    HW131736   2.923   2.814   1.114 -0.6948 -1.8070  3.0248
 6701SOL    HW231737   2.926   2.760   0.975  0.1592 -0.3162 -0.0948
 6702SOL     OW31738   3.391   4.395   6.365 -0.0676  0.1274  0.4571
 6702SOL    HW131739   3.461   4.460   6.370  0.0635  0.0423 -0.2737
 6702SOL    HW231740   3.423   4.315   6.406  0.2241 -0.4124 -0.8002
 6703SOL     OW31741   2.873   4.593   6.651  0.2809 -0.1182 -0.4793
 6703SOL    HW131742   2.846   4.502   6.639 -1.7036  0.2377  1.2820
 6703SOL    HW231743   2.966   4.598   6.628  0.0126 -0.0367 -1.5147
 6704SOL     OW31744   0.376   3.218   8.561 -0.1370  0.0025 -0.1365
 6704SOL    HW131745   0.412   3.307   8.563  0.4461 -0.2395 -0.0240
 6704SOL    HW231746   0.331   3.209   8.645 -0.6051  0.3335 -0.3503
 6705SOL     OW31747   4.039   2.011   2.810  0.0697  0.2035  0.0230
 6705SOL    HW131748   4.133   2.016   2.829  0.3450 -2.0641 -0.7317
 6705SOL    HW231749   3.999   2.060   2.882  0.3783  1.1370 -0.4373
 6706SOL     OW31750   2.511   1.157  15.296  0.5589  0.2202 -0.1357
 6706SOL    HW131751   2.551   1.130  15.379 -0.0030 -0.4577 -0.0870
 6706SOL    HW231752   2.595   1.173  15.252  1.0049 -1.1338  0.2188
 6707SOL     OW31753   2.345   0.671   6.946 -0.1714  0.6467 -0.0866
 6707SOL    HW131754   2.392   0.643   7.025 -2.4529 -0.1215  0.9964
 6707SOL    HW231755   2.269   0.613   6.940 -0.2284  0.6680  0.4171
 6708SOL     OW31756   1.635   4.552   0.426 -0.1341 -0.9158  0.1520
 6708SOL    HW131757   1.683   4.603   0.360 -0.4858  0.6357  1.0882
 6708SOL    HW231758   1.710   4.499   0.452 -0.3817 -0.0340  2.6750
 6709SOL     OW31759   1.036   2.772  14.802  0.8039  0.4372  0.2226
 6709SOL    HW131760   0.946   2.802  14.793  0.5969 -0.9667 -2.4168
 6709SOL    HW231761   1.028   2.692  14.749 -0.9467  2.4242 -2.4412
 6710SOL     OW31762   1.621   4.611   8.170 -0.1058 -0.1166  0.4128
 6710SOL    HW131763   1.623   4.526   8.126  2.9787  0.3972 -0.4493
 6710SOL    HW231764   1.657   4.595   8.257 -0.8998  3.3594  1.3521
 6711SOL     OW31765   1.023   4.327   4.242 -0.2673  0.0801 -0.1903
 6711SOL    HW131766   1.049   4.290   4.326 -1.9091  1.8554  1.0695
 6711SOL    HW231767   1.102   4.297   4.196 -0.6770 -0.4646 -0.5364
 6712SOL     OW31768   0.378   0.587   0.499  0.3929 -0.6147  0.8853
 6712SOL    HW131769   0.447   0.619   0.440  1.3017  0.7339  2.6665
 6712SOL    HW231770   0.416   0.505   0.531  2.5757  0.0358 -0.0559
 6713SOL     OW31771   1.011   0.094   3.548  0.8826 -0.1923 -0.4804
 6713SOL    HW131772   0.937   0.142   3.586  1.0203 -0.2894 -0.0873
 6713SOL    HW231773   1.002   0.125   3.458  1.0339  0.4333 -0.2804
 6714SOL     OW31774   0.617   3.261   8.283  0.1242 -0.0286  0.3826
 6714SOL    HW131775   0.551   3.192   8.279 -0.8776  0.9624 -0.2767
 6714SOL    HW231776   0.570   3.337   8.318 -2.8675 -0.5412 -2.5085
 6715SOL     OW31777   1.671   1.320  10.058  0.2037  0.3883 -0.8762
 6715SOL    HW131778   1.718   1.264   9.996  3.3928 -1.2363  3.0668
 6715SOL    HW231779   1.629   1.258  10.117  0.1533  1.4570  0.2080
 6716SOL     OW31780   2.061   4.479  17.182  0.0249  0.0491 -1.3233
 6716SOL    HW131781   2.003   4.477  17.258  0.6791  2.4982 -0.7675
 6716SOL    HW231782   2.082   4.572  17.177  3.2051 -0.6091 -0.7202
 6717SOL     OW31783   1.683   0.677   6.687  0.2628 -0.5956 -0.4434
 6717SOL    HW131784   1.620   0.723   6.631 -1.4107 -1.3926  0.7944
 6717SOL    HW231785   1.752   0.738   6.664  0.3089 -0.7603 -0.7432
 6718SOL     OW31786   4.079   0.696   1.983 -0.0121 -0.1935  0.8304
 6718SOL    HW131787   4.136   0.771   1.964 -2.7670  1.2783 -1.6292
 6718SOL    HW231788   4.092   0.687   2.077  1.0174  1.7816  0.8873
 6719SOL     OW31789   1.948   1.612   9.240  0.7736  0.6107 -0.1111
 6719SOL    HW131790   1.912   1.695   9.270  1.1799  0.6776  0.1881
 6719SOL    HW231791   1.880   1.596   9.175 -0.0783  2.3401  0.3392
 6720SOL     OW31792   0.587   3.809   0.936  0.2541  0.3867  0.0063
 6720SOL    HW131793   0.599   3.760   0.855  1.2346 -1.5692  1.3299
 6720SOL    HW231794   0.648   3.763   0.993  0.8785  3.4630  1.8484
 6721SOL     OW31795   2.613   4.427   2.577 -0.4841 -0.0615  0.2720
 6721SOL    HW131796   2.661   4.361   2.527  2.7028  3.0275 -0.7365
 6721SOL    HW231797   2.527   4.386   2.578 -0.3987 -0.2602 -0.5145
 6722SOL     OW31798   3.225   0.411   2.806  0.0353  0.6605 -0.0669
 6722SOL    HW131799   3.246   0.496   2.768 -0.1098  1.2666  1.2034
 6722SOL    HW231800   3.265   0.424   2.892  1.5009 -1.2457 -0.4605
 6723SOL     OW31801   2.961   1.214   2.359  0.2278 -0.2426 -0.5848
 6723SOL    HW131802   2.901   1.143   2.336  0.3598 -0.8643  0.9959
 6723SOL    HW231803   2.916   1.253   2.434  2.5045  2.2831 -0.5331
 6724SOL     OW31804   4.694   0.942   2.955 -0.6045 -0.6400 -0.1950
 6724SOL    HW131805   4.732   0.943   2.867  0.2059  1.0398  0.1679
 6724SOL    HW231806   4.722   0.854   2.979  0.3305 -0.1008  0.6552
 6725SOL     OW31807   2.940   3.070  12.710 -0.1289 -0.0225  0.7803
 6725SOL    HW131808   2.911   3.108  12.793 -3.1749  0.8895 -0.6781
 6725SOL    HW231809   3.029   3.104  12.700 -0.1012 -0.9986 -2.4439
 6726SOL     OW31810   0.340   4.616   7.961  0.1261  0.0384  0.0061
 6726SOL    HW131811   0.413   4.569   7.920  0.4297 -0.4781  1.1572
 6726SOL    HW231812   0.289   4.629   7.881 -2.9537 -0.7059  1.8609
 6727SOL     OW31813   3.762   4.148   3.935  0.3936 -0.4139  0.0824
 6727SOL    HW131814   3.846   4.145   3.891  0.8205 -0.6707  0.9102
 6727SOL    HW231815   3.790   4.170   4.024 -0.6361  1.8827 -0.1667
 6728SOL     OW31816   3.581   4.246   9.322 -0.1946  0.0223 -0.1648
 6728SOL    HW131817   3.658   4.190   9.321 -0.0105  0.3424 -3.4145
 6728SOL    HW231818   3.596   4.304   9.247 -0.6081  2.7597  1.8623
 6729SOL     OW31819   0.544   3.732   7.413  0.5768  0.0919 -0.3583
 6729SOL    HW131820   0.481   3.750   7.344 -0.1433 -1.6498 -0.1728
 6729SOL    HW231821   0.505   3.783   7.484 -0.1488  2.2864 -2.3448
 6730SOL     OW31822   1.126   1.069   9.814  1.1088 -0.1222 -0.2726
 6730SOL    HW131823   1.179   1.113   9.880 -0.6928  1.0427  0.4073
 6730SOL    HW231824   1.137   0.978   9.843 -0.9124 -0.4431 -0.5323
 6731SOL     OW31825   1.371   3.926   8.157  0.1300  0.4638  0.2294
 6731SOL    HW131826   1.338   3.848   8.112 -2.4453  1.2464  0.7753
 6731SOL    HW231827   1.465   3.911   8.147  0.8618  4.0411  1.9671
 6732SOL     OW31828   2.005   1.241   8.281  0.1340  0.1131  0.3706
 6732SOL    HW131829   1.956   1.208   8.206 -0.9023 -2.5081  2.1898
 6732SOL    HW231830   2.089   1.267   8.243  2.0495 -0.2291  4.3172
 6733SOL     OW31831   0.692   1.087   4.482 -0.5941  0.1766 -0.6532
 6733SOL    HW131832   0.626   1.126   4.540 -0.5100  2.0555 -1.7969
 6733SOL    HW231833   0.694   1.150   4.410  0.1215  0.5317 -0.3288
 6734SOL     OW31834   0.285   2.551   6.958  0.8191 -0.1534  0.1482
 6734SOL    HW131835   0.217   2.617   6.968 -1.0625 -2.1010  0.3642
 6734SOL    HW231836   0.264   2.530   6.867 -1.1286  1.3547  0.2493
 6735SOL     OW31837   3.405   0.536   3.003  0.0167  0.4038 -0.1233
 6735SOL    HW131838   3.356   0.528   3.085  0.7117  0.4770  0.2978
 6735SOL    HW231839   3.442   0.625   3.004 -2.5231  1.4537 -0.3463
 6736SOL     OW31840   0.307   3.271   6.802 -0.2504  0.9709  0.4337
 6736SOL    HW131841   0.237   3.287   6.738 -0.7886 -1.3030  0.4594
 6736SOL    HW231842   0.261   3.197   6.840  1.0976  0.6825  1.4532
 6737SOL     OW31843   0.607   3.253   1.561  0.4151 -0.2494 -0.0665
 6737SOL    HW131844   0.528   3.305   1.572 -0.4110 -1.5194  0.0769
 6737SOL    HW231845   0.570   3.169   1.589 -0.1744  0.1409  0.3295
 6738SOL     OW31846   1.795   2.902  12.229  0.3717 -0.0717 -0.3473
 6738SOL    HW131847   1.748   2.896  12.312 -1.5010 -0.7499 -1.4635
 6738SOL    HW231848   1.745   2.831  12.188 -0.9677 -0.1501  1.4531
 6739SOL     OW31849   2.654   2.457   7.839 -0.3612  0.0009 -0.0981
 6739SOL    HW131850   2.685   2.387   7.782 -0.8193 -0.6294  0.4326
 6739SOL    HW231851   2.565   2.426   7.856  0.7024 -2.4987  0.9124
 6740SOL     OW31852   4.389   3.045   6.730 -0.2786 -0.0562  0.0437
 6740SOL    HW131853   4.307   3.094   6.735 -1.0592 -1.6279  2.5616
 6740SOL    HW231854   4.388   3.001   6.814 -0.0043  0.5549  0.3696
 6741SOL     OW31855   4.723   3.698   6.844  0.0589 -0.3587 -0.1677
 6741SOL    HW131856   0.064   3.757   6.838  0.0320 -0.3159 -0.0850
 6741SOL    HW231857   4.684   3.699   6.757  0.6641  1.1978 -0.4205
 6742SOL     OW31858   1.187   4.655  12.437 -0.6027 -0.0727  0.4251
 6742SOL    HW131859   1.165   0.014  12.426 -0.8074 -0.2197 -0.4693
 6742SOL    HW231860   1.117   4.619  12.491 -0.2710  0.1297  0.9854
 6743SOL     OW31861   3.336   3.857   3.367  0.5383  0.8117  0.0819
 6743SOL    HW131862   3.364   3.766   3.364 -0.4954  0.4451  1.4833
 6743SOL    HW231863   3.385   3.892   3.441  1.0335 -0.4683  0.3571
 6744SOL     OW31864   0.925   1.885  12.778 -0.6357 -0.6626 -0.3126
 6744SOL    HW131865   0.977   1.906  12.857 -2.0937  0.6546  0.2923
 6744SOL    HW231866   0.837   1.877  12.814 -0.2298  0.7790  0.9970
 6745SOL     OW31867   0.302   3.584   4.295  0.3928  0.2320 -0.6302
 6745SOL    HW131868   0.387   3.557   4.259  0.0091  0.7008 -1.8952
 6745SOL    HW231869   0.289   3.663   4.242 -2.0428  1.8268  2.3513
 6746SOL     OW31870   3.118   0.510   8.695  0.2561  0.1470 -0.2352
 6746SOL    HW131871   3.193   0.570   8.693  0.1711  0.3037  1.3114
 6746SOL    HW231872   3.128   0.452   8.620  0.9830 -1.1679  0.8667
 6747SOL     OW31873   1.837   0.342   9.086 -0.0168 -0.2893 -0.0487
 6747SOL    HW131874   1.888   0.277   9.038 -2.5557 -2.0920 -0.3136
 6747SOL    HW231875   1.761   0.288   9.108 -0.2124  0.0221  0.0514
 6748SOL     OW31876   4.224   2.454   9.902 -0.0995  0.1158  0.3805
 6748SOL    HW131877   4.226   2.358   9.911 -1.5850  0.0211 -0.2993
 6748SOL    HW231878   4.234   2.475   9.994 -1.3465  2.2105  0.0203
 6749SOL     OW31879   3.794   0.006   9.592  0.1170 -0.2660 -0.4453
 6749SOL    HW131880   3.765   4.667   9.646 -0.9976 -0.9598 -1.9604
 6749SOL    HW231881   3.727   0.023   9.526 -0.8750 -0.1104  0.6138
 6750SOL     OW31882   3.110   1.297  11.807 -1.0922  0.0905  0.1403
 6750SOL    HW131883   3.183   1.244  11.840  0.7708  1.4205 -1.8210
 6750SOL    HW231884   3.131   1.320  11.716 -0.3321 -1.4137 -0.0724
 6751SOL     OW31885   4.581   1.613   7.289  0.2420  0.4978  0.0958
 6751SOL    HW131886   4.638   1.685   7.316  1.7962 -0.0167 -1.8301
 6751SOL    HW231887   4.648   1.556   7.251 -0.9698 -0.0007 -1.3035
 6752SOL     OW31888   0.356   2.036   9.925  0.0620  0.1342  0.4535
 6752SOL    HW131889   0.309   2.080   9.854 -0.5386 -1.4740 -0.1435
 6752SOL    HW231890   0.304   2.066   9.999 -2.1776 -0.8879 -0.6871
 6753SOL     OW31891   4.232   1.897  13.612 -0.7685 -0.0322 -0.3418
 6753SOL    HW131892   4.222   1.855  13.698  2.0429 -1.3960 -0.6740
 6753SOL    HW231893   4.297   1.835  13.577  0.0574 -0.7758  2.4715
 6754SOL     OW31894   3.966   1.629  15.995 -0.1250 -0.1114  0.0857
 6754SOL    HW131895   4.001   1.612  16.082 -1.4406  2.4711  1.1450
 6754SOL    HW231896   4.040   1.675  15.956 -0.6446  0.6321 -0.0387
 6755SOL     OW31897   2.096   2.320   5.339 -0.5071  0.1099 -0.1348
 6755SOL    HW131898   2.186   2.290   5.354 -1.4672 -1.3116  2.9589
 6755SOL    HW231899   2.106   2.413   5.356 -2.6620 -0.2294  2.9338
 6756SOL     OW31900   3.913   2.990   1.817 -0.6129  0.3382  0.0335
 6756SOL    HW131901   3.843   2.976   1.881 -1.3882  1.0666 -0.6546
 6756SOL    HW231902   3.952   2.904   1.833 -0.2750  0.7010  1.1465
 6757SOL     OW31903   0.639   3.289   4.986  0.9731  0.3668 -0.2418
 6757SOL    HW131904   0.625   3.367   4.932  3.1968  0.6607 -0.4316
 6757SOL    HW231905   0.553   3.269   5.022  0.1558  1.9087 -1.3592
 6758SOL     OW31906   4.549   3.024   1.845 -0.7554 -0.0392  0.2440
 6758SOL    HW131907   4.475   3.073   1.808 -0.4864  0.7012  0.6894
 6758SOL    HW231908   4.623   3.071   1.807  0.1898 -0.9959  0.9209
 6759SOL     OW31909   3.945   3.166   0.082 -0.1274  0.0274  0.1679
 6759SOL    HW131910   3.967   3.110   0.007 -1.6763  2.8875 -2.4204
 6759SOL    HW231911   3.850   3.169   0.071 -0.1499  3.2679  1.3351
 6760SOL     OW31912   3.155   3.641   0.201  0.1185  0.2343 -0.3521
 6760SOL    HW131913   3.205   3.709   0.246 -0.4401  0.2764  0.2110
 6760SOL    HW231914   3.107   3.596   0.271  1.4797 -2.9799 -1.5015
 6761SOL     OW31915   4.005   0.351   1.201 -0.2731  0.5548  0.4228
 6761SOL    HW131916   3.972   0.440   1.184 -1.6458 -0.7241 -3.6645
 6761SOL    HW231917   3.938   0.302   1.155 -1.0748  1.5196  0.5570
 6762SOL     OW31918   2.053   3.704   2.418 -0.3108  0.3440  0.1861
 6762SOL    HW131919   1.998   3.656   2.480  1.7598 -0.7099  1.1882
 6762SOL    HW231920   2.052   3.789   2.461 -0.2535 -0.3199  1.5081
 6763SOL     OW31921   2.714   3.826   4.886 -0.1681  0.2324  0.6523
 6763SOL    HW131922   2.744   3.914   4.906  0.0397  0.8230 -2.2256
 6763SOL    HW231923   2.628   3.822   4.929 -1.0631  2.2135 -0.9601
 6764SOL     OW31924   1.188   0.903   6.203 -0.6241  0.5806  0.1024
 6764SOL    HW131925   1.116   0.896   6.139  0.4421  2.3851 -1.2944
 6764SOL    HW231926   1.144   0.900   6.288 -1.9279 -1.1276 -0.6206
 6765SOL     OW31927   0.124   2.064   5.071 -0.5162 -0.6851  0.3207
 6765SOL    HW131928   0.205   2.024   5.040  0.5292  2.1666 -0.6311
 6765SOL    HW231929   0.149   2.156   5.061  0.2990 -0.6722  2.4379
 6766SOL     OW31930   4.653   2.796   6.487  0.5324  0.7070 -0.3544
 6766SOL    HW131931   4.598   2.871   6.467 -1.4332 -0.4638  0.6373
 6766SOL    HW231932   4.722   2.831   6.543  0.0120 -0.1061  0.8082
 6767SOL     OW31933   3.517   4.455  11.605  0.1533  0.4110 -1.0419
 6767SOL    HW131934   3.578   4.478  11.675 -2.2866  1.8907  0.5923
 6767SOL    HW231935   3.471   4.538  11.596 -0.0904  0.5837  1.7063
 6768SOL     OW31936   1.995   1.386  15.022  0.5194  0.3307  0.0859
 6768SOL    HW131937   1.951   1.363  15.104  0.3838 -0.5854 -0.2427
 6768SOL    HW231938   2.035   1.302  14.998 -0.5720 -0.5925  1.4413
 6769SOL     OW31939   3.047   3.588   1.765 -0.0350 -0.3386  0.5217
 6769SOL    HW131940   3.087   3.516   1.717 -1.3020 -2.0232  1.9475
 6769SOL    HW231941   3.114   3.612   1.829 -0.1987 -0.9891  0.9358
 6770SOL     OW31942   1.547   4.085  14.944  0.1602 -0.3258  0.4103
 6770SOL    HW131943   1.452   4.081  14.958 -0.0944  0.7323 -1.0854
 6770SOL    HW231944   1.562   4.003  14.897  1.5134  0.7065 -0.9466
 6771SOL     OW31945   0.163   4.426   2.141  0.1755 -0.3612  0.2754
 6771SOL    HW131946   0.116   4.426   2.225  0.2261 -0.5822  0.3024
 6771SOL    HW231947   0.140   4.340   2.107  1.6007 -0.1830 -1.1183
 6772SOL     OW31948   1.557   3.631   3.305  0.2061  0.3753  0.3474
 6772SOL    HW131949   1.470   3.631   3.266 -0.3211 -0.1693  1.4974
 6772SOL    HW231950   1.529   3.644   3.396 -2.8011  1.0496 -0.6971
 6773SOL     OW31951   4.304   2.687   2.057  0.3601 -0.0810  0.5055
 6773SOL    HW131952   4.386   2.732   2.079 -0.7119  1.5034  1.2497
 6773SOL    HW231953   4.253   2.728   2.127  0.6002  2.5740 -0.8861
 6774SOL     OW31954   0.881   1.340  17.050  0.2940 -0.0168 -0.4074
 6774SOL    HW131955   0.801   1.291  17.068 -0.6002  0.9673 -1.6810
 6774SOL    HW231956   0.849   1.412  16.995  0.1832 -0.5761 -1.0795
 6775SOL     OW31957   4.042   0.985   5.599 -0.5977  0.2247 -0.0933
 6775SOL    HW131958   4.115   0.992   5.538 -2.0836  0.2767 -1.9007
 6775SOL    HW231959   3.971   1.022   5.546 -0.7832 -1.2630 -0.8848
 6776SOL     OW31960   3.687   1.316  13.282  0.3124  0.3868  0.3995
 6776SOL    HW131961   3.635   1.397  13.278 -0.0565  0.2034  1.5170
 6776SOL    HW231962   3.692   1.283  13.372 -0.5278 -2.7379 -0.7112
 6777SOL     OW31963   2.252   3.990   6.672 -0.0079  0.4770 -0.1759
 6777SOL    HW131964   2.313   3.981   6.598  2.1011  0.1125  1.5912
 6777SOL    HW231965   2.186   4.054   6.647 -1.5100 -0.1568  2.1221
 6778SOL     OW31966   4.608   4.537   7.119 -0.1937  0.0356 -0.1265
 6778SOL    HW131967   4.695   4.552   7.080  0.5569 -2.1734  0.7162
 6778SOL    HW231968   4.620   4.596   7.193  1.5472  0.4259 -0.7096
 6779SOL     OW31969   1.281   2.022   9.878  0.3542 -0.5347  0.0603
 6779SOL    HW131970   1.339   2.023   9.801 -0.7950  0.8776 -0.8005
 6779SOL    HW231971   1.337   2.061   9.945  0.8419 -0.3407 -0.4590
 6780SOL     OW31972   2.630   2.826   8.488 -0.1821 -0.0337 -0.2270
 6780SOL    HW131973   2.616   2.790   8.576 -1.8015 -0.7977 -0.7864
 6780SOL    HW231974   2.686   2.759   8.449  0.4368  0.6881 -0.5689
 6781SOL     OW31975   0.758   2.791   5.535  0.1343 -0.2723  0.3532
 6781SOL    HW131976   0.729   2.881   5.553  0.2816 -0.4736  1.5442
 6781SOL    HW231977   0.844   2.782   5.577 -0.1407 -0.8031  0.7957
 6782SOL     OW31978   1.448   1.397   4.876 -0.1818  0.0680  0.4728
 6782SOL    HW131979   1.356   1.420   4.888 -0.6201 -1.8155  0.8178
 6782SOL    HW231980   1.496   1.440   4.946  0.5493 -1.9168  1.2131
 6783SOL     OW31981   3.348   4.161   9.504 -0.1767  0.0355  0.3872
 6783SOL    HW131982   3.414   4.209   9.454 -1.8291  1.4751 -0.4042
 6783SOL    HW231983   3.341   4.075   9.462 -1.6090  0.8826 -1.1157
 6784SOL     OW31984   1.785   2.187  13.828  0.1539  0.6209 -0.3790
 6784SOL    HW131985   1.821   2.137  13.901  2.6971 -2.5132 -3.7716
 6784SOL    HW231986   1.700   2.211  13.864 -0.3285 -1.5966 -0.0350
 6785SOL     OW31987   3.993   0.170   3.367  0.2569 -0.6130 -0.6099
 6785SOL    HW131988   4.065   0.108   3.353  0.3854 -0.7432  0.6925
 6785SOL    HW231989   3.938   0.169   3.288 -2.1826  2.1053  1.0235
 6786SOL     OW31990   1.711   2.938   2.234  0.0350  0.0540  0.1872
 6786SOL    HW131991   1.762   3.019   2.237 -1.8165  1.2668 -1.1734
 6786SOL    HW231992   1.752   2.876   2.174  0.4333  0.3288  0.1781
 6787SOL     OW31993   1.245   1.348   4.144  0.2318 -0.2116  0.3549
 6787SOL    HW131994   1.162   1.302   4.131  0.4391  0.0951 -2.0088
 6787SOL    HW231995   1.272   1.328   4.234 -1.2759  1.6574  1.2278
 6788SOL     OW31996   0.115   2.965   7.737  0.0969  0.5328  0.6077
 6788SOL    HW131997   0.049   2.992   7.673 -0.7960  0.0956  1.3367
 6788SOL    HW231998   0.149   3.049   7.767 -1.1971  1.8278 -1.6183
 6789SOL     OW31999   2.524   1.460   4.497  0.1179  0.1350 -0.5707
 6789SOL    HW132000   2.605   1.411   4.487  0.2564  0.0188  1.0302
 6789SOL    HW232001   2.466   1.412   4.437 -0.3728  0.0815 -0.0623
 6790SOL     OW32002   3.240   3.558   2.828  0.4991  0.1655 -0.5668
 6790SOL    HW132003   3.247   3.570   2.923 -3.1349  2.0221 -0.5350
 6790SOL    HW232004   3.156   3.513   2.812  0.5976 -0.0391 -0.5095
 6791SOL     OW32005   4.350   1.439  15.950 -0.2256  0.2778 -0.2270
 6791SOL    HW132006   4.385   1.393  16.026 -0.6043 -0.5451 -0.5546
 6791SOL    HW232007   4.257   1.438  15.974 -0.5044  1.6710 -1.2279
 6792SOL     OW32008   2.309   1.103   5.791  0.2497  0.3587  0.5597
 6792SOL    HW132009   2.286   1.019   5.830 -0.0269  1.5579  2.9518
 6792SOL    HW232010   2.344   1.144   5.870 -0.1245  0.2050  0.8004
 6793SOL     OW32011   3.844   3.582   5.357  0.2580 -0.1219 -0.2367
 6793SOL    HW132012   3.928   3.571   5.402 -0.2341  0.6489  0.8728
 6793SOL    HW232013   3.805   3.660   5.397  1.0400  1.0853 -1.8401
 6794SOL     OW32014   1.777   3.074   4.410  0.2983 -0.0054 -0.0531
 6794SOL    HW132015   1.825   3.151   4.378  4.0342 -1.7661  1.2262
 6794SOL    HW232016   1.687   3.098   4.390  0.7527 -0.1868 -2.3074
 6795SOL     OW32017   2.265   2.684   0.378 -0.0569  0.1037 -0.1850
 6795SOL    HW132018   2.301   2.749   0.438  0.6585  0.1267 -0.6525
 6795SOL    HW232019   2.172   2.687   0.402  0.6171  2.0522  2.1102
 6796SOL     OW32020   2.221   4.185   6.195  0.4018  0.6278  0.0462
 6796SOL    HW132021   2.160   4.256   6.214  0.0754  0.2577  0.4005
 6796SOL    HW232022   2.282   4.233   6.140 -1.2152  2.6082 -0.0059
 6797SOL     OW32023   1.059   2.903   3.295  0.5875 -0.3613  0.2296
 6797SOL    HW132024   0.971   2.868   3.313  0.6001  0.5976  2.1593
 6797SOL    HW232025   1.113   2.850   3.354  0.6550  0.8800  1.2895
 6798SOL     OW32026   2.965   3.356   6.178 -0.0620  0.6290  0.2298
 6798SOL    HW132027   3.034   3.421   6.187 -0.0232  0.4686  1.0984
 6798SOL    HW232028   2.904   3.410   6.129 -0.2460  0.4949  0.3139
 6799SOL     OW32029   1.283   4.014   2.246 -0.6547 -0.0131  1.6582
 6799SOL    HW132030   1.199   4.017   2.200 -0.0187 -1.3720  0.3679
 6799SOL    HW232031   1.294   4.099   2.288  0.9058  0.3477  0.5284
 6800SOL     OW32032   0.590   3.339   5.896 -0.1643  0.4230 -0.5693
 6800SOL    HW132033   0.669   3.342   5.843 -0.8061 -1.4986 -1.6130
 6800SOL    HW232034   0.630   3.303   5.975  0.4178 -0.9232 -1.4836
 6801SOL     OW32035   3.693   0.149  13.690  0.1394 -0.6647  0.4357
 6801SOL    HW132036   3.761   0.090  13.658  0.5839 -0.6311  1.3116
 6801SOL    HW232037   3.630   0.148  13.618 -0.0278  1.8433  0.5567
 6802SOL     OW32038   2.438   2.299   2.217  0.4808  0.1129  0.1726
 6802SOL    HW132039   2.456   2.283   2.124  1.5504 -1.7519  0.7100
 6802SOL    HW232040   2.452   2.393   2.231  0.0281  0.1865  0.1396
 6803SOL     OW32041   4.394   1.312   8.508  0.7564  0.4490 -0.2092
 6803SOL    HW132042   4.325   1.271   8.456  0.7027 -0.2395  0.4092
 6803SOL    HW232043   4.471   1.275   8.465 -1.3526 -2.1934 -1.7224
 6804SOL     OW32044   3.482   0.294  12.588  0.0406 -0.0117  0.5023
 6804SOL    HW132045   3.555   0.238  12.563 -0.2911 -0.5681  0.7601
 6804SOL    HW232046   3.513   0.376  12.550  1.4616  0.4060  2.6019
 6805SOL     OW32047   1.625   2.514   4.834  0.3034  0.1346 -0.0512
 6805SOL    HW132048   1.671   2.489   4.914  2.0435 -2.1910 -1.7827
 6805SOL    HW232049   1.699   2.557   4.792  1.1062  0.2321  1.4737
 6806SOL     OW32050   2.437   3.527   1.285 -0.3907  0.0533  0.1373
 6806SOL    HW132051   2.364   3.486   1.332 -3.1093  1.2558 -3.0504
 6806SOL    HW232052   2.428   3.619   1.309 -0.2212  0.8675 -2.9775
 6807SOL     OW32053   0.931   1.353  12.657 -0.1961  0.1016 -0.6590
 6807SOL    HW132054   0.982   1.391  12.729  0.4088 -1.7032 -0.1364
 6807SOL    HW232055   0.844   1.367  12.696 -0.0578  0.0588 -0.3293
 6808SOL     OW32056   3.113   1.078   0.383 -0.6393 -0.0462 -0.8253
 6808SOL    HW132057   3.086   1.154   0.434 -0.5659 -0.7063  0.1851
 6808SOL    HW232058   3.061   1.015   0.433 -0.1354  0.3668  0.2223
 6809SOL     OW32059   4.657   3.952   3.744 -0.1153 -0.8652  0.0296
 6809SOL    HW132060   4.669   3.923   3.834 -0.3047  2.7397  1.1956
 6809SOL    HW232061   4.679   3.871   3.697 -1.6927 -0.2579 -1.7678
 6810SOL     OW32062   4.071   2.675   1.510  0.1409 -0.1643 -0.2173
 6810SOL    HW132063   3.994   2.727   1.486  0.2683 -0.2167 -0.7570
 6810SOL    HW232064   4.061   2.641   1.599  4.0167 -0.8203 -0.0156
 6811SOL     OW32065   4.567   0.315  10.451  0.3044 -0.1081  0.2991
 6811SOL    HW132066   4.511   0.359  10.516  0.1615  2.5768 -1.6335
 6811SOL    HW232067   4.542   0.371  10.377  0.8450 -0.5718 -0.2266
 6812SOL     OW32068   2.476   4.657   9.069 -0.4076  0.3562 -0.5925
 6812SOL    HW132069   2.531   4.679   9.145 -2.0073 -2.0228  1.2506
 6812SOL    HW232070   2.439   0.010   9.051  0.1823  0.8239  0.4428
 6813SOL     OW32071   0.865   4.513   4.902 -0.2772  0.1546  0.0273
 6813SOL    HW132072   0.882   4.446   4.835  0.1045  1.0113 -0.7319
 6813SOL    HW232073   0.925   4.488   4.972 -1.1319 -0.7844  0.4224
 6814SOL     OW32074   3.142   2.010   3.393  0.1229 -0.3527  0.1218
 6814SOL    HW132075   3.075   1.970   3.337 -0.1520  1.8432 -1.1303
 6814SOL    HW232076   3.187   2.069   3.332 -2.8069  1.3289 -0.4164
 6815SOL     OW32077   3.615   0.074   9.358  0.2731 -0.1785  0.3442
 6815SOL    HW132078   3.651   0.064   9.270 -1.3272 -1.2612 -0.2058
 6815SOL    HW232079   3.556   4.734   9.344 -0.7303  1.0331 -1.7736
 6816SOL     OW32080   3.400   0.142   8.535 -0.2417 -0.0175 -0.7607
 6816SOL    HW132081   3.428   0.200   8.464  0.8014  0.0141 -0.3286
 6816SOL    HW232082   3.317   0.114   8.496 -0.5813 -0.4516  0.2696
 6817SOL     OW32083   2.509   4.568   2.193  1.0083  0.0219  0.0008
 6817SOL    HW132084   2.507   4.480   2.156 -2.2476 -0.5680  1.5206
 6817SOL    HW232085   2.471   4.541   2.277 -0.4188  0.4686 -0.5063
 6818SOL     OW32086   1.547   2.157   9.989 -0.0277  0.1327  0.0587
 6818SOL    HW132087   1.549   2.252   9.976  3.5440 -0.2070 -1.9341
 6818SOL    HW232088   1.585   2.152  10.077 -1.5180 -0.3500  0.6749
 6819SOL     OW32089   0.721   0.242   6.689 -0.7181 -0.7458  0.0326
 6819SOL    HW132090   0.713   0.307   6.759 -0.1274 -0.9801  0.3191
 6819SOL    HW232091   0.813   0.250   6.664 -1.2623  2.0108 -1.1262
 6820SOL     OW32092   1.001   4.322  12.639  0.1001  0.4194  0.7112
 6820SOL    HW132093   0.997   4.342  12.545  2.4467  0.2229  0.5839
 6820SOL    HW232094   1.095   4.329  12.655  0.4685 -2.5567 -0.2009
 6821SOL     OW32095   2.032   4.060   1.680 -0.0453 -0.1779 -0.0500
 6821SOL    HW132096   2.007   4.053   1.588  0.2166  1.9485 -0.2833
 6821SOL    HW232097   2.019   4.154   1.686  0.3492 -0.0150 -1.7771
 6822SOL     OW32098   2.261   4.318   7.676  0.4113 -0.3801 -0.7689
 6822SOL    HW132099   2.324   4.370   7.626  0.3186  1.5807  1.1866
 6822SOL    HW232100   2.212   4.380   7.731  0.3057 -1.7113  0.6399
 6823SOL     OW32101   0.054   2.267  12.071  0.1039  0.3812 -0.1459
 6823SOL    HW132102   0.148   2.283  12.086 -0.0467  2.3170 -1.3068
 6823SOL    HW232103   0.019   2.306  12.151 -0.6156  0.6233 -0.5844
 6824SOL     OW32104   1.926   4.085   6.151  0.0883 -0.5232  0.2104
 6824SOL    HW132105   1.982   4.132   6.213  1.2887 -0.1094 -1.1975
 6824SOL    HW232106   1.956   3.994   6.148  0.8771 -0.2235 -0.7171
 6825SOL     OW32107   4.351   3.661   6.593 -0.3721  0.3680 -0.0431
 6825SOL    HW132108   4.288   3.716   6.639 -2.0116 -0.5972 -1.0971
 6825SOL    HW232109   4.305   3.634   6.513  0.4156  0.0101 -0.3742
 6826SOL     OW32110   0.644   0.760   3.312  0.1047 -0.2311 -0.4133
 6826SOL    HW132111   0.699   0.738   3.387 -3.6165 -1.1531  2.0124
 6826SOL    HW232112   0.627   0.672   3.278 -4.1073  0.7724 -0.8877
 6827SOL     OW32113   4.602   3.502   4.420 -0.8374  0.5931 -0.3194
 6827SOL    HW132114   4.652   3.497   4.338 -3.9003  0.4644 -2.1685
 6827SOL    HW232115   4.667   3.459   4.476 -0.6144 -0.6418 -1.5035
 6828SOL     OW32116   2.256   0.016   3.161  0.5005  0.5841  0.0569
 6828SOL    HW132117   2.199   0.035   3.235 -0.9244  0.5265 -1.0337
 6828SOL    HW232118   2.252   0.102   3.120 -1.4945  0.7036  0.5224
 6829SOL     OW32119   0.285   1.474  14.438  0.0537  0.2920  0.0258
 6829SOL    HW132120   0.363   1.523  14.466  0.9608 -1.1982  0.1368
 6829SOL    HW232121   0.338   1.398  14.412 -0.0279  1.1302 -2.5752
 6830SOL     OW32122   0.609   2.881   9.524 -0.0967  0.0153 -0.0220
 6830SOL    HW132123   0.602   2.786   9.534 -0.7930 -0.4019 -4.0506
 6830SOL    HW232124   0.698   2.893   9.556  0.5751  0.4122 -2.0037
 6831SOL     OW32125   4.391   3.129   3.979  0.0987 -0.4117 -0.0871
 6831SOL    HW132126   4.479   3.109   3.948 -0.0781 -0.2118 -0.7140
 6831SOL    HW232127   4.408   3.201   4.040  0.8699 -0.0864 -0.6856
 6832SOL     OW32128   0.977   4.338  12.916  0.0521 -0.1350 -0.1466
 6832SOL    HW132129   0.976   4.342  12.820 -4.2598  0.5862 -0.0809
 6832SOL    HW232130   0.961   4.431  12.929  0.8121  0.0368 -0.4536
 6833SOL     OW32131   1.279   2.750   7.275  0.5941 -0.5147  0.1096
 6833SOL    HW132132   1.365   2.790   7.283  0.6939 -0.5997 -0.5742
 6833SOL    HW232133   1.230   2.817   7.226  0.7620  1.9131  3.2926
 6834SOL     OW32134   0.948   1.151   1.720 -0.0627 -0.6941  0.0456
 6834SOL    HW132135   0.964   1.167   1.813 -1.6584  0.3024  0.1547
 6834SOL    HW232136   0.929   1.242   1.696 -1.3666 -0.7772  0.7589
 6835SOL     OW32137   3.626   0.397   6.992  0.4971  0.1589  0.4889
 6835SOL    HW132138   3.597   0.369   6.906  2.8037 -2.9271  0.7122
 6835SOL    HW232139   3.593   0.322   7.042 -1.5842  0.0700 -1.0546
 6836SOL     OW32140   0.240   1.165   1.175 -0.1671  0.6955  0.7364
 6836SOL    HW132141   0.223   1.094   1.238  2.3110 -0.4303  0.1195
 6836SOL    HW232142   0.262   1.102   1.106 -1.0006 -1.9535  2.8669
 6837SOL     OW32143   2.301   4.584   5.165 -0.1384  1.1075 -0.2141
 6837SOL    HW132144   2.380   4.533   5.186 -0.8106 -0.0779 -0.5341
 6837SOL    HW232145   2.287   4.548   5.077  0.1739 -0.1127  0.2340
 6838SOL     OW32146   1.766   0.780   9.684 -0.8527  0.2155  0.0001
 6838SOL    HW132147   1.849   0.828   9.680  0.1150 -1.4612 -0.2175
 6838SOL    HW232148   1.713   0.840   9.632 -2.6055  1.1318  2.8562
 6839SOL     OW32149   3.224   1.172   3.949 -0.6258  0.4740  0.4789
 6839SOL    HW132150   3.247   1.231   3.878 -0.0057 -0.0124  0.2740
 6839SOL    HW232151   3.275   1.095   3.923 -0.2010  1.1141 -0.5601
 6840SOL     OW32152   0.251   3.706   2.603 -0.0667  0.3542 -0.7550
 6840SOL    HW132153   0.269   3.743   2.516 -0.7298 -0.4627 -1.2388
 6840SOL    HW232154   0.170   3.757   2.612  0.6932  1.5832 -0.8600
 6841SOL     OW32155   2.188   4.494  12.696  0.1473 -0.0832  0.1242
 6841SOL    HW132156   2.245   4.428  12.735  1.4407  0.4167 -0.9278
 6841SOL    HW232157   2.165   4.459  12.610  0.2522  0.0812  0.0300
 6842SOL     OW32158   3.249   0.436   4.080  0.6437 -0.0379 -0.4639
 6842SOL    HW132159   3.295   0.366   4.034 -0.7489  0.2054 -2.2169
 6842SOL    HW232160   3.190   0.383   4.133  1.5471 -0.4715  0.1190
 6843SOL     OW32161   3.772   0.331   4.637 -0.2704  0.1665 -0.1124
 6843SOL    HW132162   3.713   0.404   4.652  0.4176  0.4622  1.1853
 6843SOL    HW232163   3.717   0.254   4.651 -1.8900  1.5963  1.3750
 6844SOL     OW32164   1.821   0.032  10.624  0.5627  0.6811 -0.3798
 6844SOL    HW132165   1.749   0.049  10.686  1.3914  1.4999  0.3645
 6844SOL    HW232166   1.827   0.116  10.578 -1.6780  0.5945 -0.8549
 6845SOL     OW32167   2.213   3.067   1.902 -0.1147 -0.2592  0.1895
 6845SOL    HW132168   2.123   3.072   1.869  0.4445 -0.5169 -1.4198
 6845SOL    HW232169   2.204   3.138   1.965  2.5583 -1.3116  1.7573
 6846SOL     OW32170   1.015   3.555  15.718 -0.4447 -0.2772  0.1791
 6846SOL    HW132171   1.006   3.469  15.758  2.7134 -0.6173  0.1433
 6846SOL    HW232172   1.103   3.579  15.748  0.5546 -2.2425 -1.1751
 6847SOL     OW32173   4.194   0.007   5.090  0.0463 -0.0998  0.0065
 6847SOL    HW132174   4.185   0.013   4.995 -0.8200 -3.1145 -0.0939
 6847SOL    HW232175   4.119   4.692   5.122  0.0228  0.0694  0.2182
 6848SOL     OW32176   3.820   1.363   6.124 -0.2944 -0.8002  0.4394
 6848SOL    HW132177   3.852   1.383   6.212 -0.0121  1.4581 -0.1764
 6848SOL    HW232178   3.904   1.366   6.079 -0.3742  2.4079  0.5003
 6849SOL     OW32179   3.569   2.640  10.997 -0.0930  0.1950 -0.0441
 6849SOL    HW132180   3.590   2.686  11.078 -0.5063 -0.9840  0.7377
 6849SOL    HW232181   3.635   2.572  11.009 -0.3309 -0.0577 -0.1795
 6850SOL     OW32182   2.558   1.582   6.151  0.0114  0.5572  0.2767
 6850SOL    HW132183   2.625   1.646   6.126 -0.1161  0.4588 -0.3066
 6850SOL    HW232184   2.495   1.600   6.082  0.4920  1.0172 -0.0489
 6851SOL     OW32185   0.389   1.465   4.558 -0.1084  0.4402  0.1667
 6851SOL    HW132186   0.317   1.436   4.501 -0.6129  3.8449 -0.9130
 6851SOL    HW232187   0.423   1.539   4.508 -0.0902  0.0151 -0.4581
 6852SOL     OW32188   2.584   3.298   1.214  0.2599 -0.2971 -0.0843
 6852SOL    HW132189   2.527   3.374   1.224  1.6399  0.5824  1.1566
 6852SOL    HW232190   2.605   3.279   1.305 -0.7223 -2.7759 -0.3731
 6853SOL     OW32191   4.365   4.248   7.312 -0.2594 -0.6151  0.4614
 6853SOL    HW132192   4.372   4.291   7.227  2.1437 -0.2599  0.8341
 6853SOL    HW232193   4.455   4.236   7.342 -0.1608 -0.1967  0.3252
 6854SOL     OW32194   1.640   0.418   8.611  0.1725  0.5359 -0.2457
 6854SOL    HW132195   1.639   0.353   8.541 -0.2623 -0.7580  0.9726
 6854SOL    HW232196   1.675   0.367   8.684  0.3351  0.1177 -0.6128
 6855SOL     OW32197   0.126   3.990   6.720 -0.1770  0.0541  0.3553
 6855SOL    HW132198   0.206   4.044   6.723 -0.8702  1.0213  1.1307
 6855SOL    HW232199   0.071   4.016   6.793 -0.1599 -0.3182  0.4978
 6856SOL     OW32200   3.719   4.401   6.426  0.5663  0.2153  0.1722
 6856SOL    HW132201   3.718   4.385   6.521  2.3325 -2.0939 -0.2199
 6856SOL    HW232202   3.661   4.477   6.431 -0.6515 -0.8592  2.4548
 6857SOL     OW32203   1.799   2.319   7.195 -0.1829 -0.1193 -0.3114
 6857SOL    HW132204   1.872   2.362   7.149 -0.7199  1.2717  0.1660
 6857SOL    HW232205   1.818   2.232   7.157 -2.8676 -0.3810 -1.0300
 6858SOL     OW32206   0.861   4.195   4.948 -0.2515  0.3808  0.3186
 6858SOL    HW132207   0.807   4.230   5.019  2.1372  2.0660  1.2719
 6858SOL    HW232208   0.805   4.129   4.906  2.1778 -2.1232  1.0700
 6859SOL     OW32209   2.342   4.362   2.704 -0.2847  0.2984 -0.2312
 6859SOL    HW132210   2.392   4.344   2.784  0.2304  2.6351 -0.0187
 6859SOL    HW232211   2.279   4.429   2.731 -0.8891 -0.9635  1.5594
 6860SOL     OW32212   1.236   3.144   4.711  0.2421  0.0726  0.0950
 6860SOL    HW132213   1.323   3.111   4.692  1.4185  3.1646  0.0683
 6860SOL    HW232214   1.188   3.097   4.643 -1.4949 -1.6137  2.4643
 6861SOL     OW32215   0.803   3.714   8.409 -0.3716  0.4319 -0.0388
 6861SOL    HW132216   0.836   3.769   8.338  1.1635 -1.7169 -1.0028
 6861SOL    HW232217   0.817   3.626   8.372  0.7250  0.6260 -0.0981
 6862SOL     OW32218   2.080   2.749  16.244 -0.2554 -0.3987 -0.0819
 6862SOL    HW132219   2.078   2.674  16.303 -4.1497  0.4997  0.8881
 6862SOL    HW232220   2.174   2.752  16.224 -0.2776  0.9947  0.0367
 6863SOL     OW32221   2.710   1.110  10.452 -0.0515  0.5575  0.2491
 6863SOL    HW132222   2.738   1.093  10.542  1.1469 -0.7020 -0.3653
 6863SOL    HW232223   2.777   1.061  10.404  1.2495  0.1389  2.5010
 6864SOL     OW32224   4.359   1.566  16.242 -0.0788 -0.2769  0.2898
 6864SOL    HW132225   4.455   1.565  16.249 -0.1915 -0.6310  1.7197
 6864SOL    HW232226   4.342   1.649  16.197 -0.5860 -0.3383  0.3724
 6865SOL     OW32227   3.870   2.824   2.600 -0.0489  0.4395  1.1515
 6865SOL    HW132228   3.818   2.841   2.678 -0.3253  2.4985  0.5218
 6865SOL    HW232229   3.826   2.743   2.576  1.1272  0.0403  0.3255
 6866SOL     OW32230   2.562   0.097   5.421  0.3204 -0.4907  0.5381
 6866SOL    HW132231   2.491   0.116   5.482  1.7927  0.2691  2.0139
 6866SOL    HW232232   2.622   0.042   5.472 -1.5492 -0.7895  2.3857
 6867SOL     OW32233   2.891   0.124  10.402  0.1348 -0.1803  0.0083
 6867SOL    HW132234   2.828   0.187  10.367 -1.8754 -2.4388 -0.4464
 6867SOL    HW232235   2.868   0.123  10.495  0.3035  0.5990  0.0629
 6868SOL     OW32236   3.065   4.475   4.990  0.5212  0.4841  0.3039
 6868SOL    HW132237   3.086   4.474   4.897 -1.7300 -1.5048 -0.1871
 6868SOL    HW232238   3.020   4.393   5.009  0.2898  0.2802 -1.0996
 6869SOL     OW32239   3.400   0.597   2.163  0.0223 -0.3393  0.8758
 6869SOL    HW132240   3.335   0.539   2.125 -0.2460  0.1321  0.6206
 6869SOL    HW232241   3.468   0.594   2.096  0.1116 -1.8472  1.0357
 6870SOL     OW32242   1.262   4.083  16.906  0.3965 -0.7276  0.4881
 6870SOL    HW132243   1.169   4.081  16.882  0.3983  0.2516  0.3990
 6870SOL    HW232244   1.308   4.034  16.837 -0.1416  1.2347 -1.2463
 6871SOL     OW32245   2.328   1.805   0.103  0.1615  0.5336  0.4494
 6871SOL    HW132246   2.311   1.736   0.167 -0.3845  0.1180 -0.1531
 6871SOL    HW232247   2.395   1.760   0.052 -0.9988  1.2337 -1.6665
 6872SOL     OW32248   3.367   1.595  12.932  0.0733  0.3987  0.4696
 6872SOL    HW132249   3.300   1.652  12.895  0.0340  0.6167  0.8794
 6872SOL    HW232250   3.428   1.664  12.958  1.1915 -1.2898  2.2860
 6873SOL     OW32251   4.173   1.669   1.353 -0.1394  0.2936  0.9266
 6873SOL    HW132252   4.167   1.573   1.354 -1.0687  0.3037 -2.2404
 6873SOL    HW232253   4.261   1.694   1.382 -0.2100  2.0889 -0.4333
 6874SOL     OW32254   1.892   2.976   8.468 -0.2564  0.1230 -0.0626
 6874SOL    HW132255   1.824   2.954   8.531  1.9439 -1.5775  1.6925
 6874SOL    HW232256   1.854   2.941   8.387  0.3144 -1.2327  0.2547
 6875SOL     OW32257   1.425   1.085   7.203 -0.3037  0.5047  0.7024
 6875SOL    HW132258   1.447   1.049   7.289  1.9190 -1.1772 -0.5874
 6875SOL    HW232259   1.486   1.047   7.140 -1.9435 -0.9529 -0.0219
 6876SOL     OW32260   1.269   1.549   5.269  0.2572  0.7252 -0.4585
 6876SOL    HW132261   1.297   1.515   5.354  0.3518  2.0469  0.0316
 6876SOL    HW232262   1.217   1.476   5.235 -2.1234  1.7056  1.0819
 6877SOL     OW32263   1.076   4.156  12.239 -0.0689  0.3990  0.2000
 6877SOL    HW132264   1.006   4.210  12.202 -0.2892  0.4231  0.6617
 6877SOL    HW232265   1.025   4.099  12.296  1.3036  0.9223  1.9150
 6878SOL     OW32266   2.856   0.592   8.111 -0.5092  0.0523 -0.0472
 6878SOL    HW132267   2.948   0.618   8.108  0.2353 -2.5990 -0.3451
 6878SOL    HW232268   2.817   0.651   8.176  0.4412 -0.6122  1.1282
 6879SOL     OW32269   1.775   1.998   3.568  0.1062 -0.0673  0.0004
 6879SOL    HW132270   1.814   1.974   3.652  0.7223 -0.0569 -0.2832
 6879SOL    HW232271   1.836   1.964   3.503  0.4164 -1.7650  1.1700
 6880SOL     OW32272   2.731   4.661   7.155  0.2632 -0.1397  0.0670
 6880SOL    HW132273   2.655   4.719   7.152  0.9647  0.8654  1.3567
 6880SOL    HW232274   2.731   4.648   7.250 -0.1248  0.4666  0.1528
 6881SOL     OW32275   4.709   0.121  16.516 -0.5309 -0.4532  0.2414
 6881SOL    HW132276   0.064   0.113  16.482  0.7777  0.3410  3.4736
 6881SOL    HW232277   4.669   0.119  16.429 -1.0822 -1.9289  0.5248
 6882SOL     OW32278   3.898   0.694  11.379 -0.1425 -0.0204 -0.4911
 6882SOL    HW132279   3.940   0.629  11.435  2.5156  0.7771 -1.5325
 6882SOL    HW232280   3.822   0.645  11.348  0.9171 -0.7899 -1.9088
 6883SOL     OW32281   4.182   2.476  16.240  1.2449  0.3254 -0.2561
 6883SOL    HW132282   4.160   2.495  16.148  1.6528  3.0187  0.2024
 6883SOL    HW232283   4.182   2.561  16.284  0.6191  0.7156 -1.0001
 6884SOL     OW32284   1.045   4.311  13.892  0.4284  0.1847  0.2559
 6884SOL    HW132285   0.968   4.299  13.836  0.8504  0.9234 -0.4969
 6884SOL    HW232286   1.121   4.295  13.835  0.6348  1.3833  0.1902
 6885SOL     OW32287   2.209   1.718   4.142 -0.3004 -0.1927 -0.3474
 6885SOL    HW132288   2.236   1.758   4.224 -0.6261 -0.3305 -0.1747
 6885SOL    HW232289   2.157   1.647   4.179 -1.7421 -0.5515 -3.0453
 6886SOL     OW32290   3.116   3.751   9.317 -0.8808 -0.6800 -0.1413
 6886SOL    HW132291   3.073   3.689   9.376 -0.9869 -0.0544  0.4364
 6886SOL    HW232292   3.147   3.692   9.248 -0.2064 -2.5704  1.7645
 6887SOL     OW32293   3.047   0.282  17.701 -0.1284  0.1705 -0.3688
 6887SOL    HW132294   3.133   0.324  17.693  0.0666 -0.5498 -2.0291
 6887SOL    HW232295   3.048   0.267   0.060 -0.0810  0.3217 -0.3452
 6888SOL     OW32296   1.482   0.818   8.684  0.4360  0.1001  0.1864
 6888SOL    HW132297   1.447   0.757   8.749 -1.9732  0.3242 -0.8762
 6888SOL    HW232298   1.414   0.837   8.619  1.6969  1.7727 -0.6487
 6889SOL     OW32299   3.084   1.129   6.877  0.0940  0.3214 -0.2775
 6889SOL    HW132300   3.169   1.091   6.899 -0.1953 -0.8054 -1.0886
 6889SOL    HW232301   3.038   1.115   6.959  0.6012  0.6267  0.0580
 6890SOL     OW32302   3.815   1.066  12.372 -0.2756  0.5521  0.5687
 6890SOL    HW132303   3.871   0.991  12.392  0.7590  0.9411 -0.8789
 6890SOL    HW232304   3.832   1.135  12.437  0.8561  0.3516  0.4898
 6891SOL     OW32305   0.425   4.287   4.088  0.1060  0.3727  0.1923
 6891SOL    HW132306   0.355   4.351   4.078 -0.0275 -0.1566 -2.2926
 6891SOL    HW232307   0.460   4.276   4.000 -0.9681  0.2454 -0.2221
 6892SOL     OW32308   1.953   3.336   2.581 -0.2366 -0.0220  0.9301
 6892SOL    HW132309   1.938   3.306   2.671  0.4436 -0.4458  0.9057
 6892SOL    HW232310   1.902   3.417   2.581  0.6950  0.5722  0.9708
 6893SOL     OW32311   0.083   0.856  15.518  0.0033  0.0909 -0.4691
 6893SOL    HW132312   0.129   0.935  15.491 -1.0560  0.8522 -0.0509
 6893SOL    HW232313   0.105   0.799  15.444 -2.1599 -1.1462 -0.1657
 6894SOL     OW32314   4.711   3.360   1.730  0.2529 -0.2127 -0.5689
 6894SOL    HW132315   0.041   3.428   1.750  0.2333  0.4356 -2.7009
 6894SOL    HW232316   4.689   3.333   1.819 -0.0903  1.2546 -0.1917
 6895SOL     OW32317   0.693   4.058  14.234 -0.0472  0.6001  0.2459
 6895SOL    HW132318   0.726   4.045  14.145 -0.3827  0.3350  0.1579
 6895SOL    HW232319   0.709   4.152  14.243 -0.1621  0.7561 -1.1422
 6896SOL     OW32320   1.694   4.429   1.847 -0.4706 -0.2267  0.2155
 6896SOL    HW132321   1.647   4.360   1.801  0.6369  0.4323 -1.9331
 6896SOL    HW232322   1.631   4.474   1.904 -0.9650  1.2055 -1.4490
 6897SOL     OW32323   4.034   0.764   5.756  0.1948  0.2497  0.6528
 6897SOL    HW132324   3.939   0.748   5.754  0.0975  1.0393 -0.4826
 6897SOL    HW232325   4.051   0.828   5.688  1.7432 -0.8009  0.0478
 6898SOL     OW32326   4.495   0.991   5.430 -0.9427 -0.4762 -0.3835
 6898SOL    HW132327   4.524   0.900   5.419 -0.4856 -0.3526 -0.2399
 6898SOL    HW232328   4.527   1.038   5.353 -2.5548 -0.0096 -0.7667
 6899SOL     OW32329   1.626   3.092  13.822  0.2687  0.1006  0.5588
 6899SOL    HW132330   1.636   3.008  13.776 -0.1965  0.4689 -0.2097
 6899SOL    HW232331   1.640   3.155  13.752  0.0912  0.7512  1.1081
 6900SOL     OW32332   1.956   3.168  13.660  0.9418  0.7279 -0.1289
 6900SOL    HW132333   2.026   3.128  13.609 -1.5238 -0.7903 -2.3695
 6900SOL    HW232334   1.975   3.138  13.749  1.7803 -2.5416 -1.3973
 6901SOL     OW32335   1.449   0.626   2.842 -0.1615 -0.1471  0.0087
 6901SOL    HW132336   1.522   0.684   2.866  0.5439 -0.9422 -0.1961
 6901SOL    HW232337   1.378   0.651   2.900  1.1374  1.4176  0.9407
 6902SOL     OW32338   4.666   2.352   8.615  0.2605 -0.4112 -0.2222
 6902SOL    HW132339   4.710   2.306   8.686  1.3694  1.4882  0.3295
 6902SOL    HW232340   4.697   2.442   8.631 -0.6549 -0.4575  1.8226
 6903SOL     OW32341   4.057   0.723   7.661 -0.4345 -0.2666 -0.1888
 6903SOL    HW132342   4.084   0.643   7.616 -2.5298  0.1151 -2.1221
 6903SOL    HW232343   4.126   0.729   7.727 -1.6986 -2.0531  1.3120
 6904SOL     OW32344   4.693   4.307   5.040  0.4564  0.2519  0.3271
 6904SOL    HW132345   0.019   4.237   5.066  0.8556  0.9506  1.2997
 6904SOL    HW232346   4.651   4.321   5.124  0.1738  1.8051 -0.0652
 6905SOL     OW32347   4.065   0.631   6.381 -0.4492 -0.1543  0.6100
 6905SOL    HW132348   4.138   0.666   6.331 -0.2296 -1.7475 -0.1929
 6905SOL    HW232349   4.101   0.581   6.454  1.3255  2.1173  1.2785
 6906SOL     OW32350   3.128   2.525   2.294 -0.1756  0.1817 -0.6491
 6906SOL    HW132351   3.098   2.503   2.206 -0.7603 -6.1957  1.1296
 6906SOL    HW232352   3.221   2.503   2.299 -0.9592 -2.9151  0.5498
 6907SOL     OW32353   1.513   1.309  10.793 -0.3177 -1.0483  0.4388
 6907SOL    HW132354   1.549   1.247  10.856  0.4981 -2.4804 -1.4476
 6907SOL    HW232355   1.422   1.294  10.818 -0.7251 -0.3162 -0.6166
 6908SOL     OW32356   2.176   1.786  13.545  0.4980  0.4079 -0.0422
 6908SOL    HW132357   2.272   1.791  13.544  0.5738 -0.8213  0.3493
 6908SOL    HW232358   2.162   1.691  13.543  1.8428  0.1928  0.9777
 6909SOL     OW32359   2.402   1.671  11.340 -0.0290  0.2776 -0.0205
 6909SOL    HW132360   2.387   1.627  11.424 -3.0856 -1.1259 -1.2746
 6909SOL    HW232361   2.326   1.728  11.331 -2.1256 -2.4028  0.5688
 6910SOL     OW32362   2.345   0.401   6.548  0.2076  0.0724 -0.1367
 6910SOL    HW132363   2.396   0.335   6.595  1.0515 -0.1376 -1.3291
 6910SOL    HW232364   2.345   0.356   6.463  1.3465 -1.1504  0.4940
 6911SOL     OW32365   1.599   1.404   3.759 -0.1707  0.2249  0.7807
 6911SOL    HW132366   1.623   1.412   3.667 -0.7140  1.6647  0.7665
 6911SOL    HW232367   1.629   1.489   3.791  0.1851  0.1490  0.6499
 6912SOL     OW32368   1.237   2.113  11.169 -0.2837  0.0908  0.2470
 6912SOL    HW132369   1.223   2.207  11.174 -0.1062  0.1582 -0.5498
 6912SOL    HW232370   1.149   2.076  11.179 -0.4767  0.9912  1.8371
 6913SOL     OW32371   1.379   0.736   7.329  0.0707 -0.5622 -0.4755
 6913SOL    HW132372   1.306   0.777   7.282 -0.7563 -1.9316 -0.3873
 6913SOL    HW232373   1.413   0.679   7.259 -1.2385  0.1031 -1.6521
 6914SOL     OW32374   3.680   2.201   5.603 -0.0015 -0.0043 -0.1014
 6914SOL    HW132375   3.689   2.205   5.698 -1.4302 -2.7989  0.1369
 6914SOL    HW232376   3.770   2.200   5.569  0.7076 -0.9722  1.7865
 6915SOL     OW32377   2.783   3.021   6.321  0.0239 -0.2987 -0.7281
 6915SOL    HW132378   2.758   2.931   6.302  0.9963 -0.7595  0.1666
 6915SOL    HW232379   2.878   3.012   6.306  0.1886 -1.3832  1.0500
 6916SOL     OW32380   2.452   0.607   5.931  0.2066 -0.3013  0.3139
 6916SOL    HW132381   2.547   0.595   5.929  0.3882  0.9407  1.9506
 6916SOL    HW232382   2.418   0.527   5.971  0.6096  0.7973  2.8433
 6917SOL     OW32383   0.157   4.231  17.493 -0.7437  0.0804  0.1478
 6917SOL    HW132384   0.092   4.302  17.498  1.3523  2.0152 -0.3590
 6917SOL    HW232385   0.180   4.194  17.578  0.6841  0.3315 -0.1310
 6918SOL     OW32386   1.403   1.427   7.440 -0.2166  0.4689  0.3987
 6918SOL    HW132387   1.357   1.486   7.500  0.6295  3.1413 -1.5498
 6918SOL    HW232388   1.344   1.355   7.419  1.4123 -0.8317  0.2368
 6919SOL     OW32389   3.344   3.496  12.691 -0.0201  0.2970 -0.1855
 6919SOL    HW132390   3.305   3.483  12.778  0.9754 -0.8938  0.0851
 6919SOL    HW232391   3.305   3.581  12.673  0.6805  0.0483 -2.9108
 6920SOL     OW32392   0.425   2.814   4.060  0.3701  0.4130  0.8725
 6920SOL    HW132393   0.338   2.844   4.034 -0.1249 -0.5178  1.4798
 6920SOL    HW232394   0.416   2.727   4.099 -2.1800  0.6712  0.8354
 6921SOL     OW32395   3.717   1.391  16.610  0.4364  0.0660  0.4409
 6921SOL    HW132396   3.692   1.448  16.682 -0.8609 -0.5951  0.4989
 6921SOL    HW232397   3.811   1.378  16.627  0.7369  0.4875 -0.8835
 6922SOL     OW32398   1.011   1.666  11.476  0.3466  0.0886  0.1977
 6922SOL    HW132399   1.076   1.613  11.522  0.9420 -0.7247 -1.5764
 6922SOL    HW232400   1.003   1.738  11.538  0.9135 -0.3018  0.7233
 6923SOL     OW32401   0.641   3.374   4.376  0.1747 -0.2920  0.3866
 6923SOL    HW132402   0.714   3.321   4.407  0.0941  1.4031  3.4936
 6923SOL    HW232403   0.673   3.407   4.292 -0.3062 -1.0795 -0.1065
 6924SOL     OW32404   1.133   0.748   1.501  0.2657  0.3688  0.2030
 6924SOL    HW132405   1.050   0.789   1.528 -0.8560 -1.2529 -0.7648
 6924SOL    HW232406   1.183   0.824   1.529  2.2865 -0.4347 -1.2507
 6925SOL     OW32407   1.305   4.013  13.086 -0.0780 -0.1472  0.0725
 6925SOL    HW132408   1.270   4.093  13.125  1.7456  0.6711  0.0612
 6925SOL    HW232409   1.394   4.013  13.123  0.6691  0.0675 -1.7174
 6926SOL     OW32410   2.631   3.460   4.660  0.7973  0.0167 -0.2630
 6926SOL    HW132411   2.545   3.484   4.695  0.4152 -0.1632 -1.0840
 6926SOL    HW232412   2.615   3.380   4.611 -1.1642 -0.4069  1.0799
 6927SOL     OW32413   3.907   0.567   7.073  0.4401  0.3441  0.0884
 6927SOL    HW132414   3.990   0.518   7.076  0.3195  0.0977 -0.5014
 6927SOL    HW232415   3.839   0.513   7.114 -0.5145  0.7300 -0.9854
 6928SOL     OW32416   3.112   0.285   7.817 -0.1026 -0.6072 -0.0942
 6928SOL    HW132417   3.156   0.256   7.737 -0.0541  1.2765 -0.7487
 6928SOL    HW232418   3.036   0.227   7.818 -1.9411  1.7768 -2.6731
 6929SOL     OW32419   3.788   3.830   6.223 -0.5144  0.2551  0.2862
 6929SOL    HW132420   3.697   3.814   6.198 -0.9878  1.5731  1.1815
 6929SOL    HW232421   3.793   3.822   6.318 -0.2728  1.8301  0.4109
 6930SOL     OW32422   3.142   4.496   2.640 -0.2455 -0.4183 -0.6591
 6930SOL    HW132423   3.224   4.463   2.677 -0.0592  0.5755 -0.1964
 6930SOL    HW232424   3.079   4.436   2.682  2.5287 -2.3246  0.7798
 6931SOL     OW32425   2.413   2.648  15.950 -0.1756 -0.1514 -0.7946
 6931SOL    HW132426   2.427   2.567  15.900  0.2145 -0.2200 -0.5803
 6931SOL    HW232427   2.467   2.707  15.898  1.8351 -1.7936 -0.6253
 6932SOL     OW32428   2.084   4.409  11.045  0.2838  0.2845 -0.0316
 6932SOL    HW132429   2.061   4.316  11.052  1.7883 -0.0877  0.1292
 6932SOL    HW232430   2.006   4.439  10.999 -0.1742 -0.7250  0.0848
 6933SOL     OW32431   0.038   4.595   2.955 -0.7876  0.0824 -0.1220
 6933SOL    HW132432   4.678   4.579   2.947 -0.5670 -1.2405 -0.0288
 6933SOL    HW232433   0.044   4.690   2.945  0.3079 -0.0040 -0.2992
 6934SOL     OW32434   0.757   3.313  14.732  0.4744 -0.2087  0.0292
 6934SOL    HW132435   0.764   3.327  14.637 -2.3827 -0.1132 -0.1717
 6934SOL    HW232436   0.698   3.238  14.730  0.6131 -0.3013 -0.6374
 6935SOL     OW32437   3.827   2.745   4.087 -0.3655  0.3810 -0.5629
 6935SOL    HW132438   3.847   2.822   4.140  0.5491  1.6330 -2.7355
 6935SOL    HW232439   3.735   2.766   4.074 -0.2257  1.9515  0.9330
 6936SOL     OW32440   1.793   3.850   5.592 -0.5583 -0.5470 -0.0154
 6936SOL    HW132441   1.704   3.865   5.624  0.5521  0.1219  2.7431
 6936SOL    HW232442   1.780   3.797   5.513 -2.8028 -2.4195  1.6115
 6937SOL     OW32443   0.152   1.623   9.656  0.1369 -0.8728 -0.2826
 6937SOL    HW132444   0.086   1.570   9.702 -0.2279 -0.6668 -0.5741
 6937SOL    HW232445   0.165   1.697   9.715  2.9386 -1.5719  0.0170
 6938SOL     OW32446   1.307   1.977   5.251  0.0399  0.3011  0.6782
 6938SOL    HW132447   1.254   2.052   5.275 -0.3200  0.7575 -1.5017
 6938SOL    HW232448   1.244   1.905   5.253  2.8114 -2.1794 -1.2074
 6939SOL     OW32449   2.598   1.288   4.148  0.2295  0.6433 -0.0457
 6939SOL    HW132450   2.646   1.239   4.215 -0.8198  0.5279  0.6169
 6939SOL    HW232451   2.515   1.288   4.195  0.3341 -2.3796  0.1186
 6940SOL     OW32452   0.451   3.772   6.640  0.1803 -0.1451  0.6834
 6940SOL    HW132453   0.424   3.852   6.595  1.4330 -0.0579  0.0781
 6940SOL    HW232454   0.393   3.704   6.606  0.7887  0.9794 -2.5430
 6941SOL     OW32455   3.154   2.896  15.316 -0.3360 -0.6249  0.7056
 6941SOL    HW132456   3.234   2.845  15.306  1.5791  1.9747  2.9647
 6941SOL    HW232457   3.166   2.962  15.248 -1.1545 -1.2109 -0.0286
 6942SOL     OW32458   2.351   4.483   3.121  0.2486 -0.1073  0.1919
 6942SOL    HW132459   2.325   4.486   3.213 -0.7407 -2.5685 -0.0005
 6942SOL    HW232460   2.365   4.576   3.105  0.0638 -0.1747 -0.3574
 6943SOL     OW32461   2.652   1.114   8.910 -0.6541 -0.5984  0.3103
 6943SOL    HW132462   2.627   1.022   8.921  0.3219 -0.8148  0.7962
 6943SOL    HW232463   2.593   1.154   8.847  1.1518 -0.5773 -1.3830
 6944SOL     OW32464   2.324   3.955   2.712 -0.2774 -0.4839 -0.0796
 6944SOL    HW132465   2.414   3.963   2.744 -1.1713 -0.8995  2.5938
 6944SOL    HW232466   2.319   3.874   2.662 -1.5139 -0.6361  0.2818
 6945SOL     OW32467   2.845   3.320   5.246 -0.1834  0.1072 -0.1962
 6945SOL    HW132468   2.831   3.325   5.340 -2.4736  2.0130 -0.6380
 6945SOL    HW232469   2.891   3.403   5.233  1.3625 -0.5924  0.7997
 6946SOL     OW32470   1.953   3.660   3.850  0.9222  0.5273  0.2135
 6946SOL    HW132471   1.963   3.685   3.758  1.2827 -1.1046 -0.1872
 6946SOL    HW232472   1.859   3.644   3.855  1.5591 -2.9283  0.9640
 6947SOL     OW32473   3.450   2.349   8.232 -0.4603  0.0430 -0.2273
 6947SOL    HW132474   3.429   2.378   8.321 -0.3861  2.2196 -0.9314
 6947SOL    HW232475   3.414   2.261   8.248  0.3459 -0.0572  1.0410
 6948SOL     OW32476   4.272   0.063   9.270 -0.2642  0.0878 -0.0000
 6948SOL    HW132477   4.297   0.019   9.189  3.5870  0.7022  0.8666
 6948SOL    HW232478   4.350   0.061   9.326 -0.3516 -2.9085  0.0411
 6949SOL     OW32479   1.649   2.154  14.101  0.5513 -0.1539 -0.0546
 6949SOL    HW132480   1.562   2.193  14.094 -0.2608 -2.2947 -2.1134
 6949SOL    HW232481   1.716   2.222  14.091  0.9626 -0.6125 -0.4786
 6950SOL     OW32482   3.821   0.699   1.871  0.1077 -0.2363 -0.6653
 6950SOL    HW132483   3.898   0.732   1.918 -0.6582  1.3609 -0.5185
 6950SOL    HW232484   3.859   0.695   1.783  2.7471  1.4046  0.4070
 6951SOL     OW32485   2.393   2.470   0.665 -0.5894 -0.1140  0.4428
 6951SOL    HW132486   2.331   2.397   0.669 -1.6672  0.6780 -1.6051
 6951SOL    HW232487   2.439   2.442   0.586 -0.3907 -0.2407  0.6047
 6952SOL     OW32488   2.110   3.351  15.220 -0.0065  0.2908 -0.3832
 6952SOL    HW132489   2.156   3.296  15.156  1.9398  0.8715  0.4869
 6952SOL    HW232490   2.094   3.286  15.288  3.4204  1.0357  1.1792
 6953SOL     OW32491   1.378   2.782   9.749  0.3411 -0.1206  0.5184
 6953SOL    HW132492   1.344   2.871   9.753  0.1565 -0.1532 -0.2857
 6953SOL    HW232493   1.359   2.767   9.656 -0.8313 -1.3983  0.9626
 6954SOL     OW32494   0.393   0.427  15.236  0.2869 -0.3687  0.0744
 6954SOL    HW132495   0.412   0.520  15.241  2.6469 -0.7614 -1.2376
 6954SOL    HW232496   0.479   0.389  15.216  0.4083  0.5038 -1.0817
 6955SOL     OW32497   4.127   1.598   2.775 -0.7374  0.0649 -0.7315
 6955SOL    HW132498   4.066   1.525   2.780 -1.4881  0.6348 -1.5608
 6955SOL    HW232499   4.133   1.607   2.680  1.8780 -1.1481 -0.6843
 6956SOL     OW32500   3.681   1.086  16.932 -0.1383 -0.3906 -0.1303
 6956SOL    HW132501   3.633   1.004  16.941  1.1338 -1.0592  0.5064
 6956SOL    HW232502   3.621   1.145  16.978 -1.4107 -0.9934 -1.0055
 6957SOL     OW32503   3.070   2.521   2.568  0.3580 -0.0889 -0.4665
 6957SOL    HW132504   3.000   2.585   2.582  2.7535  2.0280  1.9017
 6957SOL    HW232505   3.069   2.512   2.473 -1.7123  0.3283 -0.4950
 6958SOL     OW32506   4.141   0.437  10.745  0.1613 -0.2192 -0.1799
 6958SOL    HW132507   4.153   0.479  10.830  2.6678  0.9667 -1.1196
 6958SOL    HW232508   4.166   0.504  10.682  1.9140 -0.5345  0.1851
 6959SOL     OW32509   4.186   2.244  14.381  0.0935  0.0498  0.3535
 6959SOL    HW132510   4.169   2.338  14.379  0.8461  0.1717 -0.2330
 6959SOL    HW232511   4.269   2.255  14.335  0.3643  1.6817  1.2432
 6960SOL     OW32512   4.029   2.175   3.616 -0.1496 -0.0346  0.2457
 6960SOL    HW132513   3.995   2.123   3.689  1.8789 -0.7322  0.6678
 6960SOL    HW232514   4.035   2.259   3.660  0.1159  0.3851 -0.5942
 6961SOL     OW32515   0.605   4.317   4.817 -0.5700  0.0258  0.3786
 6961SOL    HW132516   0.617   4.406   4.850 -2.2127 -0.2014  1.6433
 6961SOL    HW232517   0.628   4.322   4.724  0.9612  1.8194  0.8537
 6962SOL     OW32518   0.625   4.421  16.091 -0.0530  0.0156  0.0752
 6962SOL    HW132519   0.551   4.362  16.072 -1.2709  0.8197  2.4369
 6962SOL    HW232520   0.697   4.362  16.116  0.1151  0.9974  1.8368
 6963SOL     OW32521   1.831   3.013  13.949  0.1823 -0.2931 -0.2310
 6963SOL    HW132522   1.749   3.040  13.908  0.5762  1.8474  0.4082
 6963SOL    HW232523   1.849   3.086  14.008 -0.0696 -0.8130  0.4894
 6964SOL     OW32524   1.684   2.731   8.272  0.3301 -0.0855  0.2460
 6964SOL    HW132525   1.652   2.703   8.186 -1.1129 -1.6769  1.3195
 6964SOL    HW232526   1.739   2.808   8.256  0.2931 -0.0153  0.4516
 6965SOL     OW32527   3.741   1.640   8.877 -0.4326  0.2933  0.0375
 6965SOL    HW132528   3.718   1.566   8.933 -0.6735 -1.9111 -2.9682
 6965SOL    HW232529   3.698   1.610   8.797  1.3279  1.0218 -1.1803
 6966SOL     OW32530   2.629   2.379   6.944  0.4993 -0.7849 -0.0224
 6966SOL    HW132531   2.595   2.421   7.023 -1.8550 -2.0844 -0.3628
 6966SOL    HW232532   2.724   2.379   6.960  0.3851  0.1444  0.6961
 6967SOL     OW32533   1.747   2.489   5.063  0.8408 -0.5003  0.0190
 6967SOL    HW132534   1.833   2.530   5.056 -0.5000  2.1094 -1.0017
 6967SOL    HW232535   1.757   2.432   5.139 -1.1533 -1.1166 -0.1721
 6968SOL     OW32536   0.367   2.275   2.665  0.6445  0.2744 -0.1095
 6968SOL    HW132537   0.307   2.245   2.734  0.1405  0.8645 -0.2923
 6968SOL    HW232538   0.300   2.297   2.601  0.8729  1.3351  0.0176
 6969SOL     OW32539   0.768   3.467   3.265  0.0963  0.0900 -0.3897
 6969SOL    HW132540   0.774   3.381   3.307 -3.0574 -0.4582 -1.0076
 6969SOL    HW232541   0.774   3.437   3.174 -0.9187  2.3929 -1.2060
 6970SOL     OW32542   3.250   0.982   0.662 -0.2347 -0.0146  0.0885
 6970SOL    HW132543   3.296   1.018   0.586  1.9051  1.7663  2.2650
 6970SOL    HW232544   3.183   1.050   0.672  0.3395  0.3786  1.2166
 6971SOL     OW32545   3.231   0.823  16.751  0.1021 -0.4666 -0.2287
 6971SOL    HW132546   3.158   0.864  16.706  1.6348  1.8784 -0.6194
 6971SOL    HW232547   3.307   0.841  16.694  1.1854 -1.4860  0.8919
 6972SOL     OW32548   3.926   1.910   2.566 -0.0979  0.0942 -0.3530
 6972SOL    HW132549   3.974   1.827   2.577 -0.3649  0.1500  1.2767
 6972SOL    HW232550   3.955   1.974   2.631  0.7650 -0.3265 -0.3160
 6973SOL     OW32551   0.176   3.733  12.308 -0.1775 -0.0056  0.2747
 6973SOL    HW132552   0.144   3.648  12.280  0.0642 -0.5801  1.7364
 6973SOL    HW232553   0.254   3.699  12.351 -0.4655 -0.3905  0.4920
 6974SOL     OW32554   0.464   3.502  15.080 -0.3705  0.6509 -0.5429
 6974SOL    HW132555   0.531   3.435  15.096 -0.4410  1.6006  3.4893
 6974SOL    HW232556   0.432   3.469  14.995  1.1000  0.7811 -1.1549
 6975SOL     OW32557   1.668   2.726   6.098  0.1883 -0.0177  0.4036
 6975SOL    HW132558   1.721   2.669   6.043 -0.2192  1.3261 -1.3776
 6975SOL    HW232559   1.603   2.748   6.031  0.5230  0.9042  0.3750
 6976SOL     OW32560   4.148   2.153   6.100 -0.0438 -0.1386  0.3360
 6976SOL    HW132561   4.144   2.077   6.158 -2.3332 -0.0407  0.3279
 6976SOL    HW232562   4.158   2.109   6.016 -0.5889  0.1554  0.1177
 6977SOL     OW32563   1.700   1.487   5.521  0.0146 -0.1594  0.2090
 6977SOL    HW132564   1.748   1.440   5.589  1.0967 -0.4669 -0.7669
 6977SOL    HW232565   1.781   1.514   5.477  0.4115 -1.7225 -0.0242
 6978SOL     OW32566   1.483   1.138   1.610 -0.4361 -0.1688  0.3256
 6978SOL    HW132567   1.444   1.155   1.524 -0.3670  0.8115  0.4908
 6978SOL    HW232568   1.508   1.228   1.631 -0.8491  0.1854 -0.6655
 6979SOL     OW32569   0.153   2.918   6.585 -0.1358 -0.2057  0.6157
 6979SOL    HW132570   0.153   2.993   6.525  1.3769 -1.2305 -0.6763
 6979SOL    HW232571   0.177   2.963   6.666  1.7137 -0.4505  0.2077
 6980SOL     OW32572   0.802   1.453  10.048  0.2771  0.5487  0.2488
 6980SOL    HW132573   0.812   1.537  10.003 -0.5237 -1.0569 -2.9415
 6980SOL    HW232574   0.892   1.424  10.064  0.5348  1.5887  0.6847
 6981SOL     OW32575   2.457   3.938  15.104  0.3168 -0.5527  0.4939
 6981SOL    HW132576   2.374   3.955  15.060  1.0713  0.1619 -0.6429
 6981SOL    HW232577   2.451   3.997  15.179  0.6867  1.5566 -1.1516
 6982SOL     OW32578   4.299   1.462   4.847  0.6115 -0.1697  0.3265
 6982SOL    HW132579   4.283   1.513   4.767  0.4167  0.1718  0.5817
 6982SOL    HW232580   4.265   1.525   4.911  2.5044 -1.4173  2.5460
 6983SOL     OW32581   1.129   2.099   5.075  0.6475 -0.7320 -0.4973
 6983SOL    HW132582   1.219   2.090   5.104  1.4678  4.0275 -1.5253
 6983SOL    HW232583   1.139   2.093   4.980  2.5065  0.2210 -0.3694
 6984SOL     OW32584   1.440   2.767   8.384 -0.3442  0.0555  0.6839
 6984SOL    HW132585   1.514   2.734   8.334  0.5872 -0.5563  2.4923
 6984SOL    HW232586   1.433   2.859   8.358 -2.3152 -0.0106  0.9369
 6985SOL     OW32587   2.389   2.638   8.946 -0.2563 -0.2045 -0.5465
 6985SOL    HW132588   2.376   2.545   8.964 -3.2049  0.2075 -0.5154
 6985SOL    HW232589   2.307   2.679   8.975  0.4172 -1.2125  2.8030
 6986SOL     OW32590   0.952   2.757   2.579 -0.0300 -0.7023  0.6188
 6986SOL    HW132591   1.042   2.760   2.547  0.3311  0.0884  1.7277
 6986SOL    HW232592   0.927   2.669   2.550 -2.7263 -0.2604  1.6485
 6987SOL     OW32593   3.734   1.006   7.464 -0.0582  0.6063  0.6096
 6987SOL    HW132594   3.734   0.958   7.381 -0.8741 -0.3786  1.1870
 6987SOL    HW232595   3.826   1.030   7.474 -0.3943  2.1284  0.0477
 6988SOL     OW32596   1.900   1.995   8.442  0.3694 -0.0126  0.2300
 6988SOL    HW132597   1.955   1.993   8.520 -1.3715 -1.9576  1.4015
 6988SOL    HW232598   1.878   2.088   8.439 -1.1902 -0.3614  1.1284
 6989SOL     OW32599   1.016   4.007  12.791  0.7932 -0.2145 -0.1804
 6989SOL    HW132600   1.038   4.097  12.816 -0.7946 -0.3486  1.7563
 6989SOL    HW232601   1.104   3.970  12.795  2.0927  2.9098 -0.3356
 6990SOL     OW32602   2.991   1.735   2.742  0.0287  0.6062 -0.0567
 6990SOL    HW132603   2.945   1.652   2.755 -1.6474  1.4190 -0.8357
 6990SOL    HW232604   3.073   1.701   2.706  0.1495  1.2300 -0.3625
 6991SOL     OW32605   1.865   4.000  15.057  0.4789 -0.1728  0.4774
 6991SOL    HW132606   1.855   4.055  14.980 -1.5376 -2.0256 -0.5736
 6991SOL    HW232607   1.872   3.911  15.024 -2.4802  0.0767 -0.8072
 6992SOL     OW32608   0.717   1.241  12.479  1.0201 -0.2324 -0.0577
 6992SOL    HW132609   0.631   1.226  12.440  0.8369  1.5169 -0.3289
 6992SOL    HW232610   0.758   1.304  12.421  1.8285 -1.6550 -1.0007
 6993SOL     OW32611   2.918   4.495   0.561  0.0751  0.1593 -0.5309
 6993SOL    HW132612   2.858   4.435   0.516 -0.4648  1.0750 -1.0138
 6993SOL    HW232613   2.879   4.581   0.547  0.3450  0.5147  0.8746
 6994SOL     OW32614   4.169   0.527   4.972 -0.0947  0.2241  0.2950
 6994SOL    HW132615   4.231   0.461   4.940 -0.1657  0.8739 -1.1993
 6994SOL    HW232616   4.132   0.564   4.891  0.5320  1.4358  0.5668
 6995SOL     OW32617   0.962   3.236   9.695 -0.3335 -0.4731  0.1311
 6995SOL    HW132618   1.043   3.211   9.739 -1.8117 -1.8487  2.0846
 6995SOL    HW232619   0.935   3.323   9.724  0.4189 -0.3560  0.4668
 6996SOL     OW32620   3.758   1.682   4.381  0.1056 -0.2318  0.7244
 6996SOL    HW132621   3.696   1.698   4.451 -0.5169 -0.7584  0.2952
 6996SOL    HW232622   3.744   1.769   4.345 -0.4230 -0.2011  1.0184
 6997SOL     OW32623   0.127   3.349   8.721 -0.3126  0.5238  0.4198
 6997SOL    HW132624   0.056   3.287   8.735 -0.9221  1.6212  2.1594
 6997SOL    HW232625   0.076   3.430   8.724 -0.7171  0.4250 -4.0317
 6998SOL     OW32626   0.015   2.381   8.894  0.6228 -0.1712  0.0763
 6998SOL    HW132627   0.020   2.356   8.986  0.6451 -2.3875 -0.5359
 6998SOL    HW232628   4.722   2.473   8.887 -0.8170 -0.7021 -1.3538
 6999SOL     OW32629   1.437   2.376   7.555  0.9741  0.2709 -0.6992
 6999SOL    HW132630   1.366   2.388   7.492  2.1688  0.8409 -1.9436
 6999SOL    HW232631   1.424   2.283   7.574  0.2693  0.3214 -0.9456
 7000SOL     OW32632   0.828   3.609  14.394  0.4680 -0.5060 -0.4118
 7000SOL    HW132633   0.742   3.651  14.388  0.7405 -0.0659 -1.1798
 7000SOL    HW232634   0.874   3.670  14.337 -1.1072  1.9663  0.9446
 7001SOL     OW32635   3.639   3.039   3.582 -0.6069 -0.3962  0.5754
 7001SOL    HW132636   3.660   3.108   3.645  0.4770  0.4237 -0.6850
 7001SOL    HW232637   3.651   2.958   3.631  0.9747  0.1978  1.1670
 7002SOL     OW32638   3.857   0.639   1.178  0.1888 -0.4502  0.0444
 7002SOL    HW132639   3.789   0.707   1.172  1.4790  1.0294  2.4454
 7002SOL    HW232640   3.830   0.579   1.247  1.7155 -1.4765 -0.2518
 7003SOL     OW32641   3.737   2.769  15.491 -0.3577  0.4621 -0.1052
 7003SOL    HW132642   3.707   2.745  15.579 -0.0350 -0.4153 -0.2420
 7003SOL    HW232643   3.800   2.704  15.460  1.5556  1.0864  2.5098
 7004SOL     OW32644   3.821   3.383   4.940 -0.2300  0.5631 -0.6822
 7004SOL    HW132645   3.765   3.416   4.870  0.6083  0.6871 -1.2984
 7004SOL    HW232646   3.828   3.466   4.987 -0.2699  0.4363 -0.4533
 7005SOL     OW32647   1.192   2.607   1.300  0.2809 -0.1116 -0.2244
 7005SOL    HW132648   1.141   2.526   1.297  0.8254 -0.4714  0.2406
 7005SOL    HW232649   1.209   2.611   1.394  0.6825  1.5881 -0.3683
 7006SOL     OW32650   3.565   2.314   7.977  0.6694 -0.2765 -0.1224
 7006SOL    HW132651   3.629   2.383   7.993 -1.4191  1.2826  1.5782
 7006SOL    HW232652   3.537   2.313   8.069 -1.0195  0.2352 -0.6382
 7007SOL     OW32653   2.996   4.684   0.258  0.4728 -0.1889  0.1650
 7007SOL    HW132654   2.985   0.016   0.190  0.1522 -0.8269 -0.4111
 7007SOL    HW232655   2.909   4.673   0.296 -1.1380  1.2167 -3.0917
 7008SOL     OW32656   1.950   3.122   1.813 -0.6506  0.0284 -0.0133
 7008SOL    HW132657   1.883   3.053   1.820  0.5749 -1.0382  1.1557
 7008SOL    HW232658   1.886   3.185   1.779 -0.8735  0.2517  0.8221
 7009SOL     OW32659   1.968   3.748  17.020  0.2360 -0.1692  0.8024
 7009SOL    HW132660   2.022   3.673  17.046  0.8737  0.7248  2.1090
 7009SOL    HW232661   1.979   3.748  16.925  1.3513 -2.1703  0.9389
 7010SOL     OW32662   3.451   3.229   4.746  0.1006 -0.2551 -1.0371
 7010SOL    HW132663   3.434   3.184   4.829  0.7415  0.2273 -0.6380
 7010SOL    HW232664   3.366   3.269   4.730  1.1549  1.5652 -2.1465
 7011SOL     OW32665   1.488   1.931  14.438  0.2104  0.3257  0.0971
 7011SOL    HW132666   1.396   1.960  14.441  0.7233  1.9801 -0.0116
 7011SOL    HW232667   1.484   1.867  14.509 -1.0164  1.1937  0.8107
 7012SOL     OW32668   1.666   2.712  13.368  0.3662 -0.2117 -0.2139
 7012SOL    HW132669   1.757   2.683  13.371  1.3712  2.5503 -3.4257
 7012SOL    HW232670   1.679   2.800  13.332  2.7881 -1.2943 -2.0345
 7013SOL     OW32671   1.706   1.374   1.829 -0.3256 -0.0618  0.0540
 7013SOL    HW132672   1.687   1.466   1.851 -2.2486 -0.1640 -1.1706
 7013SOL    HW232673   1.617   1.352   1.801 -0.8291  2.6316 -0.4832
 7014SOL     OW32674   3.677   0.585   8.643 -0.0768 -0.3773 -0.5372
 7014SOL    HW132675   3.765   0.578   8.605  0.0761 -1.3043 -0.0352
 7014SOL    HW232676   3.696   0.646   8.714 -2.6947 -0.8834  0.6159
 7015SOL     OW32677   1.890   0.620  12.820  0.3307  0.2770 -0.0241
 7015SOL    HW132678   1.963   0.588  12.767  1.9198  1.8363  1.2102
 7015SOL    HW232679   1.916   0.711  12.837 -2.8050  1.2968 -0.7887
 7016SOL     OW32680   1.197   2.803   1.542  0.0252  0.3651 -0.1293
 7016SOL    HW132681   1.236   2.807   1.629  0.7547 -0.8957 -0.4063
 7016SOL    HW232682   1.213   2.893   1.511  0.2753  0.9181  1.6378
 7017SOL     OW32683   3.408   0.145   7.897  0.6684 -0.3965  0.7402
 7017SOL    HW132684   3.397   0.218   7.957  2.6029  0.8413 -0.4110
 7017SOL    HW232685   3.358   0.075   7.939  0.2675 -0.9290 -0.6238
 7018SOL     OW32686   1.877   4.238   5.556 -0.0307 -0.0263  0.1832
 7018SOL    HW132687   1.899   4.330   5.542  0.6179 -0.3638 -1.0597
 7018SOL    HW232688   1.945   4.204   5.614 -0.2634 -0.9994 -0.1141
 7019SOL     OW32689   0.275   2.301   1.470  0.3796 -0.4264 -0.0544
 7019SOL    HW132690   0.208   2.234   1.485  0.0017 -0.3674 -1.5389
 7019SOL    HW232691   0.346   2.246   1.436  0.0333 -0.9473  0.0537
 7020SOL     OW32692   0.515   0.791   7.846  0.2506  0.2743 -0.1113
 7020SOL    HW132693   0.611   0.782   7.845  0.0637 -1.8626  1.3322
 7020SOL    HW232694   0.511   0.866   7.787 -0.9488 -1.1043 -1.8013
 7021SOL     OW32695   2.537   4.522  14.930  0.1977  0.6614  0.1583
 7021SOL    HW132696   2.580   4.531  14.845 -3.5251  3.4352 -1.3865
 7021SOL    HW232697   2.533   4.428  14.951 -0.3863 -0.1014 -3.2551
 7022SOL     OW32698   3.949   2.387   5.437  0.0087 -0.3585  0.1992
 7022SOL    HW132699   3.972   2.437   5.358 -2.6479 -1.0315 -0.9939
 7022SOL    HW232700   3.973   2.298   5.410 -0.3586 -1.4754  3.5145
 7023SOL     OW32701   0.483   4.343   2.537  0.4612 -0.2013 -1.0073
 7023SOL    HW132702   0.499   4.249   2.533  1.3048 -0.1871  1.6667
 7023SOL    HW232703   0.480   4.368   2.445 -2.7223 -2.6907 -1.5871
 7024SOL     OW32704   0.901   3.179   8.996 -0.0818  0.0548  0.0639
 7024SOL    HW132705   0.837   3.246   9.020  1.2491  2.1208 -2.1487
 7024SOL    HW232706   0.863   3.105   9.042  0.4938  0.6218  1.4655
 7025SOL     OW32707   1.835   1.848   9.301 -0.4064  0.3916  0.8885
 7025SOL    HW132708   1.787   1.925   9.272  0.9520  1.7684  2.2947
 7025SOL    HW232709   1.770   1.804   9.356 -0.2493 -2.8803 -1.5567
 7026SOL     OW32710   0.374   0.929   1.020  0.4741 -0.3865 -0.3265
 7026SOL    HW132711   0.434   0.913   1.092  2.5528 -0.2325 -2.0314
 7026SOL    HW232712   0.294   0.918   1.071  1.1401 -0.9987  0.5756
 7027SOL     OW32713   0.422   1.907   6.720  0.3160 -0.0769 -0.6470
 7027SOL    HW132714   0.448   1.872   6.634 -0.0554  0.2485 -0.8918
 7027SOL    HW232715   0.327   1.898   6.724  0.1935  1.2207 -0.7317
 7028SOL     OW32716   3.793   0.886   2.926 -0.1952 -0.2045  0.1581
 7028SOL    HW132717   3.878   0.924   2.904 -1.9731  1.5351 -3.6802
 7028SOL    HW232718   3.739   0.963   2.907 -0.2499 -0.9435 -2.7163
 7029SOL     OW32719   3.421   3.621   3.828 -0.1067 -0.4245 -0.3603
 7029SOL    HW132720   3.419   3.715   3.842  2.4413 -0.4760  0.4479
 7029SOL    HW232721   3.482   3.590   3.895 -0.0887  0.3488 -0.0184
 7030SOL     OW32722   0.411   4.702   6.268 -0.4318 -0.0156  0.3783
 7030SOL    HW132723   0.372   0.003   6.188  2.8909  1.8691 -0.4327
 7030SOL    HW232724   0.345   4.708   6.337  2.0544  1.2636  2.6388
 7031SOL     OW32725   0.742   1.379  14.589  0.1702  0.5872 -0.3487
 7031SOL    HW132726   0.748   1.373  14.685  1.3452 -1.0114 -0.5197
 7031SOL    HW232727   0.754   1.286  14.567 -0.4910  0.8591 -1.8108
 7032SOL     OW32728   2.619   3.300   6.781  0.2127 -0.4191 -0.1555
 7032SOL    HW132729   2.572   3.267   6.857  1.7959 -2.2604 -0.0049
 7032SOL    HW232730   2.632   3.228   6.720 -1.1573 -1.6810  1.0446
 7033SOL     OW32731   3.501   4.117   5.450  0.1281  0.3311 -0.1097
 7033SOL    HW132732   3.463   4.186   5.505 -0.0278  0.3506 -0.2412
 7033SOL    HW232733   3.507   4.060   5.527  0.2270 -0.1517 -0.4816
 7034SOL     OW32734   4.128   1.917  11.427  0.1350 -0.5917  0.1782
 7034SOL    HW132735   4.171   1.959  11.501 -2.1031  0.6736  0.7901
 7034SOL    HW232736   4.203   1.889  11.376  1.4531 -1.0797  2.3911
 7035SOL     OW32737   2.186   2.230   6.407  0.1787  0.3681 -0.5195
 7035SOL    HW132738   2.220   2.141   6.414 -0.3852  0.1735 -0.2031
 7035SOL    HW232739   2.265   2.270   6.444  0.4804  0.2894 -1.0840
 7036SOL     OW32740   4.514   3.021  15.774 -0.1531 -0.9188 -0.3438
 7036SOL    HW132741   4.593   3.063  15.741  0.3344 -1.5459  0.0453
 7036SOL    HW232742   4.473   3.105  15.798  0.3568 -0.3875 -1.3267
 7037SOL     OW32743   4.174   4.527   6.523 -0.4338  0.5328 -0.3420
 7037SOL    HW132744   4.174   4.623   6.532 -1.3143  0.3260  1.8396
 7037SOL    HW232745   4.081   4.504   6.525 -0.3397  0.1413 -0.4928
 7038SOL     OW32746   3.657   3.940  10.116  0.2652 -1.0146  0.8518
 7038SOL    HW132747   3.644   3.894  10.033 -0.1854 -0.4332  0.5969
 7038SOL    HW232748   3.572   3.985  10.115 -0.2827 -2.0425  2.5327
 7039SOL     OW32749   0.314   2.716  13.134  0.3841 -0.6484  0.3204
 7039SOL    HW132750   0.306   2.779  13.062  0.1310 -0.1998  0.7418
 7039SOL    HW232751   0.224   2.688  13.144  0.4640 -0.7199  0.8669
 7040SOL     OW32752   4.019   1.468   6.340 -0.5601 -0.2330  0.1175
 7040SOL    HW132753   4.075   1.480   6.416  0.5187  1.7761 -0.9783
 7040SOL    HW232754   3.935   1.509   6.359 -0.4566 -0.0220  0.1194
 7041SOL     OW32755   3.098   0.946  11.408 -0.0799  0.6723  0.1049
 7041SOL    HW132756   3.118   0.967  11.499  1.0047 -1.0074  0.2707
 7041SOL    HW232757   3.087   0.851  11.407 -0.9917  0.7928 -0.5322
 7042SOL     OW32758   3.689   0.855   0.470 -0.4938 -0.2480  0.1765
 7042SOL    HW132759   3.779   0.823   0.475 -0.3525  0.3411  1.3554
 7042SOL    HW232760   3.636   0.785   0.509  0.5738  0.0542  2.1298
 7043SOL     OW32761   2.754   1.239  14.489  0.2076 -0.1109 -0.6829
 7043SOL    HW132762   2.734   1.330  14.464  1.0136  0.3149  0.2252
 7043SOL    HW232763   2.733   1.234  14.582  0.1093 -0.3807 -0.7212
 7044SOL     OW32764   1.625   0.227  10.763 -0.1300  0.6036 -0.1840
 7044SOL    HW132765   1.546   0.205  10.715 -1.3180  1.7434  1.2486
 7044SOL    HW232766   1.665   0.294  10.708 -1.8913  0.8237 -1.1844
 7045SOL     OW32767   1.334   0.295   4.605 -0.0265  0.3541  0.0954
 7045SOL    HW132768   1.324   0.361   4.536 -1.2703  0.8905  0.7975
 7045SOL    HW232769   1.388   0.229   4.562  0.2189  0.4846  0.2054
 7046SOL     OW32770   2.317   0.954   0.685  0.5761  0.4297 -0.8692
 7046SOL    HW132771   2.267   1.015   0.630  0.0742  0.5557 -0.2645
 7046SOL    HW232772   2.251   0.914   0.740  1.4681 -1.2535 -1.0092
 7047SOL     OW32773   0.754   4.288   8.190  0.5537 -0.0171  0.2705
 7047SOL    HW132774   0.664   4.296   8.157  0.6651  1.7440  0.3742
 7047SOL    HW232775   0.796   4.338   8.120 -0.3599 -0.1271 -0.3558
 7048SOL     OW32776   0.334   0.859   6.175  0.2987 -0.0702  0.3736
 7048SOL    HW132777   0.295   0.869   6.262 -1.4206  1.3768 -0.5669
 7048SOL    HW232778   0.304   0.772   6.147  1.3463 -1.2465  2.9180
 7049SOL     OW32779   4.515   4.128   3.249 -0.4617  0.3317 -0.5830
 7049SOL    HW132780   4.512   4.050   3.304 -1.3962 -0.2659 -1.4710
 7049SOL    HW232781   4.496   4.200   3.308 -1.2707  0.9443 -1.5836
 7050SOL     OW32782   2.606   2.658   1.915 -0.0155 -0.5372 -0.0037
 7050SOL    HW132783   2.579   2.612   1.995 -0.6545 -1.6127 -0.8493
 7050SOL    HW232784   2.542   2.616   1.859  2.4418 -2.6231 -1.2622
 7051SOL     OW32785   1.705   4.310  14.971 -0.3775  0.1351  0.3395
 7051SOL    HW132786   1.658   4.228  14.958  0.7784 -0.3857 -0.5836
 7051SOL    HW232787   1.780   4.311  14.911  0.3983 -0.3218  1.2847
 7052SOL     OW32788   1.418   1.048   3.815  0.1613 -0.3357  1.0656
 7052SOL    HW132789   1.433   0.998   3.734 -1.0863  0.0363  0.6078
 7052SOL    HW232790   1.460   0.992   3.880 -0.4558 -1.7835  0.2371
 7053SOL     OW32791   4.586   3.449  16.451 -0.3897 -0.1478  0.1708
 7053SOL    HW132792   4.648   3.410  16.512 -1.7081 -0.7683  1.1110
 7053SOL    HW232793   4.504   3.419  16.490 -1.2971  0.3075 -1.3632
 7054SOL     OW32794   0.827   4.366   0.704  0.0917 -0.4126 -1.1659
 7054SOL    HW132795   0.884   4.297   0.739  0.2939  0.7968  0.9022
 7054SOL    HW232796   0.749   4.314   0.684 -1.4998  1.4751  0.1717
 7055SOL     OW32797   1.071   3.530  10.434 -0.6682  0.0367  0.5354
 7055SOL    HW132798   1.120   3.495  10.509  0.8435  0.8710 -0.0649
 7055SOL    HW232799   1.135   3.516  10.364 -0.3302  2.9252  0.2759
 7056SOL     OW32800   2.703   4.284   1.779 -0.5114  0.0647  0.2323
 7056SOL    HW132801   2.686   4.210   1.837 -1.3668 -1.5900 -2.1046
 7056SOL    HW232802   2.760   4.341   1.831  0.3435  0.0106 -0.6494
 7057SOL     OW32803   1.680   3.241  16.099 -0.0940  0.8346  0.3146
 7057SOL    HW132804   1.641   3.205  16.178 -0.5209  0.7749  0.0784
 7057SOL    HW232805   1.618   3.214  16.030 -0.5000 -3.0959  2.1872
 7058SOL     OW32806   1.685   1.878   3.179 -0.1930 -0.0012 -0.5182
 7058SOL    HW132807   1.674   1.866   3.273  2.7748  0.5318 -0.1180
 7058SOL    HW232808   1.682   1.973   3.170 -1.6860 -0.0300 -0.3759
 7059SOL     OW32809   2.566   3.837   2.459  0.3984 -0.0315 -0.1160
 7059SOL    HW132810   2.544   3.929   2.465  1.8619  0.2052  1.5018
 7059SOL    HW232811   2.496   3.801   2.403 -0.3552 -2.0153  2.1232
 7060SOL     OW32812   0.442   3.382   1.105  0.5583  0.9132 -0.4928
 7060SOL    HW132813   0.413   3.472   1.087 -1.1647  0.5229  0.3641
 7060SOL    HW232814   0.372   3.331   1.064 -1.5315  2.5215  1.0419
 7061SOL     OW32815   0.197   4.204   1.367  0.1586 -0.2540 -0.0122
 7061SOL    HW132816   0.263   4.247   1.312 -0.2768  1.7000  0.9792
 7061SOL    HW232817   0.189   4.117   1.328 -3.4800  0.7121 -1.3694
 7062SOL     OW32818   1.874   1.495  13.695 -0.4309 -0.1342 -0.8273
 7062SOL    HW132819   1.878   1.450  13.780 -0.3445 -1.2095 -1.4058
 7062SOL    HW232820   1.963   1.486  13.661 -0.5020  0.0615 -1.0607
 7063SOL     OW32821   3.059   0.218   6.441  0.1011  0.0502 -0.4270
 7063SOL    HW132822   3.104   0.283   6.387 -0.5381  0.8861  0.0439
 7063SOL    HW232823   2.970   0.245   6.420  0.2846  1.0185  0.0277
 7064SOL     OW32824   0.589   2.800  12.037  0.0223 -0.3726 -0.5058
 7064SOL    HW132825   0.611   2.755  12.118 -1.5969  0.9860  0.6887
 7064SOL    HW232826   0.617   2.889  12.060 -0.6271  0.0931 -1.4810
 7065SOL     OW32827   2.325   2.623   8.025  0.6633  0.3542 -0.3713
 7065SOL    HW132828   2.325   2.681   8.102 -0.8738  1.3036 -1.0829
 7065SOL    HW232829   2.298   2.682   7.955 -2.0807 -0.3667  0.0545
 7066SOL     OW32830   0.654   1.329   0.420 -0.4823  0.1432  0.3437
 7066SOL    HW132831   0.655   1.233   0.423 -2.6596  0.0988 -0.6492
 7066SOL    HW232832   0.626   1.346   0.330 -1.1880 -0.2525  0.4863
 7067SOL     OW32833   0.993   1.342   6.208  0.4073  0.4578 -0.3662
 7067SOL    HW132834   0.979   1.272   6.271  1.1096  2.4431  2.0037
 7067SOL    HW232835   0.961   1.420   6.253  0.2435 -0.8286  1.7513
 7068SOL     OW32836   2.103   2.111   9.514  0.7215  0.2883  0.3740
 7068SOL    HW132837   2.038   2.043   9.494  0.7170  0.9712 -1.9112
 7068SOL    HW232838   2.185   2.062   9.521  0.7528  0.0534 -1.7019
 7069SOL     OW32839   3.852   2.598   5.921 -0.3996  0.1185 -0.3390
 7069SOL    HW132840   3.818   2.565   5.837  1.7235 -1.8119 -0.4410
 7069SOL    HW232841   3.903   2.522   5.949 -0.5706  0.5808  1.2141
 7070SOL     OW32842   0.810   1.995  17.115  0.0966  0.8121  0.3745
 7070SOL    HW132843   0.770   2.007  17.201 -1.9759 -0.6626 -0.3974
 7070SOL    HW232844   0.744   2.037  17.061 -1.8444 -0.3275  1.8480
 7071SOL     OW32845   4.550   1.456   6.522 -0.6886  0.5579 -0.2241
 7071SOL    HW132846   4.573   1.483   6.611 -0.4843 -0.2777 -0.0249
 7071SOL    HW232847   4.630   1.410   6.495 -1.0424  0.8981 -1.8476
 7072SOL     OW32848   3.091   3.902  12.510  0.8947 -0.1154  0.2139
 7072SOL    HW132849   2.997   3.912  12.498  1.3350  1.4187 -2.0059
 7072SOL    HW232850   3.124   3.950  12.433 -2.7349  1.4218 -0.3713
 7073SOL     OW32851   1.030   1.728   4.475  1.2023 -0.4635 -0.1110
 7073SOL    HW132852   1.086   1.794   4.434 -0.2479  1.7432  1.4792
 7073SOL    HW232853   1.071   1.645   4.450  0.6015  0.0247 -2.6855
 7074SOL     OW32854   1.977   0.261  13.098  0.0558 -0.0945  0.0053
 7074SOL    HW132855   2.006   0.341  13.144  0.1828  0.2081 -0.6026
 7074SOL    HW232856   2.032   0.243  13.023 -1.0337  1.1497 -1.0960
 7075SOL     OW32857   1.322   1.150   1.333  0.1711 -0.1529 -0.4660
 7075SOL    HW132858   1.358   1.238   1.341  2.5474 -1.1481 -0.3788
 7075SOL    HW232859   1.248   1.158   1.394  0.7840 -2.6859  0.6395
 7076SOL     OW32860   1.898   2.513  12.774 -0.1438  0.3362  0.0308
 7076SOL    HW132861   1.856   2.434  12.807  0.1103  1.1146  2.2048
 7076SOL    HW232862   1.975   2.480  12.727 -0.7005 -0.9931  0.0728
 7077SOL     OW32863   4.042   1.507  13.297  0.1933 -0.1934 -0.0509
 7077SOL    HW132864   4.004   1.495  13.384  1.1567 -0.1385  0.3768
 7077SOL    HW232865   4.127   1.472  13.323  0.1677  1.4533  2.2813
 7078SOL     OW32866   1.658   1.720   4.051 -0.6253 -0.7866  0.4324
 7078SOL    HW132867   1.665   1.702   3.958 -0.3026  0.8798  0.1386
 7078SOL    HW232868   1.570   1.755   4.062 -0.1743  0.4124  0.2639
 7079SOL     OW32869   4.651   2.429   4.934 -0.3523 -0.0589 -0.4630
 7079SOL    HW132870   4.648   2.334   4.947  1.7324 -0.1079 -0.3228
 7079SOL    HW232871   4.565   2.442   4.894 -0.1068 -2.7412 -1.8334
 7080SOL     OW32872   1.810   0.723   5.484 -0.8790 -0.2688  0.0037
 7080SOL    HW132873   1.742   0.757   5.543  0.5050  0.3611  1.2499
 7080SOL    HW232874   1.829   0.640   5.528 -1.9359 -1.5719 -2.0117
 7081SOL     OW32875   4.707   0.188   6.386  0.1572  0.1811 -0.0508
 7081SOL    HW132876   4.647   0.119   6.412 -1.0484  1.8596  1.5937
 7081SOL    HW232877   4.696   0.187   6.291  0.0664  0.5300 -0.0437
 7082SOL     OW32878   1.244   4.261   4.037  0.2385 -0.1915  0.5612
 7082SOL    HW132879   1.185   4.300   3.972 -0.3957 -2.7082 -0.3781
 7082SOL    HW232880   1.322   4.293   3.990  0.1968 -1.2701 -0.2467
 7083SOL     OW32881   4.513   3.594   7.698 -0.4245 -0.0331 -0.1990
 7083SOL    HW132882   4.546   3.683   7.688  0.6604 -0.3350  0.7002
 7083SOL    HW232883   4.554   3.575   7.782  0.7448 -1.1157 -0.9997
 7084SOL     OW32884   3.354   1.262  10.251 -0.0760 -0.0793 -0.0317
 7084SOL    HW132885   3.440   1.267  10.293 -0.3448  1.5488  0.3017
 7084SOL    HW232886   3.311   1.220  10.325  1.0389  0.6493  1.0147
 7085SOL     OW32887   3.587   4.267   8.194  0.3303 -0.5265  0.0494
 7085SOL    HW132888   3.607   4.236   8.106 -0.6152 -0.6950 -0.1061
 7085SOL    HW232889   3.503   4.306   8.169  0.0390 -1.0566  0.1924
 7086SOL     OW32890   2.218   3.277   2.077 -0.0896  0.1011  0.0573
 7086SOL    HW132891   2.286   3.342   2.095 -0.2760  0.3244 -0.0479
 7086SOL    HW232892   2.163   3.296   2.153 -1.1887  0.2728 -0.7966
 7087SOL     OW32893   1.155   2.084  14.693 -0.0647  0.2490 -0.0861
 7087SOL    HW132894   1.214   2.056  14.624 -1.5194 -1.5780 -0.5773
 7087SOL    HW232895   1.158   1.998  14.734  0.7181 -0.3766 -1.4747
 7088SOL     OW32896   4.114   1.527   5.057 -0.3405 -0.1812  0.0648
 7088SOL    HW132897   4.057   1.512   4.982 -0.9990 -0.8955  0.6995
 7088SOL    HW232898   4.047   1.536   5.124  2.8621  1.3586  3.0618
 7089SOL     OW32899   4.317   2.777   5.851  0.3752  0.6022  0.3491
 7089SOL    HW132900   4.267   2.840   5.904  1.7430  2.0964 -0.1276
 7089SOL    HW232901   4.246   2.730   5.807  2.9926  0.6047 -3.8981
 7090SOL     OW32902   0.409   2.964   2.132  0.5054 -1.0676  0.4239
 7090SOL    HW132903   0.370   2.879   2.152 -0.2448 -1.0792 -1.0689
 7090SOL    HW232904   0.500   2.938   2.144  1.0006  0.1547 -0.8080
 7091SOL     OW32905   2.139   2.103   5.068 -0.7096  0.5396 -0.7290
 7091SOL    HW132906   2.106   2.140   5.150  0.6509 -0.3415  0.2096
 7091SOL    HW232907   2.233   2.108   5.086 -0.7927 -2.1807  0.4870
 7092SOL     OW32908   4.352   2.227   6.895 -0.4169  0.4784  0.7748
 7092SOL    HW132909   4.380   2.166   6.828  1.0869 -0.3219  2.1373
 7092SOL    HW232910   4.293   2.170   6.945 -2.3650 -0.5452 -2.7030
 7093SOL     OW32911   0.158   3.682  10.918  0.3151  0.1646  0.4635
 7093SOL    HW132912   0.084   3.624  10.936  0.0888  0.3056 -0.0283
 7093SOL    HW232913   0.225   3.624  10.880 -0.7979 -1.1374  0.4802
 7094SOL     OW32914   1.234   2.492  13.555  0.1745  0.4774  0.0522
 7094SOL    HW132915   1.239   2.403  13.589 -4.4123  0.0104 -0.4192
 7094SOL    HW232916   1.210   2.472  13.465  0.2174  3.3547 -0.6022
 7095SOL     OW32917   0.476   3.365   0.446 -0.9472  1.0799 -0.4017
 7095SOL    HW132918   0.462   3.412   0.529  3.5453  2.4157 -0.4094
 7095SOL    HW232919   0.571   3.359   0.450 -1.1115 -0.6597  0.8332
 7096SOL     OW32920   1.529   3.575  11.836  0.7171  0.3125  0.5937
 7096SOL    HW132921   1.553   3.496  11.885 -0.7626 -0.2897  0.3515
 7096SOL    HW232922   1.486   3.623  11.907  1.9655 -0.1421  1.6445
 7097SOL     OW32923   2.629   3.726   3.595 -0.4252 -0.3777  0.1066
 7097SOL    HW132924   2.561   3.717   3.528 -0.1186  1.1662 -0.4117
 7097SOL    HW232925   2.613   3.654   3.656  0.0200  1.1930  2.0714
 7098SOL     OW32926   1.556   2.456   3.921 -0.1532  0.0644  0.1947
 7098SOL    HW132927   1.505   2.407   3.857  0.1690 -1.1837  0.9079
 7098SOL    HW232928   1.511   2.540   3.923  0.4637  0.3466  2.0804
 7099SOL     OW32929   3.289   3.806  12.687  0.5017 -0.3838 -0.2712
 7099SOL    HW132930   3.358   3.758  12.642  0.0003 -0.4631 -0.9525
 7099SOL    HW232931   3.236   3.846  12.618 -0.1277 -1.8233 -0.6223
 7100SOL     OW32932   0.340   3.148   5.266  0.4311  0.2675 -0.3463
 7100SOL    HW132933   0.326   3.220   5.327 -0.0949  0.7147 -0.9973
 7100SOL    HW232934   0.359   3.191   5.183 -3.2967  1.4134 -0.6140
 7101SOL     OW32935   1.171   1.310  17.480  0.1097  0.0329 -0.7069
 7101SOL    HW132936   1.213   1.360  17.410 -0.7485  1.5559 -0.1526
 7101SOL    HW232937   1.095   1.273  17.434  0.8600  0.5789 -2.3790
 7102SOL     OW32938   0.927   2.274   4.251  0.0387  0.0470 -0.3181
 7102SOL    HW132939   0.942   2.307   4.340  0.5531 -0.9803 -0.0282
 7102SOL    HW232940   1.001   2.214   4.245 -1.8194 -2.3062  0.1695
 7103SOL     OW32941   2.634   1.399   3.351 -0.5314 -0.4629 -0.2622
 7103SOL    HW132942   2.597   1.471   3.300 -0.8567 -0.8534 -0.5736
 7103SOL    HW232943   2.586   1.325   3.315 -0.6416 -0.0831 -0.9063
 7104SOL     OW32944   2.149   3.865   8.453  0.3393  0.1388 -0.1643
 7104SOL    HW132945   2.083   3.934   8.467 -0.4836 -0.3306 -1.8363
 7104SOL    HW232946   2.230   3.915   8.455  1.2586 -1.3878  1.7681
 7105SOL     OW32947   4.488   2.055   6.728  0.1633  0.0481  0.0591
 7105SOL    HW132948   4.574   2.086   6.755  0.4350 -0.8884  0.2500
 7105SOL    HW232949   4.485   2.072   6.634 -0.8616  0.1278  0.0991
 7106SOL     OW32950   3.776   0.225  13.937  0.4047  0.3496 -0.0901
 7106SOL    HW132951   3.784   0.133  13.963  1.2585  0.2018 -0.8473
 7106SOL    HW232952   3.723   0.208  13.860 -1.1941 -0.5799  1.2114
 7107SOL     OW32953   3.186   1.829   8.953 -0.0899 -0.0784  0.0892
 7107SOL    HW132954   3.249   1.810   9.023 -2.0286  1.3445  2.1861
 7107SOL    HW232955   3.226   1.772   8.887  1.4170 -0.9636  1.7623
 7108SOL     OW32956   2.680   4.641   5.575 -0.6539 -0.0996 -0.1261
 7108SOL    HW132957   2.706   4.649   5.667  1.5740  0.7655 -0.8354
 7108SOL    HW232958   2.588   4.618   5.581 -0.9784  0.9185 -1.1327
 7109SOL     OW32959   2.318   0.196  15.457 -0.2711 -0.2543 -0.6525
 7109SOL    HW132960   2.309   0.166  15.366 -0.4290  0.1836 -0.7822
 7109SOL    HW232961   2.233   0.171  15.493 -0.4068  0.9170 -0.1598
 7110SOL     OW32962   1.921   0.202   6.089 -0.1952 -0.2689  0.2802
 7110SOL    HW132963   1.989   0.168   6.148  1.7913  1.1367 -1.2044
 7110SOL    HW232964   1.856   0.239   6.150  0.0384  1.3522 -0.4540
 7111SOL     OW32965   3.047   2.721   3.071  0.1127  0.2727 -0.3645
 7111SOL    HW132966   3.022   2.708   2.980 -1.8031 -0.1391  0.1974
 7111SOL    HW232967   3.110   2.652   3.089 -1.0141 -0.4947  0.6816
 7112SOL     OW32968   2.019   4.152  11.107  0.1516 -0.2979 -0.3094
 7112SOL    HW132969   1.965   4.130  11.032 -1.7159  1.5087  0.4937
 7112SOL    HW232970   2.061   4.067  11.115  0.4330 -0.0230  1.3376
 7113SOL     OW32971   3.754   4.477  17.500 -0.1373 -0.3727  0.0530
 7113SOL    HW132972   3.837   4.431  17.502 -0.1044 -0.2751  0.8064
 7113SOL    HW232973   3.758   4.555  17.555 -0.8135 -0.5960  0.4206
 7114SOL     OW32974   4.440   2.152   0.396  0.0637  0.2876  0.2164
 7114SOL    HW132975   4.529   2.119   0.386 -0.4784 -0.5808 -1.8873
 7114SOL    HW232976   4.431   2.135   0.489 -0.6263  0.1796  0.1330
 7115SOL     OW32977   0.000   2.556   3.228  0.4668 -0.0808 -0.6327
 7115SOL    HW132978   0.043   2.620   3.285 -2.1160 -0.3072  1.6089
 7115SOL    HW232979   4.642   2.555   3.255  0.8761  0.8698  0.8353
 7116SOL     OW32980   2.522   0.929   8.282 -0.4742 -0.1266 -0.4454
 7116SOL    HW132981   2.483   1.004   8.326  0.0970 -0.7099  1.0461
 7116SOL    HW232982   2.569   0.980   8.217  0.8311 -0.3152  0.3661
 7117SOL     OW32983   3.036   2.646  16.241  0.1520 -0.5159  0.1743
 7117SOL    HW132984   2.943   2.648  16.218 -0.0819 -0.9712  1.0825
 7117SOL    HW232985   3.051   2.735  16.271 -1.4027 -0.9821  2.3150
 7118SOL     OW32986   1.918   1.705  15.266  0.2274 -0.6441 -0.3446
 7118SOL    HW132987   2.002   1.707  15.221 -0.1577  0.8189 -1.0148
 7118SOL    HW232988   1.863   1.700  15.187 -2.8710 -1.7313  1.8843
 7119SOL     OW32989   4.139   0.702   1.427 -0.0492 -0.7229 -0.4701
 7119SOL    HW132990   4.108   0.754   1.352  0.2131  0.0976 -0.0034
 7119SOL    HW232991   4.225   0.688   1.387 -0.1921 -0.7146 -0.7864
 7120SOL     OW32992   3.045   0.560   5.312 -0.1985 -0.2249 -0.6542
 7120SOL    HW132993   3.098   0.481   5.303  0.6803  0.2930 -0.0385
 7120SOL    HW232994   2.964   0.542   5.264 -0.8506  2.2502 -0.4900
 7121SOL     OW32995   0.158   1.461   1.947 -0.5796 -0.1440  0.0800
 7121SOL    HW132996   0.132   1.388   2.003 -0.8550  0.2800  0.4994
 7121SOL    HW232997   0.238   1.486   1.991 -0.1442 -0.3924 -0.5695
 7122SOL     OW32998   4.214   1.763   8.476 -0.9442  0.0303  0.1582
 7122SOL    HW132999   4.228   1.689   8.535  1.0838  0.0693 -0.2431
 7122SOL    HW233000   4.138   1.727   8.432 -1.8813  2.2583 -0.0276
 7123SOL     OW33001   2.191   1.656   0.325 -0.1061 -0.1419 -0.5220
 7123SOL    HW133002   2.119   1.709   0.291  0.5814  0.6283 -0.7593
 7123SOL    HW233003   2.245   1.718   0.374  1.7064 -2.3986  0.3445
 7124SOL     OW33004   4.169   0.781  12.213 -0.3101  0.2411 -0.7517
 7124SOL    HW133005   4.191   0.850  12.151 -1.0457  2.5059  1.4878
 7124SOL    HW233006   4.226   0.706  12.198  2.3658  2.0018  0.5347
 7125SOL     OW33007   1.192   1.907   5.831  0.3467  0.1047 -0.5737
 7125SOL    HW133008   1.238   1.839   5.880  1.5861  1.4388  0.0893
 7125SOL    HW233009   1.103   1.909   5.866  1.1043 -3.2726  1.5687
 7126SOL     OW33010   4.659   1.796   6.984 -0.3196 -0.0397  0.3377
 7126SOL    HW133011   4.710   1.747   7.048  0.2827  1.2767  0.8846
 7126SOL    HW233012   4.707   1.877   7.001  0.3760 -0.2924 -0.4371
 7127SOL     OW33013   4.508   2.057   6.021  0.5346 -0.2598 -0.7175
 7127SOL    HW133014   4.505   2.046   5.926  3.9829 -1.0868 -0.7157
 7127SOL    HW233015   4.458   2.138   6.031  3.2840  1.3355  0.0019
 7128SOL     OW33016   0.794   2.521   3.131 -0.5221 -0.5113  0.2630
 7128SOL    HW133017   0.724   2.583   3.153 -0.6782 -0.4818 -0.3195
 7128SOL    HW233018   0.753   2.441   3.163 -1.2143 -0.2276  0.0855
 7129SOL     OW33019   1.503   0.336   9.282 -0.0149  0.4568 -0.5117
 7129SOL    HW133020   1.433   0.390   9.246  0.7510  1.5314 -0.4049
 7129SOL    HW233021   1.513   0.276   9.208  1.8614  0.5708 -0.3621
 7130SOL     OW33022   2.516   2.365   8.857 -0.8258 -0.3803  0.0747
 7130SOL    HW133023   2.571   2.291   8.881 -1.5639 -0.9955 -0.1526
 7130SOL    HW233024   2.428   2.330   8.870 -0.7634 -1.1823 -1.6472
 7131SOL     OW33025   2.407   1.081   7.438  0.4885  0.2205 -0.5723
 7131SOL    HW133026   2.419   1.019   7.510 -1.4950  0.3859 -0.0974
 7131SOL    HW233027   2.319   1.060   7.407  0.0356  0.5401  0.5032
 7132SOL     OW33028   1.666   3.072   4.005 -0.4217  0.2447 -0.5119
 7132SOL    HW133029   1.598   3.070   3.938 -0.1990 -0.2543 -0.7214
 7132SOL    HW233030   1.691   3.164   4.019 -1.6535  1.0973 -3.8376
 7133SOL     OW33031   0.102   2.197   4.267  0.2475 -0.2324  0.2294
 7133SOL    HW133032   0.031   2.257   4.289  2.1017  1.5787  1.3318
 7133SOL    HW233033   0.171   2.252   4.229 -0.6063  0.8329  0.2140
 7134SOL     OW33034   1.998   0.287  11.728  0.1423  0.8910 -0.6038
 7134SOL    HW133035   1.967   0.298  11.638  0.9315  0.6862 -0.9027
 7134SOL    HW233036   2.045   0.204  11.719  0.8473  1.1972  0.3056
 7135SOL     OW33037   0.969   3.668  10.194  0.3683 -0.1099 -0.7471
 7135SOL    HW133038   0.993   3.627  10.277  1.9791  1.3642 -0.4886
 7135SOL    HW233039   1.051   3.716  10.181  0.9699 -0.5937  1.2665
 7136SOL     OW33040   0.659   0.664   5.564 -0.0583  0.0455 -0.3653
 7136SOL    HW133041   0.567   0.638   5.570  0.1460 -0.5370  0.2095
 7136SOL    HW233042   0.691   0.630   5.648  1.3089 -0.1488 -0.9718
 7137SOL     OW33043   2.812   4.515  14.244  0.4917  0.6416  0.0498
 7137SOL    HW133044   2.843   4.549  14.160 -2.4965  0.4371 -1.1143
 7137SOL    HW233045   2.772   4.430  14.225 -0.0916  1.1996 -1.2186
 7138SOL     OW33046   3.927   2.201   6.964  0.2185 -0.2237 -0.1549
 7138SOL    HW133047   3.896   2.111   6.977 -1.3539  0.6210  1.9309
 7138SOL    HW233048   3.986   2.187   6.890  0.2612 -0.7553 -0.0220
 7139SOL     OW33049   2.759   2.675  12.863 -0.1695  0.1752  0.1296
 7139SOL    HW133050   2.797   2.722  12.788 -1.5411  2.1689  0.6761
 7139SOL    HW233051   2.665   2.686  12.849 -0.2735 -0.8936 -0.0116
 7140SOL     OW33052   1.221   3.423   3.370 -0.2621 -0.3690  0.0049
 7140SOL    HW133053   1.291   3.366   3.402 -1.0600 -1.9308 -1.0205
 7140SOL    HW233054   1.192   3.460   3.454 -0.5353 -1.3565  0.3481
 7141SOL     OW33055   0.731   1.471   2.333  0.0338 -0.2818  0.1734
 7141SOL    HW133056   0.726   1.387   2.287 -0.1278  0.5005 -1.2351
 7141SOL    HW233057   0.737   1.538   2.265 -0.2614  1.0736  1.4670
 7142SOL     OW33058   3.255   4.622  11.759 -0.0856  0.1290 -0.2047
 7142SOL    HW133059   3.193   4.624  11.833 -0.8166  1.0585 -0.8548
 7142SOL    HW233060   3.194   4.626  11.686  0.8860  0.9628 -0.9547
 7143SOL     OW33061   3.417   0.047   1.214  0.6252  0.0470  0.3818
 7143SOL    HW133062   3.484   0.058   1.146 -0.7735  3.8644 -0.3517
 7143SOL    HW233063   3.388   4.692   1.194 -0.9816 -0.0560  3.1382
 7144SOL     OW33064   1.939   3.373  11.712 -0.3378 -0.2631 -0.4779
 7144SOL    HW133065   2.001   3.336  11.775 -0.9265 -2.2269 -1.0566
 7144SOL    HW233066   1.869   3.402  11.770 -0.4992 -0.4910 -0.5594
 7145SOL     OW33067   4.429   0.679   3.298 -0.2338 -0.0943  0.3091
 7145SOL    HW133068   4.456   0.616   3.231 -1.4773  0.5807 -0.8210
 7145SOL    HW233069   4.459   0.759   3.254  0.5482 -0.7647 -0.3917
 7146SOL     OW33070   3.663   0.512   5.882 -0.4527  0.1899  0.1758
 7146SOL    HW133071   3.657   0.606   5.864 -3.3371  0.0071  0.1401
 7146SOL    HW233072   3.715   0.488   5.805 -1.4962 -1.8533  0.1212
 7147SOL     OW33073   4.273   2.866  15.927  0.2330 -0.9354 -0.1249
 7147SOL    HW133074   4.354   2.905  15.896  0.2667 -0.8971  0.0092
 7147SOL    HW233075   4.209   2.926  15.888 -2.7306 -2.6191  2.1741
 7148SOL     OW33076   2.777   2.014   1.316  0.1549 -0.7278  0.2544
 7148SOL    HW133077   2.717   2.072   1.363  0.9734 -0.8954  1.5015
 7148SOL    HW233078   2.834   1.989   1.389  0.7187 -1.8337 -0.5746
 7149SOL     OW33079   2.321   4.394   8.138  0.0121  0.3234 -0.4355
 7149SOL    HW133080   2.305   4.346   8.220 -0.1746  0.6255 -0.2918
 7149SOL    HW233081   2.247   4.362   8.088  0.0932  2.8753 -2.1966
 7150SOL     OW33082   2.232   3.750   3.842 -0.3958 -0.2419  0.7193
 7150SOL    HW133083   2.200   3.787   3.759 -1.0913 -0.4382  0.9034
 7150SOL    HW233084   2.153   3.746   3.896 -2.0391  4.6424 -1.2425
 7151SOL     OW33085   2.757   1.027   7.544 -0.0075  0.0083  0.1933
 7151SOL    HW133086   2.726   0.936   7.549 -1.5153  0.3913 -2.4853
 7151SOL    HW233087   2.841   1.014   7.500  0.0353 -0.5027  0.4178
 7152SOL     OW33088   3.905   3.182   9.262  0.1889  0.4547  0.0207
 7152SOL    HW133089   3.933   3.104   9.214  0.5003  0.0430  0.8743
 7152SOL    HW233090   3.941   3.164   9.349 -0.1506 -0.9216 -0.1171
 7153SOL     OW33091   2.810   4.263  16.185  0.1278  0.0701 -0.0833
 7153SOL    HW133092   2.750   4.203  16.141  0.8216 -1.1366  0.6520
 7153SOL    HW233093   2.826   4.315  16.106 -1.5876  0.3255 -0.2721
 7154SOL     OW33094   0.488   1.103   3.869 -0.1088  0.4040 -0.1453
 7154SOL    HW133095   0.447   1.021   3.841  0.3721 -0.5547  1.9791
 7154SOL    HW233096   0.477   1.157   3.790  1.5249 -0.0860 -0.6878
 7155SOL     OW33097   1.330   3.260  17.435  0.5210 -0.4787  0.8216
 7155SOL    HW133098   1.361   3.275  17.525 -0.3550  1.4632  0.8141
 7155SOL    HW233099   1.377   3.181  17.411  0.4306 -0.4029  0.4060
 7156SOL     OW33100   0.566   4.567   2.158  0.4858  0.0699  0.5833
 7156SOL    HW133101   0.553   4.612   2.074  0.5817 -0.0167  0.5215
 7156SOL    HW233102   0.603   4.634   2.215  0.6574  1.6177 -1.3128
 7157SOL     OW33103   3.962   0.285   3.933 -0.1984  0.7566  0.0146
 7157SOL    HW133104   3.912   0.342   3.990 -1.0753  1.6302 -1.6333
 7157SOL    HW233105   3.926   0.301   3.846 -3.6861  0.6250  1.4530
 7158SOL     OW33106   2.334   3.661   5.735  0.5907  0.4485  0.0056
 7158SOL    HW133107   2.297   3.580   5.769  0.6569 -0.4054 -1.9564
 7158SOL    HW233108   2.358   3.707   5.816  1.5171 -3.5768  2.0273
 7159SOL     OW33109   3.823   4.082  17.535 -0.3220  0.0343 -0.6736
 7159SOL    HW133110   3.796   4.022  17.466 -0.7657 -0.2686 -0.2287
 7159SOL    HW233111   3.759   4.152  17.529  2.0324  2.2730 -0.0029
 7160SOL     OW33112   4.453   1.745   5.610  0.4464 -0.5327 -0.0511
 7160SOL    HW133113   4.468   1.839   5.604  0.1339 -0.5491 -0.9749
 7160SOL    HW233114   4.532   1.712   5.653  0.3174  0.5119  1.0006
 7161SOL     OW33115   1.711   3.860   2.456  0.4100 -0.2517  0.6549
 7161SOL    HW133116   1.617   3.859   2.437  0.7880 -0.3371 -1.2342
 7161SOL    HW233117   1.707   3.839   2.549 -0.5008  0.5758  0.8068
 7162SOL     OW33118   2.128   1.223  16.010 -0.3531  0.3290 -0.6388
 7162SOL    HW133119   2.082   1.306  15.996  1.7905  1.5297 -0.5673
 7162SOL    HW233120   2.211   1.257  16.043 -0.2369 -1.2938  0.6968
 7163SOL     OW33121   0.194   4.553  10.860 -0.3953 -0.6022  0.1460
 7163SOL    HW133122   0.210   4.568  10.953  4.8515 -0.9032 -0.6801
 7163SOL    HW233123   0.264   4.599  10.814 -0.9586  0.8979  0.8096
 7164SOL     OW33124   2.120   4.458   4.116 -0.1606  0.4220 -0.0288
 7164SOL    HW133125   2.142   4.389   4.178  0.5149  0.0637 -0.6672
 7164SOL    HW233126   2.143   4.538   4.164  0.6890 -0.0669  0.3723
 7165SOL     OW33127   2.273   3.688  17.265  0.0476  0.1349 -0.3486
 7165SOL    HW133128   2.341   3.754  17.258  2.3508 -1.9017  2.7001
 7165SOL    HW233129   2.290   3.656  17.354  1.7567 -0.3731 -0.8681
 7166SOL     OW33130   3.581   3.820   4.299 -0.6171  0.4827  0.5034
 7166SOL    HW133131   3.551   3.863   4.219 -2.7508 -0.7828  0.6116
 7166SOL    HW233132   3.618   3.893   4.349  1.5762 -0.3108  0.0019
 7167SOL     OW33133   4.703   0.782  10.579 -0.5175  0.2483  0.0426
 7167SOL    HW133134   4.608   0.778  10.589 -0.5001 -0.2963  0.0032
 7167SOL    HW233135   4.712   0.741  10.493  1.0729  2.5985 -0.9014
 7168SOL     OW33136   3.146   0.780   1.794 -0.1827  0.0411  0.5521
 7168SOL    HW133137   3.110   0.844   1.732  0.1463  0.3328  0.6637
 7168SOL    HW233138   3.156   0.703   1.738  0.2275 -1.0189  2.0831
 7169SOL     OW33139   0.612   2.564   5.972 -0.2151 -0.3761  0.3736
 7169SOL    HW133140   0.600   2.591   5.881  0.9540 -0.0522  0.3250
 7169SOL    HW233141   0.540   2.608   6.017  2.3153  2.7835  1.2915
 7170SOL     OW33142   3.627   3.185  17.561  0.1329 -0.6841  0.4748
 7170SOL    HW133143   3.547   3.156  17.606 -1.1805  4.6320  1.5655
 7170SOL    HW233144   3.589   3.185  17.473  0.9510 -0.3056  0.1194
 7171SOL     OW33145   4.033   4.431   2.558  0.1415  0.2662 -0.9438
 7171SOL    HW133146   4.096   4.444   2.630 -1.5539  1.2827  0.3611
 7171SOL    HW233147   4.100   4.414   2.492  1.1208 -1.6750  0.5398
 7172SOL     OW33148   0.737   1.168   5.418  0.0964 -0.5699  0.1407
 7172SOL    HW133149   0.789   1.096   5.383  1.3100 -0.7434  2.2411
 7172SOL    HW233150   0.801   1.213   5.474 -1.2781  0.4896  0.8431
 7173SOL     OW33151   4.561   3.631  15.094  0.0781 -0.4666  0.0303
 7173SOL    HW133152   4.548   3.537  15.076 -0.8481 -0.3108 -0.1383
 7173SOL    HW233153   4.470   3.653  15.115 -0.4709 -2.7069  0.0241
 7174SOL     OW33154   1.647   4.328  14.482  0.2189 -0.5675  0.5723
 7174SOL    HW133155   1.622   4.347  14.572  0.8466 -1.4371  0.9297
 7174SOL    HW233156   1.562   4.313  14.440  0.4964 -1.5614  0.3575
 7175SOL     OW33157   2.643   0.804   3.746  0.1336 -0.1980 -0.1743
 7175SOL    HW133158   2.642   0.818   3.651  0.8286 -1.3968 -0.3667
 7175SOL    HW233159   2.548   0.802   3.762 -0.0353  1.0049 -1.0632
 7176SOL     OW33160   3.902   4.164   6.310  0.1027  0.4319  0.1465
 7176SOL    HW133161   3.930   4.208   6.229 -1.0718  1.3572  0.2407
 7176SOL    HW233162   3.854   4.233   6.356  0.3620  0.8588 -0.2260
 7177SOL     OW33163   2.723   3.706  16.422 -0.1074 -0.2826  0.7785
 7177SOL    HW133164   2.808   3.663  16.427  0.3908  0.2973 -2.3870
 7177SOL    HW233165   2.737   3.794  16.386 -2.1638 -0.2689 -0.0226
 7178SOL     OW33166   2.257   3.481   2.508 -0.0555  0.3234  0.1203
 7178SOL    HW133167   2.298   3.482   2.421  0.8382 -0.3047  0.5355
 7178SOL    HW233168   2.192   3.412   2.498 -0.4992  0.7121  0.3069
 7179SOL     OW33169   4.061   2.312  13.842  0.4476 -0.5646 -0.2830
 7179SOL    HW133170   4.126   2.277  13.781 -0.0962  1.3964 -1.9849
 7179SOL    HW233171   3.982   2.307  13.789  0.7180 -0.0284 -0.7455
 7180SOL     OW33172   2.822   1.899   8.482  0.3032  0.1353  0.5799
 7180SOL    HW133173   2.895   1.957   8.504 -1.2683  1.4720  2.1896
 7180SOL    HW233174   2.813   1.909   8.387  1.6227 -1.3884  0.2978
 7181SOL     OW33175   2.751   0.749   7.536  0.1964 -0.5395 -0.4727
 7181SOL    HW133176   2.842   0.756   7.507  0.9181 -2.7900  1.2603
 7181SOL    HW233177   2.760   0.671   7.591  0.0324  0.5105  1.0660
 7182SOL     OW33178   2.764   0.530   1.893  0.2934 -0.2395 -0.1054
 7182SOL    HW133179   2.777   0.484   1.810  0.1817  2.5042 -1.6455
 7182SOL    HW233180   2.669   0.537   1.886  0.2715  0.5368  0.9008
 7183SOL     OW33181   4.327   1.358   3.324  0.1480  0.1767  0.2311
 7183SOL    HW133182   4.317   1.263   3.325  1.7782  0.0314  2.1155
 7183SOL    HW233183   4.399   1.367   3.262 -1.8309 -1.8187 -2.3597
 7184SOL     OW33184   1.828   1.459   4.917  0.1549  0.2710 -0.9165
 7184SOL    HW133185   1.803   1.452   5.009 -2.0588 -2.4464 -1.7119
 7184SOL    HW233186   1.915   1.418   4.928  0.9053  1.9790 -0.5247
 7185SOL     OW33187   4.245   0.597   8.490  0.1734  0.1807  0.4355
 7185SOL    HW133188   4.255   0.625   8.399 -0.2034  0.1890  0.3988
 7185SOL    HW233189   4.179   0.658   8.524 -2.6273 -0.4859 -3.8585
 7186SOL     OW33190   2.745   1.692   9.143  0.3891  0.3076  0.4141
 7186SOL    HW133191   2.688   1.724   9.214 -1.0823  1.1994 -1.1809
 7186SOL    HW233192   2.699   1.612   9.118 -0.6829  0.8159  0.7522
 7187SOL     OW33193   1.224   2.270   4.360  0.2419 -0.6228 -0.0942
 7187SOL    HW133194   1.296   2.216   4.327  1.5653  1.5497 -0.7744
 7187SOL    HW233195   1.212   2.314   4.276  0.0126  1.7142  1.1585
 7188SOL     OW33196   0.252   0.640   2.358 -0.1095  0.1236 -0.1196
 7188SOL    HW133197   0.293   0.727   2.366  0.7594 -0.5514  2.4805
 7188SOL    HW233198   0.310   0.601   2.423 -3.4056 -4.8986 -0.2002
 7189SOL     OW33199   3.703   1.745   2.485 -0.3510 -0.3548 -0.4574
 7189SOL    HW133200   3.765   1.815   2.506  1.1521 -1.7920 -0.0539
 7189SOL    HW233201   3.727   1.730   2.393 -1.3790 -2.3221 -0.4014
 7190SOL     OW33202   0.593   0.011  13.026  0.6532 -0.0977  0.1556
 7190SOL    HW133203   0.686   4.725  13.015  1.2241  1.8660  1.4380
 7190SOL    HW233204   0.554   4.703  12.949 -0.3056  1.4165 -0.1935
 7191SOL     OW33205   3.716   4.167   5.215  0.5577  0.4570 -0.4471
 7191SOL    HW133206   3.672   4.124   5.289  2.6698  0.0016  0.5302
 7191SOL    HW233207   3.741   4.096   5.157 -0.7227 -1.5369  1.4320
 7192SOL     OW33208   3.885   4.178   2.588  0.2868 -0.7444 -0.7928
 7192SOL    HW133209   3.848   4.205   2.672 -1.5762 -1.7553 -1.2971
 7192SOL    HW233210   3.953   4.243   2.569  1.4400 -2.0759 -1.1397
 7193SOL     OW33211   2.536   1.027   1.582  0.0103 -0.3438 -0.0450
 7193SOL    HW133212   2.580   1.025   1.667 -0.0814 -0.9652 -0.0108
 7193SOL    HW233213   2.612   1.020   1.523  0.1099 -1.1045  0.1640
 7194SOL     OW33214   2.033   4.096   4.002 -0.3307 -0.2717 -0.5069
 7194SOL    HW133215   2.102   4.156   3.977 -0.7256  0.1601 -0.5587
 7194SOL    HW233216   2.011   4.051   3.921 -0.8074 -0.1541 -0.4444
 7195SOL     OW33217   1.388   4.016   4.147 -0.1757 -0.8070 -0.9550
 7195SOL    HW133218   1.430   4.063   4.219  1.9677 -1.4195 -1.8089
 7195SOL    HW233219   1.336   4.085   4.105 -0.3615  0.3396  1.1280
 7196SOL     OW33220   1.180   3.158   6.205 -0.0499  0.2536 -0.3219
 7196SOL    HW133221   1.264   3.177   6.162 -1.9011  0.2758 -3.9609
 7196SOL    HW233222   1.185   3.227   6.270 -0.8545  0.4978 -0.5259
 7197SOL     OW33223   0.856   0.506  16.385  0.0227 -0.0260 -0.6402
 7197SOL    HW133224   0.769   0.496  16.424  1.0012 -1.4260  1.1763
 7197SOL    HW233225   0.907   0.524  16.464  2.8194  0.2239 -2.5160
 7198SOL     OW33226   0.865   1.791  11.263  0.1895 -1.0182  0.4574
 7198SOL    HW133227   0.916   1.739  11.325  1.5407 -0.1870  0.0560
 7198SOL    HW233228   0.927   1.798  11.190 -0.2144  1.9937  0.4022
 7199SOL     OW33229   4.144   0.222   4.519  0.2013  0.2588 -0.6780
 7199SOL    HW133230   4.051   0.228   4.495  0.8140  1.6441 -2.6906
 7199SOL    HW233231   4.169   0.141   4.473 -1.0953  0.0808 -1.0876
 7200SOL     OW33232   3.766   2.059  11.585 -0.0443  0.3853 -0.0191
 7200SOL    HW133233   3.725   2.028  11.666 -0.0084 -2.0768 -0.9728
 7200SOL    HW233234   3.740   1.999  11.516  3.1536 -0.0645 -0.8502
 7201SOL     OW33235   1.256   2.584   6.543 -0.1573  0.5507  0.6492
 7201SOL    HW133236   1.279   2.512   6.485  1.3465  2.2390 -0.8215
 7201SOL    HW233237   1.322   2.649   6.520  1.4059 -1.1758  0.2527
 7202SOL     OW33238   0.087   1.774   5.616  0.2912  0.0264 -0.5264
 7202SOL    HW133239   0.061   1.795   5.526  2.7789 -0.6153 -1.3985
 7202SOL    HW233240   0.016   1.719   5.648 -0.8859  1.2822 -0.9917
 7203SOL     OW33241   4.198   2.129  12.434 -0.3218  0.5434 -0.3263
 7203SOL    HW133242   4.251   2.058  12.471 -0.9379 -0.1380 -0.7515
 7203SOL    HW233243   4.111   2.093  12.451  0.7203 -1.8464  0.0671
 7204SOL     OW33244   4.543   3.575  16.714  0.1869 -0.2446 -0.4331
 7204SOL    HW133245   4.536   3.619  16.799 -1.2404 -0.4201 -0.4579
 7204SOL    HW233246   4.638   3.575  16.703  0.2542 -1.2342  0.1219
 7205SOL     OW33247   4.549   3.344  14.856 -0.8709 -0.0512  0.6230
 7205SOL    HW133248   4.553   3.358  14.950 -0.1231 -0.7147  0.6889
 7205SOL    HW233249   4.479   3.404  14.830  0.6298  1.7106  0.6315
 7206SOL     OW33250   1.714   3.409   3.205  0.2646  0.2616  0.8567
 7206SOL    HW133251   1.792   3.388   3.257  2.5765 -2.5717 -3.7101
 7206SOL    HW233252   1.664   3.475   3.253 -1.1495  0.4394 -0.8745
 7207SOL     OW33253   3.509   4.641   9.028  0.1379 -0.0609  0.7219
 7207SOL    HW133254   3.425   4.655   8.985  0.8077 -1.0240 -0.9460
 7207SOL    HW233255   3.543   4.727   9.003 -1.7322  0.5109  0.1919
 7208SOL     OW33256   2.157   4.434  10.721 -0.0481 -0.0345  0.7114
 7208SOL    HW133257   2.137   4.341  10.725 -2.2314  0.4401  1.1139
 7208SOL    HW233258   2.071   4.477  10.721  1.0581  2.1810  0.1950
 7209SOL     OW33259   3.473   2.678   2.982 -0.7470 -0.2602  0.0757
 7209SOL    HW133260   3.463   2.652   2.890 -0.8661 -1.8286  0.5260
 7209SOL    HW233261   3.566   2.701   2.985 -0.5785 -0.7821 -1.1777
 7210SOL     OW33262   2.870   2.452  15.934  0.1684 -0.3711  0.7496
 7210SOL    HW133263   2.868   2.521  15.867  0.9084 -1.2534 -0.1639
 7210SOL    HW233264   2.822   2.505  15.998  0.3365  1.2397 -0.4457
 7211SOL     OW33265   0.910   1.575   5.844  0.3334  0.2181 -0.4476
 7211SOL    HW133266   0.865   1.594   5.926  1.3841 -0.7410  0.3501
 7211SOL    HW233267   0.848   1.615   5.783  0.2940  0.4689 -0.2429
 7212SOL     OW33268   0.408   3.033  14.470  0.0979  0.3298 -0.0783
 7212SOL    HW133269   0.432   2.941  14.478  1.8828  0.9450  1.6265
 7212SOL    HW233270   0.345   3.033  14.397  0.1023 -0.0479 -0.0809
 7213SOL     OW33271   2.575   0.152   6.160 -0.1835  0.1290  0.6285
 7213SOL    HW133272   2.542   0.065   6.139 -0.1597 -0.1830  1.9139
 7213SOL    HW233273   2.659   0.129   6.200  0.5590 -0.1733 -1.0888
 7214SOL     OW33274   2.208   3.855  14.695  0.0153  0.2352  0.3943
 7214SOL    HW133275   2.300   3.874  14.677 -0.3185  1.1101 -0.3949
 7214SOL    HW233276   2.219   3.777  14.748  0.1941  0.7750  1.1439
 7215SOL     OW33277   1.105   2.098   4.060 -0.4768 -0.0018  0.4745
 7215SOL    HW133278   1.184   2.059   4.022 -1.5233 -2.3260  0.6648
 7215SOL    HW233279   1.067   2.023   4.105  0.0857  0.0664  1.0557
 7216SOL     OW33280   2.231   1.673   4.814 -0.8393  0.4794 -0.5634
 7216SOL    HW133281   2.266   1.755   4.848  1.1210  0.1756 -1.8407
 7216SOL    HW233282   2.158   1.668   4.876 -1.1441 -1.6875 -1.0863
 7217SOL     OW33283   3.404   0.437   8.146 -0.3528 -0.6006 -0.2974
 7217SOL    HW133284   3.417   0.501   8.076 -0.8397 -0.5832 -0.3713
 7217SOL    HW233285   3.314   0.412   8.128  0.2018 -1.6162 -1.7032
 7218SOL     OW33286   4.330   1.165  15.706 -0.1202  0.2495  0.0830
 7218SOL    HW133287   4.249   1.186  15.752  1.2899  1.5643  1.9690
 7218SOL    HW233288   4.322   1.069  15.703  0.5172  0.2651 -1.8925
 7219SOL     OW33289   4.417   3.656   3.772  0.4472  0.3074 -0.1213
 7219SOL    HW133290   4.397   3.624   3.684  0.7759  0.6487 -0.3215
 7219SOL    HW233291   4.404   3.751   3.763 -1.1975  0.4126  3.3193
 7220SOL     OW33292   4.031   2.843   8.445 -0.6103 -0.0481 -0.4798
 7220SOL    HW133293   4.049   2.750   8.457  1.0069  0.2872 -0.2480
 7220SOL    HW233294   4.063   2.859   8.356  0.8371  0.7959  0.1865
 7221SOL     OW33295   1.863   3.911  15.500 -0.2996  0.5649 -0.2432
 7221SOL    HW133296   1.778   3.954  15.497 -0.6006  0.0428  0.9709
 7221SOL    HW233297   1.861   3.878  15.590 -1.4143  0.0746 -0.4491
 7222SOL     OW33298   3.466   1.913   3.942 -0.9085  0.1010 -0.3150
 7222SOL    HW133299   3.429   1.855   3.875  1.8543 -0.7760 -1.0510
 7222SOL    HW233300   3.387   1.962   3.967 -1.1897 -0.4089 -0.1990
 7223SOL     OW33301   3.363   2.689   5.952  0.1686 -0.5279  0.2856
 7223SOL    HW133302   3.307   2.756   5.990  2.4859  1.0687  0.8400
 7223SOL    HW233303   3.353   2.700   5.857  0.2659 -3.5090 -0.1017
 7224SOL     OW33304   0.477   3.157   4.367 -0.0687 -0.1500 -0.2006
 7224SOL    HW133305   0.482   3.148   4.272  0.0817  0.4665 -0.2531
 7224SOL    HW233306   0.526   3.238   4.380  1.3008 -0.8545 -0.9329
 7225SOL     OW33307   4.611   3.651  12.557  0.2942  0.3558 -0.2619
 7225SOL    HW133308   4.626   3.679  12.648 -1.3893  0.7141 -0.0941
 7225SOL    HW233309   4.646   3.725  12.508  1.6804 -1.7920 -2.4449
 7226SOL     OW33310   0.010   1.273  14.998 -0.3698 -0.1707 -0.4078
 7226SOL    HW133311   4.724   1.330  15.073 -2.4912  0.0504 -1.1365
 7226SOL    HW233312   4.671   1.212  14.996  0.1556 -0.7967 -0.5243
 7227SOL     OW33313   2.602   4.171   0.570  1.1048  0.6067 -0.1460
 7227SOL    HW133314   2.691   4.137   0.567  0.6577 -0.6291  0.5701
 7227SOL    HW233315   2.591   4.155   0.664 -0.9111 -0.3031 -0.5432
 7228SOL     OW33316   2.378   0.808   3.793 -0.0052  0.1141 -0.1726
 7228SOL    HW133317   2.315   0.762   3.737 -0.3333  2.3793 -1.6421
 7228SOL    HW233318   2.326   0.817   3.872  0.1771 -0.6302  0.0381
 7229SOL     OW33319   3.526   3.064   5.750  0.1594  0.3706 -0.1992
 7229SOL    HW133320   3.503   3.157   5.754  0.4625  0.4069  0.7018
 7229SOL    HW233321   3.588   3.050   5.822  1.3861 -0.3676 -1.4108
 7230SOL     OW33322   3.393   0.396   4.890 -0.2603 -0.4744  0.3100
 7230SOL    HW133323   3.299   0.405   4.880 -0.2935 -0.9906  0.1725
 7230SOL    HW233324   3.391   0.312   4.935  1.1527 -1.1100 -0.8187
 7231SOL     OW33325   1.553   1.059   7.461  0.1231  0.1709  0.7325
 7231SOL    HW133326   1.603   1.135   7.432 -1.2343  0.4185 -0.9381
 7231SOL    HW233327   1.624   1.004   7.495 -2.0592 -2.1834  1.4477
 7232SOL     OW33328   1.373   0.082   6.956  0.3327  0.2090  0.0630
 7232SOL    HW133329   1.445   0.145   6.963  1.0241 -0.7612  1.7976
 7232SOL    HW233330   1.372   0.057   6.863 -2.2540  0.0574  0.1463
 7233SOL     OW33331   1.886   1.314   2.508  0.7498 -0.3785 -0.5285
 7233SOL    HW133332   1.797   1.311   2.475 -0.1747 -2.3295  2.1128
 7233SOL    HW233333   1.915   1.227   2.479  1.4948 -0.8186  1.5652
 7234SOL     OW33334   4.415   1.701  13.512  0.4924  0.6142 -0.1739
 7234SOL    HW133335   4.403   1.672  13.422 -0.7343 -0.0545  0.2015
 7234SOL    HW233336   4.487   1.644  13.538 -0.1971  0.4312  1.3649
 7235SOL     OW33337   0.545   2.765   7.275 -0.0788  0.4034  0.0442
 7235SOL    HW133338   0.518   2.855   7.292  2.6250  1.5535 -1.7862
 7235SOL    HW233339   0.465   2.724   7.241  0.9122 -0.5732 -1.1277
 7236SOL     OW33340   4.031   0.719   3.922 -0.6789  0.0588 -0.5533
 7236SOL    HW133341   4.098   0.769   3.875  0.3371 -0.3635  0.4388
 7236SOL    HW233342   3.964   0.778   3.956 -0.5560 -2.1417  3.5686
 7237SOL     OW33343   0.998   2.212  11.561  0.7987  0.0018  0.4959
 7237SOL    HW133344   1.056   2.164  11.502 -0.8884  0.8643 -1.8274
 7237SOL    HW233345   1.031   2.300  11.541 -1.1637  1.1110  2.1192
 7238SOL     OW33346   3.486   2.945   1.474 -0.2229  0.3726 -0.4900
 7238SOL    HW133347   3.549   2.889   1.520 -0.0287  0.2913 -0.8608
 7238SOL    HW233348   3.512   3.030   1.509 -0.9712 -0.6014  2.4412
 7239SOL     OW33349   2.327   3.741   2.335  0.2956  0.4327 -0.5398
 7239SOL    HW133350   2.240   3.760   2.370 -0.3098 -1.8470 -0.7716
 7239SOL    HW233351   2.294   3.678   2.271  3.0423 -1.8490  0.2563
 7240SOL     OW33352   1.029   4.679   7.542 -0.5326 -0.0764 -0.2158
 7240SOL    HW133353   0.942   4.641   7.550 -0.1349 -1.0492 -0.5483
 7240SOL    HW233354   1.022   0.021   7.484  0.0857 -0.3226 -0.6257
 7241SOL     OW33355   1.453   2.473  11.888  0.1082 -0.1582 -0.3619
 7241SOL    HW133356   1.435   2.439  11.976  0.7519 -0.7790 -0.4703
 7241SOL    HW233357   1.364   2.497  11.862  1.0769  0.7720 -2.7331
 7242SOL     OW33358   2.232   4.110   5.567  0.2715  0.7918  0.2063
 7242SOL    HW133359   2.208   4.166   5.641  2.9381  1.6788  0.4177
 7242SOL    HW233360   2.183   4.031   5.587 -0.7066  1.6627  1.2316
 7243SOL     OW33361   4.231   1.438  11.391  0.2367 -0.0187 -0.4960
 7243SOL    HW133362   4.148   1.484  11.401  1.2188  1.6217 -0.0330
 7243SOL    HW233363   4.198   1.348  11.397  1.7646 -0.4112  2.2964
 7244SOL     OW33364   1.699   1.922   8.273 -0.6491 -0.0700 -0.5812
 7244SOL    HW133365   1.769   1.944   8.333 -1.6432 -0.2675  0.6489
 7244SOL    HW233366   1.749   1.871   8.209  0.5041 -2.2033  2.0148
 7245SOL     OW33367   3.623   0.721   0.961  0.1926 -0.2611  0.0564
 7245SOL    HW133368   3.627   0.811   0.930  0.5777  0.7105  2.9140
 7245SOL    HW233369   3.542   0.733   1.011 -0.6699  0.4291 -1.5205
 7246SOL     OW33370   3.692   0.738   8.368 -0.4620  0.5698  0.0476
 7246SOL    HW133371   3.601   0.707   8.361 -0.4672  0.3113  1.2310
 7246SOL    HW233372   3.699   0.757   8.462  2.0542 -0.9207  0.1531
 7247SOL     OW33373   0.252   1.463   1.693 -0.0843 -0.3064 -0.0591
 7247SOL    HW133374   0.248   1.378   1.648 -1.8203  0.2654 -0.9834
 7247SOL    HW233375   0.192   1.446   1.766  1.6406 -0.2507  1.3766
 7248SOL     OW33376   4.300   1.876   6.665  0.3493  0.1100  0.0527
 7248SOL    HW133377   4.356   1.939   6.711 -0.9584 -0.1295  1.9952
 7248SOL    HW233378   4.368   1.829   6.616 -0.5777 -0.8105 -0.3445
 7249SOL     OW33379   4.118   1.400   3.077  0.5866 -0.2265  0.0506
 7249SOL    HW133380   4.092   1.492   3.075  0.0829 -0.3086  4.3221
 7249SOL    HW233381   4.202   1.401   3.123  1.3914 -0.8159 -1.3990
 7250SOL     OW33382   0.922   0.893   1.599  0.1368  0.0048 -0.5662
 7250SOL    HW133383   0.954   0.977   1.631 -1.5103  0.5458 -0.3728
 7250SOL    HW233384   0.842   0.883   1.651  0.0045 -0.4736 -0.8618
 7251SOL     OW33385   4.300   2.768   7.781 -0.1264 -0.0890  0.1673
 7251SOL    HW133386   4.260   2.848   7.816  1.2549 -0.0041  1.6030
 7251SOL    HW233387   4.360   2.743   7.852 -1.5485 -1.6029  0.8254
 7252SOL     OW33388   0.663   1.897  14.157 -0.4224 -0.4750  0.3066
 7252SOL    HW133389   0.736   1.955  14.134 -0.2070 -0.4820  0.9901
 7252SOL    HW233390   0.611   1.963  14.203  1.1984  0.4668  0.8035
 7253SOL     OW33391   4.681   2.779   1.788  0.3872  0.0647  0.0510
 7253SOL    HW133392   0.036   2.809   1.805 -0.0826 -0.2886  3.1709
 7253SOL    HW233393   4.634   2.862   1.799  1.1348  0.3498  1.0649
 7254SOL     OW33394   2.058   3.787   8.872  0.3823 -0.0575  0.4344
 7254SOL    HW133395   2.141   3.805   8.829 -0.0146 -0.1737 -0.3892
 7254SOL    HW233396   1.989   3.827   8.818 -0.7178  0.6285  2.3474
 7255SOL     OW33397   3.464   0.090   0.443 -0.1168  0.4794 -0.2247
 7255SOL    HW133398   3.400   0.029   0.407 -0.9781  1.4464 -0.3406
 7255SOL    HW233399   3.446   0.174   0.401 -0.5777  0.5789  0.1742
 7256SOL     OW33400   0.793   3.602   7.476  0.1630  0.0937 -0.2016
 7256SOL    HW133401   0.710   3.641   7.449  1.1158 -0.9831 -4.6620
 7256SOL    HW233402   0.754   3.522   7.511  0.6056 -1.0680 -2.3417
 7257SOL     OW33403   4.537   2.577   6.572 -0.7139 -0.1999  0.3132
 7257SOL    HW133404   4.602   2.640   6.541 -0.5389 -0.8519 -0.6391
 7257SOL    HW233405   4.502   2.616   6.652  1.1402  4.3986 -1.1205
 7258SOL     OW33406   0.361   1.212  13.058  0.1700 -0.2207 -0.2315
 7258SOL    HW133407   0.451   1.198  13.086  0.4792  0.6233 -0.7865
 7258SOL    HW233408   0.375   1.279  12.990  2.5993  1.1568  1.6616
 7259SOL     OW33409   0.379   1.629  14.228 -0.4447 -0.2013  0.2909
 7259SOL    HW133410   0.471   1.617  14.251 -0.2288 -1.0304 -1.0349
 7259SOL    HW233411   0.338   1.562  14.281  1.1077 -0.4723  1.1553
 7260SOL     OW33412   4.407   2.312  16.270  0.0298  0.2059  0.7026
 7260SOL    HW133413   4.348   2.382  16.295 -0.3154 -0.8521  2.9202
 7260SOL    HW233414   4.410   2.259  16.350  2.0318  2.2856  2.0214
 7261SOL     OW33415   3.752   0.979   3.308 -0.2179 -0.3137  0.4663
 7261SOL    HW133416   3.712   1.065   3.294  2.3682  0.7488 -0.3953
 7261SOL    HW233417   3.839   1.002   3.274  0.0700  0.3601  1.6536
 7262SOL     OW33418   0.314   2.544   1.579  0.2472 -0.2236  0.2740
 7262SOL    HW133419   0.226   2.579   1.594  0.8110  1.2505  0.1975
 7262SOL    HW233420   0.301   2.453   1.553 -1.4852 -0.5593  2.3431
 7263SOL     OW33421   1.274   1.261   4.395 -0.2436  0.7789  0.1774
 7263SOL    HW133422   1.323   1.179   4.403 -0.0908  0.9863  1.3361
 7263SOL    HW233423   1.193   1.241   4.443 -1.0425 -2.1319 -2.3653
 7264SOL     OW33424   1.658   2.405  13.024  0.0966  0.3682 -0.0362
 7264SOL    HW133425   1.604   2.462  13.079  2.6438  1.6701  1.1022
 7264SOL    HW233426   1.616   2.384  12.940  0.2730  0.2062 -0.0823
 7265SOL     OW33427   4.594   4.690  13.586  0.1011  0.2169  0.3007
 7265SOL    HW133428   4.626   4.625  13.648 -0.9849 -1.2133 -0.6159
 7265SOL    HW233429   4.597   4.646  13.501 -0.5045 -0.5112  0.6572
 7266SOL     OW33430   2.893   1.394   1.852 -0.1059 -0.5132 -0.1801
 7266SOL    HW133431   2.936   1.454   1.791 -0.0162 -0.8741 -0.4703
 7266SOL    HW233432   2.846   1.342   1.788 -1.6659 -0.6198  1.0507
 7267SOL     OW33433   4.029   0.691  13.744  0.1224  0.1669 -0.1285
 7267SOL    HW133434   4.079   0.616  13.777 -1.9323  0.2951  3.3835
 7267SOL    HW233435   3.945   0.673  13.788  0.6908  1.5014  1.5170
 7268SOL     OW33436   4.306   0.352   5.437 -0.5281  0.4028 -0.3836
 7268SOL    HW133437   4.259   0.402   5.504  0.5754  3.2317 -1.7019
 7268SOL    HW233438   4.245   0.363   5.364 -1.4034  1.3550  0.4747
 7269SOL     OW33439   3.688   3.770   1.283  0.1904 -0.0538 -0.2231
 7269SOL    HW133440   3.699   3.707   1.354 -0.9302  1.7041  1.5033
 7269SOL    HW233441   3.742   3.723   1.219 -0.7676 -2.4472  0.7324
 7270SOL     OW33442   3.583   0.690   6.319  0.2661 -0.1780 -0.1390
 7270SOL    HW133443   3.602   0.646   6.236  0.6763  1.4297 -0.8962
 7270SOL    HW233444   3.596   0.621   6.383  4.6161  1.9217  1.2842
 7271SOL     OW33445   2.022   2.488   5.771 -0.2543 -0.0568 -0.0883
 7271SOL    HW133446   2.100   2.470   5.718 -1.0069  1.5784 -1.7824
 7271SOL    HW233447   1.971   2.407   5.771  1.7438 -1.3177  1.8995
 7272SOL     OW33448   1.199   2.717   4.082 -0.2444  0.0336  0.4039
 7272SOL    HW133449   1.223   2.720   4.175  0.5127 -1.3490  0.2577
 7272SOL    HW233450   1.111   2.753   4.088  0.1522  1.1851 -0.7775
 7273SOL     OW33451   4.008   4.595   5.175  0.4439 -0.0425  0.1676
 7273SOL    HW133452   3.927   4.646   5.168  0.2968 -0.2444  0.4152
 7273SOL    HW233453   3.996   4.508   5.137  1.6743  1.2626 -3.2774
 7274SOL     OW33454   2.890   0.940   4.535  0.5140 -0.4753 -0.2375
 7274SOL    HW133455   2.895   0.854   4.577 -0.0714 -0.5394 -0.2970
 7274SOL    HW233456   2.824   0.911   4.473  0.1337 -1.1014  0.4585
 7275SOL     OW33457   4.312   2.283  11.765 -0.2577  0.5222 -0.1252
 7275SOL    HW133458   4.254   2.281  11.842  0.7517  1.0503  0.6454
 7275SOL    HW233459   4.396   2.294  11.810 -0.8972 -0.3990  1.3333
 7276SOL     OW33460   2.877   1.942   8.167 -0.0410 -0.3065 -0.3381
 7276SOL    HW133461   2.897   2.032   8.193 -2.6783 -0.4258  2.1240
 7276SOL    HW233462   2.781   1.938   8.171  0.0390 -1.2720  0.6808
 7277SOL     OW33463   1.855   1.863   2.915  0.2794  0.6627  0.0323
 7277SOL    HW133464   1.891   1.913   2.988 -0.8197 -0.4211  1.3208
 7277SOL    HW233465   1.928   1.803   2.904 -0.9019 -0.2140 -3.0578
 7278SOL     OW33466   1.896   3.282   4.303 -0.1634  0.3958 -0.6122
 7278SOL    HW133467   1.937   3.357   4.346  1.7762 -0.4575 -0.9450
 7278SOL    HW233468   1.855   3.317   4.224 -0.9894  0.4485 -0.1498
 7279SOL     OW33469   2.583   1.929  12.162 -0.3997 -0.8853 -0.2878
 7279SOL    HW133470   2.541   2.008  12.128  0.3154  0.8548  2.8928
 7279SOL    HW233471   2.632   1.900  12.085 -0.3339  0.2079 -0.6496
 7280SOL     OW33472   0.350   4.608   4.212 -0.2531  0.0732  0.9695
 7280SOL    HW133473   0.342   4.703   4.199  1.2737  0.0337 -0.2652
 7280SOL    HW233474   0.408   4.577   4.143 -1.3291 -0.3094  0.2368
 7281SOL     OW33475   0.444   0.090  13.274  0.1590  0.3519 -0.2310
 7281SOL    HW133476   0.429   0.176  13.313  0.1618  0.5900 -0.7619
 7281SOL    HW233477   0.502   0.114  13.201  0.8104 -0.2475  0.0800
 7282SOL     OW33478   2.233   2.508  16.122  0.2240 -0.4386  0.0980
 7282SOL    HW133479   2.310   2.539  16.074 -0.3287 -0.5196 -0.8563
 7282SOL    HW233480   2.279   2.467  16.195  0.3636  1.6502  1.1962
 7283SOL     OW33481   4.068   4.009  11.467  0.4772  0.0830  1.2813
 7283SOL    HW133482   3.980   3.971  11.473  0.8524 -0.8260  0.8978
 7283SOL    HW233483   4.076   4.007  11.372 -0.5096  2.8721  1.1338
 7284SOL     OW33484   0.285   1.734  14.770  0.1216  0.6306  0.0659
 7284SOL    HW133485   0.238   1.762  14.691  0.6214 -0.4488 -0.6059
 7284SOL    HW233486   0.284   1.639  14.763  1.7517  0.4478  2.1861
 7285SOL     OW33487   3.572   2.136  10.266 -0.4139  0.1390 -0.2408
 7285SOL    HW133488   3.549   2.197  10.196  1.5507  1.2823  0.0906
 7285SOL    HW233489   3.486   2.121  10.306 -0.4680 -0.2428 -0.5086
 7286SOL     OW33490   0.203   3.355  16.319  0.3182  0.2011  0.1741
 7286SOL    HW133491   0.227   3.369  16.227 -1.0730 -0.4246 -0.2747
 7286SOL    HW233492   0.185   3.262  16.324  0.2770  0.2263  0.5332
 7287SOL     OW33493   4.599   2.797   5.270  0.0591  0.0265  0.5236
 7287SOL    HW133494   4.617   2.747   5.350 -0.1755  1.9653  1.7767
 7287SOL    HW233495   4.678   2.850   5.258  0.8786 -1.2177  0.3594
 7288SOL     OW33496   4.481   1.190  16.802 -0.4972  0.4154  0.1160
 7288SOL    HW133497   4.500   1.138  16.723 -0.4383  1.3333 -0.4786
 7288SOL    HW233498   4.566   1.173  16.843  0.2426  0.3774 -1.4067
 7289SOL     OW33499   0.390   4.051  11.652 -0.3713  0.0647 -0.6136
 7289SOL    HW133500   0.336   4.032  11.575 -1.9580 -0.2132  0.5709
 7289SOL    HW233501   0.358   3.992  11.721  1.3885  1.3670  1.3439
 7290SOL     OW33502   0.876   4.694   6.202  0.3629 -0.1552  0.1121
 7290SOL    HW133503   0.802   0.015   6.174  0.3126  0.3486  1.2168
 7290SOL    HW233504   0.954   4.719   6.153  0.1474  0.3662  0.0323
 7291SOL     OW33505   0.577   2.401  12.187 -0.5929 -0.3093  0.0391
 7291SOL    HW133506   0.628   2.465  12.235  0.3910 -2.8016  2.2858
 7291SOL    HW233507   0.599   2.437  12.101  0.2722  0.8261  0.7377
 7292SOL     OW33508   1.976   3.059   5.700  0.0127  0.1865  0.1515
 7292SOL    HW133509   1.903   3.111   5.667 -0.1706  0.4190  0.9298
 7292SOL    HW233510   1.935   2.993   5.756 -1.1995  0.1545 -0.7779
 7293SOL     OW33511   2.457   4.670  12.773 -0.3688  0.1005 -0.2936
 7293SOL    HW133512   2.392   4.600  12.775  0.9840 -1.1494 -0.0434
 7293SOL    HW233513   2.532   4.619  12.803 -0.1852  0.1048 -0.7519
 7294SOL     OW33514   1.056   2.311   1.607  0.0109  0.2290  0.4773
 7294SOL    HW133515   1.013   2.397   1.605  0.9829  0.6662 -3.8021
 7294SOL    HW233516   1.122   2.319   1.676 -0.6165  0.1553  1.0726
 7295SOL     OW33517   2.671   3.014   4.433 -0.1902  0.0260 -0.1599
 7295SOL    HW133518   2.715   2.987   4.353 -1.2820 -2.4785  0.0751
 7295SOL    HW233519   2.662   3.109   4.428  0.6053  0.0891 -0.3521
 7296SOL     OW33520   0.474   2.061   9.642 -0.3910 -0.6193 -0.2113
 7296SOL    HW133521   0.531   2.068   9.719 -0.0965  1.9052 -0.6289
 7296SOL    HW233522   0.478   1.970   9.612 -0.1320 -0.7729  0.2850
 7297SOL     OW33523   2.122   0.178   5.386 -0.4200 -0.5097  0.0245
 7297SOL    HW133524   2.212   0.205   5.369 -0.1374 -1.0550  0.6812
 7297SOL    HW233525   2.124   0.088   5.354 -0.9766 -0.1215 -1.0917
 7298SOL     OW33526   2.368   3.661   1.551 -0.0868 -0.1987 -0.2834
 7298SOL    HW133527   2.432   3.591   1.539  0.2014  0.5066 -2.8296
 7298SOL    HW233528   2.405   3.710   1.624  0.0397 -1.0592  0.2274
 7299SOL     OW33529   0.532   0.219   8.010  0.1047 -0.1962  0.4655
 7299SOL    HW133530   0.556   0.145   7.953  1.7221 -0.3962  1.3959
 7299SOL    HW233531   0.462   0.267   7.965 -0.9591 -1.6264  0.6097
 7300SOL     OW33532   1.035   2.563   5.658  0.2883  0.2377  0.0850
 7300SOL    HW133533   1.022   2.478   5.615  0.6859  0.7133 -0.9928
 7300SOL    HW233534   1.095   2.601   5.594 -1.2919  1.7029 -0.5334
 7301SOL     OW33535   2.207   0.289   3.015 -0.0070 -0.2391 -0.6050
 7301SOL    HW133536   2.132   0.330   3.059 -0.5337 -0.8656 -0.9176
 7301SOL    HW233537   2.179   0.303   2.925 -0.9116  1.9964  0.0357
 7302SOL     OW33538   1.548   0.767   3.376 -0.7374  0.1119 -0.0660
 7302SOL    HW133539   1.554   0.682   3.331 -0.9968 -0.6741  1.3694
 7302SOL    HW233540   1.627   0.813   3.348 -0.0005 -1.0485  0.0922
 7303SOL     OW33541   3.684   1.377   8.950  0.6358 -0.2800 -0.0136
 7303SOL    HW133542   3.754   1.363   8.886 -0.8943  0.0751 -1.7628
 7303SOL    HW233543   3.619   1.321   8.906  1.1846 -0.6744 -0.3405
 7304SOL     OW33544   1.564   0.972   2.013  0.3034  0.0272 -0.0681
 7304SOL    HW133545   1.650   0.980   2.055  0.0314 -2.3863  0.9279
 7304SOL    HW233546   1.527   0.895   2.055  1.3785  1.1691  2.9879
 7305SOL     OW33547   3.739   3.938   5.989 -0.5233  0.3096 -0.7078
 7305SOL    HW133548   3.764   3.915   6.078 -0.6003  0.0311 -0.7588
 7305SOL    HW233549   3.691   4.020   6.005  1.0625  1.7266 -3.0882
 7306SOL     OW33550   2.029   1.950   3.126  0.4620  0.6165  0.1001
 7306SOL    HW133551   2.092   1.952   3.054  0.8428 -0.2506  0.4089
 7306SOL    HW233552   2.017   2.044   3.137  1.0553  1.0241 -2.6224
 7307SOL     OW33553   3.463   1.519   7.351  0.2274 -0.4424 -0.0092
 7307SOL    HW133554   3.503   1.531   7.265 -0.6529 -1.5501 -0.5689
 7307SOL    HW233555   3.396   1.453   7.333 -2.4215  1.6109  2.3990
 7308SOL     OW33556   2.185   2.806   3.224  0.1442 -0.0959  0.5182
 7308SOL    HW133557   2.228   2.789   3.140  0.3468  1.2429  0.3568
 7308SOL    HW233558   2.263   2.827   3.275  0.0436 -0.3905  0.7899
 7309SOL     OW33559   4.550   2.262  15.579 -0.1561  0.2430 -0.8702
 7309SOL    HW133560   4.477   2.257  15.641  0.0727 -0.2382 -0.6367
 7309SOL    HW233561   4.620   2.296  15.634 -1.1732 -0.3088  0.7705
 7310SOL     OW33562   1.810   0.933   8.761 -0.4336 -0.0974  0.1889
 7310SOL    HW133563   1.892   0.940   8.712  0.3954 -4.8873  0.9263
 7310SOL    HW233564   1.831   0.892   8.845 -1.3222 -0.4270  0.2497
 7311SOL     OW33565   4.220   0.256  11.869 -0.6852 -0.1744  0.0074
 7311SOL    HW133566   4.314   0.237  11.871 -0.3209  1.5452 -0.6348
 7311SOL    HW233567   4.183   0.178  11.910  1.6475 -1.1956  0.1724
 7312SOL     OW33568   3.794   0.543   2.204 -0.6563  0.3811  0.0364
 7312SOL    HW133569   3.784   0.450   2.185  0.2770 -0.0857  1.7905
 7312SOL    HW233570   3.712   0.580   2.171 -1.8557 -0.7781  1.7137
 7313SOL     OW33571   4.673   2.824   4.477  0.0469  0.1634 -0.4190
 7313SOL    HW133572   4.609   2.760   4.446  1.8098 -0.9653 -1.7315
 7313SOL    HW233573   4.622   2.890   4.523 -1.8498 -1.4165 -0.2871
 7314SOL     OW33574   1.189   1.537  13.083  0.0950  0.0076 -0.2383
 7314SOL    HW133575   1.181   1.564  13.175  0.7881 -0.1363 -0.1320
 7314SOL    HW233576   1.274   1.578  13.066 -0.3573  0.6551 -0.9162
 7315SOL     OW33577   0.251   0.156   3.233 -0.1879 -0.7501 -0.4581
 7315SOL    HW133578   0.340   0.188   3.218  0.1053 -2.6511 -2.8021
 7315SOL    HW233579   0.278   0.076   3.279  2.5451  0.7720  0.5615
 7316SOL     OW33580   4.042   3.665  15.180 -0.5183  0.0156 -0.2519
 7316SOL    HW133581   4.094   3.596  15.222 -0.0454  1.0551  0.8551
 7316SOL    HW233582   3.972   3.683  15.242 -0.3853  3.3506 -1.1037
 7317SOL     OW33583   3.311   4.315  17.667  0.3936 -0.1871  0.7005
 7317SOL    HW133584   3.327   4.398  17.712 -1.7132 -0.5009  2.0187
 7317SOL    HW233585   3.371   4.324  17.592 -1.0396  1.3371 -0.2646
 7318SOL     OW33586   2.213   2.170   1.825  0.7753  0.4476 -0.2319
 7318SOL    HW133587   2.139   2.187   1.884  2.7588  1.7756  1.8850
 7318SOL    HW233588   2.186   2.083   1.797  1.4044  0.4741 -0.9203
 7319SOL     OW33589   3.402   4.568   8.284  0.7188 -0.0115 -0.7200
 7319SOL    HW133590   3.459   4.615   8.223  0.7906  1.4704  0.4905
 7319SOL    HW233591   3.346   4.526   8.218 -1.0008  0.6595  0.2874
 7320SOL     OW33592   0.871   4.542   4.171  0.6663 -0.0023 -0.4865
 7320SOL    HW133593   0.940   4.477   4.182  1.4822  0.6904 -1.4236
 7320SOL    HW233594   0.850   4.559   4.263  0.4811 -2.0679 -0.1623
 7321SOL     OW33595   0.287   0.600   7.259 -0.2087 -0.0627 -0.2073
 7321SOL    HW133596   0.282   0.532   7.193  2.8499 -0.2507 -0.2192
 7321SOL    HW233597   0.219   0.579   7.323 -0.7033  1.0205 -0.3794
 7322SOL     OW33598   2.743   3.618   5.302  0.3351 -0.1708  0.5319
 7322SOL    HW133599   2.689   3.565   5.243 -0.3775  2.0161 -0.7491
 7322SOL    HW233600   2.673   3.645   5.361 -1.0625 -3.4962  0.4036
 7323SOL     OW33601   1.970   4.578   6.057 -0.0817 -0.1258 -0.1927
 7323SOL    HW133602   1.891   4.624   6.086  0.1069 -0.5928  1.0470
 7323SOL    HW233603   2.023   4.655   6.035  0.5690 -1.1335 -2.2350
 7324SOL     OW33604   1.369   2.629   3.101 -0.0764  0.2034 -0.4369
 7324SOL    HW133605   1.417   2.657   3.179  0.1769 -1.4023 -0.0155
 7324SOL    HW233606   1.283   2.598   3.133  0.1532  0.4245  0.4076
 7325SOL     OW33607   1.391   1.586   6.934  0.2927  0.0549 -0.1435
 7325SOL    HW133608   1.437   1.573   6.852  0.1041  3.2303 -0.7307
 7325SOL    HW233609   1.367   1.496   6.957 -0.8457  0.0202 -1.4738
 7326SOL     OW33610   2.175   0.497   5.186 -0.3320 -0.2624 -0.2982
 7326SOL    HW133611   2.202   0.515   5.277  0.1176 -2.8731  0.0724
 7326SOL    HW233612   2.162   0.403   5.190  2.5686 -0.6212  0.1829
 7327SOL     OW33613   1.879   0.794   9.342 -0.4897  0.3951  0.0944
 7327SOL    HW133614   1.812   0.728   9.327  0.8306 -0.8823 -0.2793
 7327SOL    HW233615   1.835   0.863   9.391 -0.8902  0.2278 -0.0320
 7328SOL     OW33616   4.716   1.885   1.306 -0.3378 -0.2995 -0.1579
 7328SOL    HW133617   4.668   1.851   1.231  0.4249  1.6651 -1.5523
 7328SOL    HW233618   4.650   1.939   1.349  0.9530  1.7034 -0.6864
 7329SOL     OW33619   4.455   4.388   1.045  0.0582  0.8883  0.3757
 7329SOL    HW133620   4.538   4.361   1.006 -0.4163 -0.4387  0.2713
 7329SOL    HW233621   4.454   4.330   1.121  2.5527 -1.2158 -1.1998
 7330SOL     OW33622   0.161   1.277  17.271  0.0416  0.2111 -0.2688
 7330SOL    HW133623   0.080   1.295  17.222  0.7182  1.3387 -0.9681
 7330SOL    HW233624   0.141   1.196  17.318  0.0952  1.0063  1.1223
 7331SOL     OW33625   1.905   3.580  15.565  0.1034 -0.2106 -0.2228
 7331SOL    HW133626   1.980   3.638  15.580  0.6939 -0.7949 -0.9347
 7331SOL    HW233627   1.892   3.533  15.647 -0.8939  1.2801  0.4771
 7332SOL     OW33628   0.265   3.156   7.894  0.4053 -0.2082  0.3689
 7332SOL    HW133629   0.269   3.207   7.813  2.1991 -0.6048  0.2149
 7332SOL    HW233630   0.219   3.219   7.948 -1.1289  0.0535 -1.2259
 7333SOL     OW33631   1.288   1.854   7.691 -0.3591 -0.3398 -1.0483
 7333SOL    HW133632   1.253   1.906   7.763 -0.4162 -1.4160 -0.2914
 7333SOL    HW233633   1.223   1.866   7.621 -2.7502  0.9704  1.4127
 7334SOL     OW33634   1.521   1.561   6.372  0.2722  0.0087 -0.1447
 7334SOL    HW133635   1.612   1.543   6.347 -0.3143 -3.2418  0.0002
 7334SOL    HW233636   1.478   1.530   6.293 -0.6881  0.0953  0.3406
 7335SOL     OW33637   3.143   1.833  12.358 -0.5158  1.0698  0.2323
 7335SOL    HW133638   3.057   1.791  12.364  1.1743 -2.0724  2.4894
 7335SOL    HW233639   3.189   1.770  12.415 -2.0172  0.4942  0.8237
 7336SOL     OW33640   0.329   3.394  14.884 -0.2575  0.4748  0.7031
 7336SOL    HW133641   0.349   3.318  14.830 -0.4074  0.5643  0.5236
 7336SOL    HW233642   0.280   3.448  14.823  1.5317  0.4658 -0.7402
 7337SOL     OW33643   1.324   4.352   4.515  0.1589 -0.6258  0.0123
 7337SOL    HW133644   1.371   4.416   4.567 -1.1340 -0.0914  0.5335
 7337SOL    HW233645   1.239   4.396   4.510 -0.1423 -1.1524  0.4510
 7338SOL     OW33646   2.121   0.765   0.579 -0.3333  0.2938  0.0165
 7338SOL    HW133647   2.128   0.730   0.668  2.4357 -1.0129 -0.7247
 7338SOL    HW233648   2.192   0.720   0.534 -0.7826 -1.8840  1.4883
 7339SOL     OW33649   1.272   3.105   7.839 -0.5989 -0.1030 -0.0321
 7339SOL    HW133650   1.359   3.108   7.801 -1.6058  1.1715 -2.2277
 7339SOL    HW233651   1.297   3.086   7.930  0.5651 -1.0537 -0.5495
 7340SOL     OW33652   4.662   2.176  11.709  0.1245  0.1185 -0.2184
 7340SOL    HW133653   0.019   2.202  11.724 -0.5751  0.7655  2.9916
 7340SOL    HW233654   4.631   2.230  11.637  1.4836  1.4297  0.1743
 7341SOL     OW33655   1.887   1.910   1.215 -0.5540  1.0618  0.3941
 7341SOL    HW133656   1.918   1.833   1.168 -4.4668 -1.4398  1.9882
 7341SOL    HW233657   1.971   1.953   1.232 -0.4340  0.7518  0.5834
 7342SOL     OW33658   4.183   3.633   4.467  0.0954  0.6420  0.6071
 7342SOL    HW133659   4.145   3.553   4.505 -0.9664  0.9166  0.1331
 7342SOL    HW233660   4.106   3.673   4.427 -0.2823 -1.1368 -0.4643
 7343SOL     OW33661   4.566   4.388   0.342 -0.0303  0.1338  0.2941
 7343SOL    HW133662   4.524   4.302   0.344  2.0046 -0.8088  2.6582
 7343SOL    HW233663   4.659   4.366   0.347  0.2482  1.5914  1.5598
 7344SOL     OW33664   1.909   2.013   6.402 -0.0778 -0.5017 -0.1136
 7344SOL    HW133665   1.954   2.027   6.485  1.9703 -0.2967 -1.2583
 7344SOL    HW233666   1.834   1.968   6.440 -0.5420  0.1173 -0.3145
 7345SOL     OW33667   4.179   2.922   6.058  0.0455  0.1291  0.1263
 7345SOL    HW133668   4.195   3.017   6.055  1.5045 -0.0872  1.3535
 7345SOL    HW233669   4.228   2.890   6.133  1.1130  0.3803 -0.4555
 7346SOL     OW33670   3.670   0.124  12.984 -0.0999 -0.0972 -0.1773
 7346SOL    HW133671   3.578   0.107  12.966 -0.3276  3.3685 -2.2580
 7346SOL    HW233672   3.696   0.140  12.894 -0.1794 -0.4796 -0.2667
 7347SOL     OW33673   3.092   4.724   2.792  1.0011  0.2766  0.3303
 7347SOL    HW133674   3.095   4.688   2.704 -1.1014 -0.9956  0.7882
 7347SOL    HW233675   3.153   4.662   2.832 -1.9619 -1.8144  1.5737
 7348SOL     OW33676   2.695   2.099   7.492  0.1715 -0.8200  0.1355
 7348SOL    HW133677   2.642   2.062   7.563  1.5715 -0.4811  1.3425
 7348SOL    HW233678   2.751   2.025   7.471 -1.9110 -2.2743 -0.3619
 7349SOL     OW33679   1.344   2.341   4.111  0.1039 -0.4482 -0.0856
 7349SOL    HW133680   1.345   2.261   4.058 -1.1400 -0.3493 -0.2621
 7349SOL    HW233681   1.435   2.347   4.139  0.0842 -1.9101  0.3240
 7350SOL     OW33682   0.426   0.839   7.286  0.1214 -0.2966 -0.2143
 7350SOL    HW133683   0.356   0.774   7.296  0.4934 -0.6663 -0.0399
 7350SOL    HW233684   0.470   0.820   7.203 -2.9495 -3.0248 -1.2260
 7351SOL     OW33685   3.028   3.393   1.554  0.3300  1.0179 -0.0299
 7351SOL    HW133686   3.012   3.299   1.542  1.9235  0.6857  0.5010
 7351SOL    HW233687   3.109   3.398   1.502 -1.0401  3.7433 -1.9168
 7352SOL     OW33688   2.432   1.294   6.009 -0.8500  0.1463 -0.3127
 7352SOL    HW133689   2.419   1.387   5.992  1.0149 -0.0112 -2.6580
 7352SOL    HW233690   2.356   1.276   6.064 -1.4234  0.0644 -1.1328
 7353SOL     OW33691   2.615   1.115   6.112  0.0270 -0.1056 -0.2258
 7353SOL    HW133692   2.541   1.163   6.074 -1.1658 -2.4319 -0.7953
 7353SOL    HW233693   2.588   1.025   6.099 -2.3404  0.4241  1.0127
 7354SOL     OW33694   3.643   3.071   6.455 -0.6478 -0.1661 -0.9503
 7354SOL    HW133695   3.587   3.081   6.532  1.3867 -0.2414  0.5188
 7354SOL    HW233696   3.728   3.092   6.493 -1.4762  0.8247  0.3323
 7355SOL     OW33697   4.005   3.875   0.544  0.2755 -0.0306 -0.2745
 7355SOL    HW133698   4.023   3.856   0.452 -0.9107  0.0950 -0.5446
 7355SOL    HW233699   4.082   3.837   0.586 -0.5082  1.9201  2.8919
 7356SOL     OW33700   3.011   3.305  11.899 -0.0395  0.1334 -0.5727
 7356SOL    HW133701   3.071   3.277  11.968  1.7455  0.1740 -2.1032
 7356SOL    HW233702   2.928   3.269  11.928 -0.3282  0.3790 -1.0820
 7357SOL     OW33703   0.002   4.132   3.066  0.2670 -0.5913 -0.2518
 7357SOL    HW133704   4.668   4.136   3.134 -0.6537  1.5593 -1.3192
 7357SOL    HW233705   4.731   4.043   3.032 -2.4023 -0.7878  0.6082
 7358SOL     OW33706   3.717   3.405   9.625 -0.4943 -0.3222  0.3720
 7358SOL    HW133707   3.739   3.424   9.534 -0.7300  3.0407  0.9808
 7358SOL    HW233708   3.646   3.342   9.620  0.0518 -0.8338 -0.7329
 7359SOL     OW33709   1.395   1.335   8.948  0.2566 -0.1318 -0.3358
 7359SOL    HW133710   1.373   1.334   9.042  0.0545  0.0395 -0.3812
 7359SOL    HW233711   1.485   1.303   8.952  0.3937  0.2348 -0.5352
 7360SOL     OW33712   2.394   2.499   3.237  0.7055 -0.1521  0.1173
 7360SOL    HW133713   2.455   2.487   3.310  0.6538 -1.0023  0.0182
 7360SOL    HW233714   2.311   2.471   3.275  1.2564 -2.1153 -0.1227
 7361SOL     OW33715   1.029   3.820   1.477  1.0039 -0.8240 -0.1369
 7361SOL    HW133716   1.054   3.728   1.485  0.0493 -1.0893 -0.1725
 7361SOL    HW233717   0.972   3.816   1.401  1.1575 -1.9591 -0.1899
 7362SOL     OW33718   2.333   1.901   4.941  0.4285  0.3756  0.0909
 7362SOL    HW133719   2.339   1.885   5.035  0.4837  0.5580  0.1170
 7362SOL    HW233720   2.416   1.863   4.911 -1.3941 -1.9085 -2.0497
 7363SOL     OW33721   2.754   4.195   8.924  0.1301 -0.5374  0.4478
 7363SOL    HW133722   2.834   4.245   8.905 -0.8431  1.1213  0.7132
 7363SOL    HW233723   2.797   4.115   8.953  0.6859 -0.5043 -0.2821
 7364SOL     OW33724   3.061   1.306   3.634  0.1436 -0.4054  0.0425
 7364SOL    HW133725   3.034   1.281   3.546  0.5693  0.8185 -0.4425
 7364SOL    HW233726   3.152   1.332   3.622  0.4934 -0.3620  2.6539
 7365SOL     OW33727   1.353   1.381   3.674 -0.5872 -0.4609  0.1870
 7365SOL    HW133728   1.329   1.470   3.701  0.2954  0.2088 -1.2466
 7365SOL    HW233729   1.444   1.374   3.704 -0.8098  0.0670  0.9997
 7366SOL     OW33730   3.453   4.581  15.516  0.5956 -0.5192 -0.0552
 7366SOL    HW133731   3.410   4.663  15.490  1.2843  0.3418  1.5320
 7366SOL    HW233732   3.446   4.527  15.437  3.2487  0.8661 -1.2622
 7367SOL     OW33733   3.058   4.300   8.150  0.0999 -0.1438  0.1555
 7367SOL    HW133734   3.084   4.223   8.100  1.3168 -0.3112  1.0480
 7367SOL    HW233735   3.071   4.259   8.236 -1.0412  2.6073  1.6258
 7368SOL     OW33736   2.656   0.692   2.465  0.8968  0.1285  0.2208
 7368SOL    HW133737   2.699   0.622   2.514 -1.5219 -0.7798  1.0814
 7368SOL    HW233738   2.695   0.684   2.379 -0.9627 -0.6469 -0.5509
 7369SOL     OW33739   1.290   3.630   3.244  0.1983  0.0430 -0.4921
 7369SOL    HW133740   1.234   3.690   3.293 -1.4039  0.7675 -3.2086
 7369SOL    HW233741   1.259   3.544   3.272 -1.7167  0.6613 -0.7100
 7370SOL     OW33742   4.090   3.952   9.202 -0.1481  0.2436 -0.1967
 7370SOL    HW133743   4.070   3.858   9.200  1.7028 -0.1869  0.6046
 7370SOL    HW233744   4.071   3.970   9.294 -0.4738 -1.8206  0.1488
 7371SOL     OW33745   3.603   1.030   6.271 -0.9895  0.0836 -1.0662
 7371SOL    HW133746   3.641   0.981   6.198  0.3590 -0.2503 -0.1558
 7371SOL    HW233747   3.674   1.055   6.331  0.0195  1.3238 -2.8099
 7372SOL     OW33748   2.470   0.622   7.182  0.0103  0.4241 -0.9652
 7372SOL    HW133749   2.446   0.698   7.236  0.1968  0.9985 -1.6757
 7372SOL    HW233750   2.464   0.545   7.237  1.1922  0.9184 -0.1357
 7373SOL     OW33751   1.654   3.719   4.443  0.0898  0.5030  0.4888
 7373SOL    HW133752   1.563   3.747   4.431 -0.5457 -2.1828 -0.8645
 7373SOL    HW233753   1.685   3.753   4.360 -1.4740  1.0138  0.1226
 7374SOL     OW33754   3.238   1.786   8.041 -0.3941  0.2696  0.3974
 7374SOL    HW133755   3.188   1.802   8.121 -0.7941  1.7280 -0.1388
 7374SOL    HW233756   3.175   1.748   7.980 -1.4850  2.3767  0.2017
 7375SOL     OW33757   1.623   3.031   7.338 -0.0146 -0.7298  0.6027
 7375SOL    HW133758   1.706   3.028   7.291  0.1018 -0.5353  0.7954
 7375SOL    HW233759   1.582   2.948   7.314 -1.4954  0.5644 -1.2879
 7376SOL     OW33760   1.424   3.777  12.366  0.1785 -0.1089  0.6669
 7376SOL    HW133761   1.505   3.772  12.314  0.5001  1.3345  1.0192
 7376SOL    HW233762   1.363   3.761  12.294 -0.0631  2.2570  0.3354
 7377SOL     OW33763   0.189   3.487   1.869 -0.6072 -0.4952 -0.0397
 7377SOL    HW133764   0.190   3.436   1.950 -1.6443 -1.0777 -0.3914
 7377SOL    HW233765   0.213   3.572   1.905  0.5895 -1.0605  0.4920
 7378SOL     OW33766   4.687   4.225   0.554 -0.0758  0.1180 -0.4111
 7378SOL    HW133767   0.039   4.187   0.536 -0.1860 -0.7127  0.8160
 7378SOL    HW233768   4.697   4.265   0.640  2.0673 -0.2628 -0.4644
 7379SOL     OW33769   3.016   1.236   2.062 -0.0205 -0.3781 -0.3020
 7379SOL    HW133770   2.924   1.238   2.037  0.3586  0.3826 -1.6211
 7379SOL    HW233771   3.016   1.264   2.153  1.2989  0.5897 -0.6076
 7380SOL     OW33772   1.373   4.321  17.036 -0.5163  0.0061 -0.1653
 7380SOL    HW133773   1.460   4.283  17.043 -0.4591  0.1167 -0.2649
 7380SOL    HW233774   1.329   4.265  16.972 -0.6940  0.7926 -0.7399
 7381SOL     OW33775   0.231   1.692   2.276  0.2149  0.0271 -0.0232
 7381SOL    HW133776   0.249   1.601   2.249  0.0885  0.3147 -1.0826
 7381SOL    HW233777   0.282   1.700   2.357  0.2035  0.0972 -0.0236
 7382SOL     OW33778   3.649   3.134   1.582 -0.4413  0.6051  0.1872
 7382SOL    HW133779   3.740   3.104   1.576 -0.3410  1.1361 -0.8554
 7382SOL    HW233780   3.640   3.166   1.672 -1.7977  1.3804 -0.2223
 7383SOL     OW33781   3.092   3.565  17.690  0.0927  0.9951  0.1734
 7383SOL    HW133782   3.043   3.494  17.729  1.5846 -1.3035 -2.1497
 7383SOL    HW233783   3.105   3.614   0.036 -1.3662  0.5307  0.6723
 7384SOL     OW33784   2.542   1.338   0.095  0.5134  0.4392 -0.5636
 7384SOL    HW133785   2.502   1.424   0.080 -0.7071 -0.5800 -3.2123
 7384SOL    HW233786   2.619   1.334   0.038 -0.8728  1.5159 -2.5171
 7385SOL     OW33787   3.296   4.520   5.151 -0.6511 -0.1372 -0.0241
 7385SOL    HW133788   3.310   4.610   5.180 -3.5958  0.8267 -1.5323
 7385SOL    HW233789   3.212   4.521   5.105 -0.8166 -2.0324  0.2432
 7386SOL     OW33790   1.869   0.593  11.653 -0.2835 -0.3351  0.3100
 7386SOL    HW133791   1.842   0.564  11.566 -2.4094 -0.6356  1.0830
 7386SOL    HW233792   1.880   0.687  11.638 -0.7272 -0.4148 -0.5642
 7387SOL     OW33793   0.730   3.076   5.653 -0.3861 -0.3715 -0.2307
 7387SOL    HW133794   0.685   3.161   5.652 -0.3992 -0.3752  0.1778
 7387SOL    HW233795   0.697   3.029   5.729 -1.3271 -2.0382 -1.6765
 7388SOL     OW33796   3.413   0.906   2.101  0.7769 -0.6566 -0.1585
 7388SOL    HW133797   3.424   0.811   2.101 -0.5655 -0.8069  2.1683
 7388SOL    HW233798   3.321   0.929   2.114  1.5325  1.0794  2.0205
 7389SOL     OW33799   1.762   1.446   6.583 -0.1693 -0.1720 -0.0587
 7389SOL    HW133800   1.857   1.452   6.576  0.0634 -2.2767  1.3162
 7389SOL    HW233801   1.743   1.528   6.629 -1.3406  0.9144 -2.5072
 7390SOL     OW33802   4.330   4.420   6.777  0.3582  0.3088 -0.0502
 7390SOL    HW133803   4.308   4.485   6.843 -0.1144 -1.1639  1.2423
 7390SOL    HW233804   4.316   4.471   6.697  0.4818  1.2539  0.5359
 7391SOL     OW33805   2.125   1.576   1.521 -0.3854 -0.1506 -0.5844
 7391SOL    HW133806   2.052   1.546   1.575  1.2227 -0.1091  1.6245
 7391SOL    HW233807   2.195   1.561   1.585 -1.5915 -0.2798  0.7034
 7392SOL     OW33808   0.373   4.615   1.155  0.5434 -0.4250  0.0875
 7392SOL    HW133809   0.339   4.657   1.076  1.3650  1.5677  0.8011
 7392SOL    HW233810   0.405   4.700   1.185  1.1376 -1.8504  3.5984
 7393SOL     OW33811   3.758   0.207   7.664 -0.0635 -0.4424  0.0847
 7393SOL    HW133812   3.669   0.206   7.628  1.0342 -0.9658 -2.6764
 7393SOL    HW233813   3.768   0.123   7.709 -0.6639 -0.2134  0.6407
 7394SOL     OW33814   4.057   2.142   6.730 -0.0195 -0.5174 -0.1673
 7394SOL    HW133815   4.134   2.116   6.680  1.1350 -1.3369  2.0189
 7394SOL    HW233816   3.998   2.150   6.655  0.5149  0.1978 -0.5006
 7395SOL     OW33817   3.040   4.656  10.274 -0.1634  0.1044  0.2517
 7395SOL    HW133818   2.955   4.669  10.316  0.6063 -0.1125  1.8514
 7395SOL    HW233819   3.071   0.013  10.278 -0.3775  0.3229 -2.6346
 7396SOL     OW33820   1.002   1.255  12.420 -0.4278 -0.1844 -0.2242
 7396SOL    HW133821   1.079   1.255  12.477  0.3634  0.8933 -1.3063
 7396SOL    HW233822   0.932   1.279  12.482  0.1992 -2.1919  1.2590
 7397SOL     OW33823   1.046   3.663   9.270 -0.2856 -0.0854  0.3957
 7397SOL    HW133824   1.033   3.568   9.261  1.3257 -0.3063  0.3128
 7397SOL    HW233825   1.090   3.680   9.186 -1.8880 -1.8948 -0.8114
 7398SOL     OW33826   2.421   0.027   4.169 -0.2618  0.6849 -0.3056
 7398SOL    HW133827   2.488   4.698   4.196  1.3937  3.3193  1.7626
 7398SOL    HW233828   2.445   0.028   4.077 -1.3935  2.6184 -0.5902
 7399SOL     OW33829   4.256   3.452   5.440  0.1686 -0.0559  0.1408
 7399SOL    HW133830   4.231   3.360   5.434 -0.5916  0.1357  0.3429
 7399SOL    HW233831   4.176   3.491   5.476 -0.1466 -1.0849  0.5354
 7400SOL     OW33832   4.289   2.068   2.855 -0.6329 -0.3038  0.1779
 7400SOL    HW133833   4.382   2.049   2.847 -0.8214 -1.4767  0.6576
 7400SOL    HW233834   4.282   2.129   2.928  0.6033 -0.6117  0.5448
 7401SOL     OW33835   3.044   0.215   8.304 -0.4486  0.9043 -0.2366
 7401SOL    HW133836   3.112   0.262   8.254 -0.6773  0.0914 -1.3239
 7401SOL    HW233837   2.989   0.191   8.229  2.4627 -0.5931 -1.9038
 7402SOL     OW33838   3.597   3.207   2.779 -0.0869  0.3735 -0.4083
 7402SOL    HW133839   3.503   3.200   2.759 -0.1571  0.9847 -0.3030
 7402SOL    HW233840   3.619   3.297   2.754  3.8780 -0.1078  1.4611
 7403SOL     OW33841   3.791   3.417   7.067  0.1303  0.1120  0.3163
 7403SOL    HW133842   3.719   3.365   7.103 -1.1782  0.6865 -1.5167
 7403SOL    HW233843   3.745   3.455   6.992 -1.5336 -0.7916  0.8912
 7404SOL     OW33844   2.978   0.231   5.288  0.0039  0.0438  0.1511
 7404SOL    HW133845   2.976   0.240   5.383  0.1613  1.0048  0.0619
 7404SOL    HW233846   2.903   0.286   5.264  1.7121  1.2682 -2.3809
 7405SOL     OW33847   3.228   3.415   4.720 -0.7566 -0.1040 -0.3959
 7405SOL    HW133848   3.176   3.433   4.798  2.5778  2.2662  1.2763
 7405SOL    HW233849   3.209   3.502   4.684  2.2325  0.1222 -1.4608
 7406SOL     OW33850   0.123   2.494  10.381 -0.3937  0.3609  0.1420
 7406SOL    HW133851   0.053   2.508  10.445 -0.6960 -1.3272  0.1687
 7406SOL    HW233852   0.076   2.511  10.300 -0.4577  0.7796  0.2656
 7407SOL     OW33853   4.169   2.535  12.561  0.3325 -0.4937 -0.3555
 7407SOL    HW133854   4.246   2.590  12.551  0.2478 -0.6581 -1.8493
 7407SOL    HW233855   4.111   2.593  12.610 -2.0011 -1.8778 -1.4706
 7408SOL     OW33856   1.184   3.445   2.354  0.2868  0.0094  0.2498
 7408SOL    HW133857   1.272   3.467   2.324  0.0916  1.0418  0.4408
 7408SOL    HW233858   1.129   3.499   2.297 -2.5245 -0.3576  2.6019
 7409SOL     OW33859   1.989   2.708   0.463 -0.0209  0.3629  0.9503
 7409SOL    HW133860   1.939   2.722   0.544 -0.4564  2.3154  0.3280
 7409SOL    HW233861   1.920   2.729   0.400  0.1203  0.2572  0.7622
 7410SOL     OW33862   0.380   2.823   0.387  0.3058  0.0771 -0.2547
 7410SOL    HW133863   0.394   2.851   0.478 -0.5656  1.6910 -0.6260
 7410SOL    HW233864   0.449   2.868   0.337  1.1217 -0.2398  0.5841
 7411SOL     OW33865   2.408   0.162   7.978  0.9970 -0.1180 -0.1465
 7411SOL    HW133866   2.319   0.197   7.982  1.2103  0.6796 -2.4203
 7411SOL    HW233867   2.394   0.068   7.981 -3.5977  0.5966  0.9499
 7412SOL     OW33868   2.841   3.690   7.707 -0.3494  0.0531  0.3676
 7412SOL    HW133869   2.810   3.652   7.625 -1.0338  0.3538  0.4854
 7412SOL    HW233870   2.920   3.740   7.689  0.1843 -0.8540  0.1948
 7413SOL     OW33871   3.664   2.822  17.097 -0.0806 -0.1500 -0.1831
 7413SOL    HW133872   3.699   2.911  17.101  0.9795 -0.5738  0.0925
 7413SOL    HW233873   3.653   2.798  17.189 -0.1853 -3.4134 -1.0731
 7414SOL     OW33874   4.058   2.030  15.589  0.0831 -0.0326 -0.4844
 7414SOL    HW133875   4.102   1.953  15.624 -0.5352 -0.2772 -0.2379
 7414SOL    HW233876   4.017   2.073  15.663 -3.0568 -2.7345 -0.6367
 7415SOL     OW33877   2.773   4.224   8.180  0.3671 -0.3260  0.3130
 7415SOL    HW133878   2.730   4.304   8.147  0.5450  0.3050  1.6160
 7415SOL    HW233879   2.859   4.250   8.146  0.9471 -1.3251  1.0443
 7416SOL     OW33880   1.207   2.612   1.920 -0.7692  0.0790 -0.4860
 7416SOL    HW133881   1.147   2.686   1.920 -0.0498  0.6784  2.6179
 7416SOL    HW233882   1.282   2.658   1.882  0.6260 -0.8776  1.0703
 7417SOL     OW33883   4.333   3.325   3.768 -0.2457  0.3951  0.3088
 7417SOL    HW133884   4.401   3.383   3.804 -0.4054 -0.8269  2.5345
 7417SOL    HW233885   4.327   3.271   3.847  0.1493  1.2749  0.9399
 7418SOL     OW33886   4.081   4.177   1.353 -0.4744 -0.3015 -0.1614
 7418SOL    HW133887   4.048   4.118   1.421 -1.1124 -0.0543 -0.2581
 7418SOL    HW233888   4.139   4.115   1.310 -0.9098  0.2873 -1.5891
 7419SOL     OW33889   0.955   0.363   2.782 -0.2285 -0.3058 -0.3903
 7419SOL    HW133890   1.048   0.383   2.772  0.2467 -2.2824 -0.0770
 7419SOL    HW233891   0.952   0.275   2.744  1.2730 -0.4645 -0.1768
 7420SOL     OW33892   4.217   3.650   1.884 -0.8093 -0.2736 -0.1125
 7420SOL    HW133893   4.250   3.562   1.863  0.5803 -0.1530  1.6204
 7420SOL    HW233894   4.209   3.685   1.795 -0.6671 -0.2457 -0.1150
 7421SOL     OW33895   2.707   2.204   3.181  0.1256 -0.1156  0.4174
 7421SOL    HW133896   2.786   2.150   3.173  1.3639  2.0320 -1.5768
 7421SOL    HW233897   2.744   2.288   3.208 -0.5121  0.1259  0.5303
 7422SOL     OW33898   4.159   3.491   4.142 -0.6857 -0.0611 -0.5580
 7422SOL    HW133899   4.089   3.557   4.152 -1.4896 -0.9690 -0.2234
 7422SOL    HW233900   4.235   3.548   4.149  0.0361 -0.8776 -1.7439
 7423SOL     OW33901   1.555   2.892   1.959 -0.3712 -0.3668  0.0413
 7423SOL    HW133902   1.574   2.815   2.013 -0.5213 -0.6247 -0.2687
 7423SOL    HW233903   1.562   2.958   2.028 -2.5316 -2.7519  2.5403
 7424SOL     OW33904   0.600   3.063   6.442  0.1418 -0.4647 -0.5399
 7424SOL    HW133905   0.626   3.116   6.517  3.6333  0.4278 -2.3820
 7424SOL    HW233906   0.685   3.036   6.407  1.4955  3.1917 -0.0243
 7425SOL     OW33907   3.666   4.531   4.030 -0.2473 -0.2872 -0.5580
 7425SOL    HW133908   3.707   4.608   3.990 -0.8099  0.0593 -0.4643
 7425SOL    HW233909   3.741   4.471   4.033 -0.3594 -0.3422  1.0879
 7426SOL     OW33910   3.119   1.334   9.642  0.1018 -0.1382  0.1489
 7426SOL    HW133911   3.197   1.296   9.682 -0.2786 -0.9609  0.1172
 7426SOL    HW233912   3.054   1.328   9.713  0.2036 -1.8358  0.0991
 7427SOL     OW33913   2.322   1.081   8.985  0.3066 -0.3363  0.0103
 7427SOL    HW133914   2.252   1.049   9.043 -0.0683 -0.1128 -0.3229
 7427SOL    HW233915   2.389   1.102   9.050 -2.8680  0.6778  2.9112
 7428SOL     OW33916   0.424   4.022  12.936  0.4450  0.5047 -0.5340
 7428SOL    HW133917   0.441   4.110  12.971 -0.6722  0.5784 -0.1569
 7428SOL    HW233918   0.472   4.021  12.853  0.9395  0.2574 -0.2416
 7429SOL     OW33919   4.154   1.893   7.879 -0.2381  0.0828  0.2379
 7429SOL    HW133920   4.226   1.866   7.936 -0.5077  0.5977  0.8244
 7429SOL    HW233921   4.110   1.810   7.858  3.1398 -1.6765  0.0491
 7430SOL     OW33922   4.104   0.500   6.619 -0.5694 -0.2562 -0.4172
 7430SOL    HW133923   4.096   0.565   6.689 -0.7202  0.7462 -1.3493
 7430SOL    HW233924   4.081   0.424   6.672  0.3923 -0.5576 -0.4407
 7431SOL     OW33925   1.610   3.590  10.784  0.2717  0.1610  0.0707
 7431SOL    HW133926   1.686   3.550  10.826  0.5272  1.3079  0.7068
 7431SOL    HW233927   1.552   3.518  10.807 -0.5847  0.6783 -0.5093
 7432SOL     OW33928   0.075   2.273   1.896  0.1116  0.4944  0.0523
 7432SOL    HW133929   4.724   2.315   1.880 -0.1376  1.2737  3.2764
 7432SOL    HW233930   0.057   2.185   1.929  0.4903  0.5629  0.4479
 7433SOL     OW33931   3.107   0.991   8.972 -0.3894 -0.1898 -0.0918
 7433SOL    HW133932   3.029   1.018   8.924  2.3701  4.6411 -1.8223
 7433SOL    HW233933   3.169   1.056   8.938  0.0828  0.4388  1.9921
 7434SOL     OW33934   1.580   0.559   9.750  0.3424  0.3999 -0.4080
 7434SOL    HW133935   1.645   0.626   9.728  0.9436 -0.5968 -1.6776
 7434SOL    HW233936   1.500   0.596   9.713  0.1948  1.7266  1.2799
 7435SOL     OW33937   1.604   1.520   9.662 -0.0681  0.5054  0.4562
 7435SOL    HW133938   1.631   1.565   9.743  2.7123 -0.4129  0.0609
 7435SOL    HW233939   1.597   1.583   9.591 -0.5735 -2.6070 -2.2548
 7436SOL     OW33940   2.848   0.794   2.826  0.1260  0.0901  1.0747
 7436SOL    HW133941   2.916   0.861   2.825  0.4629 -0.2349  2.0784
 7436SOL    HW233942   2.880   0.721   2.774  1.1701  0.7614  0.7867
 7437SOL     OW33943   1.866   2.394   4.130 -0.0519 -0.7051  0.2061
 7437SOL    HW133944   1.918   2.319   4.159  0.3629 -0.4998 -0.0052
 7437SOL    HW233945   1.918   2.434   4.060  0.5886  0.0939  1.1319
 7438SOL     OW33946   3.489   1.540   7.723  0.1302 -0.8184 -0.6341
 7438SOL    HW133947   3.477   1.530   7.818  0.3702  0.9618 -0.4214
 7438SOL    HW233948   3.536   1.623   7.724  1.0237 -1.2916 -2.8695
 7439SOL     OW33949   1.918   2.852   6.396 -0.3029 -0.3785 -0.3670
 7439SOL    HW133950   1.824   2.869   6.388  0.0590  2.7622  1.9456
 7439SOL    HW233951   1.929   2.776   6.339 -0.2644 -0.5142 -0.1812
 7440SOL     OW33952   2.776   1.686   8.873  0.9413  0.1608  0.3813
 7440SOL    HW133953   2.868   1.690   8.844  1.5098 -0.7774  2.0373
 7440SOL    HW233954   2.779   1.698   8.968  2.5088 -1.5263  0.5587
 7441SOL     OW33955   0.987   3.312   8.059  0.4574 -0.3499  0.2137
 7441SOL    HW133956   0.947   3.398   8.043  1.2029  0.1492  1.0039
 7441SOL    HW233957   0.903   3.267   8.056 -0.7586  1.9715 -0.4052
 7442SOL     OW33958   0.300   4.482   2.975 -0.0172  0.5664  0.3540
 7442SOL    HW133959   0.289   4.399   3.021  0.6708  1.3030  1.8731
 7442SOL    HW233960   0.211   4.517   2.979 -0.1222  0.3014  0.3467
 7443SOL     OW33961   0.669   1.294   2.971  0.0176  0.2521  0.3696
 7443SOL    HW133962   0.656   1.356   3.043 -0.2738  1.9171 -1.0976
 7443SOL    HW233963   0.705   1.220   3.020  1.6909  0.5621 -0.3711
 7444SOL     OW33964   2.752   3.908   7.182 -0.4732  0.2480 -0.4018
 7444SOL    HW133965   2.684   3.948   7.127  0.5667  0.4919 -1.5118
 7444SOL    HW233966   2.695   3.892   7.257 -1.3670 -2.2637 -1.6081
 7445SOL     OW33967   0.216   1.269   6.697 -0.1303  0.0095  0.0742
 7445SOL    HW133968   0.277   1.241   6.628  1.5897  0.4362  1.4312
 7445SOL    HW233969   0.251   1.199   6.751 -1.2710 -0.8903 -0.3394
 7446SOL     OW33970   2.273   2.810  15.612 -0.0735 -0.2416 -0.1444
 7446SOL    HW133971   2.293   2.864  15.535  2.8140 -0.5677  0.3863
 7446SOL    HW233972   2.362   2.799  15.644  0.1299  0.6852 -0.3784
 7447SOL     OW33973   3.752   3.375  11.574 -0.1838  0.0596  0.0895
 7447SOL    HW133974   3.687   3.317  11.535 -0.5087  0.8942 -0.6158
 7447SOL    HW233975   3.712   3.462  11.566 -1.0710 -0.3981 -0.3858
 7448SOL     OW33976   1.194   2.014  16.263 -0.4506  0.7900  0.5110
 7448SOL    HW133977   1.186   1.999  16.168  0.5679 -1.6322  0.8150
 7448SOL    HW233978   1.141   2.093  16.267  1.0756  1.7621  1.5101
 7449SOL     OW33979   3.066   4.643   4.197 -0.1730 -0.6007 -0.0563
 7449SOL    HW133980   3.160   4.626   4.204  0.3430  2.0000 -0.5542
 7449SOL    HW233981   3.056   4.653   4.102 -2.0382 -1.4151  0.0526
 7450SOL     OW33982   3.112   4.700  15.112 -0.1473 -0.2547 -0.1205
 7450SOL    HW133983   3.083   4.641  15.182  1.4581 -0.9412 -0.0296
 7450SOL    HW233984   3.031   0.010  15.087 -1.0043 -0.2731  2.6489
 7451SOL     OW33985   2.479   3.170   2.002  0.4605  0.2015 -0.3044
 7451SOL    HW133986   2.454   3.248   1.952 -0.5968 -0.8877 -1.4639
 7451SOL    HW233987   2.398   3.146   2.047 -0.9392  3.3428 -1.1138
 7452SOL     OW33988   3.295   0.287   9.383  0.1246 -0.4770 -0.1948
 7452SOL    HW133989   3.340   0.360   9.340 -0.0765 -0.0318  0.3524
 7452SOL    HW233990   3.205   0.314   9.366 -0.6280 -1.4445  2.3850
 7453SOL     OW33991   0.202   3.818   2.348  0.5335  0.3775  0.3254
 7453SOL    HW133992   0.116   3.809   2.305 -0.3940  0.5268  2.1390
 7453SOL    HW233993   0.222   3.911   2.342  2.8851 -0.2068 -0.5778
 7454SOL     OW33994   0.711   4.296   5.155  0.1893 -0.1449 -0.5395
 7454SOL    HW133995   0.625   4.272   5.121  0.1210  0.9240 -1.1185
 7454SOL    HW233996   0.682   4.358   5.222  0.9499  1.6375 -1.8706
 7455SOL     OW33997   0.546   1.846   1.357 -0.1733  0.2065  0.4368
 7455SOL    HW133998   0.454   1.863   1.378 -0.9715 -2.8230 -0.6189
 7455SOL    HW233999   0.542   1.753   1.381  2.3889 -0.6492 -2.4598
 7456SOL     OW34000   1.106   2.102   6.063  0.0576 -0.3135  0.4095
 7456SOL    HW134001   1.041   2.038   6.035 -2.6424  3.2895 -1.5565
 7456SOL    HW234002   1.077   2.112   6.154  1.1462  2.0914  0.4837
 7457SOL     OW34003   1.967   4.694   3.036 -0.3782 -0.3496 -0.3134
 7457SOL    HW134004   1.920   0.038   3.067  0.9832  0.4003 -0.1753
 7457SOL    HW234005   2.020   4.668   3.111  1.7972  2.9420 -0.7009
 7458SOL     OW34006   1.830   2.362  14.087 -0.2591 -0.4284  0.0314
 7458SOL    HW134007   1.898   2.408  14.040 -3.1292  1.5582 -2.1501
 7458SOL    HW234008   1.785   2.435  14.130  0.8539  0.2922 -0.0403
 7459SOL     OW34009   3.487   4.205   8.685  0.4873  0.4872 -0.2641
 7459SOL    HW134010   3.494   4.234   8.776 -0.2617  3.3625 -1.1317
 7459SOL    HW234011   3.565   4.149   8.685  1.4985  1.9045  2.5807
 7460SOL     OW34012   2.708   1.264   1.702 -0.0505  0.0680  0.4389
 7460SOL    HW134013   2.746   1.232   1.620  2.8499  0.3613  1.6673
 7460SOL    HW234014   2.693   1.182   1.749  0.4738 -0.6822 -0.7101
 7461SOL     OW34015   1.266   1.378   2.772 -0.2112  0.7095  0.0125
 7461SOL    HW134016   1.267   1.384   2.867  0.6144  1.0947 -0.0277
 7461SOL    HW234017   1.173   1.389   2.753 -0.8256 -0.3529  2.4581
 7462SOL     OW34018   2.957   3.140   6.699  0.2457 -0.0292 -0.0522
 7462SOL    HW134019   3.053   3.144   6.706  0.3335  3.1036 -3.0652
 7462SOL    HW234020   2.929   3.085   6.772  1.6633 -1.9844 -0.9805
 7463SOL     OW34021   1.912   0.675  11.358 -0.2610  0.1285 -0.5692
 7463SOL    HW134022   1.890   0.582  11.353 -1.5140  0.4741 -1.4499
 7463SOL    HW234023   1.999   0.671  11.319 -0.5360 -2.3874 -0.9335
 7464SOL     OW34024   2.039   2.186   3.905  0.8555 -0.1446  0.0491
 7464SOL    HW134025   2.067   2.229   3.824  0.3166  1.7957  0.9020
 7464SOL    HW234026   2.082   2.239   3.972  0.6473  1.5914 -1.2042
 7465SOL     OW34027   3.785   0.979   4.785  0.0320 -0.4560 -0.2462
 7465SOL    HW134028   3.856   1.019   4.734 -1.6183  2.1640 -0.5195
 7465SOL    HW234029   3.772   1.037   4.860 -0.0887  0.7781 -1.2028
 7466SOL     OW34030   3.361   4.610   7.323  0.0499 -0.2785 -0.1515
 7466SOL    HW134031   3.321   4.584   7.241  1.2665  2.1569 -1.5102
 7466SOL    HW234032   3.344   4.704   7.320 -1.9038 -0.5910  1.2444
 7467SOL     OW34033   2.694   1.646   8.402  0.0781 -0.0660  0.1165
 7467SOL    HW134034   2.740   1.566   8.427  2.4363  1.9520  2.0891
 7467SOL    HW234035   2.734   1.712   8.458 -0.7867  3.1205 -2.9811
 7468SOL     OW34036   0.598   1.557   7.331  0.1886  0.4054 -0.2102
 7468SOL    HW134037   0.645   1.476   7.310  1.1843  0.6513  1.1130
 7468SOL    HW234038   0.507   1.527   7.326  0.9195 -1.8677  0.0361
 7469SOL     OW34039   3.902   3.195   4.574 -0.2509  0.0346 -0.2629
 7469SOL    HW134040   3.972   3.130   4.574  1.2206  1.6226 -1.8328
 7469SOL    HW234041   3.837   3.143   4.621 -0.3627 -0.4684 -0.9781
 7470SOL     OW34042   0.803   3.401   7.834  0.7158  0.6364 -0.2530
 7470SOL    HW134043   0.779   3.323   7.883  0.3128  0.8529 -0.1099
 7470SOL    HW234044   0.760   3.375   7.752 -0.3705  0.1427  0.4765
 7471SOL     OW34045   4.599   1.497  16.485 -0.1571 -0.1936 -0.2772
 7471SOL    HW134046   4.684   1.454  16.493  0.2246  0.2671 -1.7617
 7471SOL    HW234047   4.610   1.537  16.398  1.4845  1.4976  0.7004
 7472SOL     OW34048   3.980   4.429   5.657 -0.5667  0.5051  0.2462
 7472SOL    HW134049   3.981   4.414   5.752 -0.6478  1.0009  0.3245
 7472SOL    HW234050   3.892   4.393   5.641 -0.8508  0.7381  1.3021
 7473SOL     OW34051   4.199   2.395   3.186  0.0758  0.7245  0.7825
 7473SOL    HW134052   4.199   2.335   3.261 -0.4477 -1.5745 -1.0887
 7473SOL    HW234053   4.281   2.370   3.144 -1.9249  1.6337 -3.7044
 7474SOL     OW34054   1.910   4.230  14.509 -0.1691  0.4256 -0.0801
 7474SOL    HW134055   1.817   4.248  14.523 -0.9415 -2.1229 -1.9965
 7474SOL    HW234056   1.924   4.137  14.525  0.0930  0.2586 -1.2896
 7475SOL     OW34057   1.977   2.634   4.352 -0.2613  0.5238  0.2849
 7475SOL    HW134058   1.910   2.665   4.413  0.6738  0.5548  1.3073
 7475SOL    HW234059   1.934   2.567   4.299 -2.1636  1.6306  0.3989
 7476SOL     OW34060   2.900   1.739   5.620  0.2398 -0.0623 -0.5040
 7476SOL    HW134061   2.967   1.805   5.600  1.1315 -0.6034  0.7651
 7476SOL    HW234062   2.940   1.662   5.659 -0.6059  0.3499  1.1760
 7477SOL     OW34063   4.044   3.056   3.530 -0.0766 -0.2902  0.0735
 7477SOL    HW134064   4.049   3.122   3.598 -1.9402  0.3623 -0.4348
 7477SOL    HW234065   3.981   3.093   3.468 -0.3490 -0.5482  0.1988
 7478SOL     OW34066   4.196   1.637   6.171  0.6245  0.0836  0.0881
 7478SOL    HW134067   4.152   1.558   6.203 -0.7030  0.1293 -1.6550
 7478SOL    HW234068   4.274   1.593   6.138  0.7097  0.0255  0.3639
 7479SOL     OW34069   4.406   1.740  11.584 -0.0309 -0.0974  0.2967
 7479SOL    HW134070   4.460   1.819  11.588  0.2207 -0.3984  3.0916
 7479SOL    HW234071   4.317   1.775  11.593 -0.1016 -0.7375  2.1676
 7480SOL     OW34072   1.931   3.223   8.697 -0.5248 -0.2885 -0.2228
 7480SOL    HW134073   1.903   3.142   8.739 -0.3046 -0.4085 -0.3110
 7480SOL    HW234074   2.021   3.233   8.726 -1.5320  0.0672  2.8089
 7481SOL     OW34075   4.379   0.883   0.269 -0.2621 -0.5623  0.4044
 7481SOL    HW134076   4.315   0.820   0.234 -1.1069 -0.2410  1.3755
 7481SOL    HW234077   4.347   0.966   0.234  1.9613  0.3017  0.4256
 7482SOL     OW34078   4.313   1.555   4.581  0.0211  0.3353  0.0819
 7482SOL    HW134079   4.297   1.619   4.511 -0.0931  0.6117  0.3596
 7482SOL    HW234080   4.380   1.494   4.552  0.8846  0.6333  1.4348
 7483SOL     OW34081   2.078   3.418  16.592  0.5707 -0.0346  0.1953
 7483SOL    HW134082   2.048   3.348  16.649  0.8140 -1.5818 -1.5921
 7483SOL    HW234083   2.170   3.401  16.610  0.8115 -0.0832 -1.0748
 7484SOL     OW34084   0.135   2.275   1.158 -0.0233  0.0497  0.4280
 7484SOL    HW134085   0.108   2.277   1.250  0.2229 -0.6914  0.5236
 7484SOL    HW234086   0.213   2.220   1.168  0.2553  0.4701  0.5878
 7485SOL     OW34087   4.005   3.956  13.135  0.1477  0.0307 -0.0007
 7485SOL    HW134088   3.934   3.950  13.199  1.8079 -3.2054  1.5279
 7485SOL    HW234089   3.968   3.901  13.066 -0.3794 -0.3432  0.5796
 7486SOL     OW34090   4.116   4.676   7.778  0.2056  1.0097  0.6416
 7486SOL    HW134091   4.069   4.593   7.785  0.4086  0.9456  1.2477
 7486SOL    HW234092   4.043   0.003   7.785  0.4396  1.3019  0.5140
 7487SOL     OW34093   4.059   4.146   8.457 -0.2732  0.4077 -0.3437
 7487SOL    HW134094   3.970   4.173   8.478 -0.4730  0.6773 -1.4992
 7487SOL    HW234095   4.041   4.064   8.410 -2.0069  1.1965 -1.0464
 7488SOL     OW34096   3.941   4.077  11.227  0.3936 -0.2074  0.4963
 7488SOL    HW134097   3.957   4.161  11.270  0.2989  0.1999 -0.2711
 7488SOL    HW234098   4.026   4.050  11.192 -0.4500 -0.6055 -1.1990
 7489SOL     OW34099   0.002   4.376  13.840  0.0543 -0.3481  0.7817
 7489SOL    HW134100   0.048   4.458  13.860  1.6613 -1.0344 -0.1852
 7489SOL    HW234101   4.712   4.395  13.750 -1.8913 -2.4704  0.8506
 7490SOL     OW34102   3.247   0.197   8.768  0.6541  0.2866 -0.8810
 7490SOL    HW134103   3.330   0.191   8.723  0.1102  0.2161 -1.8715
 7490SOL    HW234104   3.187   0.216   8.695  0.0510  0.0784 -0.4431
 7491SOL     OW34105   1.514   1.410  17.561  0.1805 -0.4852 -0.3787
 7491SOL    HW134106   1.561   1.357  17.497  0.7295  0.3391 -0.6507
 7491SOL    HW234107   1.591   1.422  17.618 -1.8239  2.2916  1.7507
 7492SOL     OW34108   2.473   0.529   8.048 -0.3303  0.2879 -0.1319
 7492SOL    HW134109   2.395   0.524   7.993 -0.7622 -0.5751  0.5652
 7492SOL    HW234110   2.464   0.459   8.112 -1.6745  1.1636  0.6434
 7493SOL     OW34111   2.423   3.368  14.124 -0.8411 -0.5493 -0.7599
 7493SOL    HW134112   2.401   3.393  14.034 -0.3983 -0.0269 -0.7248
 7493SOL    HW234113   2.481   3.293  14.111  0.5979  0.5810 -0.9170
 7494SOL     OW34114   1.156   0.037   1.154  0.3853 -0.2076  0.2042
 7494SOL    HW134115   1.064   0.049   1.131  0.2313  0.9545  1.4305
 7494SOL    HW234116   1.185   0.119   1.114 -0.6799  1.1303  2.1720
 7495SOL     OW34117   0.131   3.227   1.542 -0.5218  0.1848  0.3248
 7495SOL    HW134118   0.211   3.260   1.584 -0.4860  1.2655 -0.5744
 7495SOL    HW234119   0.062   3.266   1.596 -2.8309  0.2051 -2.6581
 7496SOL     OW34120   1.851   4.205  11.322  0.4056 -0.0291 -0.0706
 7496SOL    HW134121   1.919   4.190  11.256  0.7766  0.2257  0.2553
 7496SOL    HW234122   1.862   4.299  11.335  1.0248 -0.1340  0.1730
 7497SOL     OW34123   0.040   3.141   0.442  0.7206  0.4344  0.0086
 7497SOL    HW134124   0.101   3.160   0.371  0.3613  0.1132 -0.3930
 7497SOL    HW234125   0.017   3.050   0.423 -1.3564  1.1448 -0.9445
 7498SOL     OW34126   1.762   1.210   8.524  0.1933  0.2960  0.3076
 7498SOL    HW134127   1.848   1.183   8.492 -0.9020 -2.1350 -0.5550
 7498SOL    HW234128   1.786   1.250   8.607  0.6744  0.4150  0.1099
 7499SOL     OW34129   1.054   3.465   6.499 -0.2784 -0.2144  0.0175
 7499SOL    HW134130   0.985   3.400   6.504 -0.2684 -0.2412 -0.2052
 7499SOL    HW234131   1.005   3.538   6.537 -2.0052 -1.0833 -0.5623
 7500SOL     OW34132   1.137   3.768   2.198  0.5504  0.9899 -0.2330
 7500SOL    HW134133   1.204   3.837   2.191  3.0722 -1.0856  3.0862
 7500SOL    HW234134   1.133   3.752   2.293  0.7515 -0.8743 -0.5406
 7501SOL     OW34135   3.679   0.927   7.757 -0.2529 -0.0287 -0.1764
 7501SOL    HW134136   3.702   0.925   7.665  1.6589 -2.1031  0.3569
 7501SOL    HW234137   3.713   0.840   7.779  1.4583  1.0975  1.6398
 7502SOL     OW34138   3.858   2.280   8.400  0.1739 -0.1739  0.1356
 7502SOL    HW134139   3.855   2.184   8.398 -1.7086 -0.0722 -1.7536
 7502SOL    HW234140   3.933   2.279   8.460  0.6812  1.3413 -0.4895
 7503SOL     OW34141   3.227   4.088   8.623  0.3212  0.0279 -0.1799
 7503SOL    HW134142   3.309   4.134   8.642  0.5645  0.2386 -1.6997
 7503SOL    HW234143   3.212   4.019   8.688 -0.0539 -2.1897 -2.5908
 7504SOL     OW34144   1.919   3.943   6.460 -0.1977  0.2520 -0.0202
 7504SOL    HW134145   1.891   3.865   6.507  0.3848  0.7205  1.0840
 7504SOL    HW234146   1.842   3.949   6.403  0.8146  0.1908 -1.3966
 7505SOL     OW34147   4.212   3.761  13.643 -0.2005  0.3221 -0.1857
 7505SOL    HW134148   4.292   3.712  13.623  0.2074  0.8464  0.1707
 7505SOL    HW234149   4.163   3.741  13.563  0.5600 -2.0051 -0.0865
 7506SOL     OW34150   1.268   0.028   8.286  0.0712  0.1208  0.0768
 7506SOL    HW134151   1.326   0.096   8.250 -0.4465 -0.0835 -1.1479
 7506SOL    HW234152   1.216   0.011   8.207  0.4060  1.1343 -0.3708
 7507SOL     OW34153   0.199   0.579   5.861  0.4903 -0.6926  0.3828
 7507SOL    HW134154   0.277   0.633   5.871 -0.9792  1.0728  2.3375
 7507SOL    HW234155   0.167   0.575   5.952 -0.2335 -1.0972  0.1171
 7508SOL     OW34156   2.035   3.098  16.390 -0.2467 -0.4804 -0.1091
 7508SOL    HW134157   2.117   3.103  16.439 -0.6484  0.6230  0.4474
 7508SOL    HW234158   2.055   3.024  16.333 -0.5430 -0.3035 -0.4447
 7509SOL     OW34159   3.953   1.519   2.264  0.0546 -0.0564  0.1037
 7509SOL    HW134160   4.020   1.489   2.202  0.6709  1.6580 -0.0542
 7509SOL    HW234161   3.927   1.601   2.222 -1.5714  0.2709  1.7690
 7510SOL     OW34162   0.199   3.800   4.152 -0.4206  0.2776  0.0852
 7510SOL    HW134163   0.179   3.867   4.087 -0.5686 -1.2948 -1.4854
 7510SOL    HW234164   0.113   3.792   4.192  0.7698  1.0101  2.7929
 7511SOL     OW34165   0.103   3.094   6.865 -0.5467 -0.5860  0.3247
 7511SOL    HW134166   0.070   3.102   6.955 -2.7190 -1.1398 -0.4315
 7511SOL    HW234167   0.065   3.011   6.836 -1.6440  0.4985 -1.3284
 7512SOL     OW34168   0.963   1.688   8.313  0.1438  0.3881 -0.4521
 7512SOL    HW134169   1.044   1.722   8.351  0.0071 -1.0920  1.1731
 7512SOL    HW234170   0.992   1.689   8.221  0.6776  2.5400 -0.2569
 7513SOL     OW34171   3.342   2.632   7.354 -0.2246  0.4255 -0.2052
 7513SOL    HW134172   3.287   2.555   7.337  1.7736 -0.2778 -3.4836
 7513SOL    HW234173   3.345   2.636   7.449 -0.1491 -0.3667 -0.1719
 7514SOL     OW34174   2.741   1.819   7.443  0.7147 -0.0271 -0.2534
 7514SOL    HW134175   2.789   1.799   7.363  0.4129 -0.7294 -0.2567
 7514SOL    HW234176   2.782   1.753   7.498  0.6259  0.2434  0.1380
 7515SOL     OW34177   1.003   0.095   4.545  0.0372 -0.5514 -0.5814
 7515SOL    HW134178   0.966   0.181   4.527 -2.0442 -0.8640  2.2015
 7515SOL    HW234179   1.055   0.115   4.623  1.3684 -1.4498 -1.2444
 7516SOL     OW34180   0.396   1.326   5.593 -0.0999 -0.3349  0.4935
 7516SOL    HW134181   0.447   1.399   5.556 -0.6770 -0.4799 -0.5753
 7516SOL    HW234182   0.428   1.258   5.533 -1.6748 -1.1414  0.5755
 7517SOL     OW34183   3.988   3.950  14.052 -0.3706  0.0434 -0.0551
 7517SOL    HW134184   4.016   4.015  13.987  2.7751  0.3651  1.6597
 7517SOL    HW234185   3.971   4.017  14.118  1.9496  0.8170 -0.2407
 7518SOL     OW34186   1.547   2.791   7.305 -0.0177  0.6156  0.1147
 7518SOL    HW134187   1.530   2.765   7.395 -1.5845  1.4847  0.0630
 7518SOL    HW234188   1.627   2.746   7.277 -0.4401 -0.9010  1.3112
 7519SOL     OW34189   0.087   3.296   3.287  0.1900  0.5703 -0.1808
 7519SOL    HW134190   0.010   3.336   3.328  1.1309 -0.1618  2.2362
 7519SOL    HW234191   0.044   3.218   3.250  0.4697  0.2669  0.1451
 7520SOL     OW34192   4.685   3.084   0.900  0.4251 -0.1334  0.1876
 7520SOL    HW134193   4.629   3.120   0.831 -0.4294 -0.9048  0.4689
 7520SOL    HW234194   4.630   3.026   0.953  0.0669  0.8647  0.9119
 7521SOL     OW34195   0.619   4.554  16.324  0.2412  0.1396  0.0004
 7521SOL    HW134196   0.605   4.509  16.240  0.3868  3.3916 -1.7736
 7521SOL    HW234197   0.636   4.484  16.387 -0.6428  0.2679  0.3793
 7522SOL     OW34198   4.733   3.673   2.172 -0.4308 -0.1280  0.5865
 7522SOL    HW134199   0.019   3.612   2.243 -1.9368 -2.0520 -0.6288
 7522SOL    HW234200   4.642   3.661   2.146 -0.6232  0.8259  0.8177
 7523SOL     OW34201   1.751   2.406   3.108 -0.0030 -0.2925 -0.1838
 7523SOL    HW134202   1.774   2.415   3.015 -0.9792  1.2455 -0.2881
 7523SOL    HW234203   1.768   2.497   3.133 -2.4785 -0.4839  2.1435
 7524SOL     OW34204   3.086   3.727  15.811 -0.2361 -0.0653 -0.1251
 7524SOL    HW134205   3.090   3.798  15.747 -1.5702  0.6755  0.6251
 7524SOL    HW234206   3.007   3.686  15.775  0.5921 -3.0058  1.3940
 7525SOL     OW34207   2.160   4.206   7.992  0.2279  0.6394  0.5013
 7525SOL    HW134208   2.147   4.117   8.026 -1.8098  0.0974 -1.7446
 7525SOL    HW234209   2.069   4.219   7.966  0.6500 -1.4072 -2.0050
 7526SOL     OW34210   1.269   1.967   2.704 -0.4716 -0.2006  0.2475
 7526SOL    HW134211   1.319   1.902   2.655  1.2334  0.5093  1.0113
 7526SOL    HW234212   1.320   1.978   2.785  0.7792  0.7783 -0.6836
 7527SOL     OW34213   3.828   1.902  15.974  0.3621  0.3003 -0.3984
 7527SOL    HW134214   3.849   1.943  16.057 -1.4743  0.3020  0.0634
 7527SOL    HW234215   3.859   1.814  15.996  1.1999  0.7680  0.3024
 7528SOL     OW34216   4.727   2.028   7.095  0.4159 -0.6852  0.5226
 7528SOL    HW134217   0.068   2.067   7.140 -1.7545  0.9935  2.7042
 7528SOL    HW234218   4.680   2.110   7.082 -1.0558 -1.4806  0.7945
 7529SOL     OW34219   2.019   3.926   1.407  0.1146 -0.0029  0.1472
 7529SOL    HW134220   2.054   3.957   1.323 -0.3847  1.0322  0.3333
 7529SOL    HW234221   2.066   3.844   1.425  0.7998  0.5406  0.8133
 7530SOL     OW34222   2.619   2.204   1.443  0.4837 -0.5694  0.2244
 7530SOL    HW134223   2.590   2.295   1.435  3.1136  0.4706  2.7602
 7530SOL    HW234224   2.567   2.171   1.516  1.4752  0.5808  1.4459
 7531SOL     OW34225   3.624   3.535   3.525 -0.6303 -0.0672  0.1423
 7531SOL    HW134226   3.710   3.495   3.511 -2.3121 -2.6390 -2.8755
 7531SOL    HW234227   3.614   3.536   3.620 -2.4752 -1.5192 -0.0507
 7532SOL     OW34228   2.741   1.233   2.538 -0.3370  0.0597 -0.0197
 7532SOL    HW134229   2.675   1.167   2.556 -1.0129  1.3241  2.1416
 7532SOL    HW234230   2.802   1.233   2.612  0.6564  1.0555 -0.8400
 7533SOL     OW34231   3.215   3.906  10.595  0.3299 -0.6579 -0.8537
 7533SOL    HW134232   3.306   3.879  10.602  0.4779  0.5310  1.8758
 7533SOL    HW234233   3.181   3.838  10.538 -0.0168 -0.3868 -0.9767
 7534SOL     OW34234   0.507   4.511   6.665 -0.6910  0.2064 -0.7654
 7534SOL    HW134235   0.446   4.440   6.685 -1.3543  1.2301  0.8851
 7534SOL    HW234236   0.451   4.588   6.670 -2.2485 -0.9007 -1.2016
 7535SOL     OW34237   2.563   1.895   3.618 -0.1003 -0.0709  0.5972
 7535SOL    HW134238   2.485   1.950   3.613 -0.0178  0.0267  0.4131
 7535SOL    HW234239   2.550   1.833   3.546 -0.8832  0.0861  0.6026
 7536SOL     OW34240   3.596   0.887   8.878  0.3391  0.7715  0.1691
 7536SOL    HW134241   3.609   0.829   8.953 -2.2249  0.7609  0.6111
 7536SOL    HW234242   3.512   0.856   8.842 -0.8323  3.0212  0.9603
 7537SOL     OW34243   4.371   3.535   5.219  0.0735 -0.2944 -0.0263
 7537SOL    HW134244   4.296   3.503   5.169  0.3841 -1.9581  0.5966
 7537SOL    HW234245   4.362   3.497   5.306 -1.3700 -0.1207 -0.0984
 7538SOL     OW34246   3.465   3.910   4.671 -0.0360  0.1440  0.2918
 7538SOL    HW134247   3.383   3.947   4.702  0.9277  0.0561  2.9125
 7538SOL    HW234248   3.449   3.815   4.674 -0.4501  0.1337 -1.7838
 7539SOL     OW34249   0.406   2.427  15.158 -0.1158 -0.6176 -0.4869
 7539SOL    HW134250   0.400   2.456  15.067  1.4174  0.0993 -0.3758
 7539SOL    HW234251   0.317   2.421  15.192 -0.2312  0.1365 -0.6558
 7540SOL     OW34252   1.534   3.244  15.068 -0.4743 -0.1517  0.2724
 7540SOL    HW134253   1.604   3.266  15.129 -1.1839 -0.0828  1.0479
 7540SOL    HW234254   1.542   3.149  15.077 -1.6036 -0.3764 -1.1071
 7541SOL     OW34255   3.543   0.857  16.972 -0.7282  0.1150  0.2969
 7541SOL    HW134256   3.548   0.831  17.064  0.0269  1.4141  0.6130
 7541SOL    HW234257   3.450   0.835  16.958 -0.4926 -0.4396 -0.4424
 7542SOL     OW34258   3.591   3.921   1.577  0.1238  0.3438 -0.2124
 7542SOL    HW134259   3.672   3.963   1.605  1.1150 -2.1174  0.5901
 7542SOL    HW234260   3.609   3.832   1.606 -2.1992  0.1630  0.7208
 7543SOL     OW34261   0.845   2.052   4.802  0.2329  0.5049  0.5184
 7543SOL    HW134262   0.802   2.039   4.887 -1.1551 -1.7815 -0.5396
 7543SOL    HW234263   0.790   1.989   4.756  0.3315 -0.1195  1.2575
 7544SOL     OW34264   4.681   0.796   6.064 -0.6796  0.1092 -0.1176
 7544SOL    HW134265   4.667   0.777   6.157 -3.1864 -0.4384 -0.6186
 7544SOL    HW234266   4.725   0.713   6.047  1.4311  1.1163  0.4426
 7545SOL     OW34267   3.920   3.628   7.724  0.3819 -0.2384  0.3751
 7545SOL    HW134268   4.004   3.658   7.691 -0.3051  0.5563 -0.6355
 7545SOL    HW234269   3.917   3.534   7.702 -0.6210  0.4038 -2.2528
 7546SOL     OW34270   3.745   2.230   2.597 -0.2511  0.3636 -0.3794
 7546SOL    HW134271   3.756   2.157   2.658 -0.1491  0.8749  0.2127
 7546SOL    HW234272   3.790   2.292   2.653 -1.3277  0.9083 -0.1233
 7547SOL     OW34273   2.442   4.306  12.417  0.0535  0.7666  0.3041
 7547SOL    HW134274   2.489   4.388  12.434  1.1070  0.2833 -0.3026
 7547SOL    HW234275   2.353   4.340  12.407 -0.2290  0.0364  0.3304
 7548SOL     OW34276   4.714   1.417   6.758 -0.4278  0.2580  1.1147
 7548SOL    HW134277   0.057   1.466   6.786  0.5421 -1.2880  1.1496
 7548SOL    HW234278   0.014   1.329   6.745  0.1601  0.4093  1.6484
 7549SOL     OW34279   3.334   0.399   2.477 -0.1855  0.3311  0.3350
 7549SOL    HW134280   3.260   0.348   2.444  0.3292  0.2004 -0.6151
 7549SOL    HW234281   3.376   0.347   2.545 -1.6102 -1.7246 -0.3756
 7550SOL     OW34282   2.146   1.073   6.266 -0.2864  0.4577 -0.2370
 7550SOL    HW134283   2.188   1.013   6.204  0.0302 -1.3666  1.7713
 7550SOL    HW234284   2.179   1.040   6.349 -0.6446  1.8565  0.4544
 7551SOL     OW34285   0.481   0.931   0.743 -0.8238 -0.3275  1.2510
 7551SOL    HW134286   0.416   0.862   0.736 -2.3584  1.3060 -0.6170
 7551SOL    HW234287   0.488   0.944   0.838 -0.5452  1.8785  0.9377
 7552SOL     OW34288   1.766   3.861   5.877 -0.0851  0.2118  0.5292
 7552SOL    HW134289   1.784   3.938   5.931  1.3386  0.6568 -0.5637
 7552SOL    HW234290   1.807   3.877   5.792 -0.4417  0.9461  0.4997
 7553SOL     OW34291   4.466   3.821   0.385 -0.3785 -0.5311 -0.1640
 7553SOL    HW134292   4.556   3.853   0.387 -0.4296 -0.4415  0.7551
 7553SOL    HW234293   4.456   3.805   0.291  1.4237  2.6385 -0.8805
 7554SOL     OW34294   4.570   3.874   6.244 -0.2439  0.0763 -0.0252
 7554SOL    HW134295   4.493   3.856   6.189 -1.1864 -0.9487  1.6127
 7554SOL    HW234296   4.607   3.786   6.241 -0.0025  0.2335 -1.5981
 7555SOL     OW34297   2.464   3.428   2.206 -0.0234  0.0593 -0.2175
 7555SOL    HW134298   2.443   3.494   2.139  0.0749 -1.1407 -1.4210
 7555SOL    HW234299   2.558   3.414   2.193  0.0232  0.1729 -0.0056
 7556SOL     OW34300   3.632   3.082   8.312 -0.2541  0.1761 -0.0663
 7556SOL    HW134301   3.585   3.112   8.389 -0.1355 -0.5657  0.2919
 7556SOL    HW234302   3.600   2.992   8.314 -2.0139  0.7121 -3.2078
 7557SOL     OW34303   4.026   0.027   5.993 -0.1861  0.1321  0.1289
 7557SOL    HW134304   4.035   0.073   6.077  0.3143 -0.0159  0.1544
 7557SOL    HW234305   4.046   0.102   5.936  0.5227  0.9969  1.5138
 7558SOL     OW34306   2.325   2.061   4.008  0.3791  0.1441 -0.1417
 7558SOL    HW134307   2.249   2.118   3.998  0.5903  0.7930  2.1441
 7558SOL    HW234308   2.289   1.975   3.985  0.5156 -0.1223  0.6637
 7559SOL     OW34309   4.137   1.987   8.158  0.1885 -0.1682 -0.4761
 7559SOL    HW134310   4.170   2.043   8.089  2.9777  0.3487  1.3027
 7559SOL    HW234311   4.215   1.959   8.206 -1.4252  0.1271  2.3352
 7560SOL     OW34312   0.705   3.277   7.598  0.2131  1.1471 -0.0966
 7560SOL    HW134313   0.717   3.191   7.558 -0.3377  1.5059 -1.0212
 7560SOL    HW234314   0.653   3.315   7.528 -1.6909 -1.3670 -0.0385
 7561SOL     OW34315   2.312   3.370   1.524 -0.3824  0.0634 -0.6165
 7561SOL    HW134316   2.355   3.380   1.609 -0.7223 -0.5365 -0.3732
 7561SOL    HW234317   2.243   3.435   1.533 -1.9795 -1.8667  1.0462
 7562SOL     OW34318   4.580   3.135  17.556 -0.0298 -0.7007  0.1605
 7562SOL    HW134319   4.669   3.099  17.559  0.1151 -0.2335  1.4831
 7562SOL    HW234320   4.530   3.069  17.605 -0.4856 -2.1421 -2.2583
 7563SOL     OW34321   3.722   2.725   3.001 -0.1994  0.2759 -0.2415
 7563SOL    HW134322   3.792   2.755   2.943  1.3088  1.0404  1.9851
 7563SOL    HW234323   3.694   2.810   3.036 -0.8888  0.1579 -0.4875
 7564SOL     OW34324   4.596   0.127   3.262  0.3435 -0.3151  0.1023
 7564SOL    HW134325   4.617   0.036   3.282  0.5807 -0.4722 -0.8613
 7564SOL    HW234326   4.519   0.116   3.206 -0.2236  1.6938  0.4807
 7565SOL     OW34327   3.168   0.010   8.434  0.1857 -0.1349 -0.1576
 7565SOL    HW134328   3.107   0.066   8.386 -1.4022  0.1099  2.1478
 7565SOL    HW234329   3.161   4.668   8.377  0.1029  0.8681 -1.4995
 7566SOL     OW34330   0.067   2.858   2.141  0.4240  0.1896 -0.2921
 7566SOL    HW134331   0.114   2.840   2.060 -1.2612  1.3573 -1.5163
 7566SOL    HW234332   0.069   2.772   2.182 -0.6650 -0.0786 -0.8185
 7567SOL     OW34333   4.168   4.058  15.930  0.1284  0.2838  0.4922
 7567SOL    HW134334   4.137   4.147  15.948  0.1280  0.2626  0.5954
 7567SOL    HW234335   4.260   4.062  15.955  0.4604  1.0010 -0.8140
 7568SOL     OW34336   2.719   0.145   7.351  0.4948  0.7198 -0.3075
 7568SOL    HW134337   2.658   0.092   7.298 -0.5842  2.4116 -0.7600
 7568SOL    HW234338   2.775   0.193   7.290  3.1543  1.2644  2.5647
 7569SOL     OW34339   4.421   1.475  17.051  0.1451 -0.1878 -0.2878
 7569SOL    HW134340   4.343   1.436  17.011  0.6097 -0.1136 -1.2571
 7569SOL    HW234341   4.403   1.485  17.144 -1.2282 -2.2377 -0.3337
 7570SOL     OW34342   2.752   1.795   9.724 -0.0258 -0.2568  0.2514
 7570SOL    HW134343   2.798   1.879   9.719  0.7562 -0.7063  0.0673
 7570SOL    HW234344   2.671   1.825   9.766 -0.7214  0.6356 -1.6981
 7571SOL     OW34345   2.782   3.182  17.601  0.0008 -0.4026  0.2802
 7571SOL    HW134346   2.703   3.198  17.653 -0.6048 -1.8046 -0.2084
 7571SOL    HW234347   2.779   3.238  17.523  0.2994 -0.6054  0.1241
 7572SOL     OW34348   4.343   0.430   2.811  0.2684  0.4169 -0.3388
 7572SOL    HW134349   4.378   0.353   2.765  0.9045 -0.7805  2.1892
 7572SOL    HW234350   4.269   0.464   2.761 -0.0719  1.3582  0.8235
 7573SOL     OW34351   0.523   2.349   5.039  0.6206 -0.1599 -0.0981
 7573SOL    HW134352   0.606   2.314   5.071 -0.0965 -0.2876  1.6029
 7573SOL    HW234353   0.487   2.279   4.984  0.6228 -2.4180  2.7566
 7574SOL     OW34354   0.493   0.108  12.071 -0.2511  0.0354  0.1902
 7574SOL    HW134355   0.521   0.017  12.066 -1.2720 -0.2584 -0.2520
 7574SOL    HW234356   0.458   0.111  12.160 -1.2819  0.2079 -0.2163
 7575SOL     OW34357   1.643   1.972   4.519 -0.2904  0.0229  0.1362
 7575SOL    HW134358   1.670   1.881   4.533  1.3541  0.4546 -0.2361
 7575SOL    HW234359   1.592   1.990   4.599  0.4308  1.1634  0.3295
 7576SOL     OW34360   4.017   4.665   6.921  0.0851  0.0211  0.1518
 7576SOL    HW134361   4.101   4.637   6.957  0.8225  1.8754 -0.1414
 7576SOL    HW234362   4.000   4.584   6.874  1.9319 -0.4310  0.2442
 7577SOL     OW34363   2.032   4.166   5.786  0.0807  0.2726  0.1072
 7577SOL    HW134364   2.086   4.113   5.845 -0.0701  1.0322  0.9283
 7577SOL    HW234365   1.953   4.167   5.840  1.3725 -1.3828  2.0514
 7578SOL     OW34366   3.364   4.489   2.827 -0.4339  0.0255 -0.2209
 7578SOL    HW134367   3.372   4.408   2.777 -0.6021 -0.0484 -0.1275
 7578SOL    HW234368   3.293   4.464   2.885 -1.4154 -1.2450 -1.9820
 7579SOL     OW34369   2.230   0.168   6.949  0.1654 -0.5987 -0.4242
 7579SOL    HW134370   2.159   0.224   6.980  2.0230  0.5090  1.8083
 7579SOL    HW234371   2.308   0.217   6.976  0.5778 -0.0536 -2.6132
 7580SOL     OW34372   2.637   1.762   5.512  0.4508 -0.4055 -0.8590
 7580SOL    HW134373   2.727   1.767   5.545  0.4635 -0.2459 -0.9137
 7580SOL    HW234374   2.642   1.670   5.486  0.3135 -0.7662  0.3986
 7581SOL     OW34375   2.678   1.838  14.741  0.7728  0.0036 -0.1912
 7581SOL    HW134376   2.669   1.834  14.646 -0.7294  2.3915 -0.1536
 7581SOL    HW234377   2.615   1.773  14.769  0.1004  0.7976  0.1371
 7582SOL     OW34378   4.178   1.759  15.897 -0.3747  0.3998 -0.3248
 7582SOL    HW134379   4.116   1.746  15.826  0.1617 -0.0144 -0.7131
 7582SOL    HW234380   4.244   1.786  15.834 -2.1715  1.2578 -1.8301
 7583SOL     OW34381   0.124   2.951   3.545 -0.4605  0.3290 -0.8979
 7583SOL    HW134382   0.032   2.952   3.569  0.0800  1.1754  1.2153
 7583SOL    HW234383   0.133   2.909   3.460 -1.4800 -1.2350 -0.2296
 7584SOL     OW34384   0.020   0.689  15.725  0.3440 -0.1487  0.0033
 7584SOL    HW134385   4.684   0.629  15.700 -0.7410  1.1774 -0.1109
 7584SOL    HW234386   0.039   0.747  15.651  1.3283 -0.3203  0.1189
 7585SOL     OW34387   4.636   3.238  11.397 -0.2544  0.0655  0.5591
 7585SOL    HW134388   4.667   3.238  11.488  0.5866  0.7056  0.2695
 7585SOL    HW234389   4.607   3.149  11.376 -0.1546  0.3350 -0.7381
 7586SOL     OW34390   2.221   1.164   0.527 -0.4927  0.6595  0.1930
 7586SOL    HW134391   2.220   1.259   0.536 -1.1935  0.5761  0.9917
 7586SOL    HW234392   2.129   1.139   0.535 -0.0975 -0.8708 -0.0092
 7587SOL     OW34393   2.580   4.596   8.808  0.7495 -0.1588  0.6597
 7587SOL    HW134394   2.654   4.637   8.763  0.8857 -1.8403 -0.6442
 7587SOL    HW234395   2.559   4.661   8.875 -0.7729  0.8627 -0.7910
 7588SOL     OW34396   0.151   4.357   7.808  0.2707 -0.5095  0.4543
 7588SOL    HW134397   0.111   4.373   7.893  2.2961 -0.3183  1.3433
 7588SOL    HW234398   0.181   4.266   7.808  2.0065  0.0646  0.1543
 7589SOL     OW34399   3.983   4.535   9.982 -0.1644 -0.2630 -0.1765
 7589SOL    HW134400   4.031   4.541  10.065 -0.0461  0.7796 -0.3209
 7589SOL    HW234401   4.008   4.617   9.940 -0.6601 -1.9704 -3.8575
 7590SOL     OW34402   0.864   0.557   3.909 -0.3363 -0.8154  0.3423
 7590SOL    HW134403   0.798   0.494   3.938 -0.5838  0.2015  1.9897
 7590SOL    HW234404   0.936   0.514   3.862  0.4957  0.1192  0.7618
 7591SOL     OW34405   3.662   4.400   6.103  0.9642  0.2581  0.1434
 7591SOL    HW134406   3.686   4.441   6.186 -0.9986  3.3571 -0.8267
 7591SOL    HW234407   3.641   4.479   6.052  1.0439  0.7334  0.8509
 7592SOL     OW34408   4.574   4.387  10.837  0.1812 -0.5283  0.4058
 7592SOL    HW134409   4.529   4.461  10.796 -0.8675 -0.8171  1.0168
 7592SOL    HW234410   4.539   4.391  10.926 -1.0670 -2.0708 -0.0038
 7593SOL     OW34411   0.170   1.192   3.713  0.1090  0.3643  0.0656
 7593SOL    HW134412   0.076   1.195   3.694  0.4537 -0.0399 -1.7214
 7593SOL    HW234413   0.184   1.097   3.714 -0.8415  0.2773  3.4751
 7594SOL     OW34414   0.414   1.757  12.861 -0.1229  0.4066  0.0264
 7594SOL    HW134415   0.350   1.700  12.819 -0.3102  0.5897  0.0634
 7594SOL    HW234416   0.389   1.738  12.952 -1.8487 -0.4388 -0.6192
 7595SOL     OW34417   2.310   2.605   4.572 -0.0786 -0.3459  0.1042
 7595SOL    HW134418   2.373   2.540   4.603 -0.3960 -0.1680  1.1164
 7595SOL    HW234419   2.341   2.618   4.482 -0.0969  1.5526  0.3868
 7596SOL     OW34420   4.705   0.321  11.547  0.0806  0.3675  0.5326
 7596SOL    HW134421   4.718   0.231  11.579 -1.3961 -0.4579 -1.2367
 7596SOL    HW234422   0.016   0.364  11.620  1.5395  1.1504 -0.8488
 7597SOL     OW34423   3.112   1.658   4.573 -0.2178  0.1711 -0.2693
 7597SOL    HW134424   3.050   1.728   4.552  0.6871  1.6427  1.8222
 7597SOL    HW234425   3.051   1.589   4.599 -0.7683  0.6382 -0.3174
 7598SOL     OW34426   3.598   4.478   6.680  0.9167  0.7553  0.7115
 7598SOL    HW134427   3.647   4.414   6.731 -0.1805 -0.4116  0.3074
 7598SOL    HW234428   3.508   4.450   6.698  1.8276 -1.5570  1.6158
 7599SOL     OW34429   1.194   0.013   7.772 -0.5524  0.4049 -0.2457
 7599SOL    HW134430   1.118   0.009   7.714 -2.0090 -0.7607  1.7920
 7599SOL    HW234431   1.259   4.705   7.716 -1.5254 -2.5912  0.9088
 7600SOL     OW34432   3.965   1.081   7.860  0.4470  0.1294 -0.0104
 7600SOL    HW134433   3.872   1.099   7.875  0.4171 -1.2073  1.4244
 7600SOL    HW234434   3.984   1.036   7.943  0.5031 -1.1243 -0.6942
 7601SOL     OW34435   4.725   3.273   7.674 -0.3298 -0.1167 -0.2319
 7601SOL    HW134436   4.714   3.362   7.710  3.2895 -0.5889  1.9894
 7601SOL    HW234437   4.731   3.291   7.580  1.6017 -3.5553 -0.7269
 7602SOL     OW34438   3.023   2.603  12.687  0.3751 -0.0594  0.6157
 7602SOL    HW134439   2.937   2.607  12.728 -0.3939  2.6138 -1.2719
 7602SOL    HW234440   3.052   2.532  12.744 -2.4618 -2.0330 -0.4272
 7603SOL     OW34441   0.913   4.472   8.609  0.0143  0.0411 -0.1146
 7603SOL    HW134442   1.006   4.448   8.601  0.0957 -0.4768  2.2967
 7603SOL    HW234443   0.860   4.395   8.591 -2.1129  1.2075  1.1047
 7604SOL     OW34444   1.673   0.777   2.865 -0.0512 -0.2899 -0.7795
 7604SOL    HW134445   1.683   0.821   2.781 -0.4563  0.8549 -0.2217
 7604SOL    HW234446   1.695   0.843   2.931  1.0873 -1.4638  0.0234
 7605SOL     OW34447   0.381   4.369   1.279  0.4412  0.2748  0.1957
 7605SOL    HW134448   0.371   4.453   1.235  1.1306 -0.6414 -1.7050
 7605SOL    HW234449   0.396   4.399   1.369 -3.1451  0.9039  0.5834
 7606SOL     OW34450   3.411   0.812   1.755  0.4733 -0.1974 -0.1835
 7606SOL    HW134451   3.461   0.887   1.785  2.3309 -1.2548 -0.5986
 7606SOL    HW234452   3.332   0.821   1.808 -0.0799 -0.9139 -0.8869
 7607SOL     OW34453   3.235   3.096  14.368  0.1111  0.2465 -0.2760
 7607SOL    HW134454   3.204   3.069  14.282 -1.7003  4.0167 -0.8062
 7607SOL    HW234455   3.241   3.192  14.363 -1.0896  0.3758  1.0056
 7608SOL     OW34456   2.105   4.198   4.244  0.1226 -0.4534  0.8999
 7608SOL    HW134457   2.040   4.171   4.179  0.3889 -1.3437  1.0069
 7608SOL    HW234458   2.186   4.171   4.202  0.2605 -0.2710  1.0480
 7609SOL     OW34459   0.600   1.521   3.925  0.2287  0.7358  0.0006
 7609SOL    HW134460   0.510   1.549   3.907 -0.3537 -1.4301 -0.3651
 7609SOL    HW234461   0.604   1.565   4.010 -0.8582 -1.7968  1.3442
 7610SOL     OW34462   1.874   2.378   8.977  0.1964  0.2258  0.6824
 7610SOL    HW134463   1.873   2.282   8.981  1.0648  0.1140 -1.9008
 7610SOL    HW234464   1.844   2.410   9.062 -2.2931 -0.0038 -0.1104
 7611SOL     OW34465   4.347   4.105  10.329  0.0905 -0.1379  0.3751
 7611SOL    HW134466   4.277   4.117  10.265  0.8606 -2.5884 -0.8879
 7611SOL    HW234467   4.357   4.198  10.351  1.5582 -0.0213 -0.8172
 7612SOL     OW34468   1.119   3.997  14.310  0.1982 -0.6531  0.0466
 7612SOL    HW134469   1.139   4.040  14.227 -0.2664  0.2625  0.4174
 7612SOL    HW234470   1.199   3.948  14.331 -0.2405 -0.3208  2.4929
 7613SOL     OW34471   3.597   2.192   8.469  0.0570  0.1240  0.4432
 7613SOL    HW134472   3.628   2.161   8.554  1.0944  0.7687  0.3116
 7613SOL    HW234473   3.683   2.223   8.440 -0.3988  0.7176 -0.2554
 7614SOL     OW34474   0.329   2.262   6.347  0.1990 -0.2273 -0.2421
 7614SOL    HW134475   0.282   2.333   6.303  1.2876  1.9610  2.1210
 7614SOL    HW234476   0.410   2.265   6.295  2.0985 -1.1359  2.6443
 7615SOL     OW34477   3.122   2.879   0.768  0.3606  0.6104 -0.4760
 7615SOL    HW134478   3.191   2.887   0.834 -2.0919 -1.6821  2.3745
 7615SOL    HW234479   3.068   2.957   0.784 -0.3284 -0.0782  0.5777
 7616SOL     OW34480   3.421   3.683   5.824  0.1046 -0.1675 -0.3833
 7616SOL    HW134481   3.515   3.695   5.832  0.2456 -0.4650 -1.7350
 7616SOL    HW234482   3.410   3.666   5.731  0.1604  0.6020 -0.5349
 7617SOL     OW34483   4.046   4.140   2.091  0.0237  0.8802 -0.2211
 7617SOL    HW134484   4.107   4.081   2.046  3.1134  2.1004  2.3507
 7617SOL    HW234485   3.965   4.089   2.091 -0.4869  1.7198  2.3867
 7618SOL     OW34486   2.394   4.120   7.847 -0.1460 -0.3915  0.1236
 7618SOL    HW134487   2.351   4.194   7.803 -1.5906 -1.3591 -0.1059
 7618SOL    HW234488   2.342   4.118   7.928 -0.3812 -0.8656 -0.0388
 7619SOL     OW34489   1.864   1.354   3.819 -0.0109 -0.1312  0.1058
 7619SOL    HW134490   1.893   1.445   3.818  0.4636 -0.2944 -0.4161
 7619SOL    HW234491   1.850   1.336   3.726 -0.2718  0.5782  0.0052
 7620SOL     OW34492   2.960   3.569   9.477  0.4013  0.3963 -0.4170
 7620SOL    HW134493   2.995   3.487   9.441  1.9047  0.3988  1.0702
 7620SOL    HW234494   2.880   3.578   9.425 -0.1725  2.1350  0.7800
 7621SOL     OW34495   3.795   2.911   9.350  0.1971 -0.4158 -0.1735
 7621SOL    HW134496   3.882   2.926   9.387  0.4017  0.1150 -0.8646
 7621SOL    HW234497   3.737   2.880   9.420  0.3881 -0.3626  0.0060
 7622SOL     OW34498   0.004   1.836   7.319 -0.4738  0.3998 -0.5163
 7622SOL    HW134499   0.005   1.894   7.243  0.6134  0.6588 -0.3088
 7622SOL    HW234500   0.093   1.802   7.329 -0.4419  0.9751  1.2656
 7623SOL     OW34501   1.660   3.887   6.352  0.0296  0.3897  0.1826
 7623SOL    HW134502   1.609   3.808   6.332 -0.1885  0.3854  0.7467
 7623SOL    HW234503   1.624   3.925   6.432 -1.9195  0.1414 -0.5598
 7624SOL     OW34504   1.787   4.023  16.628  0.0990  0.6005 -0.4815
 7624SOL    HW134505   1.880   4.007  16.615 -0.0686 -0.3765 -0.4684
 7624SOL    HW234506   1.760   3.956  16.565 -1.8337  1.4427 -0.5439
 7625SOL     OW34507   1.576   0.304   3.435 -0.3344  0.1168  0.2405
 7625SOL    HW134508   1.486   0.316   3.466 -1.4531 -2.3512 -2.1319
 7625SOL    HW234509   1.592   0.378   3.376 -0.2264  0.1046  0.2535
 7626SOL     OW34510   0.357   4.291  12.316  0.6833  0.4664  0.2528
 7626SOL    HW134511   0.355   4.229  12.389 -1.1323  1.7539  1.2770
 7626SOL    HW234512   0.351   4.372  12.366  1.3651  0.3444  0.5481
 7627SOL     OW34513   1.486   3.799  12.817 -0.2450 -0.1049  0.2114
 7627SOL    HW134514   1.481   3.749  12.736 -3.6683 -1.7260  1.4214
 7627SOL    HW234515   1.447   3.742  12.883  1.7103 -3.0553 -1.2212
 7628SOL     OW34516   4.576   3.215   6.631 -0.2716  0.8242  0.5866
 7628SOL    HW134517   4.494   3.262   6.641  0.0657  1.2119  1.6116
 7628SOL    HW234518   4.548   3.133   6.671  0.0884  0.3103 -0.2226
 7629SOL     OW34519   0.316   1.440   2.800  0.3069  0.3456  0.4664
 7629SOL    HW134520   0.240   1.382   2.805  2.6293 -2.7290  0.2693
 7629SOL    HW234521   0.341   1.441   2.708  0.3413  3.7411  0.5386
 7630SOL     OW34522   0.855   3.222   4.485  0.1970  0.6399  0.1784
 7630SOL    HW134523   0.847   3.177   4.569  1.5962 -0.7447 -0.4251
 7630SOL    HW234524   0.919   3.165   4.443  2.6430  2.8068  0.9520
 7631SOL     OW34525   3.221   1.544  13.986 -0.2686  0.0279  0.3894
 7631SOL    HW134526   3.130   1.556  14.013 -0.8836 -1.0031 -1.2108
 7631SOL    HW234527   3.200   1.566  13.895 -0.2812 -0.9172  0.1667
 7632SOL     OW34528   2.116   3.558   3.489  0.3946  0.9257 -0.3698
 7632SOL    HW134529   2.141   3.522   3.404  2.8626  0.6831  0.4548
 7632SOL    HW234530   2.127   3.477   3.539 -0.3446  0.3879 -1.0655
 7633SOL     OW34531   0.931   1.158   8.511 -0.0711 -0.1703  0.4875
 7633SOL    HW134532   0.865   1.207   8.560 -0.4894  0.8929 -1.1519
 7633SOL    HW234533   1.005   1.187   8.565 -0.0609 -0.7046  0.7594
 7634SOL     OW34534   0.720   0.299  10.534 -0.0973 -1.0502 -0.3681
 7634SOL    HW134535   0.813   0.284  10.522  0.5458  3.0142 -0.4457
 7634SOL    HW234536   0.733   0.393  10.545  0.8987 -1.4481  1.7994
 7635SOL     OW34537   3.085   1.734   6.081  0.0874  0.4395  0.1981
 7635SOL    HW134538   3.111   1.657   6.030 -0.7045  0.2465  0.0850
 7635SOL    HW234539   3.086   1.703   6.171  0.7853 -0.7617 -0.2238
 7636SOL     OW34540   0.574   0.518   5.078  0.1196 -0.0640  0.0603
 7636SOL    HW134541   0.517   0.457   5.030 -1.6663 -0.2672  2.4699
 7636SOL    HW234542   0.540   0.605   5.058  1.7685  0.8934  1.4362
 7637SOL     OW34543   3.203   0.467   2.024 -0.6236  0.4643  0.4513
 7637SOL    HW134544   3.115   0.434   2.041 -1.5684  1.7726 -1.8808
 7637SOL    HW234545   3.221   0.421   1.942 -0.8985 -0.2505  0.7864
 7638SOL     OW34546   2.019   3.158  14.561  0.0174 -0.4471  0.1674
 7638SOL    HW134547   1.932   3.193  14.543  1.1064  0.9646 -2.3851
 7638SOL    HW234548   2.035   3.206  14.643  0.9937 -0.5608  0.0520
 7639SOL     OW34549   2.488   3.700   7.234  0.5282 -0.1227 -0.3583
 7639SOL    HW134550   2.513   3.651   7.155  2.5840 -0.9943  0.8663
 7639SOL    HW234551   2.402   3.662   7.249  0.1607  0.4027 -1.0761
 7640SOL     OW34552   0.016   1.072   3.192  0.1608 -0.1691 -0.0053
 7640SOL    HW134553   0.093   1.129   3.187  0.3772 -0.6244 -1.9565
 7640SOL    HW234554   4.729   1.054   3.100  1.3303 -0.0789 -0.2952
 7641SOL     OW34555   3.924   0.957   8.165 -0.5356  0.0371 -0.4386
 7641SOL    HW134556   3.886   0.903   8.095 -0.1762  0.1814 -0.7422
 7641SOL    HW234557   3.848   0.977   8.219 -1.0274 -1.7161 -0.4842
 7642SOL     OW34558   1.210   1.264   9.242  0.3423  0.1123  0.1033
 7642SOL    HW134559   1.167   1.294   9.323 -0.9326  0.6330 -0.7704
 7642SOL    HW234560   1.252   1.349   9.232  0.9023 -0.0598  0.9388
 7643SOL     OW34561   3.681   0.449   4.322 -0.9897  0.7724 -0.5775
 7643SOL    HW134562   3.700   0.518   4.385 -1.6895 -0.1135  0.5899
 7643SOL    HW234563   3.597   0.412   4.350  0.1699  0.0375  1.8535
 7644SOL     OW34564   1.788   1.334   3.148  0.2368  0.0993  0.5251
 7644SOL    HW134565   1.779   1.425   3.117  2.2516 -0.2273 -0.9962
 7644SOL    HW234566   1.702   1.307   3.180  0.1478 -1.8614 -1.3794
 7645SOL     OW34567   0.113   3.606   5.389 -0.2121 -0.7583 -0.1309
 7645SOL    HW134568   0.071   3.524   5.361  0.2781 -0.9708 -0.2446
 7645SOL    HW234569   0.136   3.577   5.477 -3.2872 -0.1360  0.8551
 7646SOL     OW34570   3.285   4.180   6.665 -0.3114 -0.5884 -0.0395
 7646SOL    HW134571   3.242   4.265   6.672 -0.1762 -0.4879 -0.4232
 7646SOL    HW234572   3.222   4.115   6.697 -0.9708 -2.0664 -4.3307
 7647SOL     OW34573   0.025   4.016  10.104  0.6180 -0.0546 -0.3709
 7647SOL    HW134574   0.036   4.063  10.021 -2.7321  1.7575  0.1948
 7647SOL    HW234575   0.003   4.088  10.163 -0.5395 -0.8114  0.1021
 7648SOL     OW34576   1.372   3.077   8.874 -0.2324  0.5193  0.3298
 7648SOL    HW134577   1.378   3.037   8.787 -3.7615 -1.1617  0.8595
 7648SOL    HW234578   1.465   3.081   8.898 -0.1322  0.5249 -0.0601
 7649SOL     OW34579   0.450   0.885   4.097  0.2517  0.5225  0.8631
 7649SOL    HW134580   0.388   0.843   4.156  2.4549 -2.2175  1.2390
 7649SOL    HW234581   0.408   0.874   4.011  2.3063 -1.7264  0.1395
 7650SOL     OW34582   1.860   3.990   3.363  0.1443  0.1614 -0.0475
 7650SOL    HW134583   1.816   4.001   3.279 -1.6987  2.9846  1.2642
 7650SOL    HW234584   1.928   4.055   3.349  1.0580 -0.5451  1.0841
 7651SOL     OW34585   1.336   2.086   1.847  0.0467  0.2595 -0.0214
 7651SOL    HW134586   1.361   2.086   1.755 -2.1244 -0.0367 -0.6271
 7651SOL    HW234587   1.281   2.164   1.852  0.3715  0.3935  1.4535
 7652SOL     OW34588   2.775   2.314   5.653 -0.0092 -0.2051 -0.0636
 7652SOL    HW134589   2.845   2.317   5.589 -0.1962 -0.0940 -0.2634
 7652SOL    HW234590   2.777   2.224   5.685  1.5207 -0.6901 -1.5396
 7653SOL     OW34591   2.320   3.080   1.573  0.1648 -0.4882  0.0478
 7653SOL    HW134592   2.361   3.161   1.542 -2.4042  0.9862  0.4849
 7653SOL    HW234593   2.235   3.110   1.606 -0.5813 -1.0390 -1.3543
 7654SOL     OW34594   4.375   1.783   8.068  0.2335 -0.2897 -0.3089
 7654SOL    HW134595   4.407   1.853   8.125  1.0630  0.1323 -1.2915
 7654SOL    HW234596   4.355   1.713   8.130 -0.6632 -0.3575 -0.6659
 7655SOL     OW34597   3.203   0.789  12.328  0.5142  0.8709 -0.4317
 7655SOL    HW134598   3.263   0.788  12.403 -1.1690  0.3111  0.9045
 7655SOL    HW234599   3.267   0.826  12.267 -0.8108 -1.3738 -3.1686
 7656SOL     OW34600   2.154   3.376  17.526 -0.5546 -0.4380  0.9329
 7656SOL    HW134601   2.218   3.444  17.508 -0.2472 -1.0823 -0.3811
 7656SOL    HW234602   2.155   3.368  17.621  0.1567 -0.5079  0.9184
 7657SOL     OW34603   4.472   4.669   4.054 -0.0847  0.3706 -0.1491
 7657SOL    HW134604   4.395   4.627   4.093 -0.1180  0.3525 -0.2356
 7657SOL    HW234605   4.541   4.613   4.091 -1.4705 -0.0629  1.8223
 7658SOL     OW34606   1.774   3.688  16.354 -0.4373  0.1446  0.3377
 7658SOL    HW134607   1.684   3.658  16.344 -0.7727  1.6356 -1.0284
 7658SOL    HW234608   1.779   3.774  16.314  3.8994 -0.2977 -0.1134
 7659SOL     OW34609   3.969   1.129   5.833  0.0552  0.1940  0.0518
 7659SOL    HW134610   4.027   1.080   5.774  1.7325  2.4660 -0.2182
 7659SOL    HW234611   3.896   1.161   5.781 -0.3482 -1.1319 -0.1763
 7660SOL     OW34612   1.079   3.327  14.058  0.0730  0.6052  0.4595
 7660SOL    HW134613   1.013   3.383  14.017  0.0315  0.3967  0.2435
 7660SOL    HW234614   1.056   3.338  14.151 -1.0017 -1.5876  0.4439
 7661SOL     OW34615   0.990   3.161   5.561  0.8260 -0.0243  0.0006
 7661SOL    HW134616   0.962   3.186   5.473 -0.3658 -0.0954  0.3706
 7661SOL    HW234617   0.905   3.131   5.594  0.7549 -0.5539 -0.6652
 7662SOL     OW34618   2.714   2.460  14.736  0.2168  0.3878 -0.0382
 7662SOL    HW134619   2.806   2.459  14.764  0.8865  1.7328 -2.1735
 7662SOL    HW234620   2.688   2.541  14.780  2.1903  0.8277  0.3117
 7663SOL     OW34621   1.617   4.276   2.287  0.3051 -0.3938 -0.2550
 7663SOL    HW134622   1.597   4.234   2.204  1.7871 -2.4209  0.4063
 7663SOL    HW234623   1.554   4.236   2.347  1.8456 -2.5310 -0.0655
 7664SOL     OW34624   1.203   0.864   8.595 -0.3474 -0.5015 -0.2991
 7664SOL    HW134625   1.195   0.930   8.664 -0.5638 -1.2868  0.4228
 7664SOL    HW234626   1.151   0.793   8.633  5.1635 -3.4696  1.7596
 7665SOL     OW34627   1.258   3.751   4.210 -0.5723  0.1640 -0.0680
 7665SOL    HW134628   1.313   3.707   4.144  1.1591  1.9997  0.1469
 7665SOL    HW234629   1.283   3.843   4.203 -0.1737 -0.0592 -1.6123
 7666SOL     OW34630   0.513   0.019   2.579 -0.2275 -0.1081 -0.0898
 7666SOL    HW134631   0.533   4.663   2.606 -0.8185 -0.7918 -1.9092
 7666SOL    HW234632   0.574   0.072   2.631  0.5147  0.7287 -1.8174
 7667SOL     OW34633   2.149   2.014   8.327 -0.3189  0.4278 -0.0840
 7667SOL    HW134634   2.086   1.966   8.380  0.1715  1.1918  1.1791
 7667SOL    HW234635   2.127   1.991   8.237  0.3727 -0.1024 -0.1165
 7668SOL     OW34636   1.252   1.301  10.882 -0.2437  0.5700 -0.0628
 7668SOL    HW134637   1.224   1.245  10.955  2.2613 -0.1113  0.3754
 7668SOL    HW234638   1.191   1.278  10.811  0.2434 -0.3438 -0.1920
 7669SOL     OW34639   2.065   2.062   7.082 -0.0828 -0.4255  0.3430
 7669SOL    HW134640   2.067   2.108   7.165 -1.0528 -0.2840  0.2841
 7669SOL    HW234641   1.974   2.078   7.056 -0.1999  0.1116  1.0992
 7670SOL     OW34642   0.947   4.146   0.796  0.2925  0.3968 -0.1612
 7670SOL    HW134643   1.042   4.142   0.780  0.5363  0.9815  1.1220
 7670SOL    HW234644   0.938   4.107   0.883  1.7066  1.5629  0.5133
 7671SOL     OW34645   0.814   1.123   5.786  0.4004 -0.0363 -0.0525
 7671SOL    HW134646   0.789   1.209   5.753 -1.2504 -0.5152 -0.0804
 7671SOL    HW234647   0.908   1.127   5.770  0.6784  0.7301  1.7975
 7672SOL     OW34648   3.472   2.662   9.402  0.2944 -0.5051  0.1946
 7672SOL    HW134649   3.541   2.705   9.453  0.1371  0.1610 -0.1432
 7672SOL    HW234650   3.448   2.722   9.331  1.5817  1.6770  1.5799
 7673SOL     OW34651   1.501   4.030   4.515 -0.3123  0.1404  0.2134
 7673SOL    HW134652   1.415   3.990   4.510  0.1598 -0.8350 -0.1311
 7673SOL    HW234653   1.494   4.040   4.610 -2.8786 -2.6321  0.3043
 7674SOL     OW34654   2.517   0.822   4.752 -0.2004  0.0575 -0.1433
 7674SOL    HW134655   2.433   0.784   4.774 -0.4103  0.0486 -0.9629
 7674SOL    HW234656   2.521   0.813   4.656  1.0656 -0.0659 -0.0768
 7675SOL     OW34657   2.725   2.026   4.172 -0.6235  0.6049 -0.0788
 7675SOL    HW134658   2.702   2.059   4.085  0.4584 -0.5154 -0.7941
 7675SOL    HW234659   2.698   1.934   4.166  0.6871  0.1979  0.2470
 7676SOL     OW34660   4.483   2.714   4.307  0.0650 -0.2334 -0.5608
 7676SOL    HW134661   4.543   2.699   4.233  1.0534  1.9622 -0.1977
 7676SOL    HW234662   4.439   2.794   4.278 -1.8622 -1.6127 -1.4297
 7677SOL     OW34663   4.387   0.086   7.135  0.3622  0.4236 -0.3570
 7677SOL    HW134664   4.338   0.121   7.210  1.0813  0.7332 -0.0401
 7677SOL    HW234665   4.477   0.099   7.163  0.6133 -1.0240 -0.5216
 7678SOL     OW34666   1.060   2.810  16.910 -0.1123  0.0547 -0.0507
 7678SOL    HW134667   1.150   2.783  16.888  0.3297 -1.0946  3.2281
 7678SOL    HW234668   1.035   2.858  16.831 -1.0985  1.3727  1.0873
 7679SOL     OW34669   2.189   1.138   3.847 -0.0342  0.0790  0.0088
 7679SOL    HW134670   2.239   1.202   3.796  1.7061  0.0675  1.7109
 7679SOL    HW234671   2.097   1.159   3.827 -0.0370  1.0541  1.0599
 7680SOL     OW34672   0.346   3.448   5.312  0.2733  0.0690 -0.0763
 7680SOL    HW134673   0.369   3.461   5.404  0.3670  2.9443 -0.5081
 7680SOL    HW234674   0.298   3.527   5.288 -0.4967 -0.3335  0.1282
 7681SOL     OW34675   2.335   2.195   5.484 -0.1583  0.4745  0.1114
 7681SOL    HW134676   2.400   2.225   5.420 -0.9273 -0.7353 -1.2272
 7681SOL    HW234677   2.370   2.108   5.503 -1.3134 -0.1857 -0.7649
 7682SOL     OW34678   0.803   3.729   4.581 -0.2757  0.1020  0.1174
 7682SOL    HW134679   0.878   3.778   4.612 -0.3985 -0.2755  1.0251
 7682SOL    HW234680   0.826   3.663   4.516  1.7692  1.1066 -0.1543
 7683SOL     OW34681   4.723   2.262   6.365  0.1702 -0.5948 -0.1950
 7683SOL    HW134682   0.029   2.330   6.420  1.9469 -2.3939  0.7130
 7683SOL    HW234683   4.641   2.308   6.345 -0.1340 -1.3141 -0.6139
 7684SOL     OW34684   4.122   1.482   8.136  0.2472  0.5266  0.6168
 7684SOL    HW134685   4.108   1.391   8.162  0.8166  0.0590 -0.7342
 7684SOL    HW234686   4.206   1.500   8.178  1.1676 -0.6511 -0.7539
 7685SOL     OW34687   1.351   1.183  10.463 -0.1842 -0.2840  0.7820
 7685SOL    HW134688   1.425   1.131  10.433 -0.4381  1.2330 -2.4287
 7685SOL    HW234689   1.398   1.264  10.484  1.0716 -0.8977  0.3163
 7686SOL     OW34690   4.496   0.455  10.682 -0.1807  0.5121 -0.0861
 7686SOL    HW134691   4.454   0.420  10.760 -0.0732 -1.1216 -0.7668
 7686SOL    HW234692   4.579   0.490  10.716 -0.2385 -0.8099  1.3902
 7687SOL     OW34693   1.927   3.145   6.151  0.4925 -0.6308  0.0808
 7687SOL    HW134694   1.990   3.213   6.174 -2.0839  1.5310  0.7193
 7687SOL    HW234695   1.976   3.085   6.095  0.4801 -0.2111 -0.3701
 7688SOL     OW34696   3.401   3.179   6.066  0.4633  0.2367  0.4342
 7688SOL    HW134697   3.411   3.231   6.146  1.8108 -0.5389  0.7786
 7688SOL    HW234698   3.438   3.094   6.087 -1.1728 -0.2553  1.3362
 7689SOL     OW34699   1.773   1.674   4.650 -0.3852 -0.5003  0.5005
 7689SOL    HW134700   1.775   1.578   4.641  0.7628 -0.4056 -0.3486
 7689SOL    HW234701   1.680   1.681   4.631 -0.4891  0.6690  1.4273
 7690SOL     OW34702   0.487   3.879  14.604  0.0571  0.2899 -0.2175
 7690SOL    HW134703   0.570   3.921  14.582 -0.1061 -0.0144 -1.4332
 7690SOL    HW234704   0.430   3.889  14.528 -0.5789 -5.6622 -0.4825
 7691SOL     OW34705   1.323   1.732   8.095 -0.1094  0.7419  0.4367
 7691SOL    HW134706   1.326   1.819   8.134  1.7184  1.0755 -0.4682
 7691SOL    HW234707   1.233   1.722   8.064  0.3506  1.0192 -0.9955
 7692SOL     OW34708   3.390   2.195   2.260  0.8506  0.3195  0.2541
 7692SOL    HW134709   3.418   2.146   2.337  2.4065  4.1055  2.1147
 7692SOL    HW234710   3.300   2.219   2.280 -0.4164 -1.6866 -3.0962
 7693SOL     OW34711   3.649   2.968   3.107  0.0757  0.3383 -0.2876
 7693SOL    HW134712   3.680   3.042   3.055 -2.1139  2.5496  1.5304
 7693SOL    HW234713   3.557   2.962   3.084  0.8057 -1.4019 -2.7867
 7694SOL     OW34714   0.481   3.454   3.692  0.1620 -0.5644  0.5902
 7694SOL    HW134715   0.439   3.395   3.628 -2.0008 -0.1906  1.6611
 7694SOL    HW234716   0.536   3.511   3.639 -0.1898 -1.3305 -0.6039
 7695SOL     OW34717   4.067   0.842   2.227  0.0596  0.4305  0.2255
 7695SOL    HW134718   4.155   0.837   2.265 -0.9211  1.7202  2.6785
 7695SOL    HW234719   4.052   0.748   2.230  3.3147 -0.0428  1.3820
 7696SOL     OW34720   2.310   3.686  14.887 -0.1784  0.7502  0.1746
 7696SOL    HW134721   2.379   3.637  14.843 -0.2498  0.9732 -0.1835
 7696SOL    HW234722   2.343   3.672  14.976  1.0610  1.5569 -0.1612
 7697SOL     OW34723   3.349   2.373  12.392  0.3964 -0.2755 -0.2404
 7697SOL    HW134724   3.392   2.436  12.333  0.2172 -0.0062 -0.0877
 7697SOL    HW234725   3.284   2.331  12.336  0.8818  0.1817 -1.1443
 7698SOL     OW34726   3.177   1.328   3.257  0.4991  0.2635  0.1228
 7698SOL    HW134727   3.129   1.273   3.194  1.2347  0.7524 -0.8608
 7698SOL    HW234728   3.259   1.280   3.252  0.1332 -0.3032 -0.4916
 7699SOL     OW34729   1.021   3.296   1.365  0.3745  0.1933 -0.0423
 7699SOL    HW134730   1.090   3.283   1.300 -2.4647 -2.6083 -2.4886
 7699SOL    HW234731   1.018   3.391   1.377  3.8478  0.5091 -1.5176
 7700SOL     OW34732   3.825   0.394   5.492  0.2056  0.6012 -0.4029
 7700SOL    HW134733   3.778   0.317   5.523 -0.3984  0.9867 -0.3624
 7700SOL    HW234734   3.913   0.375   5.525  0.0367 -0.3855 -0.5335
 7701SOL     OW34735   1.756   4.461   4.104  0.2736 -0.0060  0.2914
 7701SOL    HW134736   1.813   4.469   4.028 -0.6860 -3.5536 -0.7852
 7701SOL    HW234737   1.780   4.377   4.144  0.2155  0.2602  0.8915
 7702SOL     OW34738   4.418   3.247  15.872  0.0485  0.7664 -0.2534
 7702SOL    HW134739   4.387   3.238  15.962  0.4972 -1.7605 -0.3336
 7702SOL    HW234740   4.335   3.262  15.827  2.3121  0.5127 -4.4637
 7703SOL     OW34741   3.659   2.381   7.226  0.2915 -0.1856  0.2072
 7703SOL    HW134742   3.609   2.345   7.299 -0.2422 -0.1743 -0.1453
 7703SOL    HW234743   3.752   2.374   7.244 -0.1589 -2.7339  1.5268
 7704SOL     OW34744   4.298   3.078   1.746  0.4070 -0.0241 -0.0256
 7704SOL    HW134745   4.283   2.987   1.772  1.2401  0.1534  1.0865
 7704SOL    HW234746   4.211   3.114   1.729  0.2873  0.1061  0.8741
 7705SOL     OW34747   2.218   2.064   2.639 -0.4094  0.3881  0.2005
 7705SOL    HW134748   2.307   2.086   2.666 -0.2006 -2.8277  2.0886
 7705SOL    HW234749   2.231   2.051   2.545 -1.2060 -0.2132  0.1687
 7706SOL     OW34750   3.840   4.214   7.256 -0.2228  0.2500  0.1700
 7706SOL    HW134751   3.847   4.119   7.261 -0.0179  0.2877  0.5936
 7706SOL    HW234752   3.802   4.231   7.342 -0.7121  1.0425 -0.2019
 7707SOL     OW34753   2.086   3.937   7.290  0.1739 -0.0431 -0.4412
 7707SOL    HW134754   2.031   3.859   7.291  0.5340 -0.2821  1.1522
 7707SOL    HW234755   2.063   3.973   7.205 -0.1239  2.1107  0.5623
 7708SOL     OW34756   3.878   4.469   0.344 -0.6088  0.0634 -0.3694
 7708SOL    HW134757   3.820   4.545   0.334 -0.0436  0.2172 -2.4613
 7708SOL    HW234758   3.838   4.407   0.405 -2.1157  0.9515 -0.4398
 7709SOL     OW34759   3.199   2.403  15.023  0.0541 -0.2749 -0.0884
 7709SOL    HW134760   3.202   2.389  14.928 -0.8570 -1.8061  0.1031
 7709SOL    HW234761   3.294   2.407  15.035  0.4841 -2.3453 -2.6442
 7710SOL     OW34762   4.693   2.436  12.573  0.4922 -0.5294  0.2968
 7710SOL    HW134763   4.662   2.358  12.620 -1.9664 -0.0865 -0.5909
 7710SOL    HW234764   0.028   2.483  12.620  0.1560 -1.3684  1.6359
 7711SOL     OW34765   2.426   4.155  15.254 -0.2247  0.3882 -0.2714
 7711SOL    HW134766   2.332   4.162  15.267 -0.0863 -0.6291  1.2502
 7711SOL    HW234767   2.447   4.238  15.298 -0.1329  0.5271 -0.5742
 7712SOL     OW34768   1.674   3.197   7.522  0.3855 -0.1489 -0.9482
 7712SOL    HW134769   1.663   3.128   7.456 -0.0215  0.9863 -2.0557
 7712SOL    HW234770   1.763   3.225   7.503  1.2334 -2.4856 -0.4285
 7713SOL     OW34771   1.837   3.360  11.252 -0.4621  0.5328 -0.0536
 7713SOL    HW134772   1.896   3.295  11.213 -0.8078  1.0967 -1.5081
 7713SOL    HW234773   1.871   3.442  11.216  0.9619 -0.6208 -1.3400
 7714SOL     OW34774   1.345   1.712   9.014  0.0706 -0.0871  0.1491
 7714SOL    HW134775   1.417   1.722   8.952  0.7692 -0.9507  0.8206
 7714SOL    HW234776   1.264   1.717   8.962  0.7995 -1.2350 -1.1042
 7715SOL     OW34777   4.130   4.161   5.100  0.0916  0.4246  0.2430
 7715SOL    HW134778   4.148   4.223   5.170  0.8952  0.0047  0.4001
 7715SOL    HW234779   4.216   4.153   5.059 -0.5814 -0.0138 -1.0989
 7716SOL     OW34780   1.916   4.725  11.960  0.2112  0.0408 -0.1183
 7716SOL    HW134781   1.857   4.657  11.991  2.7215 -2.1423 -0.1531
 7716SOL    HW234782   1.893   0.072  12.005 -0.0656  0.4853 -1.0416
 7717SOL     OW34783   0.677   0.316   3.915  0.0517 -0.2318 -0.2891
 7717SOL    HW134784   0.678   0.293   4.007 -1.6429  1.7802  0.2321
 7717SOL    HW234785   0.611   0.251   3.890  2.6061 -2.4700 -1.1937
 7718SOL     OW34786   4.226   2.255  12.078 -0.2139  0.2078 -0.2810
 7718SOL    HW134787   4.275   2.189  12.126 -1.1790  2.4796  3.7716
 7718SOL    HW234788   4.158   2.297  12.131 -0.4392 -1.1891  0.5339
 7719SOL     OW34789   4.238   1.051   5.413  0.1018  0.6119  0.4762
 7719SOL    HW134790   4.329   1.026   5.431 -0.9161 -3.0302  0.6270
 7719SOL    HW234791   4.241   1.038   5.318 -0.6955  0.1517  0.5198
 7720SOL     OW34792   1.640   0.742   6.254  0.3378 -0.6525  0.2663
 7720SOL    HW134793   1.687   0.824   6.240 -0.1725 -0.7109 -1.8526
 7720SOL    HW234794   1.711   0.679   6.268  0.1227 -0.8570  0.4476
 7721SOL     OW34795   0.235   0.837   3.138  0.0581  0.6981 -0.2211
 7721SOL    HW134796   0.140   0.829   3.126  0.3256  0.4493 -2.1626
 7721SOL    HW234797   0.251   0.839   3.232 -1.4595  2.2744  0.0101
 7722SOL     OW34798   3.227   2.869   4.754 -0.4338 -0.2469 -0.3236
 7722SOL    HW134799   3.164   2.941   4.759  0.4217  0.4947 -0.0892
 7722SOL    HW234800   3.187   2.805   4.812 -0.6940 -0.1439 -0.3913
 7723SOL     OW34801   4.065   4.092   8.815 -0.1658  0.4191 -0.2825
 7723SOL    HW134802   4.013   4.012   8.823 -1.0856  1.1588  1.1096
 7723SOL    HW234803   4.001   4.161   8.798 -2.1383 -1.5613 -0.8614
 7724SOL     OW34804   1.246   2.967  15.414 -0.1776  0.4182 -0.5655
 7724SOL    HW134805   1.224   3.060  15.425  0.3650  0.6565 -1.4589
 7724SOL    HW234806   1.342   2.964  15.406 -0.1604 -1.6225  0.4962
 7725SOL     OW34807   2.419   1.053   9.584  0.1722  0.3108  0.0566
 7725SOL    HW134808   2.508   1.076   9.611  0.6963  1.2646 -2.5709
 7725SOL    HW234809   2.424   0.957   9.584 -1.6569  0.2138  1.3426
 7726SOL     OW34810   0.008   4.160   2.107  0.0439 -0.4012  0.5029
 7726SOL    HW134811   4.699   4.203   2.033  0.1442  1.9373  1.8113
 7726SOL    HW234812   4.671   4.169   2.171 -0.2856 -4.0900  0.6323
 7727SOL     OW34813   0.089   4.469   4.278  0.0088  0.1875 -1.3790
 7727SOL    HW134814   0.164   4.516   4.242  0.3077 -0.9548 -2.2666
 7727SOL    HW234815   0.123   4.379   4.274  0.1791  0.1996 -0.2630
 7728SOL     OW34816   1.350   1.528  13.512 -0.3435  0.2267  0.8222
 7728SOL    HW134817   1.309   1.548  13.427  1.3300 -1.0713 -0.3088
 7728SOL    HW234818   1.416   1.596  13.519  1.1860 -0.9980 -1.4807
 7729SOL     OW34819   2.974   0.193   5.557 -0.1711  0.4364  0.1531
 7729SOL    HW134820   3.024   0.111   5.552  0.9154  1.1522 -0.8603
 7729SOL    HW234821   2.889   0.177   5.597  0.9860 -1.0854  2.0163
 7730SOL     OW34822   4.629   4.536   2.301  0.6410  0.4163 -0.9563
 7730SOL    HW134823   4.602   4.464   2.358  1.3228 -0.2295 -1.4584
 7730SOL    HW234824   4.676   4.578   2.373 -0.7234  0.4508 -0.0801
 7731SOL     OW34825   1.693   1.669   3.793  0.5763  0.0179 -0.2425
 7731SOL    HW134826   1.774   1.713   3.817  1.6026 -2.1523  0.2206
 7731SOL    HW234827   1.687   1.690   3.699 -1.3092 -1.0005 -0.3574
 7732SOL     OW34828   3.729   4.142  16.161  0.0738 -0.5214  0.0911
 7732SOL    HW134829   3.784   4.191  16.222 -1.8068  1.3198  0.3157
 7732SOL    HW234830   3.644   4.175  16.192 -0.1648 -0.1719 -0.9209
 7733SOL     OW34831   3.095   0.833   6.229 -0.1571 -0.5842 -0.0381
 7733SOL    HW134832   3.070   0.921   6.260 -1.2399 -0.6928 -0.6057
 7733SOL    HW234833   3.190   0.841   6.235 -0.3187  0.4660  1.1784
 7734SOL     OW34834   1.259   3.260   5.670  0.1597 -0.3783 -0.0117
 7734SOL    HW134835   1.235   3.293   5.583  0.1232 -1.4360 -0.4052
 7734SOL    HW234836   1.174   3.223   5.692 -0.3779  2.1478  2.1303
 7735SOL     OW34837   1.816   3.252  15.433  0.3114 -0.2804 -0.1916
 7735SOL    HW134838   1.728   3.221  15.453  0.3540 -1.1421 -1.2984
 7735SOL    HW234839   1.870   3.197  15.490 -1.3950  0.7427  2.3729
 7736SOL     OW34840   0.142   1.901  13.979  0.2526 -0.5432  0.3531
 7736SOL    HW134841   0.128   1.991  14.006 -2.0009 -0.2022 -1.9608
 7736SOL    HW234842   0.058   1.856  13.984  1.1314 -2.2610 -0.0493
 7737SOL     OW34843   4.363   1.976   7.332  0.0702  0.7447 -0.3086
 7737SOL    HW134844   4.407   1.914   7.274 -0.5404  0.0609 -0.0438
 7737SOL    HW234845   4.435   2.038   7.347  2.1355 -1.0092 -3.1315
 7738SOL     OW34846   4.579   2.364  11.915  0.1911  0.9710  0.1077
 7738SOL    HW134847   4.630   2.340  11.992 -0.5071  2.4766  1.0191
 7738SOL    HW234848   4.610   2.294  11.856  0.1716  1.6607 -0.7241
 7739SOL     OW34849   0.125   2.467   2.648  0.1097 -0.1605  0.7157
 7739SOL    HW134850   0.092   2.387   2.690 -1.4742  0.2403  0.2111
 7739SOL    HW234851   0.122   2.436   2.558 -1.4053  1.8223  0.0939
 7740SOL     OW34852   2.715   4.452   6.346  0.1283  0.4104  0.1673
 7740SOL    HW134853   2.800   4.461   6.302 -0.5847 -0.9691 -1.5103
 7740SOL    HW234854   2.732   4.451   6.440 -1.2631 -0.1094  0.4056
 7741SOL     OW34855   3.218   3.298   7.043 -0.2409  0.3204 -0.6899
 7741SOL    HW134856   3.125   3.287   7.067 -0.1496  1.5037  0.1973
 7741SOL    HW234857   3.232   3.237   6.970 -0.9885 -1.4921  0.6795
 7742SOL     OW34858   0.606   3.619   6.835 -0.2821  0.0719 -0.3169
 7742SOL    HW134859   0.566   3.688   6.781 -2.2387 -1.2028 -0.5070
 7742SOL    HW234860   0.588   3.541   6.783  0.0806 -0.3074  0.1295
 7743SOL     OW34861   3.469   1.257   5.685  0.2653  0.0115 -0.4235
 7743SOL    HW134862   3.392   1.206   5.659 -1.7961  2.6958  0.4928
 7743SOL    HW234863   3.477   1.323   5.616 -0.6524 -0.6129 -1.1381
 7744SOL     OW34864   4.589   4.293  10.573 -0.7040 -0.2838  0.0690
 7744SOL    HW134865   4.660   4.351  10.599 -2.1709  1.3667  0.3357
 7744SOL    HW234866   4.546   4.264  10.653 -0.4422 -0.6418  0.0785
 7745SOL     OW34867   1.698   4.481   3.296  0.9760 -0.1487 -0.3543
 7745SOL    HW134868   1.660   4.423   3.231  1.1085 -0.2414 -0.3505
 7745SOL    HW234869   1.637   4.555   3.303  0.7295 -0.1407 -2.8475
 7746SOL     OW34870   3.139   3.344   1.925 -0.4006 -0.2438 -0.8653
 7746SOL    HW134871   3.117   3.364   2.016 -2.0233 -1.6590 -0.9456
 7746SOL    HW234872   3.225   3.307   1.946 -1.0304  1.4023  4.4944
 7747SOL     OW34873   3.276   1.936   6.062 -0.7608 -0.2023 -0.4807
 7747SOL    HW134874   3.216   1.862   6.050  0.2024 -0.8551 -1.2912
 7747SOL    HW234875   3.221   1.990   6.118 -2.8450 -0.5516 -2.1496
 7748SOL     OW34876   2.990   4.238   8.767  0.0204 -0.0103 -0.3811
 7748SOL    HW134877   2.930   4.232   8.693  0.2252  1.4578 -0.6697
 7748SOL    HW234878   3.081   4.239   8.739  0.4673 -2.2005  0.9689
 7749SOL     OW34879   3.597   4.303  13.716 -0.2573  0.6548  0.3604
 7749SOL    HW134880   3.602   4.339  13.804 -2.1877  1.3944  0.1577
 7749SOL    HW234881   3.664   4.236  13.727  0.4367  0.9619 -2.0016
 7750SOL     OW34882   1.340   0.186   4.885 -0.5155 -0.2078  0.5571
 7750SOL    HW134883   1.332   0.235   4.803  1.6279  1.3903  1.2971
 7750SOL    HW234884   1.355   0.255   4.949  2.7702  0.4634 -0.9329
 7751SOL     OW34885   2.961   4.236   5.054  0.3521  0.4055 -0.3799
 7751SOL    HW134886   2.898   4.185   5.002 -0.1690  0.9456 -0.2714
 7751SOL    HW234887   3.028   4.170   5.074  1.4735  1.1054 -1.7746
 7752SOL     OW34888   2.462   4.351  16.845  0.0630 -0.5105  0.2312
 7752SOL    HW134889   2.437   4.269  16.888  1.0671 -0.5844  0.6753
 7752SOL    HW234890   2.441   4.406  16.921 -1.0795  1.1380 -1.2791
 7753SOL     OW34891   0.533   3.386   6.725  0.6871  0.2028 -0.1699
 7753SOL    HW134892   0.464   3.336   6.768  1.7159 -0.8217  0.2760
 7753SOL    HW234893   0.486   3.391   6.642 -1.3850 -1.9381  0.8831
 7754SOL     OW34894   3.474   3.641   6.245  0.4941  0.2624  0.2727
 7754SOL    HW134895   3.481   3.698   6.322 -0.9647 -2.2991  2.2763
 7754SOL    HW234896   3.438   3.709   6.189  0.5569 -0.8556 -1.1083
 7755SOL     OW34897   0.288   2.493   4.472  0.2250  0.3185  0.1408
 7755SOL    HW134898   0.204   2.449   4.458  0.7658 -1.1993  1.6925
 7755SOL    HW234899   0.262   2.569   4.524  2.6839  0.1432  1.6691
 7756SOL     OW34900   1.637   0.596   8.870  0.0172  0.4139  0.0630
 7756SOL    HW134901   1.608   0.507   8.848  1.0046 -0.2981  1.6379
 7756SOL    HW234902   1.684   0.629   8.794 -0.8366  2.5559  0.4513
 7757SOL     OW34903   2.977   0.954   4.050  0.3755 -0.0145  0.1553
 7757SOL    HW134904   3.015   0.989   3.970  0.0302  1.3443  0.5788
 7757SOL    HW234905   3.032   0.983   4.124 -1.3476 -0.4378  1.6081
 7758SOL     OW34906   2.426   2.360   6.489  0.0588  0.1173 -0.4589
 7758SOL    HW134907   2.405   2.396   6.575  0.8553  0.5187 -0.4300
 7758SOL    HW234908   2.514   2.396   6.476  0.5722  0.1329  2.8481
 7759SOL     OW34909   0.223   3.922   6.477 -0.2473 -0.2426  0.5101
 7759SOL    HW134910   0.217   4.003   6.425  2.6590 -1.6522 -2.0343
 7759SOL    HW234911   0.187   3.953   6.560 -1.7759  1.1228 -0.6692
 7760SOL     OW34912   0.972   2.686  15.581 -0.3656  0.3920  0.3875
 7760SOL    HW134913   1.032   2.709  15.510 -0.3822  0.8630  0.5281
 7760SOL    HW234914   0.986   2.753  15.647  0.9864  1.0408 -0.5725
 7761SOL     OW34915   2.601   4.606   1.646  0.5730 -0.0954 -0.0908
 7761SOL    HW134916   2.697   4.607   1.647  0.5817 -1.6494  1.6587
 7761SOL    HW234917   2.601   4.564   1.560 -0.6978 -1.6976  0.7028
 7762SOL     OW34918   1.611   2.817  11.257 -0.6285  0.0622 -0.6217
 7762SOL    HW134919   1.532   2.769  11.232 -0.0910 -0.8813 -0.5047
 7762SOL    HW234920   1.620   2.873  11.179  2.2767 -2.0891 -1.8524
 7763SOL     OW34921   4.218   1.853   2.081 -0.2231 -0.1512  0.1375
 7763SOL    HW134922   4.282   1.788   2.110  2.6780  0.9149 -3.8100
 7763SOL    HW234923   4.168   1.887   2.155  0.9188  1.1012  0.3445
 7764SOL     OW34924   4.430   1.675   2.149  1.0295  0.5211  0.2633
 7764SOL    HW134925   4.497   1.684   2.217  1.3442  0.9811 -0.1023
 7764SOL    HW234926   4.452   1.590   2.111  0.2382  0.2344  0.4637
 7765SOL     OW34927   0.030   3.011   8.446 -0.5421 -0.1416  0.2482
 7765SOL    HW134928   0.124   3.004   8.463 -0.2018  1.0391 -1.1370
 7765SOL    HW234929   4.727   2.926   8.469  0.9888 -0.3972  1.7702
 7766SOL     OW34930   4.326   1.645   3.726  0.4482 -0.3127 -0.3381
 7766SOL    HW134931   4.327   1.602   3.812  0.9251  0.6987  0.1579
 7766SOL    HW234932   4.252   1.706   3.724 -0.8619 -1.8654  0.2604
 7767SOL     OW34933   4.554   0.311  16.887  0.1218 -0.6647  0.2994
 7767SOL    HW134934   4.619   0.252  16.847 -0.5440 -2.9444  2.5562
 7767SOL    HW234935   4.604   0.351  16.958  0.2085 -0.4168  0.0990
 7768SOL     OW34936   4.380   0.636   1.333  0.4373  0.2852  0.1522
 7768SOL    HW134937   4.369   0.556   1.282  0.9463 -2.0701  3.7484
 7768SOL    HW234938   4.476   0.637   1.330  0.3720 -0.0810 -2.8776
 7769SOL     OW34939   1.506   3.972  14.699 -0.1640 -0.5606  0.2598
 7769SOL    HW134940   1.439   4.038  14.679 -0.0289  0.4919  3.2888
 7769SOL    HW234941   1.589   4.016  14.680 -0.9686  0.3480 -1.1042
 7770SOL     OW34942   1.319   2.849   1.807  0.4345 -0.2395 -0.0996
 7770SOL    HW134943   1.287   2.934   1.836  1.4974  0.3156 -0.5923
 7770SOL    HW234944   1.391   2.841   1.870  0.3543 -0.1236  0.0064
 7771SOL     OW34945   1.978   2.483   3.840 -0.1661 -0.5849 -0.3135
 7771SOL    HW134946   2.067   2.513   3.860  0.6979 -2.0963 -1.9161
 7771SOL    HW234947   1.952   2.560   3.789  2.2432 -0.4357 -1.2923
 7772SOL     OW34948   4.336   2.024   3.667 -0.1606 -0.3729  0.7891
 7772SOL    HW134949   4.264   1.963   3.684 -0.7507  0.0131 -0.2980
 7772SOL    HW234950   4.313   2.085   3.736 -0.1055 -1.2297  1.5580
 7773SOL     OW34951   3.403   0.126  12.055 -0.2529  0.3939  0.4275
 7773SOL    HW134952   3.426   0.039  12.023  2.2622  0.6584  1.5459
 7773SOL    HW234953   3.321   0.106  12.101  0.6055  2.5673  2.8983
 7774SOL     OW34954   0.024   1.497  14.787  0.6959  0.3056 -0.1205
 7774SOL    HW134955   4.723   1.429  14.845 -0.0892  0.2006 -0.7251
 7774SOL    HW234956   0.117   1.473  14.796  0.1582 -0.4697  3.5964
 7775SOL     OW34957   0.537   1.409   1.654  0.5919 -0.0492 -0.0612
 7775SOL    HW134958   0.555   1.414   1.560 -2.2592 -0.5272 -0.6161
 7775SOL    HW234959   0.443   1.394   1.652  0.9087 -2.0453 -0.2253
 7776SOL     OW34960   1.643   4.126   7.559 -0.1612 -0.0834  0.2417
 7776SOL    HW134961   1.625   4.059   7.624  0.7039  0.2196  0.7908
 7776SOL    HW234962   1.612   4.083   7.479  0.1262  0.3342 -0.0958
 7777SOL     OW34963   0.218   1.721   8.113 -0.1151  0.5875  0.4261
 7777SOL    HW134964   0.275   1.722   8.036  0.1626 -0.3333  0.6231
 7777SOL    HW234965   0.236   1.807   8.150 -1.1509  1.2559 -0.6190
 7778SOL     OW34966   0.991   4.044   7.399  0.4009 -0.1934 -0.4768
 7778SOL    HW134967   1.032   4.084   7.323 -0.5058 -0.6534 -1.2091
 7778SOL    HW234968   0.967   3.955   7.373 -0.1309 -0.9040  2.3824
 7779SOL     OW34969   3.229   1.631   2.658  0.1915  0.5625 -0.5912
 7779SOL    HW134970   3.281   1.683   2.719  0.0012  1.3834 -1.1295
 7779SOL    HW234971   3.300   1.590   2.609  0.8938  0.2206  0.7215
 7780SOL     OW34972   0.683   1.809   7.251  0.1953 -0.3891  0.2357
 7780SOL    HW134973   0.609   1.838   7.304  0.4865  0.3517  0.2458
 7780SOL    HW234974   0.675   1.714   7.263 -1.0137 -0.0046  2.5345
 7781SOL     OW34975   2.105   2.872   0.804  0.3706 -0.6142 -0.0267
 7781SOL    HW134976   2.090   2.883   0.898 -0.0309  1.5234 -0.3387
 7781SOL    HW234977   2.181   2.815   0.803  1.2722  0.5768  0.3515
 7782SOL     OW34978   3.485   3.844   6.431 -0.5010 -0.3519 -0.2848
 7782SOL    HW134979   3.487   3.816   6.523  0.3254 -0.6627 -0.3954
 7782SOL    HW234980   3.541   3.922   6.438  0.9227 -1.4116  0.0869
 7783SOL     OW34981   4.128   4.516  17.697 -0.0836  0.1128 -0.0246
 7783SOL    HW134982   4.161   4.535  17.609  0.1290  2.3684  0.5568
 7783SOL    HW234983   4.112   4.606  17.723 -0.5189 -0.3750  1.3879
 7784SOL     OW34984   2.289   3.054  16.467 -0.4740 -0.6190 -0.6638
 7784SOL    HW134985   2.273   2.960  16.468 -3.6201 -0.0769 -1.5020
 7784SOL    HW234986   2.377   3.056  16.505 -0.9529 -0.3358  0.4551
 7785SOL     OW34987   2.768   2.743  11.454 -0.5989 -0.3528  0.1444
 7785SOL    HW134988   2.780   2.648  11.450  0.4068 -0.2039 -0.1856
 7785SOL    HW234989   2.856   2.779  11.460 -0.3747 -1.0322  1.0174
 7786SOL     OW34990   3.904   1.917   7.774 -0.1940  0.2891  0.3589
 7786SOL    HW134991   3.841   1.846   7.785  3.8008 -3.1616  1.2411
 7786SOL    HW234992   3.859   1.981   7.829  2.3336  1.6536  0.8225
 7787SOL     OW34993   1.050   3.387   9.271 -0.6575 -0.0687  0.6625
 7787SOL    HW134994   1.024   3.316   9.330  1.2579 -0.5548  0.9132
 7787SOL    HW234995   1.070   3.346   9.187 -0.3352  0.0658  0.6733
 7788SOL     OW34996   2.073   1.679   2.459 -0.2214 -0.2813 -0.0094
 7788SOL    HW134997   2.098   1.633   2.539 -1.0405  3.0092  2.1142
 7788SOL    HW234998   1.986   1.651   2.432 -0.7739  0.8331  0.6033
 7789SOL     OW34999   0.217   1.744   2.915 -0.5850  0.1132  0.0642
 7789SOL    HW135000   0.239   1.691   2.839 -0.3957  0.5698 -0.1951
 7789SOL    HW235001   0.257   1.830   2.901 -0.1408 -0.0695  0.2264
 7790SOL     OW35002   0.316   4.261  12.032 -0.6871  0.3924 -0.3429
 7790SOL    HW135003   0.271   4.184  11.996  0.5996 -0.9326  0.9078
 7790SOL    HW235004   0.275   4.273  12.117 -1.6203  0.7965 -0.8472
 7791SOL     OW35005   3.455   2.976   3.843 -0.2584  0.6522  0.0988
 7791SOL    HW135006   3.475   3.047   3.904  0.2280  0.3193  0.3305
 7791SOL    HW235007   3.460   3.011   3.754  0.7201 -2.9045 -1.2447
 7792SOL     OW35008   1.735   4.663   5.244 -0.3050 -0.6661 -0.2986
 7792SOL    HW135009   1.807   4.635   5.188  0.3152 -1.0818  0.7135
 7792SOL    HW235010   1.670   4.593   5.239 -2.3040  1.0411  1.6995
 7793SOL     OW35011   1.096   2.297   2.898  0.1865 -0.0483  0.1466
 7793SOL    HW135012   1.026   2.306   2.963  1.6014  1.2761  1.5110
 7793SOL    HW235013   1.168   2.282   2.959 -0.9757  0.4055  1.6511
 7794SOL     OW35014   2.548   4.100   5.214 -0.5698 -0.4797  0.2099
 7794SOL    HW135015   2.523   4.051   5.293 -2.1296  0.0945  0.0693
 7794SOL    HW235016   2.494   4.059   5.147 -0.7125 -0.8554  0.5533
 7795SOL     OW35017   4.260   1.774   4.106 -0.0723  0.4384 -0.3322
 7795SOL    HW135018   4.328   1.825   4.150 -0.8700 -0.5946  2.1153
 7795SOL    HW235019   4.310   1.737   4.034 -2.5619  0.2041 -1.9197
 7796SOL     OW35020   3.666   1.965  10.048 -0.2338 -0.2257 -0.4674
 7796SOL    HW135021   3.587   1.921  10.080 -0.6736 -0.6147 -2.1304
 7796SOL    HW235022   3.640   2.057  10.060 -0.9023 -0.4201 -0.4448
 7797SOL     OW35023   2.544   2.338   5.323  0.0084  0.2891  0.2036
 7797SOL    HW135024   2.618   2.369   5.271  0.2701 -2.4217 -1.0532
 7797SOL    HW235025   2.525   2.419   5.370 -0.3402 -0.7407  1.8565
 7798SOL     OW35026   3.989   3.146  10.531  0.4763  0.0849 -0.5402
 7798SOL    HW135027   3.935   3.195  10.593 -0.2770 -2.0678  0.5268
 7798SOL    HW235028   3.954   3.058  10.547  1.0629  0.0281  0.4502
 7799SOL     OW35029   1.624   1.975   6.491  0.4007 -0.2491 -1.0384
 7799SOL    HW135030   1.625   2.048   6.553  2.9836 -1.4921  0.3946
 7799SOL    HW235031   1.590   2.026   6.417 -0.7549  0.9840  0.3462
 7800SOL     OW35032   3.415   1.912   4.351 -0.6827  0.0680 -0.1956
 7800SOL    HW135033   3.487   1.972   4.333 -0.9770  0.1412 -1.1309
 7800SOL    HW235034   3.450   1.851   4.416 -2.6646 -1.5713 -0.6857
 7801SOL     OW35035   1.911   3.850  13.025 -0.1066  0.3797  0.2115
 7801SOL    HW135036   1.973   3.921  13.008  0.2697  1.0563  4.3939
 7801SOL    HW235037   1.831   3.867  12.976  1.2434 -0.4662 -2.2841
 7802SOL     OW35038   2.529   3.261   4.997 -0.7847  0.1426  0.1513
 7802SOL    HW135039   2.472   3.325   4.955 -2.0926 -1.6628 -0.8227
 7802SOL    HW235040   2.499   3.176   4.966 -2.1702 -0.0612  2.0816
 7803SOL     OW35041   2.702   2.563   1.225 -0.5906 -0.3752  0.1529
 7803SOL    HW135042   2.651   2.639   1.252  0.3330  0.5122 -0.5864
 7803SOL    HW235043   2.757   2.602   1.158 -0.5670 -0.5379  0.0774
 7804SOL     OW35044   0.003   3.010   2.485  0.2389 -0.3069 -0.4210
 7804SOL    HW135045   0.039   3.095   2.461 -1.7824  0.4972 -0.5751
 7804SOL    HW235046   4.646   3.027   2.508  0.8020  2.2982 -0.0896
 7805SOL     OW35047   2.579   2.827   1.250  0.2133 -0.4699 -0.0970
 7805SOL    HW135048   2.648   2.891   1.232  0.5745 -0.6659  0.5872
 7805SOL    HW235049   2.574   2.839   1.345 -2.8331 -1.8688 -0.0677
 7806SOL     OW35050   1.754   3.990   2.854 -0.0987 -0.3387 -0.3552
 7806SOL    HW135051   1.700   4.039   2.791  0.2466  0.2853 -0.1635
 7806SOL    HW235052   1.843   3.998   2.819  0.1984  0.2628  0.5521
 7807SOL     OW35053   4.638   2.685  16.254  0.2293  0.2952 -0.2080
 7807SOL    HW135054   4.612   2.769  16.291  0.3510  0.6476 -0.9079
 7807SOL    HW235055   4.568   2.633  16.293  0.6208 -1.1175 -1.3804
 7808SOL     OW35056   1.047   1.065  11.319  0.3444 -0.5288  0.6023
 7808SOL    HW135057   0.955   1.088  11.331  0.5019  0.0439  0.7107
 7808SOL    HW235058   1.041   0.970  11.329  0.6103 -1.0092 -4.0616
 7809SOL     OW35059   3.064   4.132  10.633  0.5819  0.5014 -1.1190
 7809SOL    HW135060   3.019   4.157  10.552 -1.5541  0.9672  0.2134
 7809SOL    HW235061   3.115   4.055  10.605  1.3744 -0.0652  1.9501
 7810SOL     OW35062   0.129   0.912   5.765  0.0201 -0.0569  0.0967
 7810SOL    HW135063   0.124   0.943   5.856  0.1493  0.9513 -0.2329
 7810SOL    HW235064   0.128   1.000   5.727  2.4587 -0.4173 -0.8032
 7811SOL     OW35065   3.005   4.458   7.394 -0.2299 -0.2514  0.7997
 7811SOL    HW135066   3.026   4.543   7.432 -0.5140 -0.3271  1.1308
 7811SOL    HW235067   3.028   4.411   7.474  0.7307  1.6337  1.6187
 7812SOL     OW35068   3.430   4.244   1.909  0.1382  0.0347 -0.0153
 7812SOL    HW135069   3.362   4.311   1.913 -0.8742 -0.8491 -2.7400
 7812SOL    HW235070   3.444   4.246   1.815  0.6023  1.5710  0.0863
 7813SOL     OW35071   4.160   2.100  16.315  0.0366  0.2874  0.6675
 7813SOL    HW135072   4.226   2.137  16.373 -0.8223  1.0655  1.1494
 7813SOL    HW235073   4.165   2.004  16.321  2.2185  0.3740 -0.0003
 7814SOL     OW35074   3.003   2.882   2.422  0.1494 -0.2593  0.4434
 7814SOL    HW135075   3.012   2.894   2.328 -1.7028 -0.0664  0.2910
 7814SOL    HW235076   2.981   2.973   2.443  1.6884  0.1369  0.3516
 7815SOL     OW35077   2.881   4.263   8.523  0.0966 -0.0537 -0.6650
 7815SOL    HW135078   2.932   4.217   8.457  0.1997 -2.3386  1.0224
 7815SOL    HW235079   2.886   4.355   8.499  0.1494  0.0910 -0.1007
 7816SOL     OW35080   1.951   2.701  12.029  0.1332  0.6733 -0.2985
 7816SOL    HW135081   1.938   2.766  12.098  0.3365  2.7730 -2.2438
 7816SOL    HW235082   1.922   2.755  11.956 -0.4698 -1.2612 -1.5030
 7817SOL     OW35083   2.083   1.553   4.349 -0.5016  0.4792  0.8510
 7817SOL    HW135084   2.109   1.629   4.401 -0.5447  0.9686  0.1482
 7817SOL    HW235085   1.999   1.588   4.318 -0.0409  1.2716  0.4990
 7818SOL     OW35086   3.247   3.577   9.142 -0.3349  0.2249 -0.1028
 7818SOL    HW135087   3.264   3.484   9.150  3.0034  0.9465  1.1431
 7818SOL    HW235088   3.188   3.569   9.067 -1.0175 -2.0555  0.6981
 7819SOL     OW35089   1.991   0.216   0.096 -0.2265  0.3000 -0.4528
 7819SOL    HW135090   1.998   0.273   0.020  0.7450  0.4097 -0.2873
 7819SOL    HW235091   1.914   0.253   0.140 -0.3553 -0.7269  0.1978
 7820SOL     OW35092   1.415   4.077  16.385 -0.6875  0.4615 -0.4426
 7820SOL    HW135093   1.388   4.161  16.422  0.9866  0.7278  0.1608
 7820SOL    HW235094   1.499   4.108  16.351  1.2069  0.2244  4.0663
 7821SOL     OW35095   1.578   2.504   2.311 -0.0568 -0.3870 -0.3565
 7821SOL    HW135096   1.546   2.573   2.369 -0.8521 -1.2330  0.2148
 7821SOL    HW235097   1.497   2.459   2.288  0.7922 -2.5421  0.8672
 7822SOL     OW35098   4.623   2.052   8.925 -0.1260  0.2683  0.4001
 7822SOL    HW135099   4.691   2.101   8.971  0.9335 -0.8044  0.0041
 7822SOL    HW235100   4.549   2.110   8.913 -0.9607 -0.5385  1.6558
 7823SOL     OW35101   3.959   1.759  13.168 -0.0530 -0.2231 -0.8913
 7823SOL    HW135102   3.994   1.672  13.187 -2.4377 -0.1949  3.4524
 7823SOL    HW235103   4.001   1.820  13.229 -0.5020 -1.6513  0.8377
 7824SOL     OW35104   4.425   4.727   0.084  0.3725 -0.1700  0.2102
 7824SOL    HW135105   4.410   4.659   0.149  0.6603 -0.2275  0.2166
 7824SOL    HW235106   4.342   4.721   0.037 -0.6248  0.5864  1.8767
 7825SOL     OW35107   0.516   1.163   3.600 -0.1819  0.1743  0.0850
 7825SOL    HW135108   0.560   1.248   3.604  1.4265 -0.7389  1.8896
 7825SOL    HW235109   0.572   1.107   3.547  1.5694  2.9343 -0.9961
 7826SOL     OW35110   1.538   2.340   7.151 -0.8721  0.2534 -0.4665
 7826SOL    HW135111   1.629   2.364   7.137 -0.7681  0.5494  0.7797
 7826SOL    HW235112   1.491   2.377   7.076 -0.6266 -0.3694 -0.9299
 7827SOL     OW35113   3.065   0.132   4.826  0.0651  0.2471 -1.0199
 7827SOL    HW135114   3.100   0.078   4.755  1.6436 -1.3008  0.9249
 7827SOL    HW235115   2.970   0.125   4.815 -0.1434  0.0028  0.8663
 7828SOL     OW35116   0.823   4.112   6.859 -0.2593  0.3064 -0.5281
 7828SOL    HW135117   0.769   4.110   6.780 -0.2466 -0.8701 -0.5119
 7828SOL    HW235118   0.759   4.094   6.928 -0.4029  0.4045 -0.6360
 7829SOL     OW35119   1.334   2.487   7.012  0.0232  0.0403  0.5182
 7829SOL    HW135120   1.299   2.511   7.098  0.3602  1.2320  0.3241
 7829SOL    HW235121   1.309   2.561   6.957  1.1008 -0.4779 -0.6681
 7830SOL     OW35122   3.210   4.185   2.502  0.1945  0.0413  0.1398
 7830SOL    HW135123   3.183   4.251   2.439  0.3613 -0.4216 -0.4125
 7830SOL    HW235124   3.162   4.112   2.464  0.2210  0.0137  0.1592
 7831SOL     OW35125   4.656   4.532   6.111  0.0490 -0.2298  0.0179
 7831SOL    HW135126   4.652   4.546   6.016  0.9743 -0.5077 -0.0589
 7831SOL    HW235127   4.709   4.454   6.102  1.5512  0.6133  1.5418
 7832SOL     OW35128   2.961   3.400   9.707 -0.0318 -0.8250 -0.3547
 7832SOL    HW135129   2.995   3.473   9.758 -0.7997 -0.7455  0.0427
 7832SOL    HW235130   2.916   3.442   9.633  2.2515 -1.5868 -2.1867
 7833SOL     OW35131   1.401   1.580  14.358  0.2681  0.0795  0.1863
 7833SOL    HW135132   1.460   1.509  14.332 -0.8803 -1.1595  0.9618
 7833SOL    HW235133   1.434   1.653  14.306  0.7587 -0.8353 -0.8115
 7834SOL     OW35134   2.452   0.228  11.749  0.1190 -0.0263  0.0958
 7834SOL    HW135135   2.491   0.270  11.826  0.0401  1.4870 -0.6903
 7834SOL    HW235136   2.431   0.308  11.700 -1.2479 -0.0527  0.6431
 7835SOL     OW35137   1.800   2.650   2.372 -0.4668  0.1370  0.0420
 7835SOL    HW135138   1.894   2.633   2.381 -0.6333 -0.2277  1.1275
 7835SOL    HW235139   1.771   2.581   2.312  1.9267 -0.1058 -0.8668
 7836SOL     OW35140   1.901   3.540   7.754  0.3215 -0.1553 -0.5281
 7836SOL    HW135141   1.927   3.594   7.829  3.4183 -1.2304 -0.8171
 7836SOL    HW235142   1.806   3.550   7.762  0.6742  1.6596  1.3746
 7837SOL     OW35143   2.496   4.657   4.597 -0.2558 -0.1068 -0.4409
 7837SOL    HW135144   2.499   4.683   4.689  0.7090  0.3694 -0.6157
 7837SOL    HW235145   2.576   4.694   4.561 -0.2671  0.4805  0.1306
 7838SOL     OW35146   3.823   2.503  11.313  0.0301 -0.0241 -0.8279
 7838SOL    HW135147   3.820   2.412  11.343 -1.2234 -0.2606 -1.7060
 7838SOL    HW235148   3.818   2.495  11.218 -1.4347 -0.0639 -0.7480
 7839SOL     OW35149   1.623   2.057   7.501  0.3846 -0.4947  0.6754
 7839SOL    HW135150   1.718   2.067   7.498  0.4703 -1.3712  0.5212
 7839SOL    HW235151   1.599   2.097   7.417 -1.9592 -0.8232  1.1951
 7840SOL     OW35152   4.675   4.066   6.396  0.3750 -0.1657 -0.1942
 7840SOL    HW135153   4.654   4.010   6.322  0.8995  1.3745 -1.4967
 7840SOL    HW235154   4.670   4.012   6.475  0.7664  2.6428  1.7587
 7841SOL     OW35155   3.471   2.564   3.406 -0.7737  0.0057  0.2164
 7841SOL    HW135156   3.550   2.612   3.431 -0.2604 -0.2102 -0.9790
 7841SOL    HW235157   3.448   2.513   3.483 -1.3929 -0.4695 -0.2847
 7842SOL     OW35158   3.455   1.846   2.214 -0.0571 -0.3948 -0.1620
 7842SOL    HW135159   3.491   1.900   2.285 -0.2545  1.1657 -1.2574
 7842SOL    HW235160   3.360   1.854   2.225  0.1431  1.3147  0.4797
 7843SOL     OW35161   2.649   0.325   5.061  0.2193 -0.2810 -0.0697
 7843SOL    HW135162   2.679   0.236   5.081  1.0137  0.1352  0.5728
 7843SOL    HW235163   2.586   0.348   5.129  0.1829 -1.0440  0.1585
 7844SOL     OW35164   2.512   1.233   7.231 -0.2108  0.4254  0.5783
 7844SOL    HW135165   2.485   1.321   7.257  0.6779  0.7629  0.3466
 7844SOL    HW235166   2.485   1.176   7.304  0.8039 -0.4238  0.2951
 7845SOL     OW35167   3.878   2.890  10.663  0.2761  0.3437 -0.1128
 7845SOL    HW135168   3.879   2.849  10.749 -1.6941 -1.0529 -0.7382
 7845SOL    HW235169   3.783   2.899  10.654  0.0762 -0.6029  1.1703
 7846SOL     OW35170   3.165   4.143  10.282 -0.4851  0.7526  0.0869
 7846SOL    HW135171   3.116   4.218  10.317 -0.3982  1.2667 -0.8757
 7846SOL    HW235172   3.237   4.126  10.343 -1.4178 -0.1523  0.9276
 7847SOL     OW35173   1.716   0.879  17.081  0.6056 -0.5535 -0.5139
 7847SOL    HW135174   1.704   0.889  16.987 -0.9764 -0.6811 -0.3238
 7847SOL    HW235175   1.688   0.788  17.088  1.6960 -0.7143  1.9347
 7848SOL     OW35176   1.975   4.597   7.080 -0.7562 -0.0835 -0.9048
 7848SOL    HW135177   1.903   4.640   7.126  0.6808  0.0335  1.1989
 7848SOL    HW235178   1.969   4.505   7.104 -0.1959 -0.0623 -0.6941
 7849SOL     OW35179   3.491   1.968   8.013  0.3787  0.0896 -0.5591
 7849SOL    HW135180   3.447   1.884   8.009  1.7944 -0.7202  0.9685
 7849SOL    HW235181   3.485   2.005   8.101  1.5658  1.3775 -1.0056
 7850SOL     OW35182   0.647   1.547   8.723  0.2425 -0.6274  0.9692
 7850SOL    HW135183   0.568   1.562   8.671  0.7558 -2.3929 -0.3209
 7850SOL    HW235184   0.615   1.592   8.802 -0.5418  0.3797  0.0741
 7851SOL     OW35185   1.089   1.172  12.884  0.3032 -0.1966  0.1580
 7851SOL    HW135186   1.159   1.196  12.823  0.4867  1.2119  0.9240
 7851SOL    HW235187   1.034   1.249  12.869 -1.3720 -0.8091  3.1193
 7852SOL     OW35188   0.992   0.217   6.632  0.3605 -0.2902 -0.4249
 7852SOL    HW135189   1.045   0.295   6.644 -0.7130  0.7640 -2.4779
 7852SOL    HW235190   1.031   0.177   6.554 -0.2999  0.8795 -1.3466
 7853SOL     OW35191   3.762   3.449   2.135 -0.6476  0.1841 -0.9786
 7853SOL    HW135192   3.698   3.378   2.146 -1.9462  1.7078  1.3938
 7853SOL    HW235193   3.824   3.432   2.206 -0.7032  0.7661 -0.7935
 7854SOL     OW35194   2.224   3.291   9.873  0.0521  0.7893  0.0479
 7854SOL    HW135195   2.272   3.331   9.945  0.9480 -1.5197  0.7321
 7854SOL    HW235196   2.256   3.201   9.875 -0.1364  0.6751 -1.6966
 7855SOL     OW35197   4.725   3.888   0.462 -0.1322 -0.0061  0.0704
 7855SOL    HW135198   0.003   3.902   0.369 -0.6932 -0.2203 -0.0359
 7855SOL    HW235199   0.017   3.797   0.471  0.3179  0.3659  2.7099
 7856SOL     OW35200   0.552   0.766   7.052 -0.4533  0.1796 -0.1580
 7856SOL    HW135201   0.557   0.673   7.073  1.4980  0.4817  0.7377
 7856SOL    HW235202   0.496   0.775   6.975  0.6612 -0.7546 -1.0718
 7857SOL     OW35203   1.593   4.509   3.670  0.1071 -0.5316  0.1395
 7857SOL    HW135204   1.557   4.434   3.717 -2.1956 -0.4445 -1.4806
 7857SOL    HW235205   1.521   4.570   3.653  0.4623  0.1254  0.9714
 7858SOL     OW35206   1.978   1.205  12.873 -0.0253  0.1570  0.0138
 7858SOL    HW135207   1.907   1.265  12.850  0.3640  0.6874  0.1999
 7858SOL    HW235208   2.003   1.239  12.959  0.2103 -1.0236  0.4072
 7859SOL     OW35209   4.452   1.275  16.171  0.5329 -0.5694  0.2713
 7859SOL    HW135210   4.465   1.282  16.265 -1.5408  2.2258  0.3042
 7859SOL    HW235211   4.460   1.180  16.160  0.5614 -0.4953 -0.4027
 7860SOL     OW35212   3.773   2.272   5.859 -0.3755  0.5699 -0.6857
 7860SOL    HW135213   3.848   2.273   5.918 -0.7867  0.6936 -0.1701
 7860SOL    HW235214   3.699   2.270   5.920  0.2263 -1.6675 -0.0716
 7861SOL     OW35215   3.708   0.788  12.323 -0.3817 -0.5160  0.0962
 7861SOL    HW135216   3.743   0.779  12.411 -0.4004 -0.8597  0.0683
 7861SOL    HW235217   3.665   0.873  12.328  0.1906 -0.2906  1.2079
 7862SOL     OW35218   4.522   4.030   5.902  0.3878  0.1004  0.6892
 7862SOL    HW135219   4.462   3.959   5.923 -1.8556  1.5467 -0.7429
 7862SOL    HW235220   4.533   4.006   5.810  0.6932 -0.1850  0.8023
 7863SOL     OW35221   4.307   1.056   5.730 -0.2295 -0.1343 -0.0999
 7863SOL    HW135222   4.391   1.097   5.708  0.6347 -0.7152  2.1072
 7863SOL    HW235223   4.275   1.047   5.641  0.7686 -0.8186 -0.3822
 7864SOL     OW35224   1.177   1.009   2.870  0.4195 -0.0305 -0.5187
 7864SOL    HW135225   1.135   1.000   2.956  0.0644  2.3688 -0.4293
 7864SOL    HW235226   1.102   1.046   2.823 -0.9019 -0.8243  0.9631
 7865SOL     OW35227   1.705   4.237  16.025  0.0017  0.7020  0.1332
 7865SOL    HW135228   1.704   4.143  16.007 -2.2041  0.6473  0.6299
 7865SOL    HW235229   1.799   4.252  16.016  0.2193  0.1223  1.4703
 7866SOL     OW35230   0.714   3.657   8.982  0.3299 -0.2984 -0.3259
 7866SOL    HW135231   0.733   3.570   9.018 -3.0889 -2.0340 -2.6899
 7866SOL    HW235232   0.618   3.656   8.975  0.2557  2.3592  0.2830
 7867SOL     OW35233   0.716   2.867   2.669  0.0449  0.0787  0.3961
 7867SOL    HW135234   0.799   2.822   2.656  0.3144  1.0643 -1.3761
 7867SOL    HW235235   0.745   2.957   2.687 -0.5732  0.4178 -0.2804
 7868SOL     OW35236   3.641   1.177  16.473  0.4309 -0.5622  0.6758
 7868SOL    HW135237   3.669   1.259  16.515 -1.2790  0.2815  0.1837
 7868SOL    HW235238   3.551   1.192  16.502 -0.0244  0.1323 -1.0814
 7869SOL     OW35239   2.921   3.252   9.146 -0.8964 -0.3911  0.1375
 7869SOL    HW135240   2.973   3.297   9.213 -0.3779  0.6478 -0.9556
 7869SOL    HW235241   2.993   3.209   9.099 -0.6628  0.5656 -0.3835
 7870SOL     OW35242   3.085   1.938   5.666  0.0351 -0.5521 -0.2816
 7870SOL    HW135243   3.140   1.988   5.726 -0.0101  0.6976 -1.2712
 7870SOL    HW235244   3.080   2.000   5.593  0.6130 -0.6553 -0.4036
 7871SOL     OW35245   1.314   0.348   3.561 -0.7183 -0.2364  0.1553
 7871SOL    HW135246   1.308   0.429   3.611 -0.3044 -0.8731  1.2259
 7871SOL    HW235247   1.253   0.366   3.489 -1.5445  2.6046  1.5705
 7872SOL     OW35248   1.996   1.265  10.127  0.1397  0.1880 -0.7014
 7872SOL    HW135249   2.027   1.238  10.213  1.1778  2.7379 -0.2884
 7872SOL    HW235250   1.945   1.343  10.147  2.4356  1.5506 -0.0984
 7873SOL     OW35251   0.939   2.759   4.097 -0.5388  0.4450 -0.0836
 7873SOL    HW135252   0.905   2.676   4.129 -0.1326 -0.1316 -1.1261
 7873SOL    HW235253   0.867   2.817   4.123 -2.0786 -2.0202  1.0918
 7874SOL     OW35254   4.213   1.352  16.386  0.1959  0.1222  0.0339
 7874SOL    HW135255   4.296   1.308  16.406  0.4676  0.8753  0.5539
 7874SOL    HW235256   4.247   1.418  16.326 -0.1980  1.2172  1.0251
 7875SOL     OW35257   4.342   0.039   8.830  0.1685 -0.0931 -0.3881
 7875SOL    HW135258   4.267   0.066   8.883  0.5271 -2.5945  1.3346
 7875SOL    HW235259   4.385   4.717   8.894 -0.2307 -0.3739 -0.3697
 7876SOL     OW35260   3.488   4.326   0.410  0.3826  0.2066  0.1125
 7876SOL    HW135261   3.583   4.328   0.403  0.3019 -1.1837 -1.4334
 7876SOL    HW235262   3.452   4.278   0.336  1.3375  1.3123 -1.0683
 7877SOL     OW35263   1.295   2.305   4.625 -0.3301 -0.9571  0.3453
 7877SOL    HW135264   1.268   2.292   4.534  1.6164  0.2943 -0.4175
 7877SOL    HW235265   1.356   2.379   4.618 -0.8122 -0.4351  1.7054
 7878SOL     OW35266   2.103   0.636   5.711 -0.1199 -0.2243  0.2596
 7878SOL    HW135267   2.114   0.555   5.760 -0.1843 -0.9399 -0.9266
 7878SOL    HW235268   2.041   0.605   5.646  0.3431  0.5291 -0.5483
 7879SOL     OW35269   2.961   3.142   1.526 -0.1259  0.2978  0.1584
 7879SOL    HW135270   2.988   3.089   1.601 -1.4976 -3.5762 -2.1106
 7879SOL    HW235271   2.874   3.105   1.508 -0.0747  1.7458 -3.0740
 7880SOL     OW35272   2.787   2.318  15.627  0.0982 -0.1798  0.1862
 7880SOL    HW135273   2.770   2.307  15.534  1.2820 -1.2979  0.1085
 7880SOL    HW235274   2.733   2.394  15.650  0.2402 -0.1679  0.4798
 7881SOL     OW35275   1.713   0.064   7.611  0.0379 -0.4541  0.2668
 7881SOL    HW135276   1.652   0.045   7.681  0.2613  1.3087  0.9343
 7881SOL    HW235277   1.768   0.121   7.664 -0.7536  2.6601 -2.2080
 7882SOL     OW35278   0.775   0.351   7.569  0.5873  0.2815 -0.5200
 7882SOL    HW135279   0.699   0.302   7.599  0.1954  0.5658 -1.0588
 7882SOL    HW235280   0.811   0.285   7.510 -0.2275 -2.3443  1.9101
 7883SOL     OW35281   3.301   0.931  15.720  0.3658 -0.0866  0.0608
 7883SOL    HW135282   3.212   0.903  15.698 -0.3598  1.4148  1.1157
 7883SOL    HW235283   3.335   0.956  15.634 -1.0136  0.9900 -0.1755
 7884SOL     OW35284   0.940   3.514   4.842 -0.5565 -0.0082  0.2250
 7884SOL    HW135285   0.964   3.606   4.852 -1.2658  0.3217 -1.0765
 7884SOL    HW235286   0.866   3.517   4.782  0.3020  1.6287 -0.7423
 7885SOL     OW35287   2.112   1.653  10.181 -0.4458  0.2190  0.3694
 7885SOL    HW135288   2.186   1.606  10.219 -0.5174 -2.6967 -3.1849
 7885SOL    HW235289   2.058   1.574  10.175 -0.8043  0.7978 -3.6749
 7886SOL     OW35290   4.146   1.831   3.706  0.7956  0.0952  1.0873
 7886SOL    HW135291   4.111   1.815   3.618  2.8895  1.7449 -0.0322
 7886SOL    HW235292   4.074   1.883   3.742 -1.2675 -1.5825 -0.5676
 7887SOL     OW35293   0.297   3.633   7.697 -0.5231  0.5291  0.3424
 7887SOL    HW135294   0.221   3.647   7.641 -1.2157  1.7976  1.6075
 7887SOL    HW235295   0.321   3.543   7.675  0.2874  0.3432  1.9482
 7888SOL     OW35296   2.040   3.922  14.501  0.3386 -0.1906  0.7848
 7888SOL    HW135297   2.106   3.909  14.569 -0.1340  1.0991  1.4886
 7888SOL    HW235298   1.966   3.921  14.562  0.9637 -3.5362  1.5133
 7889SOL     OW35299   1.824   3.030  14.879 -0.6231  0.2446 -0.3099
 7889SOL    HW135300   1.761   2.961  14.857 -0.5091 -0.1726  0.7068
 7889SOL    HW235301   1.815   3.022  14.974 -0.5760  0.5772 -0.2774
 7890SOL     OW35302   1.139   3.095   6.673 -0.1264  0.5726 -0.5729
 7890SOL    HW135303   1.123   3.032   6.743  2.2497  0.7668  0.1483
 7890SOL    HW235304   1.123   3.039   6.597 -0.4474 -0.2205  0.0803
 7891SOL     OW35305   2.474   3.987   5.474 -0.4388 -0.2816  1.1422
 7891SOL    HW135306   2.423   3.906   5.463 -0.1347 -0.3942  0.5201
 7891SOL    HW235307   2.428   4.038   5.540 -0.6722  0.5045  0.3760
 7892SOL     OW35308   3.703   1.219   8.393 -0.4047  0.4653  0.3483
 7892SOL    HW135309   3.775   1.267   8.434 -1.0099  0.4781  1.3894
 7892SOL    HW235310   3.674   1.273   8.319 -4.6777  0.2031  1.8452
 7893SOL     OW35311   4.520   4.243   6.740  0.5354  0.6803 -0.1113
 7893SOL    HW135312   4.473   4.167   6.775 -0.2073  1.5710  0.8358
 7893SOL    HW235313   4.454   4.313   6.749  0.9736  1.2238 -1.0895
 7894SOL     OW35314   0.885   1.747  17.047 -0.5556 -0.6428 -0.2137
 7894SOL    HW135315   0.866   1.839  17.063 -1.4139 -0.6112 -1.4442
 7894SOL    HW235316   0.975   1.742  17.078  0.0592  1.5526 -1.6640
 7895SOL     OW35317   4.021   1.064   4.666 -0.3867 -0.9399  0.3821
 7895SOL    HW135318   4.025   1.106   4.752 -0.2944 -0.4530  0.1386
 7895SOL    HW235319   4.115   1.045   4.669  0.0153  0.9134 -0.2334
 7896SOL     OW35320   2.498   4.291   6.975  0.1569  0.2741  0.7729
 7896SOL    HW135321   2.449   4.216   7.009  0.4593  0.1044  0.8308
 7896SOL    HW235322   2.422   4.348   6.959  0.8604  0.4717 -1.8278
 7897SOL     OW35323   1.366   3.663   7.608  0.4267 -0.3021  0.6814
 7897SOL    HW135324   1.341   3.710   7.529 -0.0675 -0.8469  0.5191
 7897SOL    HW235325   1.312   3.585   7.619 -0.6499  0.4507  0.7643
 7898SOL     OW35326   2.735   2.303   4.524 -0.2297  0.4539 -0.2746
 7898SOL    HW135327   2.694   2.217   4.512  1.0326 -0.4226  1.5543
 7898SOL    HW235328   2.810   2.272   4.577 -1.4571  1.3473  1.9746
 7899SOL     OW35329   2.557   3.190  14.386 -0.1089  0.6283  0.3015
 7899SOL    HW135330   2.648   3.217  14.374 -0.7445  1.0389 -3.6338
 7899SOL    HW235331   2.532   3.152  14.302 -0.1582  2.4326 -0.4886
 7900SOL     OW35332   0.520   2.713  14.938 -0.2997  0.5018 -0.3923
 7900SOL    HW135333   0.560   2.654  14.874  0.4914 -0.4049  0.9357
 7900SOL    HW235334   0.484   2.784  14.884  0.0395  0.1984 -1.0271
 7901SOL     OW35335   2.811   0.806   6.881 -0.5980 -0.0418  0.3720
 7901SOL    HW135336   2.903   0.779   6.887 -1.7642 -3.7365  2.1709
 7901SOL    HW235337   2.786   0.738   6.819 -0.9055  0.3908  0.0307
 7902SOL     OW35338   3.985   3.697   4.128 -0.0660 -0.0588 -0.1643
 7902SOL    HW135339   3.902   3.663   4.160  0.5429 -0.1763  1.2535
 7902SOL    HW235340   3.959   3.739   4.045  0.0771  0.4675  0.0565
 7903SOL     OW35341   3.564   3.345   0.123  0.1944 -0.4586 -0.2429
 7903SOL    HW135342   3.485   3.331   0.071  0.9640 -2.1923 -0.9398
 7903SOL    HW235343   3.607   3.261   0.107  2.0406  0.6672 -1.2033
 7904SOL     OW35344   1.141   3.674   9.017  0.2951  0.8431  0.5348
 7904SOL    HW135345   1.122   3.588   8.981 -0.1003  0.3850  1.8312
 7904SOL    HW235346   1.089   3.723   8.953 -3.3017 -2.2561  1.1185
 7905SOL     OW35347   0.395   3.760  17.222 -0.1024 -0.1154 -0.2104
 7905SOL    HW135348   0.315   3.712  17.245  0.2589 -1.0360 -0.8671
 7905SOL    HW235349   0.378   3.811  17.143  0.4693  0.5446  0.0995
 7906SOL     OW35350   0.212   0.712  15.333  0.2206  0.1179 -0.6199
 7906SOL    HW135351   0.305   0.728  15.351 -0.0537  0.8646  0.1166
 7906SOL    HW235352   0.228   0.679  15.244  1.8143 -0.1347 -0.2538
 7907SOL     OW35353   2.618   4.476   4.861  0.1468  0.5809 -0.0365
 7907SOL    HW135354   2.676   4.458   4.935 -1.5266 -0.2513  1.0921
 7907SOL    HW235355   2.676   4.489   4.786  0.5433  3.1001  0.7201
 7908SOL     OW35356   1.043   1.675   7.115  0.3142  0.4208  0.0292
 7908SOL    HW135357   1.007   1.752   7.071 -0.8990  0.0836  0.4310
 7908SOL    HW235358   0.969   1.615   7.127  1.4485 -1.3536 -1.8802
 7909SOL     OW35359   4.017   3.328  11.932  0.1288 -0.2598  0.0688
 7909SOL    HW135360   4.003   3.344  11.839 -0.3793 -2.5216 -0.2461
 7909SOL    HW235361   4.049   3.238  11.926  2.0446  0.3874  0.5513
 7910SOL     OW35362   2.539   4.223   6.303 -0.1783 -1.0868  0.3189
 7910SOL    HW135363   2.525   4.241   6.210 -3.2505  1.9053  1.3801
 7910SOL    HW235364   2.517   4.308   6.340 -0.9129 -1.7192  1.3523
 7911SOL     OW35365   0.042   3.648   5.707  0.6865  0.3869  0.1637
 7911SOL    HW135366   0.126   3.639   5.751  0.7599  1.3000  0.2166
 7911SOL    HW235367   0.002   3.568   5.741  1.4810 -0.4669 -0.9165
 7912SOL     OW35368   2.038   2.380  14.816 -0.4684 -0.2101 -0.0941
 7912SOL    HW135369   1.984   2.437  14.871  2.2387  1.1422  1.1712
 7912SOL    HW235370   2.045   2.312  14.884 -0.7525 -0.2286 -0.0792
 7913SOL     OW35371   4.104   0.542  16.326 -0.1651 -0.2078 -0.5742
 7913SOL    HW135372   4.157   0.577  16.398  3.3377 -3.8850 -1.3621
 7913SOL    HW235373   4.159   0.467  16.304  0.9120 -0.0437  1.5185
 7914SOL     OW35374   2.702   3.580   1.607 -0.6452  0.8332 -0.6798
 7914SOL    HW135375   2.781   3.578   1.554 -0.1585  0.5594  0.0579
 7914SOL    HW235376   2.682   3.673   1.616 -0.5590  0.7072  0.9585
 7915SOL     OW35377   1.303   0.806  13.095  0.2419  0.0980 -0.5084
 7915SOL    HW135378   1.357   0.826  13.171  1.2863 -0.2952 -1.1532
 7915SOL    HW235379   1.257   0.724  13.111  0.2153 -0.0128 -1.1408
 7916SOL     OW35380   4.634   2.806   3.378  0.0161  0.1104 -0.4770
 7916SOL    HW135381   4.721   2.769   3.367 -1.6724 -4.2864  1.1065
 7916SOL    HW235382   4.576   2.738   3.344  0.7788 -0.2417 -1.0697
 7917SOL     OW35383   4.431   2.666  16.064 -0.5128 -0.3249 -0.3393
 7917SOL    HW135384   4.368   2.734  16.039 -1.4850 -0.9864  0.3118
 7917SOL    HW235385   4.495   2.711  16.119 -1.0496 -0.4145  0.3575
 7918SOL     OW35386   4.437   2.975   5.658  0.5437 -0.8305 -0.6946
 7918SOL    HW135387   4.413   2.909   5.723 -0.6732  0.4674  0.1530
 7918SOL    HW235388   4.410   2.929   5.579 -0.8779 -0.3940 -0.4523
 7919SOL     OW35389   2.299   1.181  11.883  0.0003 -0.8358  0.1856
 7919SOL    HW135390   2.273   1.156  11.794  1.6821  3.0608 -1.3884
 7919SOL    HW235391   2.310   1.275  11.871  1.9861 -1.4804 -3.0833
 7920SOL     OW35392   1.419   1.773  10.459  0.1720 -0.2411  0.2662
 7920SOL    HW135393   1.463   1.767  10.544 -1.5160 -1.6171  1.0171
 7920SOL    HW235394   1.332   1.754  10.494  1.1815 -1.7557  1.9556
 7921SOL     OW35395   3.451   3.047  12.582 -0.0931  0.2886 -0.5544
 7921SOL    HW135396   3.512   3.033  12.509 -2.1402 -1.7579 -1.8362
 7921SOL    HW235397   3.423   3.138  12.571  0.0489  0.4124  0.0893
 7922SOL     OW35398   1.142   2.432   6.079  0.4422 -0.8043 -0.1547
 7922SOL    HW135399   1.193   2.474   6.010  1.9543 -0.3736  1.2079
 7922SOL    HW235400   1.066   2.401   6.030 -1.4542  0.2338  2.1203
 7923SOL     OW35401   1.986   2.078   0.226  0.1084 -0.2460 -0.0994
 7923SOL    HW135402   2.060   2.118   0.181  1.4165 -0.9122  1.4672
 7923SOL    HW235403   1.940   2.160   0.242  0.6159  0.6021 -2.9060
 7924SOL     OW35404   1.035   3.892  10.962  0.0872 -0.0672 -0.1496
 7924SOL    HW135405   1.114   3.944  10.949  0.8162 -1.7594 -2.4431
 7924SOL    HW235406   1.005   3.855  10.879 -4.6098  0.3609  1.3465
 7925SOL     OW35407   1.510   4.133   4.766 -0.2809  0.1156  0.5485
 7925SOL    HW135408   1.438   4.176   4.812 -0.8068 -0.5252  0.3301
 7925SOL    HW235409   1.583   4.155   4.823 -1.5084  1.7059  1.4997
 7926SOL     OW35410   2.137   4.397   3.464 -0.3792 -0.2869  0.6742
 7926SOL    HW135411   2.069   4.346   3.508  0.4057 -0.8304  1.2610
 7926SOL    HW235412   2.085   4.466   3.424  0.4425 -0.6113 -0.9364
 7927SOL     OW35413   2.522   2.669   3.056  0.4416  0.1010 -0.2111
 7927SOL    HW135414   2.486   2.623   3.131  0.8831  1.7556  1.0089
 7927SOL    HW235415   2.448   2.719   3.021 -0.4096 -1.2655 -0.3265
 7928SOL     OW35416   1.139   1.090   5.871 -0.2250  0.0121  0.0984
 7928SOL    HW135417   1.230   1.094   5.900  0.3313 -0.7081 -1.5835
 7928SOL    HW235418   1.100   1.175   5.890  1.0899 -0.3309  4.2819
 7929SOL     OW35419   1.253   0.862  16.976  0.1837  0.7339 -0.0915
 7929SOL    HW135420   1.307   0.939  16.956  0.3429 -0.3149 -3.7868
 7929SOL    HW235421   1.321   0.797  16.987 -0.7440 -0.2403 -0.0973
 7930SOL     OW35422   1.729   2.344   3.724 -0.6238  0.2665 -0.1306
 7930SOL    HW135423   1.680   2.369   3.802 -0.9743  0.5199 -0.4301
 7930SOL    HW235424   1.822   2.346   3.747 -0.3945 -0.7772 -1.0072
 7931SOL     OW35425   1.965   3.941   0.337  0.3821  0.2075  0.1272
 7931SOL    HW135426   2.028   3.987   0.281 -0.9380  1.3079 -0.4465
 7931SOL    HW235427   1.898   4.007   0.355 -0.3780 -0.5742  0.1437
 7932SOL     OW35428   2.750   1.323   4.446  0.4678 -0.1576 -0.1742
 7932SOL    HW135429   2.728   1.245   4.395 -2.0652 -0.2693  1.0950
 7932SOL    HW235430   2.809   1.363   4.382  0.4791 -1.9852 -1.3070
 7933SOL     OW35431   4.367   0.732   3.590  0.2605  0.1466 -0.2192
 7933SOL    HW135432   4.277   0.698   3.589  0.2144  0.2604  0.0281
 7933SOL    HW235433   4.391   0.712   3.500 -0.4514  0.1006 -0.4016
 7934SOL     OW35434   2.558   0.250   8.555  0.5662  0.2174  0.0220
 7934SOL    HW135435   2.590   0.305   8.484  1.9102  2.0871  2.1156
 7934SOL    HW235436   2.552   0.315   8.624  0.4141 -0.3664  0.5617
 7935SOL     OW35437   0.738   4.329   4.018 -0.1855 -0.4079  0.3696
 7935SOL    HW135438   0.717   4.246   4.059 -1.0320 -0.8201 -0.9072
 7935SOL    HW235439   0.779   4.381   4.088 -0.5388  0.7315 -0.2605
 7936SOL     OW35440   1.357   3.393   2.859 -0.2247  0.6737  0.5504
 7936SOL    HW135441   1.400   3.337   2.923  0.0058 -1.1091 -1.1560
 7936SOL    HW235442   1.273   3.408   2.901 -0.1667 -0.6138  1.1214
 7937SOL     OW35443   2.745   3.894   3.969  0.2517 -0.1520 -0.0298
 7937SOL    HW135444   2.720   3.932   3.885  1.6621 -0.0544 -0.4073
 7937SOL    HW235445   2.822   3.842   3.947  0.4036  0.2471 -0.4564
 7938SOL     OW35446   0.925   2.471   2.572 -0.1133  0.0739 -0.6651
 7938SOL    HW135447   0.999   2.468   2.511 -0.2148 -2.6244 -0.6435
 7938SOL    HW235448   0.911   2.381   2.601  0.9285 -0.4830 -1.8777
 7939SOL     OW35449   0.602   1.077   8.140  0.0401 -0.5360  0.0725
 7939SOL    HW135450   0.608   1.149   8.077 -0.8083 -1.8910 -1.5826
 7939SOL    HW235451   0.678   1.091   8.196  1.1037  1.7814 -1.9474
 7940SOL     OW35452   4.149   0.801   3.301  0.5534 -0.3857  0.1910
 7940SOL    HW135453   4.157   0.777   3.393 -1.8236 -0.9237  0.2651
 7940SOL    HW235454   4.227   0.766   3.259 -0.0642  1.5569 -2.6352
 7941SOL     OW35455   4.013   0.888  12.404  0.0590 -0.0608  0.0241
 7941SOL    HW135456   4.057   0.867  12.322 -2.4259  1.1975 -1.6185
 7941SOL    HW235457   4.086   0.893  12.466  0.9708 -0.5030 -1.0138
 7942SOL     OW35458   4.020   1.499   6.924  0.5552 -0.0897 -1.0176
 7942SOL    HW135459   4.021   1.586   6.965  1.4033 -0.5960  0.0511
 7942SOL    HW235460   4.110   1.492   6.892  0.1273  1.0701 -2.4983
 7943SOL     OW35461   3.128   0.747   6.889  0.2212 -0.0001  0.2934
 7943SOL    HW135462   3.110   0.662   6.848  1.6207 -0.5646  0.8636
 7943SOL    HW235463   3.214   0.716   6.916  0.8822 -1.2087 -3.2050
 7944SOL     OW35464   4.099   1.962   7.388 -0.8185 -0.1582 -0.7524
 7944SOL    HW135465   4.191   1.962   7.363 -0.7122  0.1174 -0.3659
 7944SOL    HW235466   4.075   1.873   7.363 -1.0658 -0.0291 -0.9870
 7945SOL     OW35467   1.233   2.506   8.132 -0.3982 -0.3531  0.1075
 7945SOL    HW135468   1.230   2.423   8.180  0.2224  0.5762  1.7572
 7945SOL    HW235469   1.261   2.569   8.198 -2.5121 -0.7318  1.3539
 7946SOL     OW35470   0.341   2.128  16.121 -0.1939  0.1644  1.0419
 7946SOL    HW135471   0.285   2.178  16.063  1.0902  0.8045  0.3513
 7946SOL    HW235472   0.385   2.198  16.169  1.1756 -0.4178  0.6655
 7947SOL     OW35473   1.549   4.454  16.143  0.2164  0.1833  0.2910
 7947SOL    HW135474   1.606   4.395  16.094  0.2709  0.3651  0.1370
 7947SOL    HW235475   1.612   4.518  16.176 -0.4718  0.0222  1.9350
 7948SOL     OW35476   0.687   1.778   5.777  0.1575 -0.4692  0.2725
 7948SOL    HW135477   0.634   1.858   5.780  1.4619  0.3927  0.6109
 7948SOL    HW235478   0.637   1.719   5.833  1.2949 -1.2224  0.4980
 7949SOL     OW35479   3.307   3.461   2.440 -0.4256 -0.4654  0.6635
 7949SOL    HW135480   3.340   3.429   2.524  0.8985 -0.4107  0.1619
 7949SOL    HW235481   3.229   3.406   2.430 -0.6666  0.1190 -0.7173
 7950SOL     OW35482   2.999   0.359   9.062  0.2804 -0.2127 -0.3796
 7950SOL    HW135483   2.985   0.357   9.156  0.1842  1.2429 -0.3682
 7950SOL    HW235484   3.069   0.294   9.054  0.0338 -0.5737  0.3985
 7951SOL     OW35485   2.906   4.344   5.775  0.3318  0.7164  0.2447
 7951SOL    HW135486   2.937   4.256   5.752 -1.7268 -0.4860  2.1215
 7951SOL    HW235487   2.975   4.401   5.742  1.7987  0.3127  2.6230
 7952SOL     OW35488   1.827   4.270   5.978  0.0517  0.4857 -0.2537
 7952SOL    HW135489   1.871   4.208   6.035  0.3472  1.9345  1.0924
 7952SOL    HW235490   1.825   4.343   6.040  0.1155 -0.5478  0.9357
 7953SOL     OW35491   0.399   2.205   4.796 -0.2831 -0.5134  0.3003
 7953SOL    HW135492   0.324   2.254   4.830 -1.1578  0.3120 -2.8363
 7953SOL    HW235493   0.363   2.129   4.749  1.3751 -2.1680  1.7489
 7954SOL     OW35494   1.902   2.662   5.283 -0.3542 -0.1281 -0.0944
 7954SOL    HW135495   1.894   2.597   5.352 -1.1142 -0.9462 -0.9476
 7954SOL    HW235496   1.858   2.739   5.318 -1.9248  0.9380 -4.3611
 7955SOL     OW35497   2.103   0.935   3.072 -0.5999 -0.4818 -0.0814
 7955SOL    HW135498   2.130   1.021   3.105  0.4456 -1.7209  2.2470
 7955SOL    HW235499   2.144   0.928   2.985 -0.5844  1.9502 -0.2945
 7956SOL     OW35500   4.047   2.678   4.665  0.1438  0.4515 -0.0813
 7956SOL    HW135501   4.018   2.635   4.746  0.2156 -0.0235 -0.3062
 7956SOL    HW235502   4.114   2.740   4.695  0.6930 -0.9129  1.5224
 7957SOL     OW35503   2.218   1.965   7.760  0.5004 -0.0609 -0.0585
 7957SOL    HW135504   2.166   1.908   7.704  2.6512 -1.8580 -0.2234
 7957SOL    HW235505   2.150   2.020   7.800 -1.3877 -1.6525 -1.0558
 7958SOL     OW35506   2.385   0.624   7.624 -0.1192 -0.0173  0.0703
 7958SOL    HW135507   2.416   0.694   7.567  0.9681 -0.8629 -0.3695
 7958SOL    HW235508   2.333   0.668   7.691  0.8608 -0.5588  1.1915
 7959SOL     OW35509   2.199   2.606   5.383  0.8214 -0.3263  0.2264
 7959SOL    HW135510   2.161   2.672   5.442 -4.1073 -1.1247 -1.9939
 7959SOL    HW235511   2.290   2.602   5.411  0.9336 -1.6526 -0.3804
 7960SOL     OW35512   1.564   1.799   1.670  0.4741  0.7349 -0.1443
 7960SOL    HW135513   1.604   1.867   1.724 -2.3497  0.8336  1.8007
 7960SOL    HW235514   1.617   1.792   1.590 -0.7638 -1.9693 -0.7305
 7961SOL     OW35515   1.316   2.819  16.868 -0.5870 -0.5947  0.0222
 7961SOL    HW135516   1.378   2.803  16.940  0.5223 -0.9405 -1.0098
 7961SOL    HW235517   1.367   2.886  16.823 -3.9663  1.9573 -0.0375
 7962SOL     OW35518   1.928   0.998   8.096  0.0753 -0.0745  0.2481
 7962SOL    HW135519   1.997   0.936   8.118  0.5545  0.0756 -0.8286
 7962SOL    HW235520   1.873   1.003   8.174  1.4502 -1.6626  1.3081
 7963SOL     OW35521   3.161   3.646   6.452 -0.2254  0.4433 -0.4927
 7963SOL    HW135522   3.171   3.598   6.535 -1.3889  0.6712 -0.2225
 7963SOL    HW235523   3.192   3.591   6.380 -0.8632  1.0014 -1.1786
 7964SOL     OW35524   0.380   1.317   7.930 -0.6855 -0.3841 -0.1885
 7964SOL    HW135525   0.300   1.266   7.916  0.0245 -2.0591  1.9332
 7964SOL    HW235526   0.453   1.272   7.888  0.5647 -0.2084  1.7950
 7965SOL     OW35527   0.970   1.086   2.180 -0.4144  0.8980 -0.1004
 7965SOL    HW135528   0.991   1.031   2.104  1.3619  0.0601  0.9817
 7965SOL    HW235529   0.995   1.029   2.252 -2.6137  0.5820  0.3921
 7966SOL     OW35530   3.701   0.317   0.402 -0.3155 -0.4353 -0.2482
 7966SOL    HW135531   3.728   0.316   0.494 -0.2870 -2.6436 -0.2772
 7966SOL    HW235532   3.781   0.294   0.355  0.4850  1.9528 -0.0211
 7967SOL     OW35533   4.414   4.297   3.437 -0.4527  0.4238 -0.0805
 7967SOL    HW135534   4.349   4.231   3.458  0.5984 -0.9641 -1.1770
 7967SOL    HW235535   4.485   4.270   3.495 -0.2245 -0.1086 -0.6158
 7968SOL     OW35536   4.434   4.636   6.644 -0.7311  0.3393  0.2844
 7968SOL    HW135537   4.526   4.615   6.661 -0.4027  1.4409 -0.1131
 7968SOL    HW235538   4.440   4.647   6.550  1.1866  1.7528  0.5674
 7969SOL     OW35539   0.629   2.016   7.993  0.9192 -0.1418  0.4004
 7969SOL    HW135540   0.591   2.053   8.073  2.9739  1.1007  0.7989
 7969SOL    HW235541   0.655   2.097   7.950 -2.8412  1.1428  0.5369
 7970SOL     OW35542   0.671   2.628  10.872  0.4397  0.0745  0.1048
 7970SOL    HW135543   0.712   2.669  10.796 -1.1948  1.1215 -0.2032
 7970SOL    HW235544   0.582   2.605  10.847  0.0979  0.7363  0.6880
 7971SOL     OW35545   1.202   3.866   2.817 -0.0087 -0.6842  0.0218
 7971SOL    HW135546   1.257   3.804   2.866  0.0206 -1.9055 -1.5460
 7971SOL    HW235547   1.115   3.834   2.843 -0.8617  1.8549  0.2508
 7972SOL     OW35548   3.029   2.962   1.162  0.1576 -0.0583 -0.3094
 7972SOL    HW135549   3.038   3.055   1.140  0.2065 -0.0605 -0.2972
 7972SOL    HW235550   3.090   2.957   1.236  0.3509 -1.0006 -0.5383
 7973SOL     OW35551   3.180   1.565  15.766  0.1862 -0.4802  0.0040
 7973SOL    HW135552   3.270   1.583  15.738  0.9984 -0.8738  2.4248
 7973SOL    HW235553   3.159   1.496  15.703 -2.0631 -0.1512  0.4092
 7974SOL     OW35554   0.707   3.479   4.688  0.4410  1.3545  0.0227
 7974SOL    HW135555   0.709   3.404   4.629 -0.0557  0.2232  1.4583
 7974SOL    HW235556   0.690   3.553   4.629 -2.5938 -0.2676 -1.1702
 7975SOL     OW35557   1.690   4.727   8.724  0.0832  0.8610  0.2261
 7975SOL    HW135558   1.639   4.659   8.769  0.9053 -1.5555 -2.5712
 7975SOL    HW235559   1.676   4.714   8.630 -0.5920  0.0928  0.4232
 7976SOL     OW35560   3.741   2.128   8.711 -0.1016 -0.0514 -0.3101
 7976SOL    HW135561   3.670   2.096   8.766  0.5528  1.5945  1.4549
 7976SOL    HW235562   3.820   2.110   8.762 -1.0582  0.0088  1.1813
 7977SOL     OW35563   0.076   2.660   1.591 -0.1855 -0.3254  0.2217
 7977SOL    HW135564   0.025   2.580   1.603  2.8956 -2.8471 -3.2731
 7977SOL    HW235565   0.011   2.724   1.618  0.4067  1.1879 -1.9509
 7978SOL     OW35566   0.677   0.572   6.551  0.4778  0.2829 -0.1469
 7978SOL    HW135567   0.586   0.602   6.545  0.1151 -0.7804  0.1119
 7978SOL    HW235568   0.701   0.614   6.633 -2.8650  1.5045  0.2367
 7979SOL     OW35569   0.956   0.363  14.750 -0.2460 -0.1557  0.6952
 7979SOL    HW135570   0.924   0.275  14.728  1.4176 -0.3627 -0.8187
 7979SOL    HW235571   0.871   0.393  14.783 -1.3616 -1.3037 -1.1564
 7980SOL     OW35572   1.203   3.434   6.055  0.5046 -0.3323 -0.3084
 7980SOL    HW135573   1.273   3.481   6.010  0.5627 -1.3120 -1.2177
 7980SOL    HW235574   1.222   3.347   6.021  3.1617  0.3406 -0.5451
 7981SOL     OW35575   2.516   1.694  17.652  0.0108  0.0014  0.2371
 7981SOL    HW135576   2.568   1.766  17.618 -0.6191  0.2939 -0.1056
 7981SOL    HW235577   2.560   1.623  17.604  1.4150  0.0284  1.4869
 7982SOL     OW35578   3.647   2.702  16.610  0.9979 -0.4125 -0.1566
 7982SOL    HW135579   3.592   2.727  16.684 -0.5094  0.4971 -1.5732
 7982SOL    HW235580   3.575   2.707  16.547  0.6418 -1.8687  0.1498
 7983SOL     OW35581   2.550   1.357  16.691 -0.1749 -0.3424 -0.0268
 7983SOL    HW135582   2.528   1.447  16.714 -0.5030 -0.0727 -1.3845
 7983SOL    HW235583   2.520   1.312  16.770  1.7210 -0.3419  0.6976
 7984SOL     OW35584   0.417   2.521   3.149 -0.7583  0.3974  0.5609
 7984SOL    HW135585   0.423   2.531   3.054 -2.4415 -0.7567  0.3423
 7984SOL    HW235586   0.471   2.442   3.151 -0.1624  0.7975  0.2769
 7985SOL     OW35587   2.847   2.730   4.277  0.7919  0.1455 -0.1336
 7985SOL    HW135588   2.869   2.756   4.367 -1.9992  0.2741  0.5183
 7985SOL    HW235589   2.798   2.651   4.299  0.2792  1.0633  2.0167
 7986SOL     OW35590   4.723   4.209  14.243 -0.6526 -0.3761  0.0398
 7986SOL    HW135591   4.628   4.205  14.235 -0.8657  1.8495  1.3959
 7986SOL    HW235592   0.002   4.130  14.295  0.4438 -1.2933 -1.6149
 7987SOL     OW35593   4.532   4.315   5.846  0.4812 -0.0104  0.8830
 7987SOL    HW135594   4.626   4.323   5.863  0.5004  1.3861  0.1321
 7987SOL    HW235595   4.522   4.220   5.858 -0.3487  0.0640  0.8131
 7988SOL     OW35596   4.386   4.486   3.270  0.3662 -0.6550 -0.1038
 7988SOL    HW135597   4.387   4.423   3.343  1.4684 -1.3942 -0.7617
 7988SOL    HW235598   4.474   4.518   3.288 -0.0370  0.4070 -0.0508
 7989SOL     OW35599   2.555   3.355  15.236 -0.1146 -0.1096 -0.1711
 7989SOL    HW135600   2.482   3.416  15.222 -1.7424 -1.8613  0.8351
 7989SOL    HW235601   2.546   3.338  15.330 -1.2646  0.9114 -0.0889
 7990SOL     OW35602   1.898   2.732   0.692 -0.3365 -0.3903 -0.0175
 7990SOL    HW135603   1.887   2.667   0.761 -2.3105  1.2662  1.2285
 7990SOL    HW235604   1.974   2.782   0.724 -0.3372 -0.7723  0.5872
 7991SOL     OW35605   0.173   3.658   6.497  0.1395  0.3744 -0.8095
 7991SOL    HW135606   0.196   3.749   6.476 -0.3637  0.9845  1.2755
 7991SOL    HW235607   0.086   3.669   6.534  0.9677 -1.1887  1.5843
 7992SOL     OW35608   0.858   2.329   4.722  0.6725  0.8157 -0.5930
 7992SOL    HW135609   0.765   2.348   4.731  0.3907 -0.6947 -0.2637
 7992SOL    HW235610   0.856   2.233   4.728 -1.1909  0.9456  0.8625
 7993SOL     OW35611   3.877   2.503  16.138 -0.3152 -0.6934  0.4502
 7993SOL    HW135612   3.794   2.517  16.093 -0.4610  0.6762  1.1514
 7993SOL    HW235613   3.919   2.429  16.093  0.3509 -1.3836  2.2019
 7994SOL     OW35614   4.013   3.745   3.021  0.0697  0.0513  0.7696
 7994SOL    HW135615   4.080   3.787   2.968 -0.5705  0.0693 -0.0186
 7994SOL    HW235616   3.945   3.746   2.954  1.6768 -1.6298 -0.8807
 7995SOL     OW35617   1.196   0.001  14.439  0.0560 -0.5124  0.2513
 7995SOL    HW135618   1.262   4.721  14.371 -1.8162 -0.6647 -1.5071
 7995SOL    HW235619   1.253   0.017  14.515  0.4399 -0.1953 -0.1021
 7996SOL     OW35620   0.913   2.588  12.161 -0.2315  0.2713 -0.2804
 7996SOL    HW135621   0.934   2.499  12.189 -0.5612  0.4118  0.4086
 7996SOL    HW235622   0.837   2.606  12.217  0.1257 -0.1761  0.3522
 7997SOL     OW35623   3.275   2.119   3.964  1.0166 -0.1105  0.0097
 7997SOL    HW135624   3.312   2.146   3.880  1.4372 -2.4737 -0.5662
 7997SOL    HW235625   3.287   2.194   4.022 -1.8360  0.3007  0.0667
 7998SOL     OW35626   3.935   2.797   4.954 -0.0913  0.6122 -0.2504
 7998SOL    HW135627   3.970   2.828   5.037  1.3223 -1.1573 -0.2032
 7998SOL    HW235628   3.923   2.877   4.902 -0.4629  0.3058 -0.6438
 7999SOL     OW35629   4.289   2.037   7.665 -0.2600 -0.2058 -0.2432
 7999SOL    HW135630   4.378   2.002   7.668  0.8999  2.7000 -0.8031
 7999SOL    HW235631   4.317   2.121   7.627 -0.3373 -0.8833 -1.8262
 8000SOL     OW35632   1.691   4.500   8.409  0.0370 -0.2377 -0.2558
 8000SOL    HW135633   1.661   4.577   8.458  1.9386  0.5423 -0.3384
 8000SOL    HW235634   1.776   4.486   8.449 -0.3301 -0.9826  0.2589
 8001SOL     OW35635   3.120   1.158   1.399 -0.2493  0.1041 -0.7536
 8001SOL    HW135636   3.169   1.205   1.332  1.2249 -1.0679 -0.4895
 8001SOL    HW235637   3.091   1.076   1.359 -1.7241  0.7921 -1.0860
 8002SOL     OW35638   4.459   3.720   1.942 -0.1771 -0.2324  0.4200
 8002SOL    HW135639   4.367   3.693   1.942 -0.0428 -0.6950 -1.1212
 8002SOL    HW235640   4.492   3.704   2.030 -1.2758 -0.6797  0.7554
 8003SOL     OW35641   3.239   4.688   0.372 -0.2425  0.2908  0.1445
 8003SOL    HW135642   3.154   4.689   0.327  0.2519 -0.4520 -0.8064
 8003SOL    HW235643   3.238   4.619   0.438 -2.2141  1.4325  1.3158
 8004SOL     OW35644   2.174   1.808   6.586  0.2849 -0.2025 -0.0160
 8004SOL    HW135645   2.207   1.834   6.672 -0.5176  1.3815 -0.1803
 8004SOL    HW235646   2.154   1.717   6.604  1.7297 -0.5079  0.0874
 8005SOL     OW35647   3.229   2.429   6.944 -0.6044 -0.0460 -0.4329
 8005SOL    HW135648   3.303   2.444   6.886 -1.1096 -0.6835 -1.2403
 8005SOL    HW235649   3.257   2.372   7.016  0.6265 -0.7269 -1.4728
 8006SOL     OW35650   4.145   2.773  10.679 -0.3741 -0.5461 -0.2753
 8006SOL    HW135651   4.056   2.808  10.688 -0.5110 -1.6413  2.7511
 8006SOL    HW235652   4.198   2.852  10.670  1.5790 -1.9438 -0.8373
 8007SOL     OW35653   4.107   2.279   4.336  0.3896  1.1984  0.8675
 8007SOL    HW135654   4.147   2.344   4.278 -2.0125 -0.0447 -2.1713
 8007SOL    HW235655   4.129   2.308   4.425 -0.4801  2.1937  0.7541
 8008SOL     OW35656   2.509   0.172   6.647 -0.2524  0.1685 -0.6713
 8008SOL    HW135657   2.498   0.108   6.718 -0.1226  1.6071  0.6391
 8008SOL    HW235658   2.470   0.112   6.582  0.1711 -1.5098  0.6185
 8009SOL     OW35659   2.684   1.401   9.087  0.0593 -0.2313  0.1106
 8009SOL    HW135660   2.731   1.337   9.034  1.2755 -0.7411  1.7855
 8009SOL    HW235661   2.611   1.419   9.028 -0.6819 -3.0510  0.1812
 8010SOL     OW35662   4.507   3.887  17.503 -0.2404 -0.2753  0.1577
 8010SOL    HW135663   4.412   3.887  17.492  0.0320 -1.3407 -2.1044
 8010SOL    HW235664   4.512   3.956  17.569 -2.2153  1.8549 -1.9229
 8011SOL     OW35665   4.510   4.215   5.496 -0.2589 -0.5846  0.5445
 8011SOL    HW135666   4.530   4.290   5.552 -0.0091  0.2357 -0.6271
 8011SOL    HW235667   4.495   4.262   5.414 -1.7059  0.0597  1.1814
 8012SOL     OW35668   1.778   1.591  12.036 -0.2130  0.5361  0.0643
 8012SOL    HW135669   1.841   1.660  12.058  0.3723 -0.0942  0.3513
 8012SOL    HW235670   1.703   1.615  12.090 -1.2461  0.0146 -1.1444
 8013SOL     OW35671   4.242   2.197  15.414 -0.7663  0.6320 -1.1087
 8013SOL    HW135672   4.299   2.273  15.430 -1.0718  0.1094  2.5703
 8013SOL    HW235673   4.222   2.181  15.506 -2.6980 -0.3813 -1.7051
 8014SOL     OW35674   4.312   2.277   2.606 -0.1549  0.2775  0.3240
 8014SOL    HW135675   4.404   2.303   2.618  0.3229 -0.5752 -1.4487
 8014SOL    HW235676   4.278   2.334   2.537  2.0701  1.5131  0.2341
 8015SOL     OW35677   1.973   2.602   8.593  0.3650 -0.1459  0.3152
 8015SOL    HW135678   2.022   2.581   8.672  0.1913 -2.2323 -0.1221
 8015SOL    HW235679   1.885   2.598   8.632 -0.6775  3.5960 -1.6372
 8016SOL     OW35680   3.474   1.610   6.289 -0.0028 -0.1122  0.0397
 8016SOL    HW135681   3.436   1.528   6.322  0.3510 -0.1977  0.2312
 8016SOL    HW235682   3.533   1.586   6.217  0.3032  0.0122  0.2503
 8017SOL     OW35683   2.064   3.912  16.681  0.4308  0.2137 -0.1664
 8017SOL    HW135684   2.042   3.860  16.758 -0.6577  0.7599 -0.1106
 8017SOL    HW235685   2.087   3.993  16.727 -0.9675  1.1795 -1.1746
 8018SOL     OW35686   1.279   3.042   5.138  0.5689 -0.4525 -0.4880
 8018SOL    HW135687   1.205   3.061   5.082 -0.7895 -2.2212  0.7426
 8018SOL    HW235688   1.343   3.112   5.121  0.8366 -0.1403  1.7025
 8019SOL     OW35689   3.873   3.420   3.532  0.0444  0.9358 -0.1073
 8019SOL    HW135690   3.933   3.400   3.460 -0.9867 -0.1746 -0.6483
 8019SOL    HW235691   3.921   3.381   3.605  1.5320  0.1640 -1.5088
 8020SOL     OW35692   1.060   4.648   2.247 -0.1634 -0.3692  0.1607
 8020SOL    HW135693   1.135   4.590   2.259 -1.2206 -1.3966  1.8480
 8020SOL    HW235694   1.055   4.658   2.152  0.7722  1.1862  0.2761
 8021SOL     OW35695   0.654   3.580   3.889  0.0080  0.0343  0.2360
 8021SOL    HW135696   0.750   3.581   3.889  0.0144 -0.5627 -1.0181
 8021SOL    HW235697   0.635   3.541   3.804  2.2664  2.2842 -1.2963
 8022SOL     OW35698   3.447   2.600   2.727  0.2315  0.0055 -0.2193
 8022SOL    HW135699   3.460   2.505   2.734 -0.1965  0.0105  0.7614
 8022SOL    HW235700   3.351   2.609   2.729  0.2063 -0.5135  1.1251
 8023SOL     OW35701   3.667   2.706   6.369 -0.0455  0.0142 -0.4799
 8023SOL    HW135702   3.738   2.770   6.361  0.5471 -0.6086 -0.2164
 8023SOL    HW235703   3.631   2.701   6.281  0.2646  0.5810 -0.6372
 8024SOL     OW35704   4.575   4.472  16.802  0.3940 -0.4318 -0.1352
 8024SOL    HW135705   4.623   4.452  16.721  0.5711  0.7315 -0.3221
 8024SOL    HW235706   4.535   4.554  16.772  2.3369  0.7056  0.3737
 8025SOL     OW35707   3.107   1.523   7.623  0.0382  0.2577  0.2935
 8025SOL    HW135708   3.104   1.601   7.678 -0.9996  0.2198  0.2881
 8025SOL    HW235709   3.047   1.469   7.675 -0.5901 -0.8682 -1.6016
 8026SOL     OW35710   3.831   3.423   9.377  0.0673 -0.0649  0.1137
 8026SOL    HW135711   3.827   3.495   9.313 -1.2019  0.0977  0.3781
 8026SOL    HW235712   3.864   3.359   9.314 -0.2957 -0.3813  0.2451
 8027SOL     OW35713   4.183   3.251   4.239  0.6119  0.4158  0.5921
 8027SOL    HW135714   4.179   3.341   4.206  1.1600 -0.3101 -1.4583
 8027SOL    HW235715   4.095   3.221   4.261 -0.2921  1.1331 -2.0788
 8028SOL     OW35716   3.843   2.250   3.897  0.1111  0.0017 -0.2637
 8028SOL    HW135717   3.774   2.211   3.951  1.1951 -0.2350  0.9316
 8028SOL    HW235718   3.925   2.217   3.932 -0.2527 -0.8888 -0.2553
 8029SOL     OW35719   1.346   1.930   2.078  0.5221  0.4099 -0.2574
 8029SOL    HW135720   1.368   1.986   2.003  0.3135  1.6829  0.6259
 8029SOL    HW235721   1.360   1.982   2.157  1.3143 -1.0654  0.5556
 8030SOL     OW35722   0.975   2.871  12.109 -0.7749 -0.2076  0.0020
 8030SOL    HW135723   0.996   2.785  12.144 -1.1113 -0.6125 -0.8035
 8030SOL    HW235724   0.953   2.911  12.194 -1.5498  0.1592 -0.3710
 8031SOL     OW35725   3.658   4.353  15.755 -0.3799  0.1487 -0.0948
 8031SOL    HW135726   3.744   4.311  15.765 -0.6518 -0.1851  0.8006
 8031SOL    HW235727   3.609   4.304  15.690  1.6491 -1.4597 -0.3886
 8032SOL     OW35728   0.980   1.284   9.816 -0.3685  0.2165  0.3108
 8032SOL    HW135729   1.028   1.202   9.814  0.2342  0.5177  1.9379
 8032SOL    HW235730   0.975   1.301   9.910 -0.9388  1.3098  0.0838
 8033SOL     OW35731   4.097   0.754   5.127 -0.2536 -0.7953 -0.0760
 8033SOL    HW135732   4.129   0.694   5.059 -0.2525 -2.2314  1.1823
 8033SOL    HW235733   4.077   0.691   5.196 -0.0683 -4.3703 -3.2541
 8034SOL     OW35734   0.338   3.782  16.708  0.2741  0.2138 -0.1907
 8034SOL    HW135735   0.290   3.814  16.633 -0.3341  1.9463  0.9232
 8034SOL    HW235736   0.413   3.744  16.663  1.0820 -0.4061  1.6488
 8035SOL     OW35737   3.342   2.067   0.576  0.0978  0.0436 -0.0097
 8035SOL    HW135738   3.258   2.092   0.614  1.1327  1.7131  1.1927
 8035SOL    HW235739   3.332   2.104   0.489  0.2809 -0.2483 -0.1558
 8036SOL     OW35740   1.524   0.923  11.111  0.4291  0.2688  0.1115
 8036SOL    HW135741   1.599   0.899  11.166  2.2587  1.5614 -1.8017
 8036SOL    HW235742   1.446   0.891  11.157  0.8644  0.7303  1.1664
 8037SOL     OW35743   4.654   3.786   8.498  0.1452 -0.0166  0.2390
 8037SOL    HW135744   4.732   3.832   8.528 -1.0312  0.8697  1.9642
 8037SOL    HW235745   4.587   3.851   8.522 -0.8315 -0.5105 -1.1328
 8038SOL     OW35746   2.961   3.536  14.702  0.2985  0.2719  0.6386
 8038SOL    HW135747   2.938   3.497  14.786  1.0331 -0.9870  0.2428
 8038SOL    HW235748   2.930   3.464  14.647  1.6846 -0.3230  0.6608
 8039SOL     OW35749   3.233   1.294  11.314  0.5751 -0.2181 -0.1093
 8039SOL    HW135750   3.248   1.291  11.409 -3.8553 -0.5901  0.5835
 8039SOL    HW235751   3.290   1.221  11.288  0.0048 -0.6816 -0.0616
 8040SOL     OW35752   0.636   2.553  11.967  0.3846 -0.1349 -0.1554
 8040SOL    HW135753   0.628   2.537  11.873 -0.5478  1.5680 -0.3629
 8040SOL    HW235754   0.647   2.647  11.980 -2.4941  0.0481  0.8391
 8041SOL     OW35755   0.781   1.429  15.411 -0.0534 -0.0695 -0.0747
 8041SOL    HW135756   0.797   1.521  15.434  0.1283  0.1389 -1.0186
 8041SOL    HW235757   0.797   1.447  15.318  4.0542  1.5976  0.9572
 8042SOL     OW35758   4.471   2.874   7.268  0.0024 -0.0233 -0.2705
 8042SOL    HW135759   4.543   2.829   7.312 -0.6665 -2.4826 -1.7099
 8042SOL    HW235760   4.392   2.827   7.294  0.2000  0.0697  0.5211
 8043SOL     OW35761   3.686   2.090   6.799  0.0610 -0.0678  0.0284
 8043SOL    HW135762   3.771   2.066   6.761 -0.0849  0.9323 -0.9380
 8043SOL    HW235763   3.630   2.070   6.724 -0.3378  2.6387 -0.3786
 8044SOL     OW35764   3.570   0.497   4.645  0.4095  0.1885  0.8865
 8044SOL    HW135765   3.505   0.467   4.708 -0.6787 -1.7393 -1.1314
 8044SOL    HW235766   3.549   0.585   4.614  0.3638 -1.0985 -2.8233
 8045SOL     OW35767   3.928   2.515   1.962  0.2230  0.7071  0.2329
 8045SOL    HW135768   3.982   2.486   2.036 -1.9710  1.6714  2.1859
 8045SOL    HW235769   3.842   2.499   2.000  0.2198  0.4377  0.1118
 8046SOL     OW35770   2.557   2.638   3.518 -0.0395 -0.6869  0.1028
 8046SOL    HW135771   2.578   2.548   3.495 -2.7001 -1.2656 -0.0425
 8046SOL    HW235772   2.470   2.623   3.555 -0.0748  1.8942  1.0728
 8047SOL     OW35773   1.450   2.196   9.708  0.4047 -0.3990 -0.2924
 8047SOL    HW135774   1.502   2.245   9.772  1.4846 -0.5510 -1.0483
 8047SOL    HW235775   1.507   2.206   9.631  1.5451 -0.8630  0.4811
 8048SOL     OW35776   0.990   0.249   4.102 -0.3070 -0.6187 -0.0971
 8048SOL    HW135777   1.044   0.211   4.171 -1.5517 -0.5465  0.9203
 8048SOL    HW235778   1.055   0.272   4.035  1.3825 -0.1738  1.7016
 8049SOL     OW35779   3.081   2.154   1.958 -0.3958  0.5019  0.5095
 8049SOL    HW135780   3.040   2.161   1.872  0.4062 -1.3349 -0.0278
 8049SOL    HW235781   3.175   2.146   1.940 -0.1554 -0.4453  2.1950
 8050SOL     OW35782   2.691   2.851   2.214  0.2504 -0.3013 -0.4106
 8050SOL    HW135783   2.749   2.903   2.158 -1.5113  0.3271 -1.6555
 8050SOL    HW235784   2.741   2.771   2.232 -0.9492 -0.6390  1.4228
 8051SOL     OW35785   0.392   4.068   2.029  0.0733  0.9751 -0.0782
 8051SOL    HW135786   0.332   4.142   2.029 -2.8582 -1.4612 -4.0589
 8051SOL    HW235787   0.385   4.035   2.119 -1.5271 -0.4281 -0.7196
 8052SOL     OW35788   1.291   1.071   8.761 -0.1209 -0.1580 -0.0919
 8052SOL    HW135789   1.368   1.104   8.715  0.6962 -1.4709  0.3356
 8052SOL    HW235790   1.243   1.154   8.763 -0.7906 -0.5311 -0.4798
 8053SOL     OW35791   1.687   3.530   1.898 -0.2596  0.1672 -0.4854
 8053SOL    HW135792   1.679   3.625   1.891 -0.2236  0.0702 -1.9829
 8053SOL    HW235793   1.666   3.513   1.990 -0.3067 -1.5091 -0.8099
 8054SOL     OW35794   1.599   0.098   4.817  0.6659 -0.6007 -0.2436
 8054SOL    HW135795   1.507   0.097   4.843  0.8365 -2.8156  0.2882
 8054SOL    HW235796   1.641   0.136   4.895 -0.2431  0.2152 -0.1466
 8055SOL     OW35797   2.278   3.772   5.483 -0.1567  0.2756 -0.2468
 8055SOL    HW135798   2.194   3.813   5.498 -0.0741  0.3036  0.1346
 8055SOL    HW235799   2.302   3.742   5.571 -2.8408 -0.6416  0.1657
 8056SOL     OW35800   1.503   2.971   4.207 -0.0153 -0.2111 -0.5302
 8056SOL    HW135801   1.541   2.890   4.240  0.7930 -0.0750 -1.1325
 8056SOL    HW235802   1.575   3.008   4.156  2.1141 -0.8856  1.9708
 8057SOL     OW35803   1.501   3.166   2.586  0.8828  0.3563 -0.0579
 8057SOL    HW135804   1.408   3.155   2.566  0.5619  1.4668  0.7715
 8057SOL    HW235805   1.521   3.078   2.618  0.8403  0.8332  1.2901
 8058SOL     OW35806   1.742   3.781   3.178  0.0227 -0.1534 -0.6107
 8058SOL    HW135807   1.682   3.713   3.209  0.9311  0.5990  2.8129
 8058SOL    HW235808   1.822   3.765   3.228 -0.8238 -1.1176  0.4340
 8059SOL     OW35809   0.326   4.220   8.890 -0.0860 -0.0209  0.1143
 8059SOL    HW135810   0.329   4.214   8.986  0.0536  0.5594  0.1482
 8059SOL    HW235811   0.266   4.294   8.881  0.3735  0.0261 -2.6589
 8060SOL     OW35812   2.867   3.797   3.442  0.4236 -0.3695  0.1050
 8060SOL    HW135813   2.790   3.771   3.492 -0.8856  2.4451 -0.4781
 8060SOL    HW235814   2.838   3.868   3.386  0.5762 -1.1929 -1.0234
 8061SOL     OW35815   0.752   1.585   8.191  0.1781  0.1052  0.5615
 8061SOL    HW135816   0.843   1.598   8.219  0.1636 -0.8352  1.0317
 8061SOL    HW235817   0.742   1.513   8.253 -0.5225 -0.6630 -0.4644
 8062SOL     OW35818   0.338   1.971  12.715  0.0156  0.2602 -0.3504
 8062SOL    HW135819   0.405   1.979  12.646  0.9717  1.6897  0.7277
 8062SOL    HW235820   0.368   1.894  12.762 -0.2677  0.9085  0.8922
 8063SOL     OW35821   2.097   4.303  15.558  0.2728 -0.1453 -0.2375
 8063SOL    HW135822   2.059   4.318  15.644  2.6537 -1.1169  0.9808
 8063SOL    HW235823   2.053   4.368  15.503  0.5492 -0.8938 -1.3590
 8064SOL     OW35824   1.878   4.143   2.425 -0.1433  0.4352 -0.5310
 8064SOL    HW135825   1.827   4.141   2.506  0.6251 -0.5614 -0.0807
 8064SOL    HW235826   1.822   4.204   2.376 -1.1324 -0.3622 -0.4081
 8065SOL     OW35827   2.577   4.597  11.722 -0.1655  0.1932 -0.3055
 8065SOL    HW135828   2.637   4.564  11.655  1.8199  1.8834  0.6527
 8065SOL    HW235829   2.615   4.544  11.792 -0.1468  0.0555 -0.4206
 8066SOL     OW35830   3.907   3.619   1.979  0.0575 -0.4946 -0.4392
 8066SOL    HW135831   3.840   3.562   2.016  1.6811 -2.1304 -0.0353
 8066SOL    HW235832   3.984   3.577   2.017  1.6794  2.5917 -0.3133
 8067SOL     OW35833   1.014   2.624  16.377  0.7499  0.2384 -0.4373
 8067SOL    HW135834   0.972   2.610  16.291  0.8961 -2.5198 -0.0581
 8067SOL    HW235835   0.956   2.689  16.417 -0.5327 -0.1132 -1.7141
 8068SOL     OW35836   4.548   1.090   6.415  0.1350 -0.7034  0.3657
 8068SOL    HW135837   4.466   1.092   6.465  2.1672 -3.0241  3.8018
 8068SOL    HW235838   4.604   1.106   6.492  1.7459  0.8541 -1.1208
 8069SOL     OW35839   1.907   0.592   8.412  0.0938 -0.5875 -0.8616
 8069SOL    HW135840   1.951   0.564   8.493 -1.9604  1.4953  0.9888
 8069SOL    HW235841   1.831   0.634   8.451  1.6397 -0.0506  1.5937
 8070SOL     OW35842   0.802   2.272   6.417 -0.3328 -0.7477  0.2730
 8070SOL    HW135843   0.865   2.318   6.472 -2.5249  0.2953  1.9270
 8070SOL    HW235844   0.862   2.229   6.356 -0.6649 -2.5474  1.2231
 8071SOL     OW35845   1.054   3.663   6.094 -0.1625  0.8797 -0.3366
 8071SOL    HW135846   1.080   3.732   6.032  0.7929  0.4542 -0.4221
 8071SOL    HW235847   1.117   3.598   6.063 -0.3884  0.9862 -1.0135
 8072SOL     OW35848   3.999   0.128  16.820 -0.0449  0.0758  0.3560
 8072SOL    HW135849   3.995   0.033  16.818 -0.1811  0.1430 -1.9830
 8072SOL    HW235850   3.944   0.155  16.747  0.0772  0.0340  0.2484
 8073SOL     OW35851   3.829   4.670   7.726 -0.3325  0.8002  0.2992
 8073SOL    HW135852   3.826   4.592   7.670 -1.4602  0.9488  0.1576
 8073SOL    HW235853   3.753   4.644   7.778  1.4572 -0.3108  2.3909
 8074SOL     OW35854   4.421   0.876   4.926  0.4643  0.4237  0.1514
 8074SOL    HW135855   4.401   0.832   4.844  0.6505  1.2016 -0.3195
 8074SOL    HW235856   4.444   0.801   4.980  0.5468 -0.9683 -1.8323
 8075SOL     OW35857   1.211   1.904   4.331 -0.6466 -0.1826  0.6166
 8075SOL    HW135858   1.288   1.940   4.287 -1.7242  1.7095  0.2919
 8075SOL    HW235859   1.194   1.973   4.396 -2.1569  0.9953 -1.0467
 8076SOL     OW35860   0.990   2.855   4.503 -0.3653  0.5892  0.0121
 8076SOL    HW135861   1.009   2.930   4.446 -4.3051  0.9383 -0.8651
 8076SOL    HW235862   0.901   2.830   4.477 -0.5290  1.1835 -0.0035
 8077SOL     OW35863   0.399   1.071  13.864 -0.8805  0.0522 -0.0108
 8077SOL    HW135864   0.468   1.015  13.900 -1.0745  0.5522  1.1479
 8077SOL    HW235865   0.458   1.123  13.810  1.1035 -1.9750  0.1756
 8078SOL     OW35866   2.431   4.381  11.985  0.0846  0.3668  0.2979
 8078SOL    HW135867   2.426   4.385  12.081  3.4433  0.1227  0.4766
 8078SOL    HW235868   2.514   4.424  11.968 -1.1588  3.3817  1.9463
 8079SOL     OW35869   4.563   4.546   6.367 -0.8121 -0.1046  0.1588
 8079SOL    HW135870   4.590   4.540   6.276 -0.3830 -1.0511  0.3427
 8079SOL    HW235871   4.549   4.457   6.399 -0.5382  0.6440  2.3986
 8080SOL     OW35872   2.362   2.890   4.319  0.1332  0.2155 -0.3215
 8080SOL    HW135873   2.435   2.923   4.268  0.3998 -0.9727 -0.7146
 8080SOL    HW235874   2.382   2.800   4.343  1.0931  0.1228 -1.4700
 8081SOL     OW35875   0.405   0.587   5.639 -0.0572 -0.0556 -0.3752
 8081SOL    HW135876   0.413   0.492   5.631 -4.4729 -0.2565 -2.2793
 8081SOL    HW235877   0.321   0.593   5.685  0.7871  2.3970  0.8515
 8082SOL     OW35878   3.621   0.250   2.528  0.0219  0.2835  0.1207
 8082SOL    HW135879   3.553   0.228   2.592 -0.5492  1.1799 -0.1731
 8082SOL    HW235880   3.620   0.346   2.522 -0.8110  0.1782 -1.3881
 8083SOL     OW35881   2.123   0.535  12.694 -0.1670 -0.6843 -0.0300
 8083SOL    HW135882   2.186   0.599  12.727  0.0569  0.5395 -2.7918
 8083SOL    HW235883   2.183   0.479  12.644  2.5355 -0.1175  2.5394
 8084SOL     OW35884   2.539   4.562   8.463  0.3390 -0.1350 -0.2713
 8084SOL    HW135885   2.630   4.535   8.473 -0.3360 -2.3765 -0.1272
 8084SOL    HW235886   2.494   4.505   8.525  0.2927  0.1974  0.0023
 8085SOL     OW35887   4.222   4.407   1.899 -0.1195 -0.5412 -0.2458
 8085SOL    HW135888   4.237   4.355   1.820  0.6364 -0.0206 -0.4471
 8085SOL    HW235889   4.246   4.344   1.967 -1.5186  0.7775  1.4787
 8086SOL     OW35890   2.689   4.494   9.734 -0.6676  0.4484  0.1450
 8086SOL    HW135891   2.616   4.522   9.789 -1.0978 -1.3009  0.4714
 8086SOL    HW235892   2.680   4.399   9.746  1.9445  0.3744  1.4942
 8087SOL     OW35893   2.331   3.338   3.739 -0.0516  0.4141  0.2946
 8087SOL    HW135894   2.315   3.379   3.824  1.4984 -0.0570  0.8060
 8087SOL    HW235895   2.426   3.339   3.745 -0.1021 -1.9447  1.7049
 8088SOL     OW35896   3.456   3.265   1.424 -0.1933  0.6834 -0.2110
 8088SOL    HW135897   3.515   3.259   1.499 -0.8534 -0.8933  0.1975
 8088SOL    HW235898   3.508   3.241   1.347 -0.6082 -4.0243  0.9512
 8089SOL     OW35899   4.687   3.353   0.607  0.2551  0.0298 -0.2023
 8089SOL    HW135900   4.618   3.292   0.635 -0.8654  1.1772 -0.4553
 8089SOL    HW235901   0.006   3.293   0.555 -4.0518 -0.5898 -3.8697
 8090SOL     OW35902   1.827   4.614   6.827 -0.2774 -0.0124  0.2924
 8090SOL    HW135903   1.882   4.639   6.901 -0.2366 -0.4691  0.4160
 8090SOL    HW235904   1.871   4.654   6.752 -1.5257  0.1963 -0.3278
 8091SOL     OW35905   0.213   4.013   3.793 -0.7209  0.1162  0.6174
 8091SOL    HW135906   0.246   3.924   3.779 -0.8333 -0.1411  1.9940
 8091SOL    HW235907   0.119   3.996   3.799 -0.8997  1.0297  0.2624
 8092SOL     OW35908   3.377   2.668   7.622  0.4490  0.0131  0.6598
 8092SOL    HW135909   3.339   2.620   7.696 -0.5880  1.3057  0.9566
 8092SOL    HW235910   3.382   2.755   7.660 -0.2416  0.7095 -0.8418
 8093SOL     OW35911   4.517   2.425   6.339  0.6525  0.1163 -0.0271
 8093SOL    HW135912   4.509   2.477   6.418  0.6675  0.9475 -0.5715
 8093SOL    HW235913   4.426   2.430   6.308  0.8398 -0.4110 -0.6752
 8094SOL     OW35914   0.686   2.174  16.594 -1.1569 -0.3067  0.3839
 8094SOL    HW135915   0.739   2.244  16.556 -0.4221 -0.4453  1.1482
 8094SOL    HW235916   0.750   2.129  16.648 -0.9479 -1.7776 -1.1065
 8095SOL     OW35917   2.169   1.023   7.302 -0.0071 -0.0577  0.0546
 8095SOL    HW135918   2.135   1.108   7.275 -0.5571 -0.6248 -1.0296
 8095SOL    HW235919   2.145   1.014   7.394  0.5396  0.9118  0.2959
 8096SOL     OW35920   2.076   0.271   6.421  0.7188  0.1391 -0.3940
 8096SOL    HW135921   2.070   0.182   6.387 -0.7659  1.0081 -2.3668
 8096SOL    HW235922   2.119   0.315   6.348 -1.5685  2.6176 -0.2405
 8097SOL     OW35923   2.784   1.125  16.858 -0.3495  0.0672 -0.0384
 8097SOL    HW135924   2.720   1.133  16.787 -0.4776  1.3339  0.2157
 8097SOL    HW235925   2.809   1.034  16.845  0.8703  0.3461  0.4561
 8098SOL     OW35926   0.183   2.497   6.177 -0.2022  0.4499 -0.5419
 8098SOL    HW135927   0.234   2.568   6.216 -0.4635  0.2043  0.2368
 8098SOL    HW235928   0.118   2.540   6.121 -0.5934  1.5218  0.7325
 8099SOL     OW35929   4.235   4.255   1.645  0.0650  0.3555  0.1567
 8099SOL    HW135930   4.171   4.245   1.576 -1.5877 -3.0933  2.2139
 8099SOL    HW235931   4.314   4.284   1.599 -0.2399 -0.2099 -0.7061
 8100SOL     OW35932   0.983   0.561   8.137  0.2094  0.9746  0.2574
 8100SOL    HW135933   1.003   0.546   8.229 -0.4491  0.7505  0.3642
 8100SOL    HW235934   0.913   0.499   8.116  1.7845 -0.8160  0.2697
 8101SOL     OW35935   3.514   4.244   6.931 -0.1969  0.0211  0.5039
 8101SOL    HW135936   3.449   4.304   6.897  0.8945  0.4894 -0.7678
 8101SOL    HW235937   3.475   4.232   7.017  2.7433  0.4166  1.8916
 8102SOL     OW35938   1.392   2.669   2.823  0.0275 -0.2233  0.0744
 8102SOL    HW135939   1.306   2.633   2.801 -0.8517  2.9575 -1.6156
 8102SOL    HW235940   1.387   2.667   2.919 -1.1822  3.1743  0.0780
 8103SOL     OW35941   2.707   1.886  12.566  0.5306 -0.2714  0.1713
 8103SOL    HW135942   2.737   1.853  12.481 -0.0665  0.5245 -0.3561
 8103SOL    HW235943   2.679   1.970  12.528 -2.5499 -0.5027  1.9282
 8104SOL     OW35944   2.844   1.086  14.793  0.2691  0.0712 -0.4579
 8104SOL    HW135945   2.843   1.039  14.710 -1.4413 -0.2544 -0.2583
 8104SOL    HW235946   2.814   1.175  14.773 -2.1274  0.0321  2.9801
 8105SOL     OW35947   0.544   2.087   3.457 -0.1364  0.2204  0.1147
 8105SOL    HW135948   0.561   2.068   3.549  0.5559  2.4068  0.4395
 8105SOL    HW235949   0.624   2.053   3.418 -0.6470 -1.1338  0.2683
 8106SOL     OW35950   4.163   3.731   2.156  0.0127  0.3880 -1.0485
 8106SOL    HW135951   4.160   3.635   2.156  0.0181  0.3881 -0.9036
 8106SOL    HW235952   4.126   3.757   2.072 -0.5611 -1.8742 -1.5113
 8107SOL     OW35953   4.434   0.884  10.645 -0.2493 -0.3593  0.4824
 8107SOL    HW135954   4.346   0.872  10.681 -1.4696  1.7099 -1.7920
 8107SOL    HW235955   4.464   0.953  10.704  0.6035 -0.8122  0.5822
 8108SOL     OW35956   0.179   2.709   5.161 -0.7858  0.0008  0.5098
 8108SOL    HW135957   0.272   2.686   5.168 -0.4757  1.3142  0.8326
 8108SOL    HW235958   0.188   2.803   5.145  2.9924 -0.9913 -3.2036
 8109SOL     OW35959   1.567   1.283   8.342  0.2325  0.7310  0.2213
 8109SOL    HW135960   1.539   1.196   8.315  0.3648  0.6816  0.2438
 8109SOL    HW235961   1.643   1.260   8.394 -0.8497  0.0815  1.5171
 8110SOL     OW35962   1.330   0.599  10.099 -0.3208 -0.1420 -0.6054
 8110SOL    HW135963   1.235   0.613  10.103 -0.2371 -0.4200  2.3289
 8110SOL    HW235964   1.363   0.611  10.188 -1.1571 -2.2378  0.0100
 8111SOL     OW35965   3.692   3.622  17.656 -0.1787  0.1595  0.2401
 8111SOL    HW135966   3.616   3.642  17.711 -0.3081  2.0402 -0.6363
 8111SOL    HW235967   3.743   3.703  17.657 -1.6394  1.0853  0.2980
 8112SOL     OW35968   0.710   1.676   4.411 -0.1149  0.2528  0.5574
 8112SOL    HW135969   0.804   1.657   4.413  0.3018  2.1930  0.0858
 8112SOL    HW235970   0.711   1.748   4.474  0.5800  1.1395 -0.4587
 8113SOL     OW35971   0.260   0.059  11.537 -0.2136  0.1059  0.1085
 8113SOL    HW135972   0.176   0.018  11.519  0.4141 -1.8668  1.6677
 8113SOL    HW235973   0.320   4.721  11.560 -1.4059 -0.9028  0.0702
 8114SOL     OW35974   2.732   0.378   2.249 -0.1119 -0.7588  0.3647
 8114SOL    HW135975   2.779   0.359   2.330 -0.6505  1.3643  1.1818
 8114SOL    HW235976   2.666   0.310   2.240 -0.8246  0.0714 -0.6593
 8115SOL     OW35977   3.332   2.178   4.712 -0.5090  0.2477  0.0451
 8115SOL    HW135978   3.277   2.210   4.640  0.6902 -1.4751 -1.6149
 8115SOL    HW235979   3.368   2.259   4.747 -0.2084  1.5627 -3.4017
 8116SOL     OW35980   4.414   4.096   6.940  0.5823 -0.2635  0.1796
 8116SOL    HW135981   4.452   4.145   7.013  1.7435 -0.4219 -0.3155
 8116SOL    HW235982   4.327   4.089   6.979  1.5086 -0.3834  2.2122
 8117SOL     OW35983   1.257   3.131  10.827 -0.0015  0.5039  0.1283
 8117SOL    HW135984   1.312   3.117  10.904 -0.6771  0.4334  0.5962
 8117SOL    HW235985   1.259   3.043  10.788  0.0492  0.0591  1.1142
 8118SOL     OW35986   1.387   1.306   7.051 -0.1450 -0.0566 -0.3692
 8118SOL    HW135987   1.406   1.221   7.091 -1.5383 -0.0746  0.2715
 8118SOL    HW235988   1.427   1.367   7.112 -1.8657 -0.6739  1.3711
 8119SOL     OW35989   2.295   0.743   1.447  0.1876 -0.3093 -0.0410
 8119SOL    HW135990   2.310   0.818   1.389 -0.5618 -0.2932 -0.2181
 8119SOL    HW235991   2.381   0.702   1.439  1.9351  3.4858 -0.7995
 8120SOL     OW35992   2.194   1.237   2.659 -0.3800 -0.8066 -0.2061
 8120SOL    HW135993   2.256   1.181   2.613  0.4375  0.0412 -0.1556
 8120SOL    HW235994   2.165   1.281   2.579 -2.2045 -0.3364  0.7051
 8121SOL     OW35995   4.339   3.390   7.781 -0.4120 -0.0590  0.5340
 8121SOL    HW135996   4.389   3.366   7.859  0.6320 -1.7285 -0.6482
 8121SOL    HW235997   4.400   3.447   7.734  0.3695 -1.5059 -0.1798
 8122SOL     OW35998   0.889   2.572   2.862  0.2522 -0.0396  0.2930
 8122SOL    HW135999   0.926   2.654   2.895  3.1162 -0.6488 -1.3532
 8122SOL    HW236000   0.855   2.529   2.940  0.5933  0.3960  0.6860
 8123SOL     OW36001   2.671   4.224   5.515  0.4201 -0.5008 -0.1982
 8123SOL    HW136002   2.748   4.200   5.464 -0.0578 -1.3963 -0.4894
 8123SOL    HW236003   2.611   4.161   5.476 -0.7609  0.5695 -0.0902
 8124SOL     OW36004   4.436   2.227   8.963  0.5071  0.0557 -0.0310
 8124SOL    HW136005   4.479   2.310   8.944 -0.0905 -0.7892 -5.0770
 8124SOL    HW236006   4.411   2.234   9.056 -1.6682 -0.6591 -0.5443
 8125SOL     OW36007   3.552   1.418   6.088  0.8901  0.2213  0.2074
 8125SOL    HW136008   3.643   1.396   6.109  0.6755 -1.0245 -0.1337
 8125SOL    HW236009   3.508   1.378   6.163  1.8575  1.1810  1.2609
 8126SOL     OW36010   0.727   3.166   3.322 -0.3710 -0.4993  0.5256
 8126SOL    HW136011   0.641   3.168   3.282  0.1004  1.9109 -0.3692
 8126SOL    HW236012   0.783   3.131   3.253 -0.1583 -0.2721  0.5778
 8127SOL     OW36013   2.827   2.681   3.261  0.2653  1.1289  0.1010
 8127SOL    HW136014   2.866   2.696   3.175  2.6363 -2.7092  0.5118
 8127SOL    HW236015   2.862   2.752   3.316  0.6356 -0.1654  1.5641
 8128SOL     OW36016   0.943   0.570   4.226 -0.1647  0.4343  0.1493
 8128SOL    HW136017   0.968   0.509   4.295 -1.2997  1.2996  1.3122
 8128SOL    HW236018   0.903   0.508   4.165  1.2120  1.7008 -2.0295
 8129SOL     OW36019   1.511   3.935   7.737 -0.0675  0.2386  0.1426
 8129SOL    HW136020   1.478   3.863   7.683 -1.1795  0.8612 -0.0213
 8129SOL    HW236021   1.505   3.905   7.828  1.6494 -3.6506 -1.0311
 8130SOL     OW36022   4.364   2.233  15.798 -0.0945 -0.3418  0.0411
 8130SOL    HW136023   4.270   2.217  15.812 -0.0262 -0.5977  0.2053
 8130SOL    HW236024   4.388   2.271  15.882  2.3992  1.2306 -1.3845
 8131SOL     OW36025   3.362   4.698   5.426 -0.5034  0.1024  0.1637
 8131SOL    HW136026   3.410   0.029   5.477 -1.7983  0.7619  0.5233
 8131SOL    HW236027   3.405   4.616   5.450  2.1281  1.9848  1.8992
 8132SOL     OW36028   0.878   3.984  10.477 -0.1057  0.0132 -0.4102
 8132SOL    HW136029   0.929   4.028  10.409 -1.5914  1.4180 -0.6088
 8132SOL    HW236030   0.813   3.937  10.425 -0.3020  1.2571 -1.2826
 8133SOL     OW36031   2.060   1.352   5.018  0.3451 -0.1940 -0.1005
 8133SOL    HW136032   2.073   1.387   5.106  0.4148 -1.1097  0.2478
 8133SOL    HW236033   2.151   1.350   4.991 -0.2113 -1.1708 -1.8679
 8134SOL     OW36034   2.998   2.693   5.479  0.2578  0.5158  0.8303
 8134SOL    HW136035   3.093   2.692   5.462  0.0905 -3.7519  0.0991
 8134SOL    HW236036   2.964   2.767   5.429 -2.0551 -1.5817 -0.6967
 8135SOL     OW36037   0.398   0.123   7.446  0.0339  0.1305  0.0305
 8135SOL    HW136038   0.353   0.151   7.525  1.6207  1.2597  0.5486
 8135SOL    HW236039   0.345   0.046   7.427 -0.5431  0.9191 -1.5842
 8136SOL     OW36040   3.235   3.815   1.414  0.6755 -0.0749  0.3300
 8136SOL    HW136041   3.285   3.861   1.481 -1.2958  2.1512  0.3118
 8136SOL    HW236042   3.221   3.889   1.354  0.9327  0.8283  1.3949
 8137SOL     OW36043   2.809   1.032   0.423 -0.5366 -0.1317 -0.0883
 8137SOL    HW136044   2.760   1.080   0.357 -0.2592 -0.5541 -0.5991
 8137SOL    HW236045   2.778   0.946   0.397 -1.8565 -0.0657  1.2665
 8138SOL     OW36046   0.695   3.274   9.323  0.0076 -0.0055  0.0387
 8138SOL    HW136047   0.775   3.236   9.358  0.4258  0.2856 -0.6042
 8138SOL    HW236048   0.657   3.286   9.410  1.4946 -0.9685  0.8186
 8139SOL     OW36049   2.225   1.561   9.044 -0.1073 -0.0688  0.2942
 8139SOL    HW136050   2.311   1.520   9.030 -0.2694 -1.0128  2.0721
 8139SOL    HW236051   2.236   1.655   9.029 -0.8056 -0.0932 -0.3862
 8140SOL     OW36052   2.566   3.629  14.795 -0.2770 -0.2898  0.4862
 8140SOL    HW136053   2.633   3.690  14.764  0.3349 -2.2251 -2.0773
 8140SOL    HW236054   2.534   3.601  14.709 -0.2207 -0.5346  0.5431
 8141SOL     OW36055   2.990   2.364  12.165  0.2269  0.0999  0.0736
 8141SOL    HW136056   3.045   2.286  12.168 -0.6722 -0.4554  1.8203
 8141SOL    HW236057   3.048   2.441  12.165 -0.6580  0.7560  1.6431
 8142SOL     OW36058   1.969   3.080  15.569 -0.3242 -0.3880 -0.4899
 8142SOL    HW136059   2.051   3.059  15.524 -0.7012 -1.5790 -0.6277
 8142SOL    HW236060   1.988   3.085  15.663  0.6919  2.1035 -0.8310
 8143SOL     OW36061   2.451   2.620   5.487  0.8005  0.2194  0.1027
 8143SOL    HW136062   2.503   2.593   5.563 -1.5955  1.3076  2.1347
 8143SOL    HW236063   2.455   2.710   5.517  1.6981 -0.7967  3.0268
 8144SOL     OW36064   3.153   4.203   5.494 -0.2361 -0.5786  0.1965
 8144SOL    HW136065   3.175   4.178   5.404 -2.9444 -0.1403 -0.5807
 8144SOL    HW236066   3.084   4.266   5.473  0.7952  0.2780 -0.6486
 8145SOL     OW36067   2.648   1.278   7.556 -0.0350 -0.2365  0.0889
 8145SOL    HW136068   2.582   1.228   7.603 -0.9226 -3.3627 -4.4940
 8145SOL    HW236069   2.727   1.225   7.564 -0.8430 -1.8161 -2.3693
 8146SOL     OW36070   3.430   3.097   7.302 -0.5479  0.1278  0.2556
 8146SOL    HW136071   3.415   3.192   7.298  2.7035  0.6273 -0.1298
 8146SOL    HW236072   3.506   3.097   7.360 -1.4713  0.1345  1.4560
 8147SOL     OW36073   3.514   0.961  12.420 -0.3908 -0.4593 -0.0860
 8147SOL    HW136074   3.438   0.926  12.466 -0.8988  1.2022  0.3390
 8147SOL    HW236075   3.480   1.041  12.380 -1.1822 -1.7560 -1.9799
 8148SOL     OW36076   4.092   2.388   2.144 -0.0998  0.3738  0.1433
 8148SOL    HW136077   4.163   2.406   2.205  0.2837 -0.3889 -0.0818
 8148SOL    HW236078   4.022   2.387   2.209  0.1755  1.9345  0.4623
 8149SOL     OW36079   2.371   4.266   4.422  0.0324 -0.0977 -0.4164
 8149SOL    HW136080   2.460   4.280   4.453 -1.4222  1.1805  3.1851
 8149SOL    HW236081   2.392   4.272   4.329 -0.6898  0.2541 -0.5583
 8150SOL     OW36082   2.793   3.967   7.550  0.3514 -0.1023 -0.2343
 8150SOL    HW136083   2.741   3.945   7.473  0.0011  1.2503 -0.3843
 8150SOL    HW236084   2.758   3.912   7.620 -0.7992 -0.8822 -1.4308
 8151SOL     OW36085   2.279   1.674   7.455 -0.5521  0.1372 -0.2696
 8151SOL    HW136086   2.344   1.743   7.438 -0.6559 -0.2524 -2.2197
 8151SOL    HW236087   2.228   1.706   7.529  2.5528  2.1300  1.0169
 8152SOL     OW36088   0.565   3.511   9.747 -0.2647  0.0028 -0.4803
 8152SOL    HW136089   0.536   3.569   9.818 -0.5104 -0.8452  0.1258
 8152SOL    HW236090   0.552   3.564   9.669  0.1396 -0.4645 -0.8592
 8153SOL     OW36091   1.789   3.822   1.591 -0.0141 -0.9298  0.0178
 8153SOL    HW136092   1.737   3.868   1.525  1.7963  0.0179 -0.7533
 8153SOL    HW236093   1.875   3.864   1.593  0.5105 -1.8681 -2.0727
 8154SOL     OW36094   4.608   3.396   3.917 -0.0341  0.2721  0.1355
 8154SOL    HW136095   4.600   3.328   3.985 -1.0573 -0.0211 -0.2898
 8154SOL    HW236096   4.595   3.475   3.969 -0.2330  1.2534 -1.4041
 8155SOL     OW36097   3.778   3.381   5.914 -0.4092 -0.0483  0.1842
 8155SOL    HW136098   3.738   3.331   5.985 -0.5681 -1.5274 -0.9604
 8155SOL    HW236099   3.835   3.439   5.964  0.8773  0.2839 -1.6838
 8156SOL     OW36100   4.609   4.029   0.832  0.4987 -0.2854  0.2957
 8156SOL    HW136101   4.590   3.935   0.834  0.1144 -0.2217 -0.3147
 8156SOL    HW236102   4.531   4.067   0.873  0.7394  1.5010 -0.9279
 8157SOL     OW36103   2.523   3.248  15.715  0.3323 -0.1647 -0.3633
 8157SOL    HW136104   2.556   3.160  15.730 -0.4778 -0.5315 -0.6972
 8157SOL    HW236105   2.442   3.242  15.766 -0.3917  0.5557 -1.4320
 8158SOL     OW36106   0.971   2.815   2.938  0.4335  0.0891 -0.0109
 8158SOL    HW136107   0.908   2.887   2.926 -0.6595 -0.8579  0.0847
 8158SOL    HW236108   1.036   2.844   2.874  0.3903  0.1196 -0.0410
 8159SOL     OW36109   2.632   1.309   8.496 -0.6432 -0.4115 -0.3741
 8159SOL    HW136110   2.692   1.380   8.472 -0.6749 -0.8572 -1.8093
 8159SOL    HW236111   2.602   1.341   8.581  0.4348  0.8321 -0.4617
 8160SOL     OW36112   1.384   3.937  16.645  0.1896  0.2018  0.9338
 8160SOL    HW136113   1.370   3.975  16.558  0.8024 -1.7995 -0.0406
 8160SOL    HW236114   1.371   3.846  16.619 -1.6123  1.2002 -1.6936
 8161SOL     OW36115   0.090   2.616  16.060 -0.1456  0.2807  0.2587
 8161SOL    HW136116   0.010   2.629  16.110 -0.6050 -1.6390  0.0121
 8161SOL    HW236117   0.105   2.699  16.015  0.5960  0.2544  0.4554
 8162SOL     OW36118   0.868   3.184  11.750  0.0515  0.2712 -0.3034
 8162SOL    HW136119   0.878   3.173  11.655 -0.2366  0.4934 -0.3580
 8162SOL    HW236120   0.897   3.096  11.774  0.8754  0.8029  0.6428
 8163SOL     OW36121   2.822   4.126   6.302  0.1225  0.6533  0.1938
 8163SOL    HW136122   2.820   4.042   6.349  0.7251  0.9916  0.8193
 8163SOL    HW236123   2.729   4.147   6.292 -0.1379 -1.5592 -2.0284
 8164SOL     OW36124   3.689   2.414   8.741 -0.3391 -0.4695  0.5768
 8164SOL    HW136125   3.667   2.393   8.832  1.3558 -0.1276  1.0642
 8164SOL    HW236126   3.735   2.332   8.721  0.8851  0.2169  0.6072
 8165SOL     OW36127   4.502   2.138   6.460  0.0491  0.3809 -0.0641
 8165SOL    HW136128   4.468   2.227   6.447  0.5177  0.5736  0.0522
 8165SOL    HW236129   4.587   2.161   6.423  0.3179  0.8439  0.8217
 8166SOL     OW36130   4.191   0.122   2.425  0.3108  0.2206 -0.0362
 8166SOL    HW136131   4.128   0.070   2.475 -1.5459  2.7059  0.2104
 8166SOL    HW236132   4.234   0.049   2.380  0.7008  0.0848  0.5542
 8167SOL     OW36133   1.096   1.884   3.433 -0.1173  0.2467  0.2827
 8167SOL    HW136134   1.085   1.800   3.477  2.5793 -0.5719 -0.6141
 8167SOL    HW236135   1.052   1.939   3.498 -1.4483 -0.5970  0.0867
 8168SOL     OW36136   1.859   2.255   5.790  0.5833  0.4862 -0.3566
 8168SOL    HW136137   1.806   2.225   5.864  0.9860  0.5229 -0.0608
 8168SOL    HW236138   1.948   2.239   5.819  0.8155 -0.1714 -1.3943
 8169SOL     OW36139   1.665   2.699   4.036  0.3826 -0.0061 -0.5299
 8169SOL    HW136140   1.688   2.606   4.025 -2.2169 -1.0781  3.1885
 8169SOL    HW236141   1.663   2.710   4.131  2.9987  0.6046 -0.5490
 8170SOL     OW36142   2.800   0.271  12.826  0.7263 -0.6134 -0.0375
 8170SOL    HW136143   2.884   0.305  12.857  0.0599 -0.8289  2.0157
 8170SOL    HW236144   2.766   0.227  12.903  1.2358 -3.4051 -1.3938
 8171SOL     OW36145   4.733   1.343   5.442  0.0193 -0.0963 -0.2137
 8171SOL    HW136146   4.693   1.275   5.387  0.4346  0.5841 -1.3643
 8171SOL    HW236147   0.081   1.310   5.478 -0.4623 -0.7472  0.3000
 8172SOL     OW36148   0.972   0.755  10.079  0.0681  0.0218  0.1486
 8172SOL    HW136149   0.979   0.675  10.027 -0.1239 -0.3812  0.7453
 8172SOL    HW236150   0.948   0.711  10.160  1.5633 -1.1853 -0.0651
 8173SOL     OW36151   1.308   3.369   6.666 -0.4042 -0.4931 -0.5011
 8173SOL    HW136152   1.278   3.280   6.646  0.9980 -1.2116  0.5306
 8173SOL    HW236153   1.224   3.407   6.643 -0.2959  1.0158  1.5738
 8174SOL     OW36154   2.232   4.246   2.285 -0.5122  0.5667  0.0972
 8174SOL    HW136155   2.175   4.187   2.236 -0.6010  0.2896  0.5383
 8174SOL    HW236156   2.221   4.203   2.370  0.0414 -2.9809 -1.5873
 8175SOL     OW36157   3.450   3.947   7.308 -0.1495  0.1595  0.5205
 8175SOL    HW136158   3.536   3.912   7.332 -0.4008  0.1024  1.3655
 8175SOL    HW236159   3.452   3.962   7.214 -0.6603 -1.0126  0.3255
 8176SOL     OW36160   4.508   0.232  13.163 -0.2500  0.2457  0.1798
 8176SOL    HW136161   4.510   0.253  13.257 -3.7593 -0.5133  0.4639
 8176SOL    HW236162   4.557   0.150  13.166  0.9235  1.0099  2.3523
 8177SOL     OW36163   1.204   1.197  13.617  0.3925 -0.4688  0.6930
 8177SOL    HW136164   1.289   1.219  13.655  0.5115 -0.7401  0.5837
 8177SOL    HW236165   1.235   1.203  13.526  0.7589  1.0181  0.9113
 8178SOL     OW36166   1.251   3.053   1.497 -0.0966  0.1613 -0.0402
 8178SOL    HW136167   1.340   3.087   1.505  0.1217 -0.9270  1.9803
 8178SOL    HW236168   1.191   3.121   1.528 -0.8004 -0.9478  0.9967
 8179SOL     OW36169   4.053   2.263  16.075  0.0396  0.0093 -0.1155
 8179SOL    HW136170   4.074   2.291  16.164 -1.9162 -1.4377  0.7945
 8179SOL    HW236171   4.137   2.283  16.033  0.3008 -1.3918 -0.2620
 8180SOL     OW36172   3.817   3.619   4.664  0.5772 -0.1265 -0.2332
 8180SOL    HW136173   3.896   3.573   4.635  1.3856  0.8546  0.4234
 8180SOL    HW236174   3.741   3.565   4.645  0.3156 -0.0782  0.6779
 8181SOL     OW36175   1.620   2.439   4.255  0.2114  0.0664  0.3527
 8181SOL    HW136176   1.655   2.435   4.166  2.6193  0.6534  1.2850
 8181SOL    HW236177   1.669   2.380   4.312 -0.3850 -1.4796 -0.7404
 8182SOL     OW36178   3.497   1.366   1.219 -0.1602 -0.0872  0.1861
 8182SOL    HW136179   3.543   1.361   1.135  0.8580  0.0439  0.7414
 8182SOL    HW236180   3.559   1.365   1.291 -1.4599 -0.0266  1.2970
 8183SOL     OW36181   0.967   2.050   3.595  0.0180  0.7716  0.4705
 8183SOL    HW136182   0.907   2.042   3.670 -0.1283  0.5185  0.3291
 8183SOL    HW236183   0.906   2.049   3.521 -0.0096 -2.1019  0.5216
 8184SOL     OW36184   4.567   4.103   8.788  0.2174 -0.0164  0.0170
 8184SOL    HW136185   4.503   4.079   8.855 -0.6636 -0.3002 -0.9351
 8184SOL    HW236186   4.614   4.156   8.852 -1.7126  0.4740  1.0345
 8185SOL     OW36187   0.851   1.361   7.289  0.1903 -1.0015  0.2109
 8185SOL    HW136188   0.849   1.354   7.384  0.0607  2.7070  0.4870
 8185SOL    HW236189   0.871   1.273   7.256  0.1081 -0.8115 -0.3394
 8186SOL     OW36190   3.087   2.618   7.125  0.2969  0.8201  0.0397
 8186SOL    HW136191   3.136   2.541   7.099 -0.1224  1.1479 -1.6901
 8186SOL    HW236192   2.996   2.595   7.106  0.6948 -2.3551  2.0653
 8187SOL     OW36193   0.519   3.212  10.687  0.1474  0.0177 -0.1197
 8187SOL    HW136194   0.613   3.228  10.679  0.3840 -2.5382 -2.3095
 8187SOL    HW236195   0.511   3.258  10.771 -1.3815 -0.3624 -0.0632
 8188SOL     OW36196   4.499   2.971  13.441 -0.1325  0.0265  0.0057
 8188SOL    HW136197   4.408   3.003  13.441  0.0975  0.6757  0.0193
 8188SOL    HW236198   4.510   2.944  13.532 -1.3523  0.7984  0.3945
 8189SOL     OW36199   4.629   2.340   7.968 -0.3425  0.4027  0.2270
 8189SOL    HW136200   4.615   2.422   7.920  0.2697  0.3179 -0.0846
 8189SOL    HW236201   4.556   2.324   8.029 -1.6895  1.3852 -1.1121
 8190SOL     OW36202   4.427   4.657   9.082  0.2870  0.2863  0.0651
 8190SOL    HW136203   4.410   4.576   9.033 -1.0133  0.8706 -0.4408
 8190SOL    HW236204   4.521   4.649   9.099  0.9596  0.7502 -3.4770
 8191SOL     OW36205   1.476   0.910   0.812  0.0899 -0.7050 -0.1608
 8191SOL    HW136206   1.513   0.964   0.882  2.6164 -4.3074  1.2457
 8191SOL    HW236207   1.531   0.832   0.814 -0.8334 -1.3665 -0.7021
 8192SOL     OW36208   2.981   0.736   5.702 -0.9290 -0.0224 -0.0822
 8192SOL    HW136209   3.023   0.819   5.680  0.7615 -0.4722  1.4880
 8192SOL    HW236210   2.894   0.769   5.722 -1.0069 -0.4752  0.3247
 8193SOL     OW36211   1.097   0.831   9.061 -0.0679  0.4801 -0.4897
 8193SOL    HW136212   1.178   0.872   9.029 -0.1633 -0.3904 -1.8618
 8193SOL    HW236213   1.057   0.916   9.081  1.4846  0.7745  1.4420
 8194SOL     OW36214   0.076   1.546   8.468  0.0046  0.2587 -0.1753
 8194SOL    HW136215   0.112   1.632   8.448  1.5635 -0.1691  0.8849
 8194SOL    HW236216   0.152   1.498   8.499  0.2014  0.4744 -0.3302
 8195SOL     OW36217   1.759   4.365  10.099 -0.5202 -0.0673  0.8193
 8195SOL    HW136218   1.828   4.348  10.164 -0.1318  0.6065  0.5861
 8195SOL    HW236219   1.718   4.435  10.148 -1.1720  0.6224 -0.7235
 8196SOL     OW36220   1.896   1.199  10.907  0.0757 -0.1498 -0.3596
 8196SOL    HW136221   1.911   1.122  10.853  0.5281  0.0121 -0.4591
 8196SOL    HW236222   1.874   1.149  10.986  3.4210  0.2890  0.8538
 8197SOL     OW36223   0.178   1.451   8.899  0.1425  0.4600 -0.1397
 8197SOL    HW136224   0.235   1.516   8.859  0.2052  0.7984  0.5034
 8197SOL    HW236225   0.092   1.481   8.869 -0.3972 -1.8980 -0.9919
 8198SOL     OW36226   3.293   1.282   7.316  0.5577 -0.3482 -0.2228
 8198SOL    HW136227   3.295   1.187   7.313 -0.2044 -0.3641 -0.1647
 8198SOL    HW236228   3.268   1.300   7.407  3.7322  0.6517  0.4427
 8199SOL     OW36229   2.763   3.702  12.302  0.8420 -0.1444 -0.3625
 8199SOL    HW136230   2.814   3.702  12.221  0.0732 -1.3410 -0.8624
 8199SOL    HW236231   2.785   3.789  12.334 -0.5186 -0.3240  1.0683
 8200SOL     OW36232   3.448   1.577  15.008 -0.0290 -0.1933  0.1852
 8200SOL    HW136233   3.355   1.569  15.033  0.6618 -0.7462  2.5741
 8200SOL    HW236234   3.447   1.498  14.953 -0.5632  0.4202 -0.7015
 8201SOL     OW36235   1.801   3.369  16.688 -0.0226 -0.2189  0.2332
 8201SOL    HW136236   1.799   3.464  16.694  1.9618 -0.2217  0.9211
 8201SOL    HW236237   1.835   3.356  16.599 -3.8419  1.9908 -1.5512
 8202SOL     OW36238   1.333   2.431   3.726  0.5474  0.5680  0.7472
 8202SOL    HW136239   1.280   2.352   3.715 -2.6776  3.1396 -2.2514
 8202SOL    HW236240   1.280   2.489   3.782 -0.9109 -0.1373  0.0955
 8203SOL     OW36241   4.351   3.689  10.343 -0.2921 -0.4590  0.8133
 8203SOL    HW136242   4.420   3.754  10.359  0.3515 -0.6702 -1.1552
 8203SOL    HW236243   4.265   3.730  10.346  0.6862  1.6322  0.1604
 8204SOL     OW36244   1.464   1.133   9.775 -0.5281  0.0491 -0.0198
 8204SOL    HW136245   1.415   1.108   9.853 -1.7265  1.3685 -0.3348
 8204SOL    HW236246   1.406   1.205   9.747 -0.3454  0.0109 -0.5023
 8205SOL     OW36247   4.081   4.219  16.774  0.0183 -0.0137  0.8535
 8205SOL    HW136248   4.168   4.242  16.807  0.0698  0.1060  0.6339
 8205SOL    HW236249   4.072   4.284  16.705 -1.1383 -1.4573 -0.3613
 8206SOL     OW36250   3.846   0.835   5.175 -0.5755 -0.8487  0.8859
 8206SOL    HW136251   3.938   0.819   5.153 -1.3253 -1.9977 -1.5239
 8206SOL    HW236252   3.807   0.775   5.111 -1.0128 -0.2806  0.6121
 8207SOL     OW36253   4.230   2.055   4.228  0.9121  0.5581  0.1821
 8207SOL    HW136254   4.315   2.055   4.272  1.3676  0.1212 -0.6730
 8207SOL    HW236255   4.184   2.122   4.277 -0.7044 -0.6283  0.2794
 8208SOL     OW36256   1.964   4.049   8.537 -0.3815  0.2745 -0.0234
 8208SOL    HW136257   1.881   4.057   8.488  0.1570  1.3558 -0.7508
 8208SOL    HW236258   1.932   4.055   8.627 -1.1321 -1.7467 -0.1524
 8209SOL     OW36259   1.239   0.575   5.212 -0.1378  0.0067  0.4317
 8209SOL    HW136260   1.316   0.591   5.268  0.6015 -2.3801  0.1226
 8209SOL    HW236261   1.213   0.489   5.246  1.2757  0.2371  2.1187
 8210SOL     OW36262   1.823   0.474   5.653  0.1180  0.1716  0.1374
 8210SOL    HW136263   1.867   0.392   5.676  2.4506  1.4081  0.1445
 8210SOL    HW236264   1.777   0.507   5.730 -0.0373 -1.6547  0.8127
 8211SOL     OW36265   1.603   2.115   8.871  0.8059  0.2128 -0.3419
 8211SOL    HW136266   1.669   2.090   8.936 -1.4355  0.7353  2.1294
 8211SOL    HW236267   1.536   2.135   8.936  1.1568  0.5162 -0.0809
 8212SOL     OW36268   0.540   4.316   6.213  0.5369  0.3777 -0.1380
 8212SOL    HW136269   0.450   4.349   6.215  1.2414  2.3653 -1.2098
 8212SOL    HW236270   0.562   4.360   6.131 -0.0833 -1.5824 -1.3616
 8213SOL     OW36271   4.139   1.816  16.991  0.1307  0.3032  0.2159
 8213SOL    HW136272   4.175   1.786  17.074  0.7256  0.4180 -0.0018
 8213SOL    HW236273   4.101   1.900  17.016 -1.3666  0.0606 -1.2840
 8214SOL     OW36274   3.842   2.393   2.762 -0.0458 -0.2517  0.3362
 8214SOL    HW136275   3.932   2.415   2.788 -0.0493  0.1692 -0.0097
 8214SOL    HW236276   3.794   2.384   2.844 -1.4364 -0.6611 -0.5143
 8215SOL     OW36277   0.194   2.332  16.007 -0.3708 -0.2090  0.2343
 8215SOL    HW136278   0.155   2.349  15.921  0.1465  1.9209  0.4273
 8215SOL    HW236279   0.169   2.409  16.057  0.9459  0.7222 -0.5377
 8216SOL     OW36280   4.216   1.562   3.973  0.4458 -0.0339 -0.2440
 8216SOL    HW136281   4.202   1.629   4.041  1.2080 -2.0631  1.8800
 8216SOL    HW236282   4.168   1.490   4.013 -1.2147  1.1581 -0.0831
 8217SOL     OW36283   2.869   1.483   4.254  0.0158  0.0077 -0.9304
 8217SOL    HW136284   2.893   1.571   4.226 -1.6515  0.8120  0.1671
 8217SOL    HW236285   2.937   1.440   4.201  0.6413  0.2524 -0.3251
 8218SOL     OW36286   1.546   3.650   6.383  0.1141 -0.3867 -0.7276
 8218SOL    HW136287   1.540   3.651   6.478  1.6301  2.4295 -0.6455
 8218SOL    HW236288   1.590   3.566   6.373  0.9267 -0.1367  0.6933
 8219SOL     OW36289   0.115   4.164  11.578 -0.1404  0.1920 -0.5299
 8219SOL    HW136290   0.030   4.121  11.565 -1.3516  1.7375  2.2762
 8219SOL    HW236291   0.126   4.194  11.488  0.9507  0.6343 -0.2396
 8220SOL     OW36292   1.713   4.206   4.965  0.4243  0.3727  0.4234
 8220SOL    HW136293   1.727   4.161   5.048 -0.7736 -0.6590  0.0785
 8220SOL    HW236294   1.803   4.223   4.937  0.0526 -0.0383 -1.0098
 8221SOL     OW36295   3.132   0.159  12.603  0.0062 -0.3097 -0.1711
 8221SOL    HW136296   3.098   0.072  12.582  0.2611 -0.2718 -0.7571
 8221SOL    HW236297   3.168   0.143  12.690  0.3266 -2.8766 -0.7650
 8222SOL     OW36298   0.026   3.847   2.907  0.1896 -0.2858  0.8317
 8222SOL    HW136299   0.032   3.874   2.816  0.0251 -2.2953  0.2249
 8222SOL    HW236300   4.672   3.877   2.928 -0.4847 -2.3270  0.8911
 8223SOL     OW36301   1.271   4.229  13.732  0.1139 -0.1507 -0.0243
 8223SOL    HW136302   1.229   4.144  13.720  0.0285 -0.3647  1.6851
 8223SOL    HW236303   1.322   4.219  13.813  1.0598  0.8065 -0.5081
 8224SOL     OW36304   1.123   3.787   0.141  0.6563 -0.0592 -0.1923
 8224SOL    HW136305   1.141   3.878   0.165  0.2649 -0.6357  2.2831
 8224SOL    HW236306   1.028   3.786   0.133  0.5132 -0.9682  1.7331
 8225SOL     OW36307   1.131   0.835   5.404  0.4423  0.1250 -0.5190
 8225SOL    HW136308   1.184   0.756   5.414 -0.0558  0.0039  1.2109
 8225SOL    HW236309   1.195   0.894   5.364  2.0102 -2.1924 -1.4368
 8226SOL     OW36310   0.526   1.569   0.187  0.6073  0.1254  0.3766
 8226SOL    HW136311   0.620   1.585   0.196  0.8711 -0.8474 -0.7648
 8226SOL    HW236312   0.533   1.478   0.159 -1.5819 -0.3736  1.4199
 8227SOL     OW36313   4.498   1.187   5.239  0.1426  0.5453 -0.2674
 8227SOL    HW136314   4.425   1.200   5.178  2.3305 -1.8326 -3.4106
 8227SOL    HW236315   4.573   1.227   5.194  2.7736 -4.0248 -0.0208
 8228SOL     OW36316   3.867   3.502   1.660  0.8954  0.0313  0.1892
 8228SOL    HW136317   3.917   3.420   1.657  0.7702 -0.0172 -0.7649
 8228SOL    HW236318   3.835   3.512   1.750  0.1462 -0.1681 -0.0477
 8229SOL     OW36319   0.149   3.529   4.970 -0.0635 -0.5694 -0.2117
 8229SOL    HW136320   0.180   3.591   5.037  2.7756 -1.7399 -0.4477
 8229SOL    HW236321   0.234   3.508   4.931 -0.4975  0.6521 -1.8393
 8230SOL     OW36322   2.666   4.041   8.347  0.3276  0.2277 -0.4435
 8230SOL    HW136323   2.690   4.107   8.282  2.7559 -0.2970 -0.0736
 8230SOL    HW236324   2.711   3.965   8.313  0.9147  0.0761  0.6772
 8231SOL     OW36325   1.721   4.587  14.388 -0.5183  0.7990 -0.1109
 8231SOL    HW136326   1.711   4.495  14.411  0.1531  1.4108  2.6855
 8231SOL    HW236327   1.653   4.623  14.446 -1.5205 -0.0951 -0.7429
 8232SOL     OW36328   1.923   2.461  13.079 -0.0698  0.1164 -0.0192
 8232SOL    HW136329   1.956   2.438  12.993  2.3133 -1.3539  1.2985
 8232SOL    HW236330   1.845   2.407  13.071  0.2746 -0.2128 -1.1453
 8233SOL     OW36331   4.272   3.429  10.316  0.3539  0.3939 -0.4696
 8233SOL    HW136332   4.177   3.440  10.321  0.2087 -0.6311 -0.8987
 8233SOL    HW236333   4.287   3.523  10.309 -2.8000  0.9609  0.2544
 8234SOL     OW36334   1.653   3.865  14.363  0.0166  0.1025  0.4605
 8234SOL    HW136335   1.615   3.908  14.287 -1.1405 -1.3308  0.2243
 8234SOL    HW236336   1.737   3.835  14.329 -1.3273 -2.4538 -0.6382
 8235SOL     OW36337   3.468   1.787   3.268  0.3393 -0.2532  0.1216
 8235SOL    HW136338   3.535   1.814   3.205 -1.0317 -0.3637 -1.3894
 8235SOL    HW236339   3.385   1.821   3.234 -0.3063 -0.7457  1.1910
 8236SOL     OW36340   4.508   1.043  10.848  0.5538  0.6732 -0.3809
 8236SOL    HW136341   4.603   1.046  10.846  0.5865 -1.5208 -2.1375
 8236SOL    HW236342   4.483   1.053  10.940  1.9546  0.6836  0.0046
 8237SOL     OW36343   3.717   3.721  13.779  0.1203  0.9100 -0.1755
 8237SOL    HW136344   3.752   3.780  13.846 -0.0711  1.2126 -0.3395
 8237SOL    HW236345   3.635   3.703  13.826  0.9698  1.3646  1.5072
 8238SOL     OW36346   0.701   4.414   5.490  0.2563 -0.3380  0.6948
 8238SOL    HW136347   0.641   4.489   5.490  0.0563 -0.5068 -1.3154
 8238SOL    HW236348   0.639   4.342   5.495  0.1432 -0.2899 -0.1079
 8239SOL     OW36349   1.005   4.632   7.241 -0.5932  0.7721  0.3487
 8239SOL    HW136350   0.955   4.707   7.211 -0.2969  1.1725  0.8518
 8239SOL    HW236351   1.090   4.674   7.231  0.3722 -1.2519 -0.1072
 8240SOL     OW36352   2.832   1.165   5.572  0.2209  0.2618 -0.0814
 8240SOL    HW136353   2.793   1.216   5.502 -0.4302 -1.0982 -0.7161
 8240SOL    HW236354   2.906   1.223   5.591  0.5237 -0.2002  0.1761
 8241SOL     OW36355   1.464   0.098   1.361  0.1708  0.4306  0.2824
 8241SOL    HW136356   1.438   0.015   1.320  0.4617  0.3465  0.2631
 8241SOL    HW236357   1.396   0.162   1.343 -0.6552 -1.1089 -2.0614
 8242SOL     OW36358   0.767   3.164   0.799 -0.5527  0.4512 -0.4366
 8242SOL    HW136359   0.773   3.145   0.705  1.3820 -0.8198 -0.0576
 8242SOL    HW236360   0.687   3.217   0.800 -0.3336  0.7693  0.0126
 8243SOL     OW36361   3.674   3.436   0.369 -0.4024 -0.3622 -0.3906
 8243SOL    HW136362   3.654   3.402   0.282 -0.1876  0.0782 -0.6162
 8243SOL    HW236363   3.620   3.515   0.364  0.8901  0.6063  0.9537
 8244SOL     OW36364   0.257   1.068   2.989 -0.1967  0.6154 -0.6775
 8244SOL    HW136365   0.248   0.973   2.996  2.8783  0.2533 -2.0605
 8244SOL    HW236366   0.351   1.067   2.972 -0.6102  0.7375 -2.9019
 8245SOL     OW36367   2.599   1.548   8.709 -0.0695  0.1209 -0.4259
 8245SOL    HW136368   2.568   1.618   8.651 -1.6628  0.1024  0.4227
 8245SOL    HW236369   2.657   1.602   8.763 -0.1244  0.0095 -0.2591
 8246SOL     OW36370   1.527   4.383  14.701  0.0095  0.1023  0.7696
 8246SOL    HW136371   1.478   4.301  14.704  0.5273 -0.2013  1.0697
 8246SOL    HW236372   1.501   4.417  14.787  1.7977 -0.3602  1.5004
 8247SOL     OW36373   4.512   4.004   5.067  0.1170  0.0104  0.5504
 8247SOL    HW136374   4.446   4.006   5.136 -1.3468 -0.9268 -0.8154
 8247SOL    HW236375   4.520   3.910   5.048 -1.6245  0.2553 -1.4090
 8248SOL     OW36376   2.075   4.563   2.781  0.0940 -0.0542 -0.2130
 8248SOL    HW136377   2.058   4.640   2.834  0.7396  1.3191 -1.9920
 8248SOL    HW236378   2.068   4.491   2.843 -1.8188  1.2764  1.1159
 8249SOL     OW36379   3.314   0.982   5.912  0.0783  0.2030  0.6859
 8249SOL    HW136380   3.257   1.022   5.845  2.3669  0.6689 -0.9809
 8249SOL    HW236381   3.371   1.055   5.934  0.9447 -0.6183  1.1340
 8250SOL     OW36382   1.192   2.536  15.734  0.4334 -0.2147 -0.0247
 8250SOL    HW136383   1.270   2.511  15.685  0.9590  0.7767  0.3113
 8250SOL    HW236384   1.131   2.473  15.695 -0.6259  1.5554 -1.2128
 8251SOL     OW36385   3.798   2.623  14.803  0.3612 -0.6342 -0.4214
 8251SOL    HW136386   3.744   2.682  14.857  0.5641 -0.4598 -0.4108
 8251SOL    HW236387   3.817   2.671  14.723  0.2593 -0.7893 -0.5399
 8252SOL     OW36388   0.490   3.626  14.656  0.5049 -0.4667  0.1894
 8252SOL    HW136389   0.477   3.720  14.650 -3.5152 -0.9531  1.3396
 8252SOL    HW236390   0.538   3.622  14.739  1.1844  0.2444 -0.1655
 8253SOL     OW36391   4.010   2.104   5.602  0.1302 -0.2570 -0.1940
 8253SOL    HW136392   4.053   2.189   5.595  0.4708 -0.5178 -1.3371
 8253SOL    HW236393   4.082   2.044   5.620  0.8094  0.9257  1.0037
 8254SOL     OW36394   1.236   2.693  16.575  0.1394 -0.4617  0.4794
 8254SOL    HW136395   1.180   2.640  16.518 -1.6519  2.4208 -0.4675
 8254SOL    HW236396   1.319   2.648  16.560  1.2931  1.7169  0.3544
 8255SOL     OW36397   0.391   1.199   6.528  0.2642 -0.1586 -0.3472
 8255SOL    HW136398   0.397   1.193   6.433 -2.9799  0.1895 -0.6029
 8255SOL    HW236399   0.479   1.226   6.553 -0.1040  0.0320  0.7574
 8256SOL     OW36400   3.380   3.562   9.914 -0.0217  0.1862  0.7380
 8256SOL    HW136401   3.471   3.560   9.944  0.0383 -2.5514  0.3701
 8256SOL    HW236402   3.385   3.498   9.843 -0.4137  1.3956 -0.3542
 8257SOL     OW36403   1.287   3.272  15.588 -0.3056  0.0790  0.2164
 8257SOL    HW136404   1.288   3.319  15.505 -3.2944  0.6625  0.4865
 8257SOL    HW236405   1.291   3.348  15.645  0.6621 -1.3625  2.0826
 8258SOL     OW36406   3.505   4.335  17.474  0.4862  0.3952 -0.2094
 8258SOL    HW136407   3.526   4.273  17.404 -1.6890 -0.7747  0.1718
 8258SOL    HW236408   3.583   4.391  17.468  1.2313 -0.5263  0.7973
 8259SOL     OW36409   3.724   3.511   6.214  0.0723 -0.0232  0.2387
 8259SOL    HW136410   3.650   3.571   6.225  1.0606  0.7453  2.5200
 8259SOL    HW236411   3.725   3.477   6.303 -0.2782  0.2286  0.3380
 8260SOL     OW36412   4.444   3.379   8.289  0.7518 -0.4214 -0.0098
 8260SOL    HW136413   4.471   3.438   8.359 -2.2264  0.3726  0.4788
 8260SOL    HW236414   4.478   3.295   8.319 -1.9459 -0.5524  2.7124
 8261SOL     OW36415   1.900   2.178   9.289 -0.4062  0.4289  0.2474
 8261SOL    HW136416   1.816   2.222   9.300 -0.9683 -0.1372 -1.7875
 8261SOL    HW236417   1.936   2.201   9.374  0.0037  1.7919 -0.2881
 8262SOL     OW36418   4.514   1.199  11.607 -0.2077  0.2826 -0.7640
 8262SOL    HW136419   4.565   1.140  11.552  0.5586  0.8266 -0.6304
 8262SOL    HW236420   4.575   1.221  11.677  0.5515 -1.4362 -0.9010
 8263SOL     OW36421   4.448   3.281   8.627 -0.1648 -0.1163  0.1610
 8263SOL    HW136422   4.432   3.373   8.607  1.2202  0.0527 -0.1176
 8263SOL    HW236423   4.371   3.234   8.595 -0.9273  0.2834  1.3875
 8264SOL     OW36424   0.549   0.834   9.831  0.5536  0.3129  0.8019
 8264SOL    HW136425   0.536   0.925   9.858  1.6157  0.9312 -0.7571
 8264SOL    HW236426   0.623   0.836   9.770  0.4806 -2.0130  0.6118
 8265SOL     OW36427   1.538   2.231  14.395  0.6069  0.1618  0.3351
 8265SOL    HW136428   1.560   2.156  14.340  0.2652 -0.6674  1.3071
 8265SOL    HW236429   1.628   2.260  14.413  0.4234  1.2044 -0.4850
 8266SOL     OW36430   4.505   1.002   7.722 -0.1091  0.3448  0.2808
 8266SOL    HW136431   4.507   1.097   7.731  1.3297  0.2744  0.7137
 8266SOL    HW236432   4.582   0.972   7.769  0.0999  0.1104 -0.2089
 8267SOL     OW36433   4.628   0.371  10.112 -0.1521  0.0854 -0.3326
 8267SOL    HW136434   4.609   0.380  10.019 -0.5079  0.7985 -0.1982
 8267SOL    HW236435   4.661   0.283  10.098  0.4907  0.3088 -0.2400
 8268SOL     OW36436   1.819   3.584   2.528  0.1033 -0.2432 -0.3394
 8268SOL    HW136437   1.749   3.566   2.591 -1.2940  0.8901 -1.5571
 8268SOL    HW236438   1.773   3.647   2.473  0.4182  0.1986 -0.0942
 8269SOL     OW36439   4.088   0.665   4.725  0.0874 -0.3017 -0.0023
 8269SOL    HW136440   4.006   0.710   4.745 -0.1922 -0.6250 -0.4271
 8269SOL    HW236441   4.066   0.600   4.659 -0.1599  1.0996 -1.2894
 8270SOL     OW36442   4.340   3.596   7.067  0.0087  0.2282 -0.1807
 8270SOL    HW136443   4.347   3.505   7.038 -1.9036  0.0036  0.0479
 8270SOL    HW236444   4.261   3.619   7.019 -0.7819 -0.2180  0.9097
 8271SOL     OW36445   4.590   2.049   4.498 -0.5339  0.4801 -0.1262
 8271SOL    HW136446   4.559   2.138   4.512  1.1796  0.8361  1.3274
 8271SOL    HW236447   4.557   2.005   4.576 -0.2325 -0.0836 -0.3137
 8272SOL     OW36448   0.856   3.716   0.772 -0.0478 -0.4659  0.0147
 8272SOL    HW136449   0.818   3.803   0.755 -1.5545 -0.7242  2.0940
 8272SOL    HW236450   0.839   3.669   0.690  0.5038  3.2439 -2.2434
 8273SOL     OW36451   1.765   1.397  17.688  0.2268  0.3450  0.0673
 8273SOL    HW136452   1.745   1.470   0.011  0.4216  0.7376 -0.3583
 8273SOL    HW236453   1.853   1.365  17.710 -0.5024  0.1728  2.6857
 8274SOL     OW36454   2.787   3.956  16.338  0.3695  0.9146 -1.1108
 8274SOL    HW136455   2.849   4.025  16.363  0.4547 -0.4086  2.1724
 8274SOL    HW236456   2.817   3.941  16.248  3.0013  0.6999 -0.1997
 8275SOL     OW36457   4.707   2.856   2.770 -0.1595 -0.4588  0.0524
 8275SOL    HW136458   4.673   2.773   2.736  1.9105 -1.5174  0.5723
 8275SOL    HW236459   4.665   2.912   2.705 -0.4969 -0.5650  0.1785
 8276SOL     OW36460   3.367   0.943   1.489 -0.4010 -0.2442  0.3902
 8276SOL    HW136461   3.312   0.893   1.549 -3.0955  1.2076 -0.9067
 8276SOL    HW236462   3.362   0.893   1.407 -0.2569  0.3651  0.0113
 8277SOL     OW36463   1.061   3.425  14.332  0.1018 -0.4988  0.7650
 8277SOL    HW136464   0.998   3.496  14.318  0.2621  0.0161  2.6833
 8277SOL    HW236465   1.105   3.451  14.413  0.1971  0.5350  0.3856
 8278SOL     OW36466   2.809   3.460  16.075 -0.1420 -0.6161  0.6321
 8278SOL    HW136467   2.760   3.462  15.993 -0.6475 -1.1810  0.9191
 8278SOL    HW236468   2.747   3.495  16.139  0.3473  2.2647 -0.4868
 8279SOL     OW36469   3.495   0.776   5.863  0.2526  0.5588 -0.1840
 8279SOL    HW136470   3.565   0.830   5.900  0.4076 -0.5749  1.1652
 8279SOL    HW236471   3.421   0.831   5.887 -1.1956 -1.0086 -1.0556
 8280SOL     OW36472   2.230   1.598   9.680 -0.1204 -0.0691 -0.0105
 8280SOL    HW136473   2.158   1.540   9.703  1.8476 -2.3781  0.3826
 8280SOL    HW236474   2.305   1.539   9.673 -1.0535 -0.8361 -3.7465
 8281SOL     OW36475   3.130   3.660   3.592 -0.4631 -0.2939 -0.1695
 8281SOL    HW136476   3.066   3.687   3.526  0.8105  1.8325 -0.5316
 8281SOL    HW236477   3.198   3.623   3.536 -0.2465 -0.7688  0.4086
 8282SOL     OW36478   0.298   1.965  11.732  0.2693 -0.0731  0.3175
 8282SOL    HW136479   0.372   1.966  11.671  0.9980 -0.8972  1.2011
 8282SOL    HW236480   0.301   1.874  11.761 -0.2064 -0.4182 -0.7267
 8283SOL     OW36481   0.439   0.546   8.581  0.2484  0.5850  0.3920
 8283SOL    HW136482   0.493   0.618   8.615 -1.1899  0.2074  3.4062
 8283SOL    HW236483   0.497   0.508   8.515  0.8523 -0.1350  1.3498
 8284SOL     OW36484   2.250   1.302   8.165  0.3112 -0.9129  0.0635
 8284SOL    HW136485   2.293   1.379   8.129  2.2593 -0.9592  2.2876
 8284SOL    HW236486   2.310   1.245   8.213  2.7234  1.4236 -0.1588
 8285SOL     OW36487   2.598   3.105   7.483 -0.5674  0.5383 -0.1562
 8285SOL    HW136488   2.575   3.029   7.538 -0.7047  0.7741  0.1103
 8285SOL    HW236489   2.580   3.175   7.546 -0.0298 -1.8219  2.6486
 8286SOL     OW36490   2.143   0.109   3.665  0.6231  0.4012  0.2287
 8286SOL    HW136491   2.066   0.074   3.709  1.4949 -0.0264  1.4158
 8286SOL    HW236492   2.155   0.197   3.700  0.8239  0.0526  1.0263
 8287SOL     OW36493   3.829   1.655   2.050  0.1506 -0.0546 -0.2720
 8287SOL    HW136494   3.847   1.749   2.049 -1.8780  0.3626  2.4140
 8287SOL    HW236495   3.734   1.648   2.039  0.2069  0.1647 -0.8887
 8288SOL     OW36496   0.964   0.185   7.996  0.4772  0.1215  0.6239
 8288SOL    HW136497   0.955   0.272   8.034  2.4229  0.2525  0.7672
 8288SOL    HW236498   0.898   0.131   8.039  0.7793 -0.5292  0.2654
 8289SOL     OW36499   3.391   1.381   8.317 -0.5276  0.2210  0.2484
 8289SOL    HW136500   3.388   1.454   8.379  0.2432  0.8207 -0.4167
 8289SOL    HW236501   3.461   1.413   8.260 -1.3988 -0.2812 -1.1116
 8290SOL     OW36502   3.494   1.824   7.181  0.0230  0.0963  0.5577
 8290SOL    HW136503   3.471   1.848   7.091  0.8472 -2.1561 -0.2562
 8290SOL    HW236504   3.541   1.901   7.212 -1.2698  0.5448  1.4128
 8291SOL     OW36505   2.821   1.701   2.231  0.4994 -0.2216  0.0581
 8291SOL    HW136506   2.752   1.767   2.230  0.0735 -0.6596  0.3915
 8291SOL    HW236507   2.783   1.626   2.278 -1.0296  0.8240  0.4953
 8292SOL     OW36508   0.490   1.720   5.153  0.0472 -0.5710  0.3442
 8292SOL    HW136509   0.572   1.735   5.200 -0.4312 -1.5601  1.5124
 8292SOL    HW236510   0.487   1.624   5.154 -2.9097 -0.4732  0.8529
 8293SOL     OW36511   0.523   2.989   9.278 -0.1085 -0.5082  0.0841
 8293SOL    HW136512   0.532   2.962   9.370  3.4875  1.1566  0.2232
 8293SOL    HW236513   0.604   3.037   9.262 -0.4104  0.4954  1.5790
 8294SOL     OW36514   4.482   3.973   8.568 -0.2568 -0.2769  0.5814
 8294SOL    HW136515   4.407   4.032   8.567  0.9390  1.1968 -0.8542
 8294SOL    HW236516   4.517   4.001   8.653 -0.4513  2.0449 -0.1164
 8295SOL     OW36517   3.188   0.252   7.563  0.0679  0.6720 -0.1252
 8295SOL    HW136518   3.224   0.165   7.545 -1.4546  0.0215  0.0232
 8295SOL    HW236519   3.157   0.275   7.475  1.2386  0.8193 -0.5020
 8296SOL     OW36520   2.352   2.138   4.555  0.1102  0.2414  0.0293
 8296SOL    HW136521   2.258   2.133   4.535  0.1326 -0.4547  0.1080
 8296SOL    HW236522   2.382   2.100   4.472  2.4084  0.0778  0.9419
 8297SOL     OW36523   3.267   3.024   7.514  0.3302 -0.4073  0.6817
 8297SOL    HW136524   3.315   2.967   7.575 -0.0528 -0.3403  1.0447
 8297SOL    HW236525   3.323   3.042   7.439  1.7269 -1.8555  1.3796
 8298SOL     OW36526   1.837   0.207   3.066  0.1105 -0.4698 -0.4049
 8298SOL    HW136527   1.887   0.278   3.106 -0.7817  0.9225 -1.7457
 8298SOL    HW236528   1.781   0.238   2.994  0.1374 -3.1982 -1.5775
 8299SOL     OW36529   4.068   2.454   8.795 -0.0152 -0.0960  0.2843
 8299SOL    HW136530   4.077   2.431   8.887 -0.1372 -0.4341  0.2145
 8299SOL    HW236531   4.005   2.526   8.797  0.1011 -0.0156  1.1170
 8300SOL     OW36532   3.985   4.264   4.244 -0.4192  0.0874 -0.0395
 8300SOL    HW136533   3.962   4.357   4.251 -2.7303 -0.5124  0.6195
 8300SOL    HW236534   4.039   4.258   4.165  1.6540  0.3748  1.3596
 8301SOL     OW36535   0.226   0.211  13.642 -0.4924 -0.2111 -0.0320
 8301SOL    HW136536   0.263   0.169  13.719  0.1755 -0.9389 -0.7518
 8301SOL    HW236537   0.261   0.300  13.645  2.4030 -1.3269 -0.7940
 8302SOL     OW36538   0.865   1.479  14.373 -0.2111 -0.1789 -0.0341
 8302SOL    HW136539   0.828   1.479  14.461  1.5688  0.9561  0.7064
 8302SOL    HW236540   0.959   1.497  14.379 -0.7688  2.4509  1.0029
 8303SOL     OW36541   4.304   2.465   1.877 -0.0921  0.4791 -0.1593
 8303SOL    HW136542   4.314   2.524   1.952 -0.0723 -0.7213  0.7871
 8303SOL    HW236543   4.354   2.503   1.805  0.2784  0.3649  0.0435
 8304SOL     OW36544   1.762   0.071  10.944  0.1324  0.3127  0.3636
 8304SOL    HW136545   1.703   0.068  11.019  0.7509 -1.5421  0.7932
 8304SOL    HW236546   1.714   0.135  10.892 -0.7814  1.2732  2.3935
 8305SOL     OW36547   3.717   4.020  14.426  0.0683 -0.1154  0.1466
 8305SOL    HW136548   3.725   4.091  14.489 -0.1676  1.3364 -1.4732
 8305SOL    HW236549   3.624   4.012  14.405  0.4103 -2.3652 -0.4824
 8306SOL     OW36550   3.176   1.404   6.910  0.2336  1.0609 -0.4365
 8306SOL    HW136551   3.155   1.417   7.002  0.9155 -2.7245  0.2577
 8306SOL    HW236552   3.119   1.331   6.887  1.1657  0.5424 -1.1099
 8307SOL     OW36553   3.111   3.427   3.964  0.1236  0.2106  0.1984
 8307SOL    HW136554   3.159   3.345   3.956  3.6214  2.2131  0.3958
 8307SOL    HW236555   3.071   3.435   3.877  0.3700 -0.6082  0.0118
 8308SOL     OW36556   0.819   2.592   5.316  0.6172  0.2260  0.2630
 8308SOL    HW136557   0.812   2.677   5.360  1.3353  1.1614 -1.3996
 8308SOL    HW236558   0.772   2.611   5.234  0.1438 -3.1960 -0.2310
 8309SOL     OW36559   4.641   1.628   5.780  0.6223  0.2719  0.0552
 8309SOL    HW136560   4.603   1.651   5.864 -0.2851 -1.8614  0.2277
 8309SOL    HW236561   4.639   1.532   5.787 -1.8578  0.0750 -3.3843
 8310SOL     OW36562   2.682   2.529   4.379 -0.6263 -0.4180 -0.3342
 8310SOL    HW136563   2.724   2.465   4.437  0.4069  1.3959  0.9240
 8310SOL    HW236564   2.601   2.493   4.343  0.7154 -1.1962 -2.5364
 8311SOL     OW36565   4.093   3.444   2.072 -0.5948  0.4315 -0.0951
 8311SOL    HW136566   4.066   3.360   2.109 -0.7826  1.3761  1.8988
 8311SOL    HW236567   4.185   3.428   2.051 -0.5839 -1.0598  1.0490
 8312SOL     OW36568   4.421   2.018  10.712 -0.8868  0.2681  0.2980
 8312SOL    HW136569   4.490   2.043  10.650 -1.4070  0.9574 -0.0047
 8312SOL    HW236570   4.385   1.942  10.665  0.8794  0.2524 -1.0403
 8313SOL     OW36571   0.418   3.542   0.659  0.1699  0.4997  0.1156
 8313SOL    HW136572   0.464   3.619   0.626 -1.7973  1.0594 -1.3050
 8313SOL    HW236573   0.336   3.581   0.689  2.0942  1.3946  4.2276
 8314SOL     OW36574   2.747   1.129  16.396  0.0153 -0.5960 -0.0789
 8314SOL    HW136575   2.842   1.129  16.386 -0.0198  0.1693 -0.3583
 8314SOL    HW236576   2.743   1.191  16.468 -0.9186  0.0793 -0.7045
 8315SOL     OW36577   2.773   2.295   7.654  0.3962 -0.0475  0.1520
 8315SOL    HW136578   2.741   2.230   7.592 -0.2820  0.9968 -0.6013
 8315SOL    HW236579   2.867   2.302   7.636  0.4493  0.2336  0.5587
 8316SOL     OW36580   3.470   3.355   7.302 -0.2265  0.2028 -0.4698
 8316SOL    HW136581   3.378   3.369   7.324 -0.4414  0.1248 -1.3463
 8316SOL    HW236582   3.488   3.397   7.218  1.4230 -0.6628 -0.5389
 8317SOL     OW36583   2.907   1.798   1.458 -0.3366  0.4703  0.4668
 8317SOL    HW136584   2.814   1.782   1.474  0.0524 -3.4967 -1.4278
 8317SOL    HW236585   2.927   1.760   1.373  0.0199  1.9996 -0.1326
 8318SOL     OW36586   3.430   2.874   8.712  0.1934  0.0277  0.3706
 8318SOL    HW136587   3.454   2.785   8.687 -1.4663 -0.1601 -0.5682
 8318SOL    HW236588   3.509   2.921   8.683  1.0161 -2.3122 -1.2051
 8319SOL     OW36589   1.137   0.932  13.484 -0.0672 -0.2132 -0.1602
 8319SOL    HW136590   1.147   0.964  13.394 -2.3134  0.5554 -0.1334
 8319SOL    HW236591   1.196   0.993  13.528  0.2976  0.2044 -1.2207
 8320SOL     OW36592   2.621   1.222   1.327 -0.1509 -0.3035 -0.1814
 8320SOL    HW136593   2.700   1.203   1.277  0.2162  0.7640  0.0009
 8320SOL    HW236594   2.635   1.314   1.348 -2.9319 -0.4041  2.1100
 8321SOL     OW36595   4.188   2.849   2.255  0.4212 -0.1582  0.3315
 8321SOL    HW136596   4.185   2.856   2.351 -1.2481 -0.3651  0.3043
 8321SOL    HW236597   4.175   2.936   2.218 -0.9432  1.0570  3.6107
 8322SOL     OW36598   1.835   0.334   4.175 -0.2124  0.1415  0.3536
 8322SOL    HW136599   1.782   0.367   4.102 -0.4175 -0.8499  0.0502
 8322SOL    HW236600   1.766   0.286   4.221 -3.0645  2.6285 -1.2462
 8323SOL     OW36601   1.720   4.299  11.069  0.2061  0.7929 -0.2741
 8323SOL    HW136602   1.780   4.344  11.010 -0.6333  2.0979 -0.1083
 8323SOL    HW236603   1.683   4.368  11.124 -2.2810 -0.1108 -0.7891
 8324SOL     OW36604   1.480   1.628   8.304 -0.3844  0.8545  0.0075
 8324SOL    HW136605   1.436   1.640   8.219 -0.0273 -0.9558 -0.4292
 8324SOL    HW236606   1.407   1.580   8.343  0.7823 -0.1285  0.9872
 8325SOL     OW36607   4.175   3.161   7.159  0.1295 -0.0641  0.2114
 8325SOL    HW136608   4.198   3.088   7.101 -2.0767  0.7761 -1.7484
 8325SOL    HW236609   4.114   3.113   7.214  0.7701 -0.9125  0.1706
 8326SOL     OW36610   4.483   3.589   8.468 -0.1505 -0.1161  0.2445
 8326SOL    HW136611   4.531   3.671   8.479 -0.2155  0.0276 -0.5479
 8326SOL    HW236612   4.425   3.602   8.392 -1.9276 -0.2430  1.5670
 8327SOL     OW36613   0.274   2.006   1.208  0.6997 -0.4311  0.6712
 8327SOL    HW136614   0.243   1.935   1.152 -1.0765  0.6068  0.3260
 8327SOL    HW236615   0.210   1.997   1.279 -2.0894  1.5723 -1.5439
 8328SOL     OW36616   3.892   2.785  16.769  0.6317 -0.4544 -0.1019
 8328SOL    HW136617   3.931   2.769  16.683  0.3498 -0.5712 -0.2072
 8328SOL    HW236618   3.800   2.782  16.742  0.8236  3.0199 -1.1580
 8329SOL     OW36619   0.179   0.880  10.288 -0.2652  1.1030 -0.4294
 8329SOL    HW136620   0.182   0.899  10.194  0.4176  0.5423 -0.5181
 8329SOL    HW236621   0.123   0.802  10.287  0.9974  0.1604  4.4479
 8330SOL     OW36622   4.616   2.040   7.442 -0.0147 -0.8308 -0.2528
 8330SOL    HW136623   4.671   1.969   7.411 -3.0194 -2.3578 -2.0189
 8330SOL    HW236624   4.685   2.093   7.482 -0.7662 -0.3685  0.4353
 8331SOL     OW36625   2.106   3.226  17.295  0.4363 -0.4992 -0.0312
 8331SOL    HW136626   2.127   3.300  17.352 -1.8400  0.9801 -1.1163
 8331SOL    HW236627   2.191   3.183  17.281  0.6972 -0.0467  0.1384
 8332SOL     OW36628   1.916   0.571   4.284 -0.0378  0.1126 -0.5300
 8332SOL    HW136629   1.965   0.548   4.362 -0.2748  2.8678  0.4452
 8332SOL    HW236630   1.915   0.486   4.240 -1.8831 -0.3026  0.3368
 8333SOL     OW36631   2.237   4.414   1.085 -0.0306  0.1548  0.2622
 8333SOL    HW136632   2.171   4.441   1.148 -0.2757  0.3518 -0.0777
 8333SOL    HW236633   2.235   4.480   1.015  0.3989 -1.1671 -0.9889
 8334SOL     OW36634   1.952   0.292   8.611 -0.1343  0.3353 -0.3477
 8334SOL    HW136635   1.901   0.313   8.533 -2.5441  2.7810  1.8836
 8334SOL    HW236636   1.969   0.384   8.632 -2.2898  0.7298 -0.2424
 8335SOL     OW36637   2.466   1.350   5.515 -0.1399  0.3806 -0.1622
 8335SOL    HW136638   2.437   1.261   5.493 -0.5310  0.1011  1.4914
 8335SOL    HW236639   2.512   1.337   5.598 -2.1646 -0.0251  0.9159
 8336SOL     OW36640   4.565   2.819  11.706 -0.4885 -0.4665 -0.0102
 8336SOL    HW136641   4.520   2.755  11.762  1.9252 -1.6674  0.5671
 8336SOL    HW236642   4.632   2.768  11.660 -0.4824 -0.8086  0.3735
 8337SOL     OW36643   0.198   3.890   4.678 -0.1875 -0.5294  0.6965
 8337SOL    HW136644   0.215   3.799   4.700 -1.2418 -1.1096 -0.8736
 8337SOL    HW236645   0.118   3.909   4.726 -1.6212 -0.7673 -1.6030
 8338SOL     OW36646   0.766   3.793   2.604 -0.2151 -0.2514  0.4009
 8338SOL    HW136647   0.803   3.714   2.566 -0.7661 -0.8634  1.1392
 8338SOL    HW236648   0.784   3.863   2.541  0.7219 -1.5897 -0.8230
 8339SOL     OW36649   2.289   3.502   3.938  0.0394  0.0820  0.3156
 8339SOL    HW136650   2.203   3.506   3.980 -0.4513  1.1328 -0.8178
 8339SOL    HW236651   2.309   3.594   3.926 -1.5485  0.1662 -1.6662
 8340SOL     OW36652   0.960   4.605   6.439  0.1385  0.0529 -0.7543
 8340SOL    HW136653   0.880   4.609   6.491  1.6209  2.3593  1.3467
 8340SOL    HW236654   0.930   4.649   6.360 -0.1634  0.3895 -0.4555
 8341SOL     OW36655   1.746   2.775  11.488  0.1085 -0.0954 -0.5594
 8341SOL    HW136656   1.671   2.717  11.504  0.4132 -0.2252  0.3798
 8341SOL    HW236657   1.710   2.814  11.408 -2.7545 -3.9409 -1.1248
 8342SOL     OW36658   3.340   4.347   1.640 -0.0005  0.3260  0.4779
 8342SOL    HW136659   3.356   4.289   1.566  2.7250  1.1007  0.4683
 8342SOL    HW236660   3.244   4.357   1.639 -0.1082 -0.8796 -1.1145
 8343SOL     OW36661   3.882   2.186   4.203 -0.0764 -0.1457  0.4359
 8343SOL    HW136662   3.940   2.201   4.277 -1.4243 -0.6682  1.5883
 8343SOL    HW236663   3.851   2.276   4.190 -1.1834 -0.6271 -0.2538
 8344SOL     OW36664   2.233   4.449   6.123 -0.3244 -1.1987 -0.0040
 8344SOL    HW136665   2.145   4.462   6.086  0.2138  1.9106 -0.2516
 8344SOL    HW236666   2.260   4.531   6.081  0.5315 -1.5206 -0.0794
 8345SOL     OW36667   1.522   0.021   7.780 -0.2221 -1.1268 -0.4698
 8345SOL    HW136668   1.463   4.688   7.813 -1.4214 -0.0853 -0.4718
 8345SOL    HW236669   1.552   0.060   7.862 -1.0000 -0.7397 -0.3708
 8346SOL     OW36670   2.308   0.683   8.246 -0.2185  0.2447 -0.3791
 8346SOL    HW136671   2.309   0.588   8.262  1.2210  0.1045 -1.3208
 8346SOL    HW236672   2.390   0.704   8.291 -0.4841  1.7123 -0.5891
 8347SOL     OW36673   1.936   4.125  11.587 -0.4386  0.1806  0.3580
 8347SOL    HW136674   1.984   4.201  11.620 -1.0914 -0.0170  1.7700
 8347SOL    HW236675   1.954   4.134  11.494 -0.7928 -0.2549  0.2468
 8348SOL     OW36676   3.905   3.338   7.717  0.1158 -0.2130  0.1963
 8348SOL    HW136677   3.838   3.345   7.785 -1.3382  0.4578 -1.2963
 8348SOL    HW236678   3.968   3.291   7.771  0.9128  1.4230  0.6624
 8349SOL     OW36679   4.728   0.613   7.464 -0.2088  0.2124 -0.1313
 8349SOL    HW136680   0.012   0.564   7.544 -0.4392 -0.4679 -0.4961
 8349SOL    HW236681   4.706   0.699   7.499  1.7209  0.6877 -0.0502
 8350SOL     OW36682   1.040   1.967   2.931  0.0402  0.2547 -0.5957
 8350SOL    HW136683   1.100   1.954   2.858  1.1919  0.9191  0.2404
 8350SOL    HW236684   1.096   1.956   3.007 -1.3551  1.6204  0.6235
 8351SOL     OW36685   1.859   4.404  17.389  0.3358 -0.2572  0.3385
 8351SOL    HW136686   1.784   4.360  17.429 -0.4835  1.8505  1.0803
 8351SOL    HW236687   1.847   4.481  17.444 -2.8394  0.0254 -0.7921
 8352SOL     OW36688   0.361   1.409   7.312  0.1380 -0.3347 -0.0539
 8352SOL    HW136689   0.379   1.401   7.218  0.7637  1.5706 -0.0980
 8352SOL    HW236690   0.322   1.324   7.333 -0.8102 -0.1617 -1.0729
 8353SOL     OW36691   1.795   2.117   7.020  0.2639  0.0023 -0.4299
 8353SOL    HW136692   1.706   2.147   7.005  0.0797 -0.4737 -0.2983
 8353SOL    HW236693   1.768   2.028   6.996 -2.8038  0.4412  1.4077
 8354SOL     OW36694   1.180   0.421  17.701  0.4275 -0.0896 -0.1514
 8354SOL    HW136695   1.235   0.488  17.660  1.5493 -0.7294  0.3006
 8354SOL    HW236696   1.216   0.345  17.656 -0.5776 -1.6287  1.6665
 8355SOL     OW36697   3.888   3.636   3.288  0.0735 -0.5664  0.1107
 8355SOL    HW136698   3.904   3.647   3.195  1.3858 -1.8992  0.1776
 8355SOL    HW236699   3.947   3.563   3.306 -0.1992 -0.9445 -0.5691
 8356SOL     OW36700   0.231   3.998   7.165 -0.1155 -0.1740 -0.2249
 8356SOL    HW136701   0.255   3.908   7.187 -1.3792  0.2184  2.7882
 8356SOL    HW236702   0.163   3.983   7.099  1.2206  1.1327 -1.8968
 8357SOL     OW36703   1.590   2.092  12.820  0.1891 -0.1736 -0.3245
 8357SOL    HW136704   1.628   2.096  12.908  0.9741 -1.7872 -0.5783
 8357SOL    HW236705   1.553   2.180  12.826 -0.3837 -0.4660  0.5388
 8358SOL     OW36706   0.456   4.631  14.222 -0.0541  0.0915 -0.2674
 8358SOL    HW136707   0.458   4.553  14.168  1.6439  1.1057 -1.6601
 8358SOL    HW236708   0.540   4.628  14.267  0.7961  0.8410 -1.8043
 8359SOL     OW36709   3.299   2.619   5.156  0.6932 -0.1400  0.1414
 8359SOL    HW136710   3.306   2.640   5.249 -0.2038 -0.3972  0.2742
 8359SOL    HW236711   3.380   2.568   5.148  1.3376  1.3556 -2.7213
 8360SOL     OW36712   3.241   1.744   6.382  0.6121 -0.3638  0.5261
 8360SOL    HW136713   3.330   1.719   6.356  0.1197 -0.5480 -0.9498
 8360SOL    HW236714   3.188   1.666   6.364  0.3433  0.2278 -1.1659
 8361SOL     OW36715   3.989   2.396  16.451  0.0189 -0.4739  0.4003
 8361SOL    HW136716   3.956   2.308  16.433 -1.1928 -0.2897  1.7481
 8361SOL    HW236717   4.031   2.424  16.370  0.0291 -0.4631  0.4094
 8362SOL     OW36718   2.590   4.445   0.710 -1.0148  1.2751  0.2548
 8362SOL    HW136719   2.637   4.462   0.628 -1.4476 -1.0789 -0.4585
 8362SOL    HW236720   2.588   4.350   0.698 -0.9609  1.1210  1.5199
 8363SOL     OW36721   4.244   4.363  10.875  0.4346 -0.4817  0.1148
 8363SOL    HW136722   4.167   4.317  10.909  0.3869  0.4958  1.3072
 8363SOL    HW236723   4.293   4.377  10.955 -0.5065 -0.0181  0.6125
 8364SOL     OW36724   2.823   0.543  14.835 -0.3657  0.2041  0.0632
 8364SOL    HW136725   2.885   0.590  14.779 -0.0647  0.3123  0.4938
 8364SOL    HW236726   2.749   0.600  14.853  0.8909  1.6429  0.6309
 8365SOL     OW36727   3.509   3.311  16.950 -0.2769 -0.3049  0.6414
 8365SOL    HW136728   3.514   3.336  16.857  0.0875 -1.5614  0.3305
 8365SOL    HW236729   3.438   3.370  16.977 -1.5524 -2.3419  1.6763
 8366SOL     OW36730   3.874   3.203   6.580 -0.2044  0.2380 -0.1471
 8366SOL    HW136731   3.867   3.205   6.675 -1.3777  1.5163 -0.2529
 8366SOL    HW236732   3.952   3.149   6.567 -1.4566 -1.1845 -1.8213
 8367SOL     OW36733   0.514   0.911   7.560  0.1074  0.2817 -0.0535
 8367SOL    HW136734   0.479   0.919   7.471  2.5725 -1.5410 -1.1842
 8367SOL    HW236735   0.605   0.891   7.537  0.3455 -0.4189  1.5610
 8368SOL     OW36736   1.464   2.783   6.783  0.2010  0.5931 -0.3216
 8368SOL    HW136737   1.380   2.738   6.797  0.6081 -0.4777 -1.2588
 8368SOL    HW236738   1.500   2.718   6.722  1.2819  0.5806  0.3420
 8369SOL     OW36739   1.031   3.073   4.352 -0.3883 -0.3115 -0.1842
 8369SOL    HW136740   1.115   3.116   4.338 -0.9330  1.0272  0.6476
 8369SOL    HW236741   0.997   3.085   4.263 -1.7714 -0.7750  0.2861
 8370SOL     OW36742   3.764   0.971  15.734 -0.3381 -0.4580  0.9565
 8370SOL    HW136743   3.759   1.066  15.740  1.0878 -0.4156  1.3648
 8370SOL    HW236744   3.840   0.954  15.677 -0.9630 -0.2079  0.0424
 8371SOL     OW36745   2.474   2.576   2.236  0.2764 -0.2561 -0.3075
 8371SOL    HW136746   2.421   2.585   2.315 -3.2854 -0.1937 -2.6944
 8371SOL    HW236747   2.475   2.665   2.200 -0.7446 -0.1746 -0.1292
 8372SOL     OW36748   0.049   0.104  13.456 -0.0894 -0.0586  0.5602
 8372SOL    HW136749   4.711   0.077  13.513 -1.6523  0.2044 -1.2977
 8372SOL    HW236750   0.120   0.128  13.515 -0.5130  2.1572  0.1996
 8373SOL     OW36751   2.571   3.585   5.618  0.4071  0.3657 -0.8933
 8373SOL    HW136752   2.512   3.638   5.672 -0.5685 -0.8178 -0.7986
 8373SOL    HW236753   2.506   3.515   5.607  2.3470 -1.5675 -0.1204
 8374SOL     OW36754   3.519   0.158   3.351 -0.3939  0.4019 -0.3123
 8374SOL    HW136755   3.594   0.165   3.292  1.7836  1.9465  2.6121
 8374SOL    HW236756   3.477   0.240   3.324 -1.3696 -0.2098 -0.6675
 8375SOL     OW36757   2.575   1.013   2.598  0.4205  0.4971  0.2307
 8375SOL    HW136758   2.488   1.014   2.558  0.4227  0.8218  0.2300
 8375SOL    HW236759   2.590   0.919   2.610 -3.6578 -0.3460 -1.5002
 8376SOL     OW36760   3.673   1.419   8.215 -0.5056 -0.6684 -0.4979
 8376SOL    HW136761   3.669   1.497   8.271 -1.1130 -1.3856  0.4625
 8376SOL    HW236762   3.735   1.442   8.146  0.1314 -1.4476 -0.1882
 8377SOL     OW36763   4.658   0.215   4.495  0.8778 -0.2678 -0.0005
 8377SOL    HW136764   4.675   0.304   4.526  1.0779 -0.2611 -0.1336
 8377SOL    HW236765   4.567   0.212   4.526  0.0776  0.2673 -2.2877
 8378SOL     OW36766   0.103   0.413  10.344 -0.3016 -0.3411  0.6351
 8378SOL    HW136767   0.151   0.413  10.427  0.4215  0.3700  0.2192
 8378SOL    HW236768   0.064   0.325  10.347  1.5048 -1.1398  1.2275
 8379SOL     OW36769   1.202   0.615  12.780 -0.8448  0.1236  0.2829
 8379SOL    HW136770   1.221   0.705  12.753  1.9360 -0.8097 -0.8506
 8379SOL    HW236771   1.249   0.599  12.862  0.7803  1.8436 -0.3164
 8380SOL     OW36772   4.586   3.352   1.379  0.2242 -0.1342  0.7459
 8380SOL    HW136773   4.625   3.273   1.342 -3.5738 -2.5112  1.8046
 8380SOL    HW236774   4.552   3.323   1.464  0.1866 -0.9360  0.4558
 8381SOL     OW36775   2.310   0.204   1.873 -0.1504  0.4725 -0.0460
 8381SOL    HW136776   2.275   0.131   1.926 -2.3779  1.4943 -0.0994
 8381SOL    HW236777   2.384   0.152   1.843 -0.2320 -1.1782  2.5998
 8382SOL     OW36778   2.545   0.737  17.732  0.2225  0.1610 -0.1215
 8382SOL    HW136779   2.502   0.790   0.063  2.3297 -2.0113  2.9580
 8382SOL    HW236780   2.482   0.731  17.659 -2.0583 -2.1715  2.0031
 8383SOL     OW36781   3.733   0.235   5.698  0.3451  0.3686  0.5931
 8383SOL    HW136782   3.638   0.234   5.687  0.6164 -0.2010 -1.5931
 8383SOL    HW236783   3.742   0.140   5.697 -0.3070  0.3150  0.1671
 8384SOL     OW36784   2.332   2.064   3.093 -0.9500 -0.2397 -0.1403
 8384SOL    HW136785   2.248   2.110   3.086 -1.6569 -1.3493  1.0746
 8384SOL    HW236786   2.330   2.015   3.011  1.0622 -1.4816  0.5652
 8385SOL     OW36787   2.403   0.487   8.961  0.2525  0.6453 -0.4836
 8385SOL    HW136788   2.411   0.578   8.990 -0.9980  0.7658 -0.4984
 8385SOL    HW236789   2.456   0.437   9.022  0.2760  0.2487 -0.8250
 8386SOL     OW36790   0.018   3.514   4.215  0.0246 -0.2332 -0.0652
 8386SOL    HW136791   4.702   3.582   4.170 -2.6683 -0.6616  2.2592
 8386SOL    HW236792   0.090   3.566   4.249  0.2883 -0.9864  0.5113
 8387SOL     OW36793   3.335   3.004   8.000 -0.1850 -0.1028 -0.6050
 8387SOL    HW136794   3.298   3.086   8.032  2.6515  0.6817  0.6098
 8387SOL    HW236795   3.264   2.944   8.022 -1.1717  1.6274  0.8918
 8388SOL     OW36796   2.814   4.574   2.739  0.5088  0.1875 -0.9661
 8388SOL    HW136797   2.768   4.612   2.815  2.8644 -0.0914  0.6006
 8388SOL    HW236798   2.755   4.512   2.697 -0.3124  0.8151 -0.7545
 8389SOL     OW36799   2.833   0.312   6.339 -0.1920  0.5791 -0.0654
 8389SOL    HW136800   2.787   0.303   6.422 -1.3763  0.7985 -0.7094
 8389SOL    HW236801   2.798   0.397   6.316  0.2061  0.7719  0.0440
 8390SOL     OW36802   4.627   3.177  16.284 -0.4265 -0.1813 -0.1127
 8390SOL    HW136803   4.535   3.203  16.276 -0.5707 -0.7394 -0.2288
 8390SOL    HW236804   4.662   3.239  16.347  0.5554 -0.8585 -0.0068
 8391SOL     OW36805   3.285   1.587   8.491  0.2212  0.7497  0.2823
 8391SOL    HW136806   3.205   1.629   8.523 -0.5860 -0.7722  0.2533
 8391SOL    HW236807   3.295   1.512   8.550  0.7362  0.7829  0.2409
 8392SOL     OW36808   1.240   3.387   5.000  1.2256  0.3484 -0.5297
 8392SOL    HW136809   1.259   3.474   4.964  1.7881 -0.2136 -1.5888
 8392SOL    HW236810   1.231   3.349   4.913  0.7712  0.3299 -0.4710
 8393SOL     OW36811   4.068   0.583   2.231 -0.3777 -0.0973  0.1225
 8393SOL    HW136812   4.110   0.500   2.256 -2.7492 -1.4061 -0.2393
 8393SOL    HW236813   3.978   0.559   2.252 -0.1984 -0.5419  0.4002
 8394SOL     OW36814   3.789   1.969   5.777 -0.2268  0.2333  0.3887
 8394SOL    HW136815   3.855   2.023   5.736 -0.6991 -0.3316 -1.1075
 8394SOL    HW236816   3.831   1.953   5.862 -0.4003 -1.2464  0.1970
 8395SOL     OW36817   1.130   2.260   7.312  0.1718 -0.4152  0.0710
 8395SOL    HW136818   1.189   2.192   7.345  1.7731 -0.3625 -2.6824
 8395SOL    HW236819   1.196   2.329   7.315  0.3326 -0.5424 -0.5051
 8396SOL     OW36820   1.826   0.239  12.089 -0.0274  0.6473 -0.2208
 8396SOL    HW136821   1.828   0.326  12.049  1.2298  0.2939 -0.9169
 8396SOL    HW236822   1.906   0.252  12.140  1.3186 -0.6849 -1.9859
 8397SOL     OW36823   3.799   1.560   6.509  0.2075  0.1543  0.2712
 8397SOL    HW136824   3.727   1.578   6.569 -0.4234  0.3228 -0.5417
 8397SOL    HW236825   3.780   1.626   6.442  0.9501  2.8184  2.6578
 8398SOL     OW36826   4.362   4.660   1.844 -0.0683  0.1487 -0.3068
 8398SOL    HW136827   4.337   4.589   1.902  0.5594  0.8850  0.8659
 8398SOL    HW236828   4.287   4.721   1.846 -0.3950 -0.1840 -2.3646
 8399SOL     OW36829   3.845   2.455  16.944  0.1059 -0.0991 -0.7416
 8399SOL    HW136830   3.866   2.540  16.985  0.8782 -1.4857  1.7600
 8399SOL    HW236831   3.856   2.470  16.850  0.7873 -2.5302 -1.0414
 8400SOL     OW36832   0.127   1.741  14.560 -0.3774 -0.3775 -0.3195
 8400SOL    HW136833   0.104   1.777  14.474 -2.4114  0.7859  0.6958
 8400SOL    HW236834   0.096   1.652  14.545  0.4790 -0.5589 -0.9736
 8401SOL     OW36835   4.682   2.365  13.461  0.4157 -0.5714  0.2056
 8401SOL    HW136836   4.720   2.347  13.547  2.2791  0.7699 -0.3298
 8401SOL    HW236837   4.701   2.459  13.453  0.3334 -0.5396  0.3701
 8402SOL     OW36838   1.105   2.073   4.787  0.8274  0.1487  0.2028
 8402SOL    HW136839   1.116   2.101   4.696 -0.3560  1.6385  0.5253
 8402SOL    HW236840   1.010   2.061   4.795  0.9699 -1.9158 -1.2902
 8403SOL     OW36841   3.650   0.984   5.297 -0.2690 -0.1530  0.0823
 8403SOL    HW136842   3.681   0.898   5.271  0.2392  0.2100 -0.5368
 8403SOL    HW236843   3.611   0.982   5.384 -3.1359  0.2317 -1.1797
 8404SOL     OW36844   2.085   3.361   4.777  0.0841 -0.8081 -0.3858
 8404SOL    HW136845   2.104   3.445   4.736 -0.1976 -0.6016 -0.0968
 8404SOL    HW236846   2.119   3.293   4.720 -0.4828 -1.4054 -0.0206
 8405SOL     OW36847   3.766   0.465  14.638 -0.2429  0.1426  0.4526
 8405SOL    HW136848   3.834   0.476  14.704 -1.3775 -1.5950  1.9429
 8405SOL    HW236849   3.809   0.516  14.570 -0.3798 -0.5875 -0.1911
 8406SOL     OW36850   1.474   3.085   3.223 -0.2719 -0.2497  0.1654
 8406SOL    HW136851   1.524   3.081   3.305  0.0610  0.7776  0.0103
 8406SOL    HW236852   1.388   3.064   3.260  1.2158 -1.9727  2.6790
 8407SOL     OW36853   3.967   2.677   6.942 -0.2470  0.0436  0.1606
 8407SOL    HW136854   3.877   2.669   6.912 -1.2070  0.3872  2.8858
 8407SOL    HW236855   4.002   2.589   6.930 -0.1514  0.2067 -0.7302
 8408SOL     OW36856   1.021   4.557  13.991  0.6118 -0.1224 -0.0106
 8408SOL    HW136857   1.025   4.565  14.086  1.5025  0.8673 -0.1367
 8408SOL    HW236858   1.031   4.464  13.971 -0.4432 -0.4568  1.0290
 8409SOL     OW36859   1.032   0.086   4.860 -0.4512  0.2082  0.1118
 8409SOL    HW136860   1.076   0.008   4.894 -0.4450  0.0555 -0.2432
 8409SOL    HW236861   1.108   0.143   4.872  0.4240 -0.4668 -2.1758
 8410SOL     OW36862   3.903   0.911   4.035  0.3251  0.6103  0.0499
 8410SOL    HW136863   3.879   1.003   4.034  1.5246  0.9125 -1.6551
 8410SOL    HW236864   3.974   0.912   4.098  0.5942 -1.8828 -0.2005
 8411SOL     OW36865   4.562   2.698   6.841 -0.0416  0.0218  0.2340
 8411SOL    HW136866   4.495   2.682   6.908 -1.1870  0.8003 -0.7258
 8411SOL    HW236867   4.624   2.632   6.870 -2.0544 -2.4497 -1.0127
 8412SOL     OW36868   0.150   0.399   4.219  0.1755  0.5288 -0.2065
 8412SOL    HW136869   0.148   0.419   4.125 -0.6078  0.3913 -0.2205
 8412SOL    HW236870   0.056   0.380   4.223  0.2030  0.5424  0.5316
 8413SOL     OW36871   4.223   0.372   2.323 -0.1376 -0.6598  0.0585
 8413SOL    HW136872   4.279   0.402   2.395 -0.7039  3.9626 -1.4071
 8413SOL    HW236873   4.205   0.283   2.352 -2.2860 -0.9566 -2.1650
 8414SOL     OW36874   4.370   1.499   2.565  0.4928  0.1568  0.0775
 8414SOL    HW136875   4.376   1.405   2.583  0.0176 -0.0259 -0.7051
 8414SOL    HW236876   4.277   1.507   2.541  1.2897  3.8251 -1.8728
 8415SOL     OW36877   0.828   0.446  15.117 -0.2961 -0.2978 -0.7935
 8415SOL    HW136878   0.843   0.352  15.107  1.3089 -0.2163  0.7675
 8415SOL    HW236879   0.789   0.457  15.031 -2.8048  1.8947  0.6136
 8416SOL     OW36880   1.926   3.586   6.371  0.5845 -0.2024 -0.3066
 8416SOL    HW136881   2.003   3.638   6.393  0.0264  1.0001 -1.1676
 8416SOL    HW236882   1.871   3.597   6.449  1.6578 -2.3066  0.7244
 8417SOL     OW36883   3.033   0.573   2.336  0.4323  0.0368  0.5584
 8417SOL    HW136884   3.018   0.627   2.258 -1.4678 -0.4483  0.6072
 8417SOL    HW236885   3.082   0.500   2.297  0.0224 -0.2016  0.4862
 8418SOL     OW36886   1.432   0.508   4.429 -0.4743 -0.1904  0.2093
 8418SOL    HW136887   1.522   0.506   4.460 -0.7759 -0.4941  1.0423
 8418SOL    HW236888   1.400   0.589   4.470 -1.0287 -0.5306  0.4467
 8419SOL     OW36889   1.311   3.767  14.691 -0.2470  0.0975 -0.1503
 8419SOL    HW136890   1.406   3.778  14.694 -0.3466  0.5082  1.4639
 8419SOL    HW236891   1.291   3.838  14.751 -0.3418  1.1910 -1.4815
 8420SOL     OW36892   0.409   2.335  11.833  0.1569  0.2189 -0.0966
 8420SOL    HW136893   0.482   2.273  11.831 -0.5251 -0.6521  2.5613
 8420SOL    HW236894   0.451   2.410  11.791  0.6487  0.4055  0.7274
 8421SOL     OW36895   4.712   4.000   5.522  0.0103  0.1854 -0.0862
 8421SOL    HW136896   4.657   3.946   5.578  0.9962 -1.0777 -0.3285
 8421SOL    HW236897   4.656   4.075   5.502 -1.7984 -0.9638  0.7616
 8422SOL     OW36898   1.395   4.456  12.331 -0.2134 -0.2530 -0.4231
 8422SOL    HW136899   1.359   4.373  12.362  0.2498  0.2020  1.3485
 8422SOL    HW236900   1.331   4.515  12.371 -1.5568 -2.3380  0.4729
 8423SOL     OW36901   3.099   2.071   5.115  0.2877  0.2400 -0.1984
 8423SOL    HW136902   3.121   2.030   5.032  0.3577  1.5743 -0.8372
 8423SOL    HW236903   3.037   2.004   5.145 -0.3028  1.0503  0.3875
 8424SOL     OW36904   2.532   3.943   7.684  0.2713 -0.1706  0.1580
 8424SOL    HW136905   2.489   4.021   7.718 -0.1115  0.0682 -0.8517
 8424SOL    HW236906   2.529   3.968   7.591  3.5621  2.8918  0.8764
 8425SOL     OW36907   0.807   2.338   3.426  0.5115  0.4333  0.3595
 8425SOL    HW136908   0.807   2.428   3.460 -2.1320  0.4414  0.3480
 8425SOL    HW236909   0.889   2.330   3.376  2.1333  2.2861  2.7167
 8426SOL     OW36910   4.404   4.674   2.345  0.2537  0.2450 -0.4425
 8426SOL    HW136911   4.430   4.731   2.273 -0.1258  0.8604 -0.0927
 8426SOL    HW236912   4.484   4.620   2.343 -0.5936 -1.0823  1.2502
 8427SOL     OW36913   0.220   2.544  10.946 -0.2593  0.0435 -0.1795
 8427SOL    HW136914   0.195   2.457  10.913 -0.4602 -0.9180  2.5208
 8427SOL    HW236915   0.237   2.516  11.036 -0.8116  2.0887  0.5628
 8428SOL     OW36916   1.580   2.338  14.772 -0.2915  0.1273  0.1079
 8428SOL    HW136917   1.498   2.382  14.750 -0.8788 -1.0664 -0.0596
 8428SOL    HW236918   1.640   2.412  14.779 -0.7980  0.5644 -0.1381
 8429SOL     OW36919   0.517   3.564   5.066 -0.2967 -0.4044 -0.1656
 8429SOL    HW136920   0.442   3.595   5.117 -0.6422 -1.0096 -0.3079
 8429SOL    HW236921   0.473   3.548   4.982 -0.0020 -0.8451 -0.2353
 8430SOL     OW36922   1.278   0.831   3.332 -0.3002  0.1601 -0.2945
 8430SOL    HW136923   1.219   0.821   3.406 -0.8329  0.3893 -0.6861
 8430SOL    HW236924   1.362   0.813   3.373 -2.2400 -1.4042  2.9479
 8431SOL     OW36925   0.990   4.270   2.206  0.4038  0.3127  0.0047
 8431SOL    HW136926   0.928   4.325   2.157  1.5672  1.7384  0.1268
 8431SOL    HW236927   0.933   4.243   2.278  0.8989  1.6054  0.8788
 8432SOL     OW36928   2.076   2.510   8.841  0.0805  0.2729  0.5503
 8432SOL    HW136929   2.010   2.451   8.876  1.3433 -2.2350 -1.3151
 8432SOL    HW236930   2.072   2.581   8.905 -0.6434  1.0075 -0.3171
 8433SOL     OW36931   0.413   1.448   2.499  0.2201 -0.2855 -0.1838
 8433SOL    HW136932   0.498   1.491   2.506 -0.2521  0.9461 -1.9636
 8433SOL    HW236933   0.436   1.371   2.447 -2.1264  0.6660 -2.6329
 8434SOL     OW36934   2.468   0.384   7.306  0.3918  0.8577  0.1136
 8434SOL    HW136935   2.536   0.322   7.334 -1.5963 -0.9985  0.8185
 8434SOL    HW236936   2.395   0.370   7.366  0.2801 -0.9971 -0.4400
 8435SOL     OW36937   0.813   2.733   6.387  0.0692  0.3568 -0.4714
 8435SOL    HW136938   0.882   2.698   6.330  0.3949 -1.6512  1.1470
 8435SOL    HW236939   0.740   2.679   6.358  0.3265 -0.5593  0.5749
 8436SOL     OW36940   0.231   1.199   3.387 -0.3914  0.6900  0.0793
 8436SOL    HW136941   0.170   1.126   3.380  2.1543 -1.5239  1.0469
 8436SOL    HW236942   0.280   1.154   3.456 -0.5947 -0.2677 -0.4158
 8437SOL     OW36943   2.387   2.438  16.670 -0.4773 -0.3411  0.2826
 8437SOL    HW136944   2.454   2.496  16.707  1.5457 -3.1286  1.0102
 8437SOL    HW236945   2.306   2.477  16.704  0.7070  1.9229  0.5491
 8438SOL     OW36946   2.422   1.514   3.232  0.2633 -0.3912  0.3716
 8438SOL    HW136947   2.403   1.467   3.151 -0.0738  2.2686 -1.0869
 8438SOL    HW236948   2.338   1.508   3.276 -0.4503 -1.3379 -1.1313
 8439SOL     OW36949   1.294   3.628   5.672 -0.1410  0.3666  0.9295
 8439SOL    HW136950   1.334   3.651   5.757  1.8369 -0.0498  0.1056
 8439SOL    HW236951   1.363   3.572   5.638 -0.8557 -1.1644  2.0119
 8440SOL     OW36952   1.935   1.922   4.678 -0.1701  0.2499 -0.6957
 8440SOL    HW136953   1.872   1.854   4.656  2.3157 -1.2187 -3.3217
 8440SOL    HW236954   1.919   1.960   4.764 -1.7922 -3.4285  0.5989
 8441SOL     OW36955   1.534   0.751  14.841 -0.1791  0.4061 -0.7093
 8441SOL    HW136956   1.557   0.730  14.750  1.7525  0.7834 -0.3147
 8441SOL    HW236957   1.535   0.845  14.824 -0.4080  0.8244  1.7046
 8442SOL     OW36958   0.874   3.840   3.383 -0.0577 -0.1025  0.4999
 8442SOL    HW136959   0.788   3.847   3.340  0.7615 -0.2558 -1.1604
 8442SOL    HW236960   0.838   3.834   3.471 -0.5456  1.5311  0.4145
 8443SOL     OW36961   4.684   1.364   5.868 -0.2154 -0.0132 -0.8816
 8443SOL    HW136962   0.039   1.365   5.834 -0.3432 -0.8946 -1.2437
 8443SOL    HW236963   4.699   1.366   5.962  0.4274  0.9465 -1.0079
 8444SOL     OW36964   2.350   2.558   2.478  0.5342 -1.1643  0.7001
 8444SOL    HW136965   2.414   2.591   2.542  1.2049 -1.3257  0.1122
 8444SOL    HW236966   2.269   2.564   2.528 -0.2080 -2.2696 -0.3836
 8445SOL     OW36967   1.429   3.683   3.998 -0.3231 -0.3467 -0.4178
 8445SOL    HW136968   1.509   3.734   3.996 -1.6943  1.7936 -0.0169
 8445SOL    HW236969   1.470   3.600   3.973 -0.3057 -0.0516 -1.3751
 8446SOL     OW36970   3.546   3.248   6.868 -0.4860  0.1840  0.2120
 8446SOL    HW136971   3.554   3.213   6.957 -0.7677 -1.1208 -0.2848
 8446SOL    HW236972   3.539   3.176   6.806  1.2313  0.7115 -0.5994
 8447SOL     OW36973   4.321   2.810   8.706  0.0022 -0.8007 -0.1926
 8447SOL    HW136974   4.386   2.819   8.636 -0.6465  0.0350 -0.6837
 8447SOL    HW236975   4.256   2.761   8.657 -0.0881  0.8115 -1.7085
 8448SOL     OW36976   1.443   0.958   2.899  0.1551 -0.1592  0.8464
 8448SOL    HW136977   1.349   0.967   2.888  0.6400  1.4105 -1.7913
 8448SOL    HW236978   1.443   0.887   2.964 -1.5201  1.6543  2.8046
 8449SOL     OW36979   2.280   2.822   1.885  1.0853 -0.2962  0.5282
 8449SOL    HW136980   2.249   2.912   1.887 -0.6503 -0.8838  0.0522
 8449SOL    HW236981   2.334   2.820   1.965 -0.0837 -1.8942  1.2788
 8450SOL     OW36982   0.730   2.438   7.638  0.0435 -0.1150 -0.2016
 8450SOL    HW136983   0.769   2.477   7.560 -0.2257 -0.7179 -0.6376
 8450SOL    HW236984   0.704   2.515   7.688  0.2771 -0.4381  0.4088
 8451SOL     OW36985   1.660   0.667  11.798 -0.3143 -0.0166  0.1854
 8451SOL    HW136986   1.593   0.716  11.749  0.1839 -1.2824 -1.7635
 8451SOL    HW236987   1.717   0.641  11.726  1.6343  0.4299  1.5768
 8452SOL     OW36988   4.186   0.957  11.987 -0.2350  0.0514 -0.1560
 8452SOL    HW136989   4.138   0.960  11.904 -1.9487 -0.4003  0.8221
 8452SOL    HW236990   4.231   1.041  11.990 -0.0767 -0.0046 -0.8254
 8453SOL     OW36991   3.000   3.397   2.178  0.0446 -0.0353 -0.4214
 8453SOL    HW136992   3.057   3.397   2.255 -0.4605 -1.9200 -0.0394
 8453SOL    HW236993   2.923   3.349   2.210  0.4305 -2.2666 -2.8652
 8454SOL     OW36994   4.347   4.024   5.633  0.1179 -0.1862 -0.0829
 8454SOL    HW136995   4.384   4.092   5.577  0.5799 -1.1461 -0.9509
 8454SOL    HW236996   4.411   3.954   5.619  0.9495  0.6821 -0.5907
 8455SOL     OW36997   1.735   3.306   1.731  0.0263  0.3424  0.1268
 8455SOL    HW136998   1.706   3.382   1.780 -1.1273 -0.3008  0.4372
 8455SOL    HW236999   1.800   3.342   1.671  0.9770  0.4617  1.2398
 8456SOL     OW37000   4.307   2.820   6.283  0.2086 -0.1519  0.1828
 8456SOL    HW137001   4.398   2.795   6.266  0.3877  1.0978 -0.7180
 8456SOL    HW237002   4.315   2.840   6.376 -3.6240 -1.9708  0.8907
 8457SOL     OW37003   2.827   0.961   9.828 -0.0655  0.6266 -0.4328
 8457SOL    HW137004   2.769   0.889   9.804  0.8507 -0.8706  1.8235
 8457SOL    HW237005   2.829   1.003   9.742 -0.7702 -0.2671 -0.8816
 8458SOL     OW37006   1.125   3.735   2.488 -0.0944  0.3271 -0.0168
 8458SOL    HW137007   1.100   3.666   2.549  3.7545 -0.9769  0.0945
 8458SOL    HW237008   1.104   3.812   2.541  0.4751 -0.3516  1.1928
 8459SOL     OW37009   1.717   0.974   3.216  0.1234  0.0419  0.0137
 8459SOL    HW137010   1.657   1.015   3.154  0.2132 -0.3276 -0.3149
 8459SOL    HW237011   1.795   0.962   3.161 -0.0246 -0.6083 -0.0564
 8460SOL     OW37012   4.151   2.608   6.358  0.0712 -0.3691 -0.2731
 8460SOL    HW137013   4.080   2.670   6.342 -1.2222 -1.8087 -0.1351
 8460SOL    HW237014   4.225   2.661   6.330 -0.0344  0.7289  1.5645
 8461SOL     OW37015   3.057   0.881   8.445  0.1077 -0.5084 -0.1555
 8461SOL    HW137016   2.999   0.832   8.502 -1.4205  1.3219 -0.1443
 8461SOL    HW237017   3.097   0.808   8.399  0.4241 -1.2122  1.2296
 8462SOL     OW37018   0.427   4.151   7.311 -0.4852  0.4086  0.2053
 8462SOL    HW137019   0.521   4.132   7.301 -1.0905 -0.7793 -3.1792
 8462SOL    HW237020   0.387   4.065   7.301 -0.1843  0.4342 -1.2858
 8463SOL     OW37021   1.069   2.901  14.134  0.1104 -0.0859  0.3648
 8463SOL    HW137022   1.105   2.864  14.053 -0.2387  0.1809  0.0932
 8463SOL    HW237023   1.114   2.985  14.127 -1.9248  0.8184 -1.6686
 8464SOL     OW37024   1.862   3.504  12.012 -0.5460 -0.0561  0.1398
 8464SOL    HW137025   1.784   3.547  12.048  0.5278  1.0235  1.1519
 8464SOL    HW237026   1.858   3.419  12.056  2.2712 -1.1541 -1.7180
 8465SOL     OW37027   0.774   1.534  16.865 -0.0646 -0.2743 -0.3364
 8465SOL    HW137028   0.748   1.564  16.778 -2.4623 -1.0662  0.1120
 8465SOL    HW237029   0.821   1.613  16.893 -2.4334  1.7537 -2.0733
 8466SOL     OW37030   2.722   2.948  15.332  0.0584  0.3206 -0.1909
 8466SOL    HW137031   2.749   3.030  15.374 -0.1919  1.0090 -1.3553
 8466SOL    HW237032   2.676   2.898  15.399  2.5669 -1.5004  0.1763
 8467SOL     OW37033   2.266   0.400   9.441 -0.6915 -1.0051 -0.4127
 8467SOL    HW137034   2.178   0.394   9.404 -2.2484  0.4710  3.0612
 8467SOL    HW237035   2.244   0.408   9.534 -0.9558 -0.5688 -0.5145
 8468SOL     OW37036   4.461   3.901   3.415  0.3368  0.4911  0.2748
 8468SOL    HW137037   4.397   3.835   3.439  0.0227  0.3503 -0.9662
 8468SOL    HW237038   4.548   3.860   3.419 -0.0605 -0.4580 -1.1683
 8469SOL     OW37039   2.050   2.494   3.032  0.4252  0.5000  0.5220
 8469SOL    HW137040   2.129   2.536   3.066  1.4188  0.3006 -1.5666
 8469SOL    HW237041   1.984   2.551   3.071  0.0520 -1.1859  2.3353
 8470SOL     OW37042   0.016   3.602   0.521 -0.6028  0.6894 -0.6993
 8470SOL    HW137043   4.657   3.625   0.528  0.0546  2.7957  1.1707
 8470SOL    HW237044   0.003   3.509   0.540  3.3021  0.1422 -0.8497
 8471SOL     OW37045   3.872   3.305   9.019  0.2447  0.2576 -0.0131
 8471SOL    HW137046   3.962   3.284   8.993  0.0071  1.5784 -1.8435
 8471SOL    HW237047   3.876   3.255   9.101  1.6156 -1.2762 -1.0030
 8472SOL     OW37048   2.541   4.342   8.988  0.0328 -0.1282 -1.0626
 8472SOL    HW137049   2.612   4.292   8.948  1.0411  0.6196 -0.2135
 8472SOL    HW237050   2.548   4.417   8.929 -0.3427  0.8351  0.1054
 8473SOL     OW37051   4.587   0.154   6.864 -0.4197  0.3027 -0.2860
 8473SOL    HW137052   4.580   0.217   6.792  0.3210  2.8222  1.8424
 8473SOL    HW237053   4.522   0.176   6.931  1.3784  2.7204  0.6622
 8474SOL     OW37054   3.897   1.240   9.770  0.1237 -0.7436  0.5710
 8474SOL    HW137055   3.914   1.179   9.698  1.0296 -1.0432  1.0473
 8474SOL    HW237056   3.967   1.302   9.751 -1.1824  0.0970 -1.4453
 8475SOL     OW37057   3.072   3.989   6.788 -0.2850 -0.0453 -0.1096
 8475SOL    HW137058   3.129   3.912   6.795 -1.7868 -1.1250  0.2044
 8475SOL    HW237059   3.037   3.974   6.700 -1.7080 -1.5096  0.7202
 8476SOL     OW37060   3.592   0.435   6.212 -0.0860  0.7092  0.2264
 8476SOL    HW137061   3.568   0.386   6.133 -1.5262 -0.7219  1.5479
 8476SOL    HW237062   3.687   0.435   6.201 -0.3112  1.3286 -1.8781
 8477SOL     OW37063   4.007   1.442  16.274  0.0939  0.6786 -0.5227
 8477SOL    HW137064   4.079   1.404  16.325 -1.2281 -0.9711  0.1233
 8477SOL    HW237065   3.986   1.362  16.227  0.3148 -0.5774  1.4989
 8478SOL     OW37066   4.627   1.131  15.767  0.6193  0.1830 -0.5354
 8478SOL    HW137067   4.701   1.181  15.801 -0.8645  2.4089 -0.6235
 8478SOL    HW237068   4.553   1.190  15.777  0.4245 -0.8422  3.9521
 8479SOL     OW37069   0.738   3.313   0.382  0.1170 -0.2794  0.3028
 8479SOL    HW137070   0.784   3.376   0.327  0.1950 -1.4822 -1.0064
 8479SOL    HW237071   0.695   3.273   0.306  1.0998  0.7180 -0.7934
 8480SOL     OW37072   3.220   4.239   9.901 -0.0054 -0.7203 -0.1789
 8480SOL    HW137073   3.158   4.220   9.830  0.2221  1.0640 -0.8577
 8480SOL    HW237074   3.197   4.327   9.931  0.2500 -1.2045  1.4066
 8481SOL     OW37075   3.693   1.435  15.251  0.7285 -0.0441 -0.0701
 8481SOL    HW137076   3.634   1.368  15.216 -0.5308  1.2970 -0.5709
 8481SOL    HW237077   3.624   1.500  15.269  0.3793 -0.0153 -1.4796
 8482SOL     OW37078   0.308   4.448   6.242  0.2347  0.4495  0.2057
 8482SOL    HW137079   0.268   4.481   6.323 -0.3062 -0.4759  0.3093
 8482SOL    HW237080   0.351   4.532   6.224  1.3587 -0.5465 -1.7471
 8483SOL     OW37081   2.888   4.269   4.564 -0.1879  0.7294  0.3477
 8483SOL    HW137082   2.921   4.335   4.502  0.0701 -1.1380 -1.4988
 8483SOL    HW237083   2.965   4.213   4.557  0.4116  1.7514 -1.3129
 8484SOL     OW37084   0.727   1.372   5.746  0.3104  0.3716 -0.0845
 8484SOL    HW137085   0.809   1.415   5.767 -0.8076  1.5528  1.8177
 8484SOL    HW237086   0.663   1.435   5.778  1.8643  2.1846 -0.5200
 8485SOL     OW37087   3.576   0.600   2.751 -0.2193  0.2235 -0.1184
 8485SOL    HW137088   3.483   0.606   2.732 -0.4439  1.1959  1.2473
 8485SOL    HW237089   3.610   0.552   2.676  0.1690 -0.4375  0.4723
 8486SOL     OW37090   4.533   2.277   1.802  0.1437  0.2274  0.3535
 8486SOL    HW137091   4.501   2.198   1.845  0.7753  0.8236  1.9160
 8486SOL    HW237092   4.457   2.327   1.832  1.2726  0.2320  3.1801
 8487SOL     OW37093   0.921   3.126  13.814  0.1426  0.4768 -0.5168
 8487SOL    HW137094   0.836   3.170  13.819 -0.4469 -0.8909  1.3572
 8487SOL    HW237095   0.956   3.169  13.892 -2.5488  0.5364  0.6675
 8488SOL     OW37096   3.510   0.214   9.552  0.4202  0.1563 -0.2885
 8488SOL    HW137097   3.426   0.235   9.513 -0.5201  1.5924  2.4767
 8488SOL    HW237098   3.548   0.181   9.470 -0.0733 -0.4804 -0.2617
 8489SOL     OW37099   1.268   1.601   7.232 -0.2683 -0.0481 -0.4047
 8489SOL    HW137100   1.187   1.617   7.184 -1.3335 -2.1629  0.6668
 8489SOL    HW237101   1.228   1.572   7.314 -0.0489  1.2012  0.1439
 8490SOL     OW37102   1.489   1.815   9.240  0.4812  0.1860  0.1194
 8490SOL    HW137103   1.407   1.840   9.282  0.0661  3.1316 -2.4529
 8490SOL    HW237104   1.457   1.765   9.164  1.2390 -1.4080  0.8581
 8491SOL     OW37105   0.324   0.331   0.113 -0.3174 -0.2395 -0.2527
 8491SOL    HW137106   0.343   0.327   0.207 -0.3271 -0.4610 -0.2607
 8491SOL    HW237107   0.233   0.301   0.116 -1.0197  1.7434 -1.2984
 8492SOL     OW37108   0.400   1.608   8.287  0.3326  0.5949 -0.6667
 8492SOL    HW137109   0.321   1.650   8.252 -0.1380 -0.8262 -1.3213
 8492SOL    HW237110   0.459   1.679   8.310 -0.8468  0.9874  1.1757
 8493SOL     OW37111   1.622   2.038   9.250  0.2617 -0.7043  0.4592
 8493SOL    HW137112   1.567   2.086   9.189 -0.9898 -2.5698  0.1075
 8493SOL    HW237113   1.569   1.959   9.265 -1.2439  0.4009  0.9320
 8494SOL     OW37114   3.045   2.910   6.819 -0.4790  0.0451  0.1218
 8494SOL    HW137115   2.960   2.868   6.812 -0.8079  1.5857 -4.8065
 8494SOL    HW237116   3.103   2.841   6.788 -2.0716 -0.5766 -1.4404
 8495SOL     OW37117   0.795   3.521   2.489  0.8407  0.5889 -0.4101
 8495SOL    HW137118   0.806   3.534   2.395 -1.3840 -2.2674 -1.0635
 8495SOL    HW237119   0.792   3.426   2.490  1.8999  0.5514 -0.7424
 8496SOL     OW37120   4.471   1.590   4.354  0.0429  0.0513  0.1628
 8496SOL    HW137121   4.434   1.678   4.349  1.4332  0.7228  1.7707
 8496SOL    HW237122   4.529   1.603   4.429 -0.1549 -0.5647  0.4209
 8497SOL     OW37123   1.642   1.504   8.763  1.0498 -0.0414  0.0089
 8497SOL    HW137124   1.683   1.422   8.738  1.5375 -0.0748  0.8952
 8497SOL    HW237125   1.722   1.553   8.780  0.0345  1.5169  0.2938
 8498SOL     OW37126   3.643   4.018   0.552 -0.2087  0.2528 -0.0242
 8498SOL    HW137127   3.683   3.931   0.547  0.0640  0.2650  2.0060
 8498SOL    HW237128   3.576   4.003   0.619  0.6438  0.4073  0.8508
 8499SOL     OW37129   3.577   3.457   3.047  0.7804  0.7300 -0.0864
 8499SOL    HW137130   3.531   3.373   3.038 -1.2669  1.5941  2.3203
 8499SOL    HW237131   3.649   3.443   3.109 -0.9965  0.0503  1.8441
 8500SOL     OW37132   3.612   3.311  12.372 -0.7211 -0.2389  0.1067
 8500SOL    HW137133   3.536   3.324  12.429 -1.3039 -1.3092 -0.4142
 8500SOL    HW237134   3.648   3.226  12.397 -1.7601 -0.0799  2.1242
 8501SOL     OW37135   1.304   4.100   6.641 -0.1236  0.9016 -0.3688
 8501SOL    HW137136   1.250   4.059   6.709 -0.4738 -0.2418 -1.3364
 8501SOL    HW237137   1.307   4.193   6.665  0.6960  0.5340  1.0011
 8502SOL     OW37138   0.134   0.900   3.688 -0.3833 -0.2483  0.1606
 8502SOL    HW137139   0.095   0.814   3.707  1.2728 -1.1712 -0.5798
 8502SOL    HW237140   0.070   0.939   3.629  3.1090  0.8506 -2.9503
 8503SOL     OW37141   2.661   1.028   3.153 -0.2837 -0.2070  0.2681
 8503SOL    HW137142   2.671   0.939   3.118  0.9704 -1.3340  3.4898
 8503SOL    HW237143   2.636   1.091   3.085  1.5934 -0.7026 -0.8928
 8504SOL     OW37144   4.505   0.455   7.590  0.0034  0.5550 -0.1613
 8504SOL    HW137145   4.500   0.515   7.515 -0.2979 -0.8188 -1.2387
 8504SOL    HW237146   4.600   0.451   7.604 -0.0768  1.9463  0.7303
 8505SOL     OW37147   0.533   3.665   8.386  0.1672  0.1522  0.4132
 8505SOL    HW137148   0.523   3.742   8.331  2.0394  0.8017  0.9868
 8505SOL    HW237149   0.623   3.665   8.418  0.5222 -0.8037 -0.5932
 8506SOL     OW37150   4.160   3.410  16.176 -0.4024  0.1408 -0.2504
 8506SOL    HW137151   4.158   3.407  16.272 -0.7178 -0.6854 -0.2840
 8506SOL    HW237152   4.096   3.342  16.154  0.0102  0.6057 -2.8463
 8507SOL     OW37153   1.105   2.174  16.792  0.0056  0.6195 -0.2046
 8507SOL    HW137154   1.190   2.143  16.760  0.5239 -1.1475  2.8578
 8507SOL    HW237155   1.101   2.262  16.754 -3.1873  0.5220 -0.0895
 8508SOL     OW37156   4.143   3.464  16.933  0.4001 -0.4176  0.3039
 8508SOL    HW137157   4.103   3.452  16.847  0.1194  2.7086  0.0146
 8508SOL    HW237158   4.082   3.529  16.967 -0.3057 -0.8603 -0.1086
 8509SOL     OW37159   3.278   2.955   4.150 -0.1670  0.0809 -0.0277
 8509SOL    HW137160   3.369   2.981   4.167 -0.1178 -0.5282  0.6509
 8509SOL    HW237161   3.252   2.906   4.229 -0.2572 -0.9057 -0.6686
 8510SOL     OW37162   3.384   1.073   3.514  0.1189 -0.7708 -0.4854
 8510SOL    HW137163   3.469   1.057   3.555  0.6656 -0.1981 -1.4014
 8510SOL    HW237164   3.363   1.160   3.548  0.6339 -1.2341  0.9905
 8511SOL     OW37165   3.586   1.719   4.126 -0.3988  0.2614  0.2304
 8511SOL    HW137166   3.597   1.787   4.193  0.1671  0.5508 -0.1485
 8511SOL    HW237167   3.508   1.743   4.076  1.2186 -0.7898 -2.8096
 8512SOL     OW37168   2.226   1.171   3.079  0.6015  0.5006 -0.0425
 8512SOL    HW137169   2.172   1.214   3.013  1.6410  4.3957  1.6224
 8512SOL    HW237170   2.186   1.201   3.161  0.6929 -2.3230  1.0438
 8513SOL     OW37171   1.883   2.577  11.705 -0.2779  0.2615  0.4779
 8513SOL    HW137172   1.915   2.666  11.699  0.5027  0.1039  2.1959
 8513SOL    HW237173   1.792   2.591  11.733  0.0417  2.0065  0.6309
 8514SOL     OW37174   2.903   0.165   2.895  0.1523  0.0325 -0.6604
 8514SOL    HW137175   2.860   0.121   2.968  0.6614  3.0539  1.4670
 8514SOL    HW237176   2.960   0.094   2.867  1.2520  1.1241 -1.1864
 8515SOL     OW37177   2.320   3.484  16.361  0.0543 -0.2470 -0.1972
 8515SOL    HW137178   2.328   3.574  16.329  1.2906 -0.6901 -1.1193
 8515SOL    HW237179   2.227   3.490  16.382 -0.2080 -0.0066 -1.3940
 8516SOL     OW37180   0.843   2.141  15.426  0.4034 -0.1386 -0.2686
 8516SOL    HW137181   0.829   2.211  15.362  1.6196 -0.0651 -0.4499
 8516SOL    HW237182   0.932   2.123  15.396  1.8669  3.0684  2.1261
 8517SOL     OW37183   0.707   1.011   6.961  0.4668 -0.6168  0.1408
 8517SOL    HW137184   0.776   0.984   6.901 -0.0671  0.0404 -0.7721
 8517SOL    HW237185   0.663   0.931   6.990  2.1978 -1.7664 -0.4190
 8518SOL     OW37186   3.009   1.593   9.004  0.1805  0.3758  0.1894
 8518SOL    HW137187   3.061   1.517   9.029 -1.6856 -1.3707 -1.2570
 8518SOL    HW237188   3.020   1.653   9.078 -0.6775  0.6040  0.1333
 8519SOL     OW37189   2.499   0.069   7.179 -1.0507 -0.0388 -0.1145
 8519SOL    HW137190   2.495   0.149   7.127 -1.7814  1.3011  2.0250
 8519SOL    HW237191   2.404   0.059   7.188 -0.9815 -0.6829 -0.0968
 8520SOL     OW37192   0.788   4.401   2.119  0.2886 -0.5406 -0.4861
 8520SOL    HW137193   0.723   4.332   2.104 -0.2892 -0.2516  0.6573
 8520SOL    HW237194   0.737   4.475   2.152 -0.2914 -0.9977 -0.3501
 8521SOL     OW37195   3.029   4.499  11.601 -0.1761  0.3595 -0.5264
 8521SOL    HW137196   3.016   4.457  11.516 -1.6718  2.2187 -1.2142
 8521SOL    HW237197   2.940   4.532  11.610  0.4002  0.9200  2.8730
 8522SOL     OW37198   0.666   1.301  12.738  0.3154  0.1081  0.0022
 8522SOL    HW137199   0.622   1.219  12.762 -1.6555  1.5436  1.3207
 8522SOL    HW237200   0.693   1.276  12.650  2.9150  0.8823  0.5943
 8523SOL     OW37201   0.858   3.500   8.278 -0.0179 -0.2077  0.1945
 8523SOL    HW137202   0.847   3.407   8.297  2.5153 -0.4920  0.2300
 8523SOL    HW237203   0.824   3.518   8.190  1.9208  1.0478 -0.2988
 8524SOL     OW37204   2.961   3.086  11.517  0.0654 -0.4634 -0.3605
 8524SOL    HW137205   2.941   3.084  11.423 -0.2011 -0.3874 -0.3057
 8524SOL    HW237206   2.969   3.181  11.525 -1.9850 -0.2265 -1.0618
 8525SOL     OW37207   4.175   1.929  12.918 -0.9028  0.8049  0.3367
 8525SOL    HW137208   4.190   1.837  12.942 -1.3266  0.6004 -0.1746
 8525SOL    HW237209   4.080   1.932  12.933 -0.8500 -0.7344  0.9566
 8526SOL     OW37210   0.835   4.680  12.897  0.4761  1.1074  0.4834
 8526SOL    HW137211   0.810   4.667  12.806 -1.8618  1.4706  1.0908
 8526SOL    HW237212   0.930   4.665  12.900  0.2175 -0.7076 -1.1089
 8527SOL     OW37213   0.714   2.334   5.825  0.4202 -0.7676 -0.4957
 8527SOL    HW137214   0.713   2.373   5.912 -1.2834 -1.7897 -0.0576
 8527SOL    HW237215   0.649   2.390   5.782 -0.3802 -0.3198  1.3232
 8528SOL     OW37216   3.579   2.185  15.801  0.4095  0.2532 -0.4887
 8528SOL    HW137217   3.564   2.276  15.824  0.9500  0.1903  0.1171
 8528SOL    HW237218   3.580   2.202  15.706  3.9096  0.2635 -0.4677
 8529SOL     OW37219   0.234   0.011   3.871 -0.1106  0.2679  0.5633
 8529SOL    HW137220   0.179   0.081   3.836  1.2575 -0.1284 -2.4026
 8529SOL    HW237221   0.271   0.066   3.939 -0.6400  2.0836 -0.6357
 8530SOL     OW37222   0.122   4.107  12.259 -0.1382  0.0217  0.3200
 8530SOL    HW137223   0.176   4.161  12.317 -0.2436 -0.3320  0.7412
 8530SOL    HW237224   0.199   4.061  12.225  2.5109  2.8765  2.4613
 8531SOL     OW37225   0.877   2.836  15.991 -0.3691 -0.2731 -0.0596
 8531SOL    HW137226   0.930   2.854  15.913  3.2088 -2.5316  1.8374
 8531SOL    HW237227   0.912   2.912  16.037 -2.7391  0.8914 -0.2123
 8532SOL     OW37228   1.273   1.175   2.446 -0.7604 -0.1777  0.1191
 8532SOL    HW137229   1.316   1.148   2.527 -0.2438 -0.0959 -0.1298
 8532SOL    HW237230   1.180   1.188   2.463 -0.8492 -0.7911  0.1015
 8533SOL     OW37231   3.804   2.486  16.688 -0.0803  0.7161 -0.5151
 8533SOL    HW137232   3.801   2.435  16.607  0.2275 -0.3149  0.1185
 8533SOL    HW237233   3.750   2.561  16.665 -0.6297  0.1231 -1.1772
 8534SOL     OW37234   2.902   1.548   4.741 -0.3210 -0.3539 -0.2717
 8534SOL    HW137235   2.822   1.495   4.748  0.0296 -0.9823 -1.1406
 8534SOL    HW237236   2.861   1.622   4.787 -0.5474 -0.8353  0.3084
 8535SOL     OW37237   1.778   4.151  16.974  0.0048  0.8395 -0.1430
 8535SOL    HW137238   1.727   4.203  17.035  0.7769  1.4934 -0.0490
 8535SOL    HW237239   1.712   4.087  16.949  2.3358 -1.1619 -1.2598
 8536SOL     OW37240   0.242   2.587   3.917  0.0634 -0.1039  0.4789
 8536SOL    HW137241   0.176   2.554   3.856  2.0533  0.5358 -2.0168
 8536SOL    HW237242   0.317   2.601   3.860 -0.1816 -0.3796  0.0883
 8537SOL     OW37243   1.332   2.449   5.160  0.1757  0.3663 -0.0684
 8537SOL    HW137244   1.239   2.435   5.176  0.7729 -2.1737  1.2328
 8537SOL    HW237245   1.348   2.540   5.182 -0.8316  0.2996  0.8916
 8538SOL     OW37246   1.009   0.778  12.266 -0.0577  0.3065  0.4246
 8538SOL    HW137247   1.057   0.861  12.273 -0.0491  0.2218  1.3701
 8538SOL    HW237248   1.021   0.756  12.174  1.0489  1.3368  0.3176
 8539SOL     OW37249   0.720   1.271   3.867 -0.7614 -0.0272  0.1312
 8539SOL    HW137250   0.686   1.360   3.876 -1.1479 -0.2502  0.8789
 8539SOL    HW237251   0.653   1.227   3.919 -0.0304 -0.6613  0.5376
 8540SOL     OW37252   1.059   1.493   5.620 -0.4554 -0.1255  0.1315
 8540SOL    HW137253   1.065   1.508   5.714 -2.6937 -1.2680  0.4347
 8540SOL    HW237254   1.107   1.571   5.590 -1.2736 -0.1956 -1.3779
 8541SOL     OW37255   4.166   1.191   7.473 -0.0820 -0.2782 -0.2730
 8541SOL    HW137256   4.128   1.252   7.537  2.3543  0.5713  0.3691
 8541SOL    HW237257   4.125   1.110   7.505  1.2189 -1.2235 -1.0400
 8542SOL     OW37258   3.892   4.439   3.859  0.1486 -0.0514 -0.4433
 8542SOL    HW137259   3.968   4.496   3.847 -0.4336  0.5387 -1.2997
 8542SOL    HW237260   3.906   4.369   3.795  0.0936  0.7429 -1.3224
 8543SOL     OW37261   3.058   0.968  16.550  0.3245 -0.2191 -0.5445
 8543SOL    HW137262   3.144   0.987  16.511  0.5612 -0.1147  0.0263
 8543SOL    HW237263   3.019   1.055  16.540  1.4910  0.4948  1.0027
 8544SOL     OW37264   2.650   3.019  15.827 -0.6270  0.4040 -0.1002
 8544SOL    HW137265   2.673   3.029  15.919  3.1542 -1.6327 -0.8271
 8544SOL    HW237266   2.737   3.024  15.787 -0.8504  1.7198 -0.4257
 8545SOL     OW37267   2.312   1.132   2.434  0.1020 -0.0592  0.3071
 8545SOL    HW137268   2.248   1.146   2.365  1.9151  0.0635 -1.3551
 8545SOL    HW237269   2.324   1.037   2.428  0.0021 -0.0737  0.3439
 8546SOL     OW37270   1.911   3.641   2.961 -0.2082  0.2120  0.2532
 8546SOL    HW137271   1.916   3.678   2.873 -1.5092 -0.0929  0.0475
 8546SOL    HW237272   1.858   3.702   3.012  0.7589  1.2610 -0.0007
 8547SOL     OW37273   1.004   1.706   8.047  0.1461 -0.3588 -0.6117
 8547SOL    HW137274   1.034   1.669   7.964 -2.6691  0.8395 -2.1206
 8547SOL    HW237275   0.911   1.716   8.028 -0.1456 -0.2660  0.8324
 8548SOL     OW37276   2.745   3.032   1.195  0.5491  1.1088  0.0435
 8548SOL    HW137277   2.839   3.019   1.188  0.4917  0.9340 -0.4358
 8548SOL    HW237278   2.741   3.112   1.142 -1.6224  0.1756 -1.1940
 8549SOL     OW37279   3.585   0.535   2.441  0.3605 -0.3147 -0.7350
 8549SOL    HW137280   3.579   0.622   2.403  0.0835  0.7461  1.7902
 8549SOL    HW237281   3.504   0.495   2.410 -0.2587  0.9278 -0.7052
 8550SOL     OW37282   0.737   4.552   3.096 -0.1090  0.3351  0.0941
 8550SOL    HW137283   0.701   4.471   3.059 -0.2076 -0.0377  0.9870
 8550SOL    HW237284   0.664   4.577   3.152 -1.1749 -1.8287 -0.3038
 8551SOL     OW37285   2.253   0.460  16.523  1.0429 -0.3755  0.1298
 8551SOL    HW137286   2.335   0.411  16.520  2.8898  2.6884  0.0864
 8551SOL    HW237287   2.215   0.431  16.441  1.8342  0.9212 -0.6962
 8552SOL     OW37288   2.403   1.718   7.126  0.0593  0.1045  0.2357
 8552SOL    HW137289   2.401   1.637   7.075 -0.5725  0.5719 -0.4969
 8552SOL    HW237290   2.315   1.749   7.105  0.6741  2.6113  1.3758
 8553SOL     OW37291   1.782   2.048   5.147 -0.2518  0.3337  0.3617
 8553SOL    HW137292   1.788   2.143   5.149  0.3938  0.2759  1.1368
 8553SOL    HW237293   1.710   2.042   5.210  0.5885  1.7190  1.4628
 8554SOL     OW37294   3.378   2.561  16.609  0.2930 -0.1888  0.6025
 8554SOL    HW137295   3.413   2.485  16.655  2.4810 -0.0632 -0.8674
 8554SOL    HW237296   3.297   2.580  16.658  0.2900  1.5630 -0.0664
 8555SOL     OW37297   2.340   3.407   6.944 -0.0438  0.0111  0.0259
 8555SOL    HW137298   2.328   3.501   6.932 -1.7119 -0.0811  0.9721
 8555SOL    HW237299   2.318   3.375   6.856  0.6361 -1.3747  0.3642
 8556SOL     OW37300   1.632   3.252   0.337 -0.4526  0.5526 -0.0366
 8556SOL    HW137301   1.639   3.343   0.367 -0.4198 -0.1268  1.9838
 8556SOL    HW237302   1.604   3.258   0.245  1.5935  1.0618 -0.6370
 8557SOL     OW37303   0.990   0.910   4.387  0.1157 -0.4196  0.3989
 8557SOL    HW137304   0.937   0.857   4.328  0.6535 -0.8304  0.2848
 8557SOL    HW237305   1.060   0.932   4.326 -1.2550 -0.4689 -1.1852
 8558SOL     OW37306   3.470   0.885  17.675  0.0324 -0.3189  0.2625
 8558SOL    HW137307   3.523   0.924   0.009  0.4077 -1.9065  0.8633
 8558SOL    HW237308   3.532   0.882  17.603 -1.9115 -1.1316 -1.3935
 8559SOL     OW37309   4.670   1.319  17.139  0.2428 -0.0128 -0.3451
 8559SOL    HW137310   4.588   1.275  17.161 -0.6756 -0.1968 -4.1384
 8559SOL    HW237311   4.638   1.393  17.088 -3.7641 -1.8381 -0.5062
 8560SOL     OW37312   0.603   2.025   3.741 -0.2467 -0.0364 -0.2824
 8560SOL    HW137313   0.555   2.002   3.820  0.1043 -2.0738 -0.6748
 8560SOL    HW237314   0.683   1.975   3.755 -0.2877  0.1567  0.6718
 8561SOL     OW37315   0.586   1.378   6.116 -0.4616 -0.2852 -0.7942
 8561SOL    HW137316   0.662   1.434   6.098 -2.3379  2.3053 -0.6397
 8561SOL    HW237317   0.631   1.295   6.133 -1.5006 -0.8267 -0.7027
 8562SOL     OW37318   1.219   1.047  16.595 -0.4815  0.2552 -1.1222
 8562SOL    HW137319   1.129   1.064  16.570 -1.0994 -0.2997  0.7460
 8562SOL    HW237320   1.238   0.991  16.519 -0.0147 -0.7322 -0.2700
 8563SOL     OW37321   3.669   3.062  12.420 -0.3126 -0.3325  0.0323
 8563SOL    HW137322   3.712   3.016  12.493  1.1020  0.5896 -0.2140
 8563SOL    HW237323   3.658   2.987  12.361  1.1625 -0.3428 -0.2410
 8564SOL     OW37324   3.924   4.712   7.466 -0.1230  0.4598 -0.1332
 8564SOL    HW137325   3.880   4.628   7.454  1.9181 -0.4244 -1.4111
 8564SOL    HW237326   3.891   4.733   7.554  0.7816  2.2137 -0.2139
 8565SOL     OW37327   1.578   2.029   5.305  0.1300  0.1421 -0.0939
 8565SOL    HW137328   1.557   2.121   5.321 -0.5738  0.2795 -1.8746
 8565SOL    HW237329   1.493   2.005   5.269  1.2327 -0.5088 -2.2086
 8566SOL     OW37330   2.250   0.071  13.981  0.2176 -1.0273 -0.2024
 8566SOL    HW137331   2.220   4.722  14.018  1.2310 -2.4444 -2.5431
 8566SOL    HW237332   2.343   0.064  14.003  0.1177 -0.8396  0.2695
 8567SOL     OW37333   2.303   0.224   5.171 -0.3938  0.6374 -0.3089
 8567SOL    HW137334   2.315   0.218   5.076  2.5505 -0.8276  0.1630
 8567SOL    HW237335   2.384   0.265   5.203 -0.4800 -0.2366  1.0058
 8568SOL     OW37336   0.422   0.736   5.262 -0.3826 -0.3794  0.1966
 8568SOL    HW137337   0.436   0.713   5.354  2.5685 -0.0411 -0.1677
 8568SOL    HW237338   0.488   0.801   5.240 -1.0041  0.9037  2.2066
 8569SOL     OW37339   2.476   0.080  10.387  0.2377 -0.0634 -0.0178
 8569SOL    HW137340   2.398   0.135  10.390 -0.7803 -1.4003 -1.9822
 8569SOL    HW237341   2.456   0.018  10.457 -0.1685 -0.6325 -0.6278
 8570SOL     OW37342   0.304   3.960  17.042  0.2804 -0.3280 -0.4992
 8570SOL    HW137343   0.250   4.026  17.000 -1.8983 -1.4344  0.5534
 8570SOL    HW237344   0.310   3.997  17.130 -2.7316  2.7249 -1.5801
 8571SOL     OW37345   0.397   2.926   2.727  0.6113 -0.7885 -0.0679
 8571SOL    HW137346   0.345   2.846   2.734  0.4820 -0.5938  1.1938
 8571SOL    HW237347   0.427   2.931   2.636 -0.2559  2.1449 -0.1865
 8572SOL     OW37348   2.652   0.672   9.749 -0.1389 -0.6557  0.0881
 8572SOL    HW137349   2.731   0.641   9.793 -0.8349 -1.0035  1.0987
 8572SOL    HW237350   2.694   0.695   9.666  3.5439 -2.6711  1.3950
 8573SOL     OW37351   2.124   3.538   3.210 -0.0274 -0.1285 -0.3144
 8573SOL    HW137352   2.157   3.626   3.194  0.5227 -0.1284  0.8360
 8573SOL    HW237353   2.047   3.533   3.153 -0.9463 -1.5929  1.0431
 8574SOL     OW37354   0.722   1.039   2.474  0.5811 -0.7267 -0.0614
 8574SOL    HW137355   0.756   1.098   2.541  0.7723 -0.8269 -0.0719
 8574SOL    HW237356   0.759   0.962   2.516 -1.3762 -2.6495 -1.8369
 8575SOL     OW37357   2.847   4.272  17.152 -0.4988  0.0600 -0.5764
 8575SOL    HW137358   2.897   4.258  17.232 -3.0831 -2.4957  0.6048
 8575SOL    HW237359   2.831   4.366  17.149 -0.7947  0.0092 -0.6903
 8576SOL     OW37360   3.103   0.688   8.068  0.2832 -0.6289  0.1892
 8576SOL    HW137361   3.113   0.674   7.974  2.9114 -1.1404  0.5512
 8576SOL    HW237362   3.122   0.782   8.078  0.6518 -0.6849  0.0202
 8577SOL     OW37363   4.598   3.857   7.749  0.0690  0.3038  0.0821
 8577SOL    HW137364   4.642   3.939   7.767 -1.3689  1.0902  0.0111
 8577SOL    HW237365   4.545   3.848   7.828  1.6051  0.2036  1.1013
 8578SOL     OW37366   4.136   3.281   7.421 -0.3975 -1.1150 -0.5266
 8578SOL    HW137367   4.190   3.256   7.346  0.9044  0.5559 -0.1263
 8578SOL    HW237368   4.181   3.234   7.492  2.3066 -0.4764 -1.8313
 8579SOL     OW37369   3.933   0.166   0.316  0.2358 -0.1259 -0.6638
 8579SOL    HW137370   4.003   0.158   0.380 -1.7170 -1.1541  1.3481
 8579SOL    HW237371   3.899   0.078   0.334 -0.2396  0.3345  0.6604
 8580SOL     OW37372   4.267   2.016   2.577  0.8001  0.4362 -0.3392
 8580SOL    HW137373   4.262   2.016   2.672 -0.2308  0.4614 -0.3896
 8580SOL    HW237374   4.298   2.106   2.567 -0.7605  0.6759 -3.3100
 8581SOL     OW37375   3.894   3.570  16.346 -0.1581  0.0887 -0.3439
 8581SOL    HW137376   3.873   3.535  16.260 -0.0228 -0.7555 -0.0249
 8581SOL    HW237377   3.989   3.569  16.337 -0.0603 -0.7916  0.8726
 8582SOL     OW37378   0.927   0.925   6.789  0.7791  0.3295 -0.1808
 8582SOL    HW137379   1.022   0.924   6.778  0.9625  0.3568  1.5270
 8582SOL    HW237380   0.889   0.957   6.707 -0.5089 -0.2805  0.1690
 8583SOL     OW37381   2.179   2.185   9.198  0.0663 -0.1410 -0.5092
 8583SOL    HW137382   2.182   2.089   9.198  0.4961 -0.1253 -0.0182
 8583SOL    HW237383   2.094   2.202   9.237  1.0033  0.2224  1.3939
 8584SOL     OW37384   2.320   2.640  13.366 -0.1784  0.0878 -0.0419
 8584SOL    HW137385   2.227   2.647  13.348 -0.2567  1.5102  0.9376
 8584SOL    HW237386   2.346   2.732  13.357 -0.2647 -0.1049 -2.2214
 8585SOL     OW37387   0.817   3.821   7.876  0.5741  0.0776  0.2547
 8585SOL    HW137388   0.746   3.871   7.914 -0.2617  0.2581 -1.5325
 8585SOL    HW237389   0.853   3.893   7.823  2.0936 -3.7258 -3.9308
 8586SOL     OW37390   4.709   3.663   9.847 -0.0752 -0.6242 -0.5679
 8586SOL    HW137391   0.043   3.595   9.849  0.1489 -0.3809  0.5654
 8586SOL    HW237392   4.706   3.685   9.940  0.4137  3.2916 -1.4908
 8587SOL     OW37393   2.915   3.712  15.185  0.0977  0.6092 -0.0862
 8587SOL    HW137394   2.886   3.684  15.097 -0.6908  3.8678 -0.8486
 8587SOL    HW237395   2.833   3.750  15.217 -0.2605  1.4196 -1.9129
 8588SOL     OW37396   3.370   0.217   2.143  0.1015 -0.4239 -0.0451
 8588SOL    HW137397   3.407   0.246   2.060  0.0401 -1.6671 -0.5085
 8588SOL    HW237398   3.455   0.196   2.184 -1.7058 -2.3375  2.7354
 8589SOL     OW37399   0.066   3.036   4.692 -0.3494  0.5721  0.0075
 8589SOL    HW137400   4.708   3.062   4.692 -0.5326 -0.0548  1.1016
 8589SOL    HW237401   0.094   3.054   4.602  0.1736  2.0942  0.4861
 8590SOL     OW37402   0.305   0.113   6.059 -0.1918  0.2338  0.3731
 8590SOL    HW137403   0.211   0.092   6.057  0.1032 -0.8807 -1.4604
 8590SOL    HW237404   0.312   0.162   5.977 -0.3632 -0.2012  0.0977
 8591SOL     OW37405   1.943   4.552   8.056  0.2673  0.8065  0.6214
 8591SOL    HW137406   1.987   4.500   8.124  0.6276  1.6426  1.0194
 8591SOL    HW237407   1.869   4.497   8.031  0.5878  1.1282 -0.9957
 8592SOL     OW37408   3.565   1.890   6.350 -0.5912  0.4463  0.3625
 8592SOL    HW137409   3.534   1.813   6.396  0.5347  0.6157  1.3984
 8592SOL    HW237410   3.543   1.869   6.259 -1.6927  0.8238  0.5351
 8593SOL     OW37411   3.312   4.115   6.125  0.3165  0.8892 -0.8487
 8593SOL    HW137412   3.309   4.093   6.218 -0.1352  0.5811 -0.9346
 8593SOL    HW237413   3.217   4.122   6.112  0.0976 -2.6247 -1.0460
 8594SOL     OW37414   2.187   1.666   1.268  0.0194  0.3119  0.1447
 8594SOL    HW137415   2.233   1.737   1.312 -1.3530  1.0060  0.4630
 8594SOL    HW237416   2.174   1.608   1.344 -1.7782 -0.7750 -0.9909
 8595SOL     OW37417   1.999   3.626  16.765 -0.7536 -0.4322 -0.3801
 8595SOL    HW137418   1.922   3.654  16.717  0.5982  3.3100 -0.3385
 8595SOL    HW237419   2.027   3.546  16.719  0.2127  1.6594 -3.4066
 8596SOL     OW37420   2.395   4.518  10.249  0.1098  0.3087 -0.5222
 8596SOL    HW137421   2.392   4.559  10.336  2.5397 -3.4346  1.3660
 8596SOL    HW237422   2.442   4.586  10.201 -1.4245  1.4598 -0.3791
 8597SOL     OW37423   3.055   1.319   6.468  0.1849  0.2445  0.3482
 8597SOL    HW137424   3.135   1.366   6.490 -1.0738  2.1065  0.9029
 8597SOL    HW237425   3.012   1.313   6.553 -0.5687 -1.7530 -0.1659
 8598SOL     OW37426   0.406   3.294   4.598 -0.1528 -0.0019 -0.0192
 8598SOL    HW137427   0.495   3.273   4.625 -0.4353  0.2293  1.0831
 8598SOL    HW237428   0.401   3.241   4.518  0.8843 -0.7451  0.4141
 8599SOL     OW37429   3.289   1.121   8.804 -0.5757  0.3197  0.1403
 8599SOL    HW137430   3.362   1.128   8.866 -0.2416 -1.0600 -0.1120
 8599SOL    HW237431   3.296   1.032   8.770 -0.4302 -0.7984  3.1204
 8600SOL     OW37432   1.327   4.178  14.690 -0.3258  0.4249 -0.1075
 8600SOL    HW137433   1.265   4.205  14.622  0.9884  0.4537 -1.2927
 8600SOL    HW237434   1.272   4.159  14.766  1.4460 -1.2672  0.7635
 8601SOL     OW37435   1.525   1.108  10.177 -0.1351 -0.3396 -0.2305
 8601SOL    HW137436   1.525   1.066  10.263  1.0730  1.0421  0.4437
 8601SOL    HW237437   1.517   1.031  10.121  0.5960 -0.9969  0.5641
 8602SOL     OW37438   2.204   0.085   7.744 -0.1725 -0.1865  0.5086
 8602SOL    HW137439   2.285   0.100   7.695 -0.6046  1.1425  0.2067
 8602SOL    HW237440   2.225   4.734   7.783  2.1220 -0.1271 -0.5387
 8603SOL     OW37441   2.942   3.311   4.212 -0.3626  0.1288 -0.5860
 8603SOL    HW137442   2.889   3.288   4.135 -0.8289  0.4568 -0.3624
 8603SOL    HW237443   3.000   3.379   4.179  0.0585 -0.3325 -0.7941
 8604SOL     OW37444   3.109   2.474  16.792 -0.6575  0.6455  0.5897
 8604SOL    HW137445   3.038   2.508  16.737  1.0764  0.7699 -1.5377
 8604SOL    HW237446   3.165   2.547  16.819 -0.6781  1.4305 -1.4754
 8605SOL     OW37447   0.804   1.664   2.143  0.1602  0.6010 -0.6859
 8605SOL    HW137448   0.873   1.633   2.084 -1.4914 -3.3886 -0.5076
 8605SOL    HW237449   0.732   1.672   2.081 -2.3656  1.7265  2.3652
 8606SOL     OW37450   4.275   4.100   2.526 -0.4121  0.0696  0.8300
 8606SOL    HW137451   4.284   4.152   2.446 -0.2346  1.8725  2.0462
 8606SOL    HW237452   4.211   4.034   2.498  1.1626  0.2803 -3.3259
 8607SOL     OW37453   2.467   3.461   7.900  0.2756 -0.5071  0.0415
 8607SOL    HW137454   2.436   3.408   7.974 -1.7855 -1.6964 -1.7015
 8607SOL    HW237455   2.506   3.543   7.930 -1.7315  1.2897 -2.3397
 8608SOL     OW37456   4.210   2.137   6.427  0.1735  0.0122 -0.2232
 8608SOL    HW137457   4.295   2.093   6.434  0.3808  0.4357 -0.0551
 8608SOL    HW237458   4.241   2.227   6.431  0.3297  0.0080 -1.3541
 8609SOL     OW37459   1.615   0.995   2.325 -0.4444  0.0929  0.4163
 8609SOL    HW137460   1.689   1.053   2.310 -1.0296  1.0102  1.0831
 8609SOL    HW237461   1.538   1.052   2.314  0.0751  0.8319  0.6344
 8610SOL     OW37462   3.425   0.623   7.949  0.2197  0.0367  0.5003
 8610SOL    HW137463   3.435   0.713   7.977 -3.8004  1.2334 -1.8269
 8610SOL    HW237464   3.408   0.639   7.856  1.5506 -0.9129  0.0928
 8611SOL     OW37465   4.215   4.304   5.787 -0.2765 -0.6464  0.1386
 8611SOL    HW137466   4.292   4.250   5.770  0.5509  0.3335  0.7871
 8611SOL    HW237467   4.165   4.254   5.851 -0.6917  0.6088  0.7878
 8612SOL     OW37468   1.974   1.605   3.208 -0.2712 -0.2537  0.5320
 8612SOL    HW137469   1.928   1.573   3.130  1.6949  0.9366 -1.1289
 8612SOL    HW237470   1.909   1.613   3.278  0.1960 -3.2756  1.3186
 8613SOL     OW37471   3.696   4.078   9.655 -0.1017  0.3807  0.1191
 8613SOL    HW137472   3.744   4.157   9.678  0.5908 -0.1339  0.4540
 8613SOL    HW237473   3.697   4.087   9.559 -2.7756 -1.7873 -0.1335
 8614SOL     OW37474   0.164   2.355   3.745 -0.0888  0.2284  0.5023
 8614SOL    HW137475   0.253   2.320   3.737 -0.8105 -1.4602 -0.2410
 8614SOL    HW237476   0.124   2.300   3.812  0.9696 -0.3892  0.6218
 8615SOL     OW37477   4.216   0.460  15.198  0.4756 -0.2398 -0.1231
 8615SOL    HW137478   4.169   0.485  15.277  0.5903  1.3679 -0.5448
 8615SOL    HW237479   4.298   0.506  15.218  0.2576  0.6580 -1.2711
 8616SOL     OW37480   0.696   3.808  15.084  0.7096  0.2695 -0.2043
 8616SOL    HW137481   0.601   3.811  15.082  0.7647  0.7571 -1.6686
 8616SOL    HW237482   0.709   3.724  15.042  1.7245  0.4086 -0.1668
 8617SOL     OW37483   3.496   3.208   5.456  0.0008 -0.0067  0.0411
 8617SOL    HW137484   3.518   3.270   5.525  1.7069 -0.9253  0.3160
 8617SOL    HW237485   3.566   3.222   5.392  0.0798 -0.6207 -0.0104
 8618SOL     OW37486   2.810   2.733   6.789  0.1292  0.7292 -0.2065
 8618SOL    HW137487   2.780   2.650   6.753  1.7925  0.4690 -0.9948
 8618SOL    HW237488   2.729   2.784   6.793 -1.3587 -1.6924  0.3786
 8619SOL     OW37489   3.323   3.160  12.118 -0.9482  0.4834 -0.8651
 8619SOL    HW137490   3.291   3.231  12.173 -1.5041  0.2445 -0.8802
 8619SOL    HW237491   3.271   3.095  12.165 -1.7290  1.3104 -0.5796
 8620SOL     OW37492   2.103   2.147   7.957  1.0048 -0.0599  0.2934
 8620SOL    HW137493   2.048   2.217   7.990  1.9099  0.8243 -0.0666
 8620SOL    HW237494   2.080   2.070   8.009  1.4720 -0.7500 -0.5066
 8621SOL     OW37495   4.081   3.565   7.984  0.5759  0.3047 -0.0455
 8621SOL    HW137496   4.040   3.581   7.899 -1.1806  0.1539  0.7825
 8621SOL    HW237497   4.080   3.654   8.020  0.5166  1.7778 -3.6471
 8622SOL     OW37498   3.637   1.233   7.576 -0.5786  0.2204 -0.2767
 8622SOL    HW137499   3.708   1.290   7.546  1.3605 -2.7104 -1.2638
 8622SOL    HW237500   3.648   1.153   7.526  1.9212 -0.8731  2.0663
 8623SOL     OW37501   0.948   1.724  16.002 -0.2174 -0.4738 -0.1999
 8623SOL    HW137502   1.024   1.782  16.008  0.1626 -0.9243 -0.6605
 8623SOL    HW237503   0.884   1.776  16.051  1.3526  0.3842  0.9129
 8624SOL     OW37504   4.266   4.206   2.259  0.0409 -0.0925 -0.0331
 8624SOL    HW137505   4.211   4.269   2.212 -1.5163 -0.0003  1.9020
 8624SOL    HW237506   4.250   4.125   2.210 -0.4256  0.1606 -0.2964
 8625SOL     OW37507   3.373   2.179   5.480 -0.1180  0.6248  0.6764
 8625SOL    HW137508   3.420   2.115   5.533  0.6162  2.9605  2.8708
 8625SOL    HW237509   3.287   2.140   5.490 -0.0456  0.3459  0.1963
 8626SOL     OW37510   1.078   2.092   4.513  0.6757 -0.0661  0.3362
 8626SOL    HW137511   0.989   2.057   4.505  0.4406  0.7292 -0.4185
 8626SOL    HW237512   1.080   2.183   4.486 -0.9676 -0.2631 -0.4320
 8627SOL     OW37513   3.411   1.457  12.269  0.1348 -0.9492  0.0178
 8627SOL    HW137514   3.400   1.524  12.337 -1.9161 -0.1014 -1.1586
 8627SOL    HW237515   3.465   1.386  12.302  0.6634 -1.6259 -2.3402
 8628SOL     OW37516   2.674   2.954  13.443  0.0800 -0.0862  0.4180
 8628SOL    HW137517   2.684   2.919  13.354 -2.3085  0.1288  0.0602
 8628SOL    HW237518   2.581   2.934  13.456  0.2876 -0.3491  1.4903
 8629SOL     OW37519   2.074   0.048   2.319  0.1544  0.3190  0.0540
 8629SOL    HW137520   2.119   4.721   2.377  1.4398  2.6645  1.5528
 8629SOL    HW237521   2.152   0.067   2.268  1.6595 -0.8417  1.9317
 8630SOL     OW37522   3.795   4.272  16.515 -0.0700  0.2419 -0.3774
 8630SOL    HW137523   3.820   4.194  16.565 -2.1013  0.6844  1.3463
 8630SOL    HW237524   3.839   4.260  16.431  1.0364  1.3404  0.0491
 8631SOL     OW37525   2.658   4.294   7.207  0.4116  0.2876 -0.5831
 8631SOL    HW137526   2.618   4.300   7.120  2.1581  0.5974 -1.3843
 8631SOL    HW237527   2.718   4.222   7.186  0.2463 -1.1596  3.9129
 8632SOL     OW37528   4.018   4.428   8.998 -0.5505  0.4700  0.1039
 8632SOL    HW137529   4.111   4.406   9.001 -0.2120  2.5113  5.0731
 8632SOL    HW237530   3.974   4.345   9.019  0.1062 -0.0411 -0.5596
 8633SOL     OW37531   1.313   1.014   8.052 -0.5214  0.0140 -0.1907
 8633SOL    HW137532   1.369   1.020   8.130  1.6528  0.5762 -1.8033
 8633SOL    HW237533   1.235   0.964   8.075 -2.0666  2.6966  0.4150
 8634SOL     OW37534   1.336   3.920   1.927 -0.1163 -0.1414 -0.0612
 8634SOL    HW137535   1.300   3.911   1.838  1.2993 -0.0488 -0.6399
 8634SOL    HW237536   1.264   3.940   1.987  1.0638 -0.6693  1.5185
 8635SOL     OW37537   1.887   1.191   1.929 -0.7225 -0.2199 -0.7868
 8635SOL    HW137538   1.820   1.252   1.898 -0.3593  0.4636 -0.2294
 8635SOL    HW237539   1.941   1.180   1.851 -1.1191  0.9867 -1.2200
 8636SOL     OW37540   3.506   4.302   3.968  0.9941 -0.2977  0.2038
 8636SOL    HW137541   3.584   4.265   3.926  1.8219 -0.6869  2.0734
 8636SOL    HW237542   3.541   4.386   3.999 -0.3214 -0.5302  2.3615
 8637SOL     OW37543   0.503   3.364  14.327  0.2701  0.1979 -0.4123
 8637SOL    HW137544   0.474   3.276  14.351 -1.1275  1.0278  0.9659
 8637SOL    HW237545   0.434   3.421  14.361 -0.4911 -2.1555  2.0303
 8638SOL     OW37546   1.696   2.114  13.046 -0.2148  0.0378  0.4165
 8638SOL    HW137547   1.683   2.208  13.045 -0.3426  0.0078 -1.6659
 8638SOL    HW237548   1.790   2.097  13.040 -0.6492 -2.5475  0.7196
 8639SOL     OW37549   4.452   2.836   8.470  0.6858 -0.2323 -0.2559
 8639SOL    HW137550   4.413   2.811   8.386 -0.2908  1.5016 -0.3105
 8639SOL    HW237551   4.540   2.798   8.472  0.3259 -1.0057  0.8005
 8640SOL     OW37552   0.868   4.435   6.135 -0.3958  0.0159  0.0228
 8640SOL    HW137553   0.897   4.515   6.178 -0.8811  0.9569 -1.3966
 8640SOL    HW237554   0.815   4.476   6.066  0.7082 -1.7439 -1.8698
 8641SOL     OW37555   3.148   3.668   2.320  0.3008  0.3515 -0.5711
 8641SOL    HW137556   3.188   3.591   2.361 -0.6545  1.1379  1.7987
 8641SOL    HW237557   3.108   3.705   2.398  2.7061  0.5516  0.5898
 8642SOL     OW37558   3.218   2.863   1.969  0.0089 -0.3976 -0.3022
 8642SOL    HW137559   3.274   2.789   1.991 -0.3997 -0.2562  1.1942
 8642SOL    HW237560   3.152   2.863   2.038 -0.0899  0.6297 -0.3988
 8643SOL     OW37561   0.428   2.242   1.253  0.2376 -0.6450 -0.1597
 8643SOL    HW137562   0.376   2.162   1.258  0.7095 -0.8354  1.7972
 8643SOL    HW237563   0.503   2.223   1.196  1.6503 -0.6707  1.7049
 8644SOL     OW37564   0.684   2.424   5.512 -0.0341 -0.3254 -0.0357
 8644SOL    HW137565   0.716   2.335   5.493  3.5147  0.4965  2.1041
 8644SOL    HW237566   0.741   2.479   5.459  1.2856 -0.5337  1.1615
 8645SOL     OW37567   3.345   0.714  17.264  0.4599  0.3421  0.1319
 8645SOL    HW137568   3.390   0.789  17.304 -0.3972  1.3251 -0.7174
 8645SOL    HW237569   3.309   0.763  17.190  2.3964  1.2540 -0.2199
 8646SOL     OW37570   3.442   0.632   8.341  0.3485 -0.3777 -0.1844
 8646SOL    HW137571   3.434   0.557   8.282  0.1552 -0.9848  0.6201
 8646SOL    HW237572   3.351   0.662   8.345 -0.2426 -1.9109 -2.1431
 8647SOL     OW37573   1.889   2.429   0.281 -0.0611  0.1825  0.0733
 8647SOL    HW137574   1.841   2.398   0.205 -1.1733 -2.3240  1.7875
 8647SOL    HW237575   1.932   2.507   0.245  0.0449 -0.4901 -1.2276
 8648SOL     OW37576   0.140   1.766   3.181  0.1610 -0.1626 -0.6283
 8648SOL    HW137577   0.085   1.704   3.228  0.0059 -1.1958 -2.1861
 8648SOL    HW237578   0.156   1.717   3.100  1.6159 -0.5844 -0.0786
 8649SOL     OW37579   3.088   2.432  16.070 -0.3433  0.2387 -0.2119
 8649SOL    HW137580   3.008   2.434  16.017 -0.6965 -0.8026  0.2927
 8649SOL    HW237581   3.076   2.515  16.116 -0.6122 -0.6780  1.3765
 8650SOL     OW37582   4.724   1.078   6.607  0.3307  0.5802  0.2910
 8650SOL    HW137583   0.059   1.140   6.625 -2.7514  3.8995  0.7480
 8650SOL    HW237584   4.714   1.027   6.687  3.0912  1.6781  1.2887
 8651SOL     OW37585   3.879   3.017  15.577 -0.1372  0.2745 -0.3944
 8651SOL    HW137586   3.859   2.933  15.535  0.5938 -1.1960  2.1302
 8651SOL    HW237587   3.812   3.070  15.535 -0.7235 -0.0237  0.1655
 8652SOL     OW37588   2.379   4.437   0.011 -0.1530  0.3254 -0.2279
 8652SOL    HW137589   2.448   4.503   0.014  1.2021 -1.1634  1.3524
 8652SOL    HW237590   2.358   4.437  17.653  0.5713 -1.7127 -0.3933
 8653SOL     OW37591   4.222   4.520   7.273 -0.0071  0.3395 -0.0261
 8653SOL    HW137592   4.202   4.614   7.275  0.0332  0.3580 -0.6192
 8653SOL    HW237593   4.292   4.515   7.339  0.1745  0.0988 -0.2377
 8654SOL     OW37594   1.847   1.294   4.260  0.0187  0.2517  0.1078
 8654SOL    HW137595   1.781   1.307   4.192  1.1858  0.9484 -0.8925
 8654SOL    HW237596   1.810   1.353   4.326  1.7524 -0.3419  1.6144
 8655SOL     OW37597   1.154   3.644  12.843 -0.3766  0.3751  0.1938
 8655SOL    HW137598   1.212   3.604  12.909 -0.5284 -1.1027 -0.5672
 8655SOL    HW237599   1.216   3.664  12.773 -3.2148 -0.4470 -2.5291
 8656SOL     OW37600   2.894   0.254   5.953  0.5257  0.5324  0.1221
 8656SOL    HW137601   2.829   0.321   5.975 -1.8892 -1.6322 -0.4639
 8656SOL    HW237602   2.982   0.290   5.965  0.4877  0.5054  0.4900
 8657SOL     OW37603   2.988   0.804   1.049  0.2753  0.0237 -0.3596
 8657SOL    HW137604   3.063   0.770   0.999  0.4285 -2.1040  1.3239
 8657SOL    HW237605   2.914   0.770   0.999 -0.0801 -2.1116  1.6272
 8658SOL     OW37606   0.308   2.405  10.584  0.1412  0.1522 -0.3566
 8658SOL    HW137607   0.232   2.436  10.535  0.5369  1.3378 -0.2119
 8658SOL    HW237608   0.371   2.382  10.516 -0.0170 -2.6725  0.4515
 8659SOL     OW37609   1.060   2.194   8.433 -0.3200 -0.2382 -0.3707
 8659SOL    HW137610   1.131   2.149   8.479  0.8629  0.4177 -1.5469
 8659SOL    HW237611   0.985   2.135   8.446  0.0527 -0.6603 -0.1215
 8660SOL     OW37612   4.555   3.365   2.998 -0.2844  0.2633  0.2570
 8660SOL    HW137613   4.574   3.274   3.021 -0.9099 -0.1619 -0.8934
 8660SOL    HW237614   4.532   3.397   3.085  2.4011  3.6057 -0.2540
 8661SOL     OW37615   2.176   4.081  17.649 -0.3642 -0.2193  0.0635
 8661SOL    HW137616   2.212   4.102  17.735 -3.6447 -0.5022  1.4746
 8661SOL    HW237617   2.119   4.007  17.672  0.0456 -0.1075  1.4469
 8662SOL     OW37618   3.703   3.892  13.990 -0.2028 -0.1108 -0.2282
 8662SOL    HW137619   3.769   3.916  14.055  0.1004 -1.2265 -0.1178
 8662SOL    HW237620   3.633   3.855  14.044 -0.5371  0.0497 -0.5533
 8663SOL     OW37621   0.385   0.406   6.100  0.5022 -0.3513 -0.0877
 8663SOL    HW137622   0.398   0.363   6.015 -3.5998 -0.1281 -0.8362
 8663SOL    HW237623   0.472   0.416   6.137  1.2023 -1.9260 -1.2728
 8664SOL     OW37624   3.594   3.277   8.535 -0.2004 -0.3273  0.0114
 8664SOL    HW137625   3.502   3.302   8.543  0.0244  0.0658  1.4372
 8664SOL    HW237626   3.639   3.361   8.527  0.9839 -0.7174  2.6402
 8665SOL     OW37627   4.260   0.978   0.739  0.2805 -0.3301  0.3950
 8665SOL    HW137628   4.279   0.899   0.790  0.8794 -0.9856 -0.8461
 8665SOL    HW237629   4.295   1.053   0.788  2.4261 -0.5906 -0.7396
 8666SOL     OW37630   0.016   1.497  14.410 -0.0097 -0.1407  0.5697
 8666SOL    HW137631   0.011   1.472  14.318  1.9150  2.1117 -0.1571
 8666SOL    HW237632   0.111   1.497  14.418 -0.0626  0.6882  1.2054
 8667SOL     OW37633   3.238   0.477   3.220 -0.5474  0.3390  0.1536
 8667SOL    HW137634   3.202   0.549   3.273  0.1402 -0.3709  1.5980
 8667SOL    HW237635   3.219   0.403   3.278  2.4549 -1.4054 -1.0941
 8668SOL     OW37636   2.346   2.415   3.870 -0.1373  0.6410  0.4437
 8668SOL    HW137637   2.425   2.401   3.818  0.4172  3.3783  0.5597
 8668SOL    HW237638   2.285   2.402   3.798 -1.9186 -0.0885  2.0783
 8669SOL     OW37639   1.475   0.933  10.420  0.3725  0.1522 -0.1467
 8669SOL    HW137640   1.401   0.909  10.476  1.1855 -2.2431 -0.0926
 8669SOL    HW237641   1.493   0.841  10.403  0.1003  0.1010 -0.1616
 8670SOL     OW37642   3.985   0.306   5.742 -0.1789 -0.3940 -1.1373
 8670SOL    HW137643   3.890   0.316   5.737 -0.1693 -1.2283 -2.9913
 8670SOL    HW237644   3.989   0.215   5.714 -1.9945 -0.8049 -0.0803
 8671SOL     OW37645   1.617   2.849   2.459  0.0928 -0.3105 -0.9216
 8671SOL    HW137646   1.667   2.865   2.379  3.4808 -0.6378  1.1281
 8671SOL    HW237647   1.677   2.787   2.502  1.5526  2.1954  0.6852
 8672SOL     OW37648   1.899   2.635   3.447  0.6329  0.0152  0.3318
 8672SOL    HW137649   1.961   2.670   3.510  1.9512  0.7321 -1.3637
 8672SOL    HW237650   1.827   2.694   3.466  0.8115  0.1368  0.6251
 8673SOL     OW37651   2.623   4.579   4.192  0.5857 -0.2820  0.3690
 8673SOL    HW137652   2.569   4.526   4.134  0.8852 -1.6194  1.2943
 8673SOL    HW237653   2.693   4.513   4.195  1.2106  0.3401 -0.6312
 8674SOL     OW37654   2.119   3.095  11.030 -0.5386 -0.1717 -0.1456
 8674SOL    HW137655   2.056   3.122  10.964 -0.9497  2.0814  1.1476
 8674SOL    HW237656   2.164   3.026  10.983 -0.7672 -0.4646  0.0673
 8675SOL     OW37657   0.772   1.123  11.440 -0.3853 -0.0539 -0.4843
 8675SOL    HW137658   0.737   1.212  11.434 -0.0586  0.1277  0.3172
 8675SOL    HW237659   0.784   1.112  11.534  0.8219 -2.2246 -0.8784
 8676SOL     OW37660   1.468   0.082   5.248  0.3944 -0.2858 -0.5138
 8676SOL    HW137661   1.454   0.163   5.200 -1.1846 -0.4463 -0.3131
 8676SOL    HW237662   1.562   0.082   5.269  0.5108  1.6687 -1.0173
 8677SOL     OW37663   3.021   3.538   5.205 -0.7245  0.4649 -0.0528
 8677SOL    HW137664   3.081   3.531   5.280 -1.4823 -1.8369  0.3695
 8677SOL    HW237665   2.996   3.629   5.216  0.3670  0.6476  0.9608
 8678SOL     OW37666   3.599   2.546   9.017  0.3158  0.6033  0.4873
 8678SOL    HW137667   3.636   2.466   9.054 -0.3106 -0.1331 -0.4859
 8678SOL    HW237668   3.643   2.611   9.073 -1.7494  2.4407 -0.0511
 8679SOL     OW37669   0.249   1.406   5.808  0.1690 -0.0694  0.3638
 8679SOL    HW137670   0.289   1.357   5.737  1.6159 -1.0455  1.8522
 8679SOL    HW237671   0.266   1.351   5.885 -0.1193 -0.0481  0.4400
 8680SOL     OW37672   2.567   3.302   4.471 -0.3848  0.1949 -0.4567
 8680SOL    HW137673   2.536   3.216   4.499 -3.8141  1.5790  0.0794
 8680SOL    HW237674   2.514   3.330   4.396 -0.1739 -0.2187 -0.7594
 8681SOL     OW37675   0.442   0.698  11.177 -0.0248  0.4382 -0.0925
 8681SOL    HW137676   0.410   0.764  11.116  3.8419  2.3461 -0.0806
 8681SOL    HW237677   0.535   0.721  11.175  0.1486 -0.2919 -0.4248
 8682SOL     OW37678   3.258   1.296   1.943  0.1100  0.3517  0.0473
 8682SOL    HW137679   3.177   1.277   1.989 -0.1671  0.8016 -0.2552
 8682SOL    HW237680   3.259   1.230   1.874 -0.1387  0.2306  0.1587
 8683SOL     OW37681   2.158   0.903  14.296  0.1372  0.4164 -0.2301
 8683SOL    HW137682   2.096   0.856  14.240 -0.8113  1.6846 -0.2517
 8683SOL    HW237683   2.133   0.996  14.297  0.9701  0.6468 -1.7158
 8684SOL     OW37684   0.644   3.720   5.472 -0.0330  0.0300 -0.8045
 8684SOL    HW137685   0.652   3.809   5.506 -0.6032 -1.1997  2.5858
 8684SOL    HW237686   0.662   3.724   5.378  0.9760  0.4112 -0.5914
 8685SOL     OW37687   3.912   2.825  11.287  0.7605 -0.5803 -0.0208
 8685SOL    HW137688   3.930   2.782  11.371 -0.0755 -1.6034 -0.3666
 8685SOL    HW237689   3.998   2.827  11.247  0.3471 -1.0182 -0.9268
 8686SOL     OW37690   3.777   2.027   4.538  0.6042 -0.0623  0.7645
 8686SOL    HW137691   3.784   2.028   4.634 -2.1987  1.8496  0.9496
 8686SOL    HW237692   3.731   2.110   4.536 -0.1601 -0.5322 -1.0388
 8687SOL     OW37693   1.290   0.867  12.552 -0.4361  0.2293 -0.2069
 8687SOL    HW137694   1.201   0.880  12.584 -0.9036 -1.1320 -0.9653
 8687SOL    HW237695   1.295   0.919  12.471  0.5176 -1.9825 -1.5756
 8688SOL     OW37696   3.173   0.496   4.386 -0.0863  0.6555  0.1843
 8688SOL    HW137697   3.195   0.587   4.366  0.2710  0.4523 -0.3386
 8688SOL    HW237698   3.156   0.489   4.480  1.0519  0.3286  0.3667
 8689SOL     OW37699   3.087   1.234   0.699  0.7282  0.6812  0.2613
 8689SOL    HW137700   2.995   1.210   0.694  0.8771 -0.2626  2.3883
 8689SOL    HW237701   3.097   1.284   0.618 -0.2321  0.0702 -0.2263
 8690SOL     OW37702   0.509   4.466   9.794  0.5982  0.2805 -0.0168
 8690SOL    HW137703   0.474   4.542   9.841 -1.5239 -1.9607  2.0091
 8690SOL    HW237704   0.503   4.499   9.704  0.7743  1.3229  0.3519
 8691SOL     OW37705   1.726   2.211   6.669 -0.0513  0.1962  0.3262
 8691SOL    HW137706   1.745   2.295   6.711 -0.6270 -0.1160  1.2201
 8691SOL    HW237707   1.815   2.176   6.666 -1.3320 -2.9759  0.3253
 8692SOL     OW37708   0.651   2.316   2.681  0.0358 -0.2136 -0.4415
 8692SOL    HW137709   0.559   2.300   2.704  0.3728 -2.7078 -0.8197
 8692SOL    HW237710   0.648   2.412   2.678  1.3567 -0.1124  1.5254
 8693SOL     OW37711   2.031   3.047   6.552  0.0091 -0.2658 -0.0729
 8693SOL    HW137712   2.000   2.976   6.496  1.2832 -0.2349 -0.8242
 8693SOL    HW237713   2.072   3.100   6.483 -0.7442 -1.3987 -1.3873
 8694SOL     OW37714   3.005   1.401   5.114 -0.2469  0.4513  0.0130
 8694SOL    HW137715   3.087   1.383   5.160  0.0535 -2.8519 -1.8452
 8694SOL    HW237716   3.025   1.484   5.072  0.8171  0.4609  0.5339
 8695SOL     OW37717   2.674   4.079   6.635 -0.7201 -0.3171  0.0684
 8695SOL    HW137718   2.592   4.068   6.587 -0.5238  2.5538 -0.9554
 8695SOL    HW237719   2.692   3.987   6.653 -2.3078 -0.9459 -1.5910
 8696SOL     OW37720   4.204   4.002  14.259 -0.0039 -0.1234 -0.4308
 8696SOL    HW137721   4.242   3.915  14.272 -0.8579 -0.6017 -1.1024
 8696SOL    HW237722   4.120   3.980  14.218 -1.0495  0.6219  1.2998
 8697SOL     OW37723   2.041   3.107  15.830 -1.0517 -1.2115  0.2456
 8697SOL    HW137724   2.002   3.115  15.917 -1.5854 -1.6525  0.0435
 8697SOL    HW237725   2.038   3.012  15.837  1.1368 -1.2984  0.1684
 8698SOL     OW37726   3.095   2.139   1.614  0.3065  0.1302 -0.0347
 8698SOL    HW137727   3.178   2.186   1.628 -0.7901  2.3211 -0.7964
 8698SOL    HW237728   3.093   2.136   1.518 -0.2620 -0.9905  0.0114
 8699SOL     OW37729   1.885   1.689   7.788  0.6221 -0.8596  0.1691
 8699SOL    HW137730   1.865   1.621   7.851 -1.5066  0.5950  1.0488
 8699SOL    HW237731   1.897   1.750   7.861  0.7629 -1.2180  0.4448
 8700SOL     OW37732   0.379   3.963   8.817  1.0404 -0.0911 -0.0894
 8700SOL    HW137733   0.354   4.055   8.820  0.7636 -0.1472 -0.6428
 8700SOL    HW237734   0.354   3.933   8.904  1.4206  1.7797  0.6427
 8701SOL     OW37735   4.169   4.507   3.523 -0.0052 -0.1607 -0.0102
 8701SOL    HW137736   4.254   4.486   3.560  0.6169 -0.3269 -1.5364
 8701SOL    HW237737   4.195   4.578   3.465 -0.7932 -0.5224 -0.8070
 8702SOL     OW37738   0.092   2.164   7.532  0.5061 -0.2302  0.1967
 8702SOL    HW137739   0.157   2.113   7.579  1.2845 -0.3869 -1.0296
 8702SOL    HW237740   0.033   2.194   7.601  1.3734 -0.3387  0.9886
 8703SOL     OW37741   4.039   0.944   2.829 -0.4940 -0.8768  0.0545
 8703SOL    HW137742   4.070   1.001   2.898  2.6475 -0.4216 -1.7542
 8703SOL    HW237743   4.020   1.008   2.760  0.2824 -0.9972 -0.2723
 8704SOL     OW37744   3.846   1.347   3.040  0.0184 -0.2203 -0.5202
 8704SOL    HW137745   3.806   1.431   3.064 -0.7449 -1.4382  2.5483
 8704SOL    HW237746   3.940   1.357   3.055 -0.0255 -0.3903 -0.1203
 8705SOL     OW37747   3.954   2.689  16.519 -0.0977 -0.0162 -0.1611
 8705SOL    HW137748   3.950   2.599  16.552 -1.2703  0.3810  0.7875
 8705SOL    HW237749   3.882   2.691  16.456 -0.3043  0.6565  0.0973
 8706SOL     OW37750   0.567   3.505  15.643 -0.6384 -0.3341 -0.2681
 8706SOL    HW137751   0.567   3.557  15.563 -0.6526  0.5024  0.2822
 8706SOL    HW237752   0.548   3.423  15.597 -3.7155  0.0768  0.2897
 8707SOL     OW37753   1.951   2.288  11.080 -0.6103 -0.8145  0.3753
 8707SOL    HW137754   2.033   2.277  11.033  0.1575  0.5973  1.3925
 8707SOL    HW237755   1.937   2.382  11.078 -1.2690 -0.9166  0.1293
 8708SOL     OW37756   0.798   1.551   6.798 -0.4226  0.2711 -0.1020
 8708SOL    HW137757   0.786   1.644   6.818  3.2137  1.0185 -1.3032
 8708SOL    HW237758   0.842   1.515   6.875 -1.0444  0.2215  0.2294
 8709SOL     OW37759   0.737   3.380   1.356 -0.2607  0.0571 -0.0911
 8709SOL    HW137760   0.756   3.460   1.406 -0.0392  1.1692 -1.9355
 8709SOL    HW237761   0.678   3.345   1.423 -0.4160  1.7934  0.6943
 8710SOL     OW37762   1.759   2.320   2.469 -0.0439 -0.0290  0.4376
 8710SOL    HW137763   1.822   2.278   2.410 -0.4667 -0.5100  0.3292
 8710SOL    HW237764   1.708   2.372   2.407 -1.0533 -0.6351  0.7611
 8711SOL     OW37765   2.672   1.398   4.766  0.0302  0.2164 -0.2496
 8711SOL    HW137766   2.641   1.310   4.788 -4.5119  1.3835 -1.8564
 8711SOL    HW237767   2.631   1.411   4.681  0.0675  1.3150 -0.0972
 8712SOL     OW37768   1.841   2.430  15.016 -0.5964  0.2415  0.1052
 8712SOL    HW137769   1.901   2.456  15.085  1.0810  1.1140 -1.7094
 8712SOL    HW237770   1.775   2.372  15.055 -1.0981  0.9763  0.3496
 8713SOL     OW37771   0.291   3.660  14.211 -0.3188  0.1914  0.1769
 8713SOL    HW137772   0.298   3.737  14.267 -1.6246 -0.0087  0.6094
 8713SOL    HW237773   0.270   3.592  14.274 -3.5539 -0.0901 -1.2113
 8714SOL     OW37774   1.628   0.292   2.925 -0.0433 -0.4063 -0.5380
 8714SOL    HW137775   1.640   0.383   2.952 -1.6977  0.2228 -1.9413
 8714SOL    HW237776   1.546   0.294   2.875 -0.5031  2.1744  0.3186
 8715SOL     OW37777   2.906   1.963   4.728 -0.5846  0.5607 -0.3577
 8715SOL    HW137778   2.841   1.937   4.663  0.0833  1.7692 -1.5013
 8715SOL    HW237779   2.957   2.025   4.677  0.0544 -0.7101 -1.2414
 8716SOL     OW37780   0.591   4.588  12.053  0.0299 -0.2438 -0.0001
 8716SOL    HW137781   0.534   4.522  12.014  0.8154 -0.8201 -0.1846
 8716SOL    HW237782   0.616   4.532  12.127 -0.4966 -0.3721  0.0748
 8717SOL     OW37783   2.380   2.938  11.326  0.4060 -0.0276 -0.3864
 8717SOL    HW137784   2.288   2.951  11.348  0.9715  0.8106  1.4645
 8717SOL    HW237785   2.411   3.027  11.310 -2.4482  0.9536 -0.4590
 8718SOL     OW37786   2.077   3.195   3.902  0.3358  0.2201  0.3893
 8718SOL    HW137787   2.008   3.167   3.841  0.5720  0.5937 -0.0493
 8718SOL    HW237788   2.037   3.270   3.946 -1.1455  0.1865 -0.8736
 8719SOL     OW37789   0.103   3.980   1.653 -0.0092 -0.4011 -0.0891
 8719SOL    HW137790   0.021   3.934   1.633 -0.0969  0.6787 -2.2051
 8719SOL    HW237791   0.095   3.980   1.748  2.9035  1.0662  0.1537
 8720SOL     OW37792   1.477   3.027   4.643  0.1135  0.0241 -0.2527
 8720SOL    HW137793   1.429   2.945   4.632 -2.8468  1.6102  0.6863
 8720SOL    HW237794   1.538   3.011   4.716  0.1137 -1.3268 -0.5483
 8721SOL     OW37795   3.231   2.086   5.829 -0.1138  0.2609  0.3060
 8721SOL    HW137796   3.287   2.163   5.843 -0.0365  0.1183  0.7642
 8721SOL    HW237797   3.269   2.029   5.895 -1.2201  1.4129  1.9192
 8722SOL     OW37798   0.060   0.680  14.044 -0.5371 -0.3793  0.4248
 8722SOL    HW137799   0.074   0.653  14.135 -1.7232  2.2532  1.3719
 8722SOL    HW237800   0.089   0.771  14.051 -0.1175 -0.4175 -0.7149
 8723SOL     OW37801   0.628   4.313   7.570 -0.3302  0.9506  0.3643
 8723SOL    HW137802   0.711   4.348   7.539  0.4811 -1.0711  0.2470
 8723SOL    HW237803   0.653   4.224   7.596  1.8792  1.7180  0.8297
 8724SOL     OW37804   4.295   2.470  10.149  0.5625  0.0749 -0.5210
 8724SOL    HW137805   4.273   2.380  10.172 -0.1003  0.4708  0.3797
 8724SOL    HW237806   4.262   2.508  10.231  0.7087  1.7133 -1.2061
 8725SOL     OW37807   4.087   2.522   1.745 -0.2791  0.6518 -0.0543
 8725SOL    HW137808   4.026   2.500   1.815  2.1409  0.1282  1.8805
 8725SOL    HW237809   4.165   2.485   1.787 -1.0273 -0.4322  0.3746
 8726SOL     OW37810   3.340   4.593   7.855  0.2410 -0.0391  0.3813
 8726SOL    HW137811   3.342   4.553   7.768 -1.7789 -0.4406  0.5183
 8726SOL    HW237812   3.251   4.567   7.879  0.4601  0.2375  1.4881
 8727SOL     OW37813   2.487   4.721   4.858 -0.3585 -0.7508  0.6166
 8727SOL    HW137814   2.559   4.658   4.861 -1.7529 -2.3600 -0.5919
 8727SOL    HW237815   2.407   4.672   4.874  0.6492 -2.6411 -0.1552
 8728SOL     OW37816   1.332   3.227   1.846 -0.7006 -0.2756  0.1926
 8728SOL    HW137817   1.242   3.259   1.837 -0.9489 -1.4732 -1.7413
 8728SOL    HW237818   1.354   3.255   1.934 -0.3304 -0.1045  0.0465
 8729SOL     OW37819   4.321   2.987   0.674 -0.2140  0.2714 -0.0331
 8729SOL    HW137820   4.310   2.951   0.586  2.2103  0.1714 -0.2922
 8729SOL    HW237821   4.240   2.961   0.719 -0.3209 -0.8132 -0.8573
 8730SOL     OW37822   0.255   4.713  15.503 -0.3387  0.3427 -1.0399
 8730SOL    HW137823   0.337   0.001  15.546  1.0421 -2.4197 -2.2569
 8730SOL    HW237824   0.267   4.619  15.493 -2.2889  0.0271 -0.5401
 8731SOL     OW37825   1.253   4.271  13.173  0.3677 -0.0646  0.2712
 8731SOL    HW137826   1.199   4.342  13.140 -0.5690 -0.3145  1.2638
 8731SOL    HW237827   1.315   4.320  13.226 -1.1829  0.6104  1.4737
 8732SOL     OW37828   2.137   0.641   3.389  0.2016  0.0040 -0.5933
 8732SOL    HW137829   2.162   0.650   3.297  1.4688  0.4936 -0.2101
 8732SOL    HW237830   2.164   0.550   3.395 -2.8539 -0.9408 -1.3298
 8733SOL     OW37831   1.625   2.599   2.682  0.8968  0.0234  0.2107
 8733SOL    HW137832   1.537   2.622   2.712  1.1535 -2.3942  2.8301
 8733SOL    HW237833   1.648   2.524   2.738 -2.8402 -0.2937  1.3449
 8734SOL     OW37834   2.629   2.463  12.290 -0.7165 -0.3881 -0.5461
 8734SOL    HW137835   2.626   2.496  12.200 -1.3438  0.0554 -0.3604
 8734SOL    HW237836   2.610   2.544  12.339  2.9267 -0.2813  0.6880
 8735SOL     OW37837   2.429   0.284   6.326 -0.4589  0.2073 -0.1959
 8735SOL    HW137838   2.395   0.202   6.363 -0.9843  0.8746  0.8202
 8735SOL    HW237839   2.494   0.243   6.270 -1.0452  0.2932 -0.9440
 8736SOL     OW37840   0.923   0.887   4.981  0.4516  0.4620 -0.3261
 8736SOL    HW137841   0.936   0.795   5.001  0.5853  0.4376 -0.5252
 8736SOL    HW237842   1.011   0.913   4.951  0.4616  2.7795  1.6136
 8737SOL     OW37843   3.767   3.048   2.303  0.1517 -0.1719  0.2418
 8737SOL    HW137844   3.827   3.073   2.373 -0.0512 -1.0203  0.7098
 8737SOL    HW237845   3.694   3.012   2.353 -0.8181  3.0907  1.1580
 8738SOL     OW37846   2.573   2.497   4.906  0.3907 -0.0988  0.2331
 8738SOL    HW137847   2.544   2.416   4.947  2.3825 -1.1667 -0.4606
 8738SOL    HW237848   2.507   2.557   4.941  1.4585  0.1384  1.8091
 8739SOL     OW37849   4.201   3.481  15.307  0.7418  0.5439 -0.0088
 8739SOL    HW137850   4.281   3.531  15.290  0.7565  0.2801 -0.7176
 8739SOL    HW237851   4.231   3.425  15.379  3.1054  0.1544 -1.2868
 8740SOL     OW37852   0.190   2.222  11.698 -0.3398  0.1030 -0.2386
 8740SOL    HW137853   0.262   2.267  11.743  1.8040 -1.8292 -1.6782
 8740SOL    HW237854   0.205   2.132  11.727 -2.2465 -0.3764 -0.7380
 8741SOL     OW37855   2.277   4.024   7.446  0.1484  1.0881  0.0631
 8741SOL    HW137856   2.229   3.984   7.374  2.6436  0.7672 -1.4266
 8741SOL    HW237857   2.225   3.985   7.517  0.4136 -1.6074 -1.2125
 8742SOL     OW37858   0.561   4.680   5.495 -0.2746  0.1156  0.3260
 8742SOL    HW137859   0.560   0.035   5.459 -0.2257  0.8823  2.2400
 8742SOL    HW237860   0.490   4.644   5.442  0.7300 -0.6366 -0.5055
 8743SOL     OW37861   2.291   0.747   9.115  0.3970 -0.7809 -0.3724
 8743SOL    HW137862   2.373   0.786   9.146  0.0763  0.1140 -0.6598
 8743SOL    HW237863   2.239   0.732   9.194  0.0311 -2.8408 -0.9951
 8744SOL     OW37864   1.959   1.803   1.542 -0.4444 -0.8765 -0.2289
 8744SOL    HW137865   1.872   1.796   1.503  0.0920 -0.2221 -1.5763
 8744SOL    HW237866   1.985   1.711   1.543  1.7082 -0.2160  3.8830
 8745SOL     OW37867   3.376   1.418  12.577 -0.2137  0.0533 -0.4872
 8745SOL    HW137868   3.295   1.368  12.571 -2.8138  4.1629 -0.0319
 8745SOL    HW237869   3.341   1.507  12.580  0.5294  0.3426 -0.5488
 8746SOL     OW37870   3.901   3.638  10.818 -0.1191  0.3223 -0.0211
 8746SOL    HW137871   3.938   3.572  10.877 -0.1409  1.7518  1.6073
 8746SOL    HW237872   3.974   3.659  10.760  0.6635 -0.2976  0.7418
 8747SOL     OW37873   4.019   0.346   8.724 -0.3544  0.4800  0.1964
 8747SOL    HW137874   4.022   0.320   8.816  2.2717  1.4292  0.3869
 8747SOL    HW237875   4.091   0.293   8.691  0.1751  1.6497 -0.5010
 8748SOL     OW37876   3.937   4.660   5.480  0.5946 -0.2008  0.1061
 8748SOL    HW137877   3.982   4.627   5.402 -0.4511 -0.8250 -0.2374
 8748SOL    HW237878   3.864   4.598   5.488  0.6841 -0.2417  0.6061
 8749SOL     OW37879   2.494   4.492  16.603  0.3145  0.1958 -0.1635
 8749SOL    HW137880   2.490   4.486  16.698 -3.9979 -1.3547 -0.4125
 8749SOL    HW237881   2.524   4.405  16.575  0.7383  0.2041  0.2693
 8750SOL     OW37882   3.892   0.037   3.668  0.4593 -0.0480 -0.2843
 8750SOL    HW137883   3.825   0.002   3.609 -0.8450  1.6299  0.1847
 8750SOL    HW237884   3.902   0.127   3.635 -1.3053  0.6914  1.1870
 8751SOL     OW37885   1.419   1.745   2.281 -0.3995 -0.6380 -0.1528
 8751SOL    HW137886   1.412   1.812   2.213 -0.4563  1.3504  1.7827
 8751SOL    HW237887   1.423   1.667   2.226  0.9521  0.2913 -1.3722
 8752SOL     OW37888   2.790   3.635   0.751  0.2704  0.7700 -0.1294
 8752SOL    HW137889   2.834   3.673   0.827  1.0408 -3.1157  1.3691
 8752SOL    HW237890   2.701   3.627   0.786  0.0868 -0.5559 -0.9375
 8753SOL     OW37891   4.729   4.398   6.826 -0.4632 -0.1717 -0.1746
 8753SOL    HW137892   4.694   4.481   6.795  1.3627  0.5896 -0.2220
 8753SOL    HW237893   4.666   4.336   6.790 -1.9624  0.2275  1.7489
 8754SOL     OW37894   3.721   1.687  14.526  0.6110 -0.4276  0.3338
 8754SOL    HW137895   3.653   1.655  14.466  0.6309 -1.3426  0.8097
 8754SOL    HW237896   3.732   1.779  14.503  0.5261 -0.1227  1.5469
 8755SOL     OW37897   2.955   0.765   7.158 -0.0850 -0.0668 -0.4421
 8755SOL    HW137898   2.900   0.687   7.167 -0.9560  0.6539  0.5485
 8755SOL    HW237899   2.900   0.813   7.096 -0.0698 -0.6917 -0.9372
 8756SOL     OW37900   0.566   2.583   7.008  0.5112  0.3888 -0.2267
 8756SOL    HW137901   0.474   2.576   6.982 -0.0131 -0.5998  1.8911
 8756SOL    HW237902   0.604   2.550   6.927  0.7725 -0.1325  0.1039
 8757SOL     OW37903   0.589   1.129   4.196  0.8196 -0.7003  0.1255
 8757SOL    HW137904   0.532   1.104   4.123 -1.7915  0.6676  1.6940
 8757SOL    HW237905   0.583   1.047   4.247  2.1631 -0.4740  0.6440
 8758SOL     OW37906   2.922   2.664  15.777 -0.0155  0.2144 -0.0204
 8758SOL    HW137907   3.009   2.675  15.737 -0.8109  1.2685 -1.4436
 8758SOL    HW237908   2.892   2.753  15.793 -2.0258 -0.6760  1.1165
 8759SOL     OW37909   3.496   0.546  14.672  0.1017 -0.0773  0.2722
 8759SOL    HW137910   3.498   0.528  14.766  0.4246 -1.1032  0.0730
 8759SOL    HW237911   3.589   0.529  14.661 -0.3382 -0.8081 -2.4362
 8760SOL     OW37912   3.021   2.821   8.369  0.0533 -0.6340  1.2161
 8760SOL    HW137913   3.069   2.791   8.292 -0.7402  1.9097 -0.2695
 8760SOL    HW237914   2.982   2.903   8.342 -2.5376 -2.3871 -0.4009
 8761SOL     OW37915   3.511   2.632   8.754 -0.2735 -0.4091 -0.4252
 8761SOL    HW137916   3.533   2.640   8.847 -0.3147 -2.5635 -0.2128
 8761SOL    HW237917   3.555   2.547   8.749 -1.7581 -1.0819 -1.8868
 8762SOL     OW37918   3.057   0.775  13.941 -0.6387  0.2242 -0.5025
 8762SOL    HW137919   3.147   0.804  13.922 -0.9353  1.8984  0.6257
 8762SOL    HW237920   3.033   0.817  14.023 -0.5398 -1.3021  0.3034
 8763SOL     OW37921   0.251   4.383   3.374 -0.4790  0.0217  0.9015
 8763SOL    HW137922   0.246   4.327   3.296  1.5632 -0.8195  1.3978
 8763SOL    HW237923   0.207   4.329   3.439  1.0133 -1.2176  0.8562
 8764SOL     OW37924   0.481   4.136   6.441  0.0110 -0.3935 -0.4944
 8764SOL    HW137925   0.504   4.206   6.380 -1.0176 -2.0886 -2.7820
 8764SOL    HW237926   0.387   4.126   6.426 -0.0848 -2.5386  1.6464
 8765SOL     OW37927   3.466   3.366   5.883  0.4228  0.4144  0.5364
 8765SOL    HW137928   3.444   3.301   5.950  0.4254 -0.1710 -0.0268
 8765SOL    HW237929   3.546   3.405   5.918 -0.8906  1.4372  2.3312
 8766SOL     OW37930   4.302   2.581  10.781  0.3682  0.0173 -0.2522
 8766SOL    HW137931   4.389   2.611  10.755  0.6448 -1.1328 -0.6281
 8766SOL    HW237932   4.246   2.646  10.738 -1.0814 -0.1661  1.3256
 8767SOL     OW37933   0.747   1.382  14.859  0.4384 -0.3944  0.4399
 8767SOL    HW137934   0.735   1.472  14.888  0.7020  0.3037 -1.6186
 8767SOL    HW237935   0.666   1.354  14.901  0.8696 -0.5797  1.1498
 8768SOL     OW37936   4.191   1.054   7.235  0.2850  0.2911 -0.0427
 8768SOL    HW137937   4.158   1.110   7.165  1.4485 -1.0982 -1.7153
 8768SOL    HW237938   4.181   1.118   7.305  2.0406  0.7870 -0.2505
 8769SOL     OW37939   3.778   3.083   3.345 -0.2492 -0.0423 -0.7913
 8769SOL    HW137940   3.737   3.021   3.285  0.5165 -0.7108 -0.6250
 8769SOL    HW237941   3.748   3.056   3.431 -3.2967  0.2717 -1.7807
 8770SOL     OW37942   0.452   2.937   6.677 -0.1709  0.4498  0.5234
 8770SOL    HW137943   0.491   2.989   6.747 -1.1073 -1.6601  2.6038
 8770SOL    HW237944   0.496   2.984   6.606  0.4923 -0.0860  0.5827
 8771SOL     OW37945   1.302   1.034   7.633 -0.6120  0.8018  0.2037
 8771SOL    HW137946   1.311   0.940   7.644 -1.5502  0.4871 -1.7816
 8771SOL    HW237947   1.377   1.062   7.581 -1.9207 -0.5290 -2.3426
 8772SOL     OW37948   0.434   3.035   8.222 -0.4337  0.0897  0.0261
 8772SOL    HW137949   0.372   2.980   8.271 -0.4317  0.7414  0.7731
 8772SOL    HW237950   0.498   2.966   8.206 -1.3630 -0.4784 -1.2337
 8773SOL     OW37951   1.271   1.297  16.521  0.8218 -0.5160  0.1849
 8773SOL    HW137952   1.316   1.329  16.599 -0.1210 -1.5873  1.1559
 8773SOL    HW237953   1.198   1.253  16.563  0.6818 -0.1431  0.3337
 8774SOL     OW37954   2.938   3.812  10.186 -0.3767  0.0335  0.1768
 8774SOL    HW137955   2.959   3.750  10.255  0.2039 -0.5074 -0.4857
 8774SOL    HW237956   2.846   3.821  10.212  0.2224 -0.7671  2.5812
 8775SOL     OW37957   0.279   3.148   4.061 -0.2395  0.1621  0.0142
 8775SOL    HW137958   0.372   3.133   4.045  0.1765  0.7494  1.8852
 8775SOL    HW237959   0.287   3.212   4.132  0.7719 -0.5601  0.5628
 8776SOL     OW37960   0.183   2.885  14.728  0.0899  0.4638  0.1116
 8776SOL    HW137961   0.119   2.815  14.735  1.5698 -0.9498 -0.5796
 8776SOL    HW237962   0.168   2.912  14.637 -0.2168 -0.5444 -0.1322
 8777SOL     OW37963   2.271   3.418   5.379 -0.1913 -0.2498 -0.5598
 8777SOL    HW137964   2.184   3.431   5.415  0.8157  1.6786  1.1572
 8777SOL    HW237965   2.260   3.494   5.321 -0.8377  0.7081  0.8079
 8778SOL     OW37966   4.328   1.426  13.318  0.0060  0.1071  0.6797
 8778SOL    HW137967   4.394   1.357  13.304  0.0276  0.3252 -0.2775
 8778SOL    HW237968   4.363   1.496  13.264 -0.7168  1.0196  1.4015
 8779SOL     OW37969   3.205   2.648   3.383 -0.0559 -0.5355  0.3724
 8779SOL    HW137970   3.169   2.559   3.380  0.0857 -0.6158  1.0393
 8779SOL    HW237971   3.297   2.629   3.400  0.6529  2.5929 -0.0478
 8780SOL     OW37972   4.181   0.724   0.899  0.1200  0.4139  0.2896
 8780SOL    HW137973   4.269   0.708   0.931  0.1159 -1.7174 -0.7788
 8780SOL    HW237974   4.174   0.653   0.835  1.2750  1.5795 -1.1393
 8781SOL     OW37975   1.030   0.527   9.962  0.1927  0.0235 -0.0888
 8781SOL    HW137976   1.043   0.512   9.868 -0.2589  0.2105 -0.1839
 8781SOL    HW237977   1.089   0.463  10.002 -1.8472 -1.4739  0.5369
 8782SOL     OW37978   3.057   2.816  11.455 -0.9183 -0.2195 -0.2761
 8782SOL    HW137979   3.125   2.842  11.393  0.1191 -0.4891  0.7412
 8782SOL    HW237980   3.032   2.902  11.489 -1.5877 -0.6173  0.2477
 8783SOL     OW37981   1.566   1.669  12.177  0.1831 -0.0503  0.4265
 8783SOL    HW137982   1.482   1.628  12.199 -0.8663  1.1400 -1.3315
 8783SOL    HW237983   1.557   1.747  12.231 -0.3007  1.2132 -1.4762
 8784SOL     OW37984   2.695   0.540   3.233  0.8917  0.2309 -0.0647
 8784SOL    HW137985   2.684   0.466   3.174 -3.6959  0.3349  0.6518
 8784SOL    HW237986   2.724   0.609   3.173 -0.3756 -0.4520 -1.4547
 8785SOL     OW37987   3.639   4.294  16.764  0.3848  0.2968  0.7059
 8785SOL    HW137988   3.718   4.328  16.722  1.1480  0.2453  2.1214
 8785SOL    HW237989   3.597   4.377  16.787  0.5142  0.4746  0.2973
 8786SOL     OW37990   4.392   2.670  17.396 -0.0914  0.1623 -0.1759
 8786SOL    HW137991   4.420   2.732  17.328  1.9362 -0.7468 -0.1570
 8786SOL    HW237992   4.373   2.726  17.472 -1.7715  2.5815 -2.3695
 8787SOL     OW37993   4.280   2.389   5.340 -0.3506 -0.1604 -0.2858
 8787SOL    HW137994   4.231   2.323   5.291  1.0078 -1.7194  0.4653
 8787SOL    HW237995   4.360   2.401   5.289  1.1643 -1.2300  1.8823
 8788SOL     OW37996   2.296   2.781   6.708  0.0148 -0.3123 -0.1334
 8788SOL    HW137997   2.239   2.849   6.743 -0.5844 -1.6400  1.4897
 8788SOL    HW237998   2.241   2.735   6.644 -3.3557 -0.1530  2.6401
 8789SOL     OW37999   4.668   1.423  16.818  0.0940 -0.0967  0.3622
 8789SOL    HW138000   0.026   1.409  16.837  0.2156 -0.2491 -0.3359
 8789SOL    HW238001   4.657   1.338  16.775  2.4958 -0.2842  0.1417
 8790SOL     OW38002   2.298   0.404  16.797 -0.3494 -0.0460 -0.3928
 8790SOL    HW138003   2.388   0.376  16.778  0.0999  0.9448  0.2971
 8790SOL    HW238004   2.262   0.422  16.710 -0.4355  2.3521  0.1470
 8791SOL     OW38005   0.897   3.235   1.800  0.4979  0.4136  0.0107
 8791SOL    HW138006   0.907   3.198   1.713  0.5848 -1.0699  0.6472
 8791SOL    HW238007   0.988   3.243   1.829  0.7108  0.5964 -0.7241
 8792SOL     OW38008   2.572   4.546   7.823  0.4913  0.2315 -0.0529
 8792SOL    HW138009   2.545   4.533   7.732  1.3558  0.6020 -0.3565
 8792SOL    HW238010   2.498   4.602   7.849  1.0244  0.6389  0.5742
 8793SOL     OW38011   2.167   2.325  10.047 -0.9270  0.0474 -0.4587
 8793SOL    HW138012   2.228   2.382  10.094  0.2103 -0.4570 -1.3064
 8793SOL    HW238013   2.225   2.261  10.004  1.2586  2.2774 -0.8543
 8794SOL     OW38014   3.920   3.897   8.602  0.1096 -0.0148  0.0892
 8794SOL    HW138015   4.000   3.851   8.627  0.9377  2.0665  1.1885
 8794SOL    HW238016   3.928   3.868   8.511 -2.2370 -0.1030 -0.0941
 8795SOL     OW38017   4.673   4.583   8.773 -0.2000 -0.1258  0.5542
 8795SOL    HW138018   4.651   4.672   8.799  0.8255  1.0055 -2.4667
 8795SOL    HW238019   4.693   4.593   8.680 -1.0971 -0.3711  0.3308
 8796SOL     OW38020   2.684   4.679   2.470  0.4621  0.5777  0.1994
 8796SOL    HW138021   2.641   4.597   2.495  0.5640 -0.0792 -1.7731
 8796SOL    HW238022   2.684   4.732   2.550  0.9195 -0.5692  0.9500
 8797SOL     OW38023   0.560   1.116   9.831  0.2978  0.0230 -0.2125
 8797SOL    HW138024   0.594   1.144   9.746  0.8385  0.7620  0.2461
 8797SOL    HW238025   0.598   1.177   9.894 -0.0940 -0.6364  0.6676
 8798SOL     OW38026   3.357   4.060   1.538 -0.4020 -0.0884 -0.3233
 8798SOL    HW138027   3.370   4.130   1.475  0.7122 -0.7201 -0.7977
 8798SOL    HW238028   3.440   4.014   1.530  1.1397  2.5594  0.5727
 8799SOL     OW38029   1.364   0.227   3.084 -0.0401 -0.7681  0.6193
 8799SOL    HW138030   1.346   0.197   2.995 -0.7326  0.8241  0.2141
 8799SOL    HW238031   1.454   0.204   3.108  0.0945  0.2378  1.0954
 8800SOL     OW38032   0.568   2.096   7.268 -0.1027  0.0182 -0.0939
 8800SOL    HW138033   0.545   2.030   7.203 -1.1206  0.7652 -0.4948
 8800SOL    HW238034   0.493   2.100   7.328 -0.6827  0.5729 -0.8502
 8801SOL     OW38035   4.630   2.419  10.840  0.0602 -0.5399 -0.0868
 8801SOL    HW138036   4.725   2.408  10.833 -0.0552 -1.2965 -0.4647
 8801SOL    HW238037   4.626   2.447  10.932  1.4362 -2.0442  0.4264
 8802SOL     OW38038   2.606   0.684  15.861 -0.5478 -0.5007 -0.1349
 8802SOL    HW138039   2.578   0.754  15.802 -2.6427 -0.9279  0.3701
 8802SOL    HW238040   2.688   0.720  15.895 -1.1278 -1.1431  1.9138
 8803SOL     OW38041   1.394   1.342   0.125  0.3035  0.4219  0.4680
 8803SOL    HW138042   1.336   1.395   0.071 -1.2783 -2.7308 -0.9069
 8803SOL    HW238043   1.361   1.257   0.096 -0.0267  0.7592 -0.1428
 8804SOL     OW38044   2.883   4.379   3.541  0.2530  0.1553  0.2078
 8804SOL    HW138045   2.838   4.306   3.498  0.3036  0.0833  0.2770
 8804SOL    HW238046   2.817   4.447   3.547  0.4009  0.2913  0.2927
 8805SOL     OW38047   3.509   1.051   1.064  0.0655 -0.2653  0.6151
 8805SOL    HW138048   3.496   1.130   1.013  1.7592 -2.0486 -2.5678
 8805SOL    HW238049   3.514   1.078   1.156  0.8618 -0.0436  0.5042
 8806SOL     OW38050   1.343   4.330   5.228 -0.7711 -0.2856 -0.5458
 8806SOL    HW138051   1.360   4.424   5.230 -1.2145 -0.2353  1.0192
 8806SOL    HW238052   1.271   4.320   5.290 -0.9480 -1.4442 -0.9364
 8807SOL     OW38053   2.108   3.191   5.255 -0.0849 -0.0107 -0.2565
 8807SOL    HW138054   2.183   3.243   5.284  0.1261 -0.0160 -0.7910
 8807SOL    HW238055   2.118   3.123   5.321  1.7870 -1.3256 -1.9193
 8808SOL     OW38056   4.418   0.534   8.730  0.2490  0.4378 -0.3429
 8808SOL    HW138057   4.408   0.624   8.760 -0.9215  0.4280 -0.6939
 8808SOL    HW238058   4.360   0.529   8.654  0.2725 -1.4144 -0.2403
 8809SOL     OW38059   2.122   2.546  16.766 -0.0882 -1.4730 -0.4340
 8809SOL    HW138060   2.151   2.597  16.840 -1.1305  3.1265 -3.2091
 8809SOL    HW238061   2.075   2.478  16.815 -3.4991  0.9457 -0.3787
 8810SOL     OW38062   4.680   1.324   8.613 -0.4351 -0.0734 -0.6459
 8810SOL    HW138063   4.704   1.404   8.566  2.3849 -0.3369  0.3406
 8810SOL    HW238064   4.664   1.347   8.705  1.0546 -0.4940 -0.2796
 8811SOL     OW38065   3.142   0.322   3.454 -0.2947 -0.1654  0.0972
 8811SOL    HW138066   3.174   0.305   3.542 -3.3331  0.6513  1.3744
 8811SOL    HW238067   3.073   0.389   3.461  1.3490  1.8239 -2.5243
 8812SOL     OW38068   2.960   1.722   6.903  0.1393  0.0137  0.0658
 8812SOL    HW138069   3.053   1.719   6.926  0.1537 -0.8454 -0.0970
 8812SOL    HW238070   2.967   1.772   6.822  2.8398 -1.2491 -0.4894
 8813SOL     OW38071   1.344   3.644  14.220  0.1078 -0.6956 -0.7117
 8813SOL    HW138072   1.273   3.583  14.239 -0.2038 -0.5204 -1.3412
 8813SOL    HW238073   1.330   3.728  14.264 -0.5371  0.4053 -3.0537
 8814SOL     OW38074   2.575   0.683   1.368 -0.0222  0.6851  0.0551
 8814SOL    HW138075   2.650   0.681   1.309  0.0894  0.1429  0.2147
 8814SOL    HW238076   2.549   0.591   1.368  0.3734  0.5767  0.5035
 8815SOL     OW38077   4.615   2.157   4.931  0.4589 -0.1437 -0.1317
 8815SOL    HW138078   4.674   2.090   4.965  0.7310  0.7233  1.1064
 8815SOL    HW238079   4.529   2.129   4.962  1.0275  0.7598  2.3119
 8816SOL     OW38080   4.231   1.254  16.683  0.1141  0.3557 -0.3404
 8816SOL    HW138081   4.327   1.258  16.687 -0.0031  0.5318  2.5898
 8816SOL    HW238082   4.207   1.189  16.617  0.5970 -0.6904  0.5128
 8817SOL     OW38083   3.277   3.361   5.192 -0.1925 -0.1220  0.1652
 8817SOL    HW138084   3.224   3.299   5.142  0.9442 -0.7876 -0.2138
 8817SOL    HW238085   3.256   3.326   5.279 -1.8421 -0.2269 -0.2626
 8818SOL     OW38086   0.418   1.741   2.555 -0.5233  0.0059  0.3621
 8818SOL    HW138087   0.440   1.648   2.545  0.9444  0.2507  1.3893
 8818SOL    HW238088   0.505   1.773   2.535 -0.9265 -0.2869 -1.9126
 8819SOL     OW38089   4.576   2.558  11.073 -0.0901 -0.4223 -0.3687
 8819SOL    HW138090   4.482   2.541  11.063  0.2082 -2.1649 -0.2681
 8819SOL    HW238091   4.592   2.645  11.038  1.1923 -0.6498 -0.3508
 8820SOL     OW38092   1.514   1.906  10.243  0.0593  0.0577  0.3965
 8820SOL    HW138093   1.474   1.991  10.258  0.0336  0.1664 -0.2850
 8820SOL    HW238094   1.470   1.855  10.311 -0.4430  2.0792  1.5887
 8821SOL     OW38095   4.413   2.291  13.770 -0.1876  0.0239 -0.1956
 8821SOL    HW138096   4.343   2.242  13.726 -1.0853  1.1439 -0.0305
 8821SOL    HW238097   4.404   2.253  13.857  0.4127  0.1105 -0.1010
 8822SOL     OW38098   0.692   1.753  17.411 -0.1515  0.0636  0.1797
 8822SOL    HW138099   0.692   1.847  17.430  0.7497 -0.0175  0.6153
 8822SOL    HW238100   0.704   1.713  17.497  0.4041  0.7063  0.4016
 8823SOL     OW38101   3.877   0.791   7.957 -0.1180  0.3078 -0.1972
 8823SOL    HW138102   3.956   0.774   7.905 -1.3569  0.9873 -2.2705
 8823SOL    HW238103   3.882   0.712   8.012 -0.0379  0.0721 -0.5465
 8824SOL     OW38104   0.244   3.598   9.605  0.5272  0.5237  0.1397
 8824SOL    HW138105   0.162   3.577   9.561  1.1887 -0.0996 -0.7990
 8824SOL    HW238106   0.301   3.524   9.584  2.2589  1.7124  0.6633
 8825SOL     OW38107   2.130   4.315  11.643  0.0444  0.7154 -0.0012
 8825SOL    HW138108   2.122   4.400  11.599 -1.0163 -1.0435 -3.2734
 8825SOL    HW238109   2.220   4.287  11.628 -0.1458  0.1230 -0.0274
 8826SOL     OW38110   1.229   4.197   7.273 -0.0301  0.6249 -0.5463
 8826SOL    HW138111   1.158   4.261   7.268 -1.0679 -0.4201  0.7472
 8826SOL    HW238112   1.306   4.253   7.263 -1.8482  3.2277  0.0540
 8827SOL     OW38113   3.928   0.926   4.419  0.5115  0.5779  0.1535
 8827SOL    HW138114   3.896   0.994   4.359  1.2649  0.1512 -0.7372
 8827SOL    HW238115   3.933   0.958   4.509 -1.8599  0.0995  0.4413
 8828SOL     OW38116   1.520   3.368   4.198  0.0737  0.1036  0.2345
 8828SOL    HW138117   1.514   3.329   4.285 -2.0909 -0.4240 -0.1493
 8828SOL    HW238118   1.429   3.390   4.181  0.2901  0.3802 -0.5795
 8829SOL     OW38119   2.510   2.130   8.414  0.0104  0.6552 -0.0733
 8829SOL    HW138120   2.434   2.181   8.386  1.3238  1.3076 -2.5043
 8829SOL    HW238121   2.559   2.194   8.465  0.5909  0.8265 -0.8448
 8830SOL     OW38122   1.945   2.254   6.287 -0.2538  0.4401  0.5870
 8830SOL    HW138123   2.035   2.256   6.320  0.4157  1.7499 -1.2723
 8830SOL    HW238124   1.924   2.173   6.332  0.7194  0.8876  1.8537
 8831SOL     OW38125   4.575   1.562   1.890 -0.3394  0.1898  0.6354
 8831SOL    HW138126   4.533   1.488   1.935  1.1763 -1.6570 -0.9834
 8831SOL    HW238127   4.510   1.611   1.841 -2.6782 -2.8288  0.7188
 8832SOL     OW38128   3.822   2.573   1.640 -0.5259 -0.4205 -0.1261
 8832SOL    HW138129   3.777   2.489   1.635 -0.8962 -0.1600 -1.2021
 8832SOL    HW238130   3.896   2.546   1.694  0.3104  2.3724  0.1429
 8833SOL     OW38131   3.144   4.015   5.034  0.3429  0.0869 -0.5468
 8833SOL    HW138132   3.119   3.927   5.004 -0.6467 -0.1721  1.0427
 8833SOL    HW238133   3.209   4.003   5.103 -1.6063  0.3474  1.3301
 8834SOL     OW38134   3.168   3.193   7.714  0.0313 -0.0397  0.1895
 8834SOL    HW138135   3.208   3.136   7.648  1.3027 -0.6651  1.4957
 8834SOL    HW238136   3.234   3.262   7.719 -0.2301  0.2601 -0.4851
 8835SOL     OW38137   3.598   1.217   3.726 -0.4470 -0.2356  0.0111
 8835SOL    HW138138   3.637   1.133   3.749  3.5364  1.1626 -1.6789
 8835SOL    HW238139   3.646   1.283   3.775 -0.5914 -0.7211  0.7950
 8836SOL     OW38140   0.630   2.887  12.306  0.1380 -0.1280  0.3061
 8836SOL    HW138141   0.550   2.889  12.358 -0.1767  3.8414 -0.3350
 8836SOL    HW238142   0.676   2.967  12.333  1.4160 -1.1715  1.1858
 8837SOL     OW38143   3.943   2.163   8.083  0.2696 -0.5959  0.5220
 8837SOL    HW138144   3.889   2.130   8.012  0.8512 -0.6567  0.1049
 8837SOL    HW238145   4.008   2.093   8.091 -0.0124 -0.7052  1.7731
 8838SOL     OW38146   2.934   3.689   4.495  0.4256  0.1368  0.2883
 8838SOL    HW138147   2.924   3.600   4.462  0.3326 -0.0476  0.8189
 8838SOL    HW238148   2.841   3.713   4.494  0.0538 -1.3344 -0.3884
 8839SOL     OW38149   4.196   0.887   6.548  0.2087 -0.1902  0.0815
 8839SOL    HW138150   4.101   0.874   6.536  0.3302 -0.1429 -0.9341
 8839SOL    HW238151   4.203   0.981   6.534  0.6138 -0.3453 -0.7130
 8840SOL     OW38152   3.232   2.802   9.688  0.2226 -0.6676  0.4988
 8840SOL    HW138153   3.218   2.708   9.685 -0.0349 -0.6986  2.7508
 8840SOL    HW238154   3.157   2.825   9.743 -1.1966 -1.4339 -1.1509
 8841SOL     OW38155   0.848   2.525   9.838 -0.0293  0.0853  0.0608
 8841SOL    HW138156   0.921   2.584   9.822 -0.7717  1.7338  2.7509
 8841SOL    HW238157   0.790   2.590   9.879  0.8400  1.7978 -1.4507
 8842SOL     OW38158   4.274   2.885   3.521 -0.0824 -0.0753 -0.2814
 8842SOL    HW138159   4.349   2.940   3.545  1.3035 -2.3302  0.5729
 8842SOL    HW238160   4.207   2.952   3.528  0.7548  0.3740  3.5234
 8843SOL     OW38161   3.868   0.587   3.623  0.0866  0.0023 -0.1908
 8843SOL    HW138162   3.835   0.631   3.544 -0.5883 -0.0652  0.0502
 8843SOL    HW238163   3.826   0.634   3.694 -2.4971  0.4849 -2.0153
 8844SOL     OW38164   0.047   1.730   1.908 -0.7246  0.1133 -0.3580
 8844SOL    HW138165   0.108   1.660   1.886 -1.7391 -0.9558  0.2098
 8844SOL    HW238166   4.705   1.673   1.898 -0.3545 -0.4680  0.1104
 8845SOL     OW38167   2.942   1.442   5.382 -0.1632 -0.3889  0.2324
 8845SOL    HW138168   2.851   1.467   5.394 -0.2387 -0.8529  0.6118
 8845SOL    HW238169   2.933   1.394   5.300 -0.8901 -0.5890  0.4308
 8846SOL     OW38170   0.590   4.231   0.613  0.0602 -1.1234 -0.1735
 8846SOL    HW138171   0.617   4.149   0.654 -2.0138 -2.3981 -1.3350
 8846SOL    HW238172   0.519   4.244   0.677  1.6046  0.6416  1.1689
 8847SOL     OW38173   3.568   1.870   4.924 -0.1510  0.0107  0.1010
 8847SOL    HW138174   3.617   1.819   4.989 -1.5392 -1.5050 -0.0538
 8847SOL    HW238175   3.482   1.835   4.948 -1.0863  3.1653  1.3810
 8848SOL     OW38176   4.682   4.198   4.540 -0.4080  0.3215  0.1846
 8848SOL    HW138177   4.707   4.249   4.617 -0.4533  1.0499 -0.2810
 8848SOL    HW238178   4.588   4.194   4.561 -0.7337  1.3012 -1.0689
 8849SOL     OW38179   1.656   3.498   1.114 -0.4524 -0.3999 -0.2103
 8849SOL    HW138180   1.589   3.453   1.062  1.0812 -3.1523  0.1980
 8849SOL    HW238181   1.707   3.426   1.151  0.7526  0.6882  0.2335
 8850SOL     OW38182   4.145   3.878   5.782  0.1394  0.3781  0.0704
 8850SOL    HW138183   4.109   3.963   5.806  0.7239  0.5031  0.5098
 8850SOL    HW238184   4.239   3.891   5.772  0.1288  0.6554  0.3316
 8851SOL     OW38185   2.879   3.580  15.710  0.0819  0.4299  0.2029
 8851SOL    HW138186   2.841   3.559  15.624  1.8766  0.6961 -0.6689
 8851SOL    HW238187   2.810   3.534  15.757  1.3277 -1.6516 -0.0401
 8852SOL     OW38188   2.678   0.384   6.546  0.1627  0.1712  0.6614
 8852SOL    HW138189   2.613   0.455   6.549  0.2428  0.2320  0.9577
 8852SOL    HW238190   2.629   0.319   6.595  1.5395 -1.6749 -0.4220
 8853SOL     OW38191   3.789   2.006   6.184 -0.2888 -0.1784 -0.0127
 8853SOL    HW138192   3.701   2.008   6.146 -0.2758 -0.0945 -0.0377
 8853SOL    HW238193   3.837   1.972   6.108 -1.0593 -1.8763  0.2498
 8854SOL     OW38194   3.335   1.875   9.304 -0.4550  0.2266  0.1983
 8854SOL    HW138195   3.364   1.958   9.266  2.7687  0.2831  2.7817
 8854SOL    HW238196   3.362   1.897   9.393  0.9629 -0.3392 -0.0952
 8855SOL     OW38197   3.705   4.350   9.080 -0.0026 -0.4508 -0.4898
 8855SOL    HW138198   3.700   4.415   9.010  1.8617  0.0911 -0.1191
 8855SOL    HW238199   3.743   4.410   9.144 -2.7713 -0.7946  1.4872
 8856SOL     OW38200   2.778   0.790   3.090 -0.1326 -0.6443 -0.0575
 8856SOL    HW138201   2.800   0.775   2.998 -1.1783 -1.1108 -0.2238
 8856SOL    HW238202   2.859   0.826   3.124  1.0414 -0.2643 -3.2014
 8857SOL     OW38203   2.904   2.107   7.822  0.4207 -0.1792  0.0853
 8857SOL    HW138204   2.832   2.156   7.783 -0.6675 -0.4386  1.7569
 8857SOL    HW238205   2.955   2.084   7.744  0.4802  3.0922 -0.8025
 8858SOL     OW38206   1.377   4.047  12.482 -0.3869 -0.1817  0.5954
 8858SOL    HW138207   1.444   4.081  12.542 -0.1630  0.2971  0.0693
 8858SOL    HW238208   1.416   3.966  12.451 -0.6581  0.2881 -0.9599
 8859SOL     OW38209   3.538   3.531   4.956  0.7904 -0.3119  0.0179
 8859SOL    HW138210   3.594   3.607   4.937 -0.0250 -0.0649 -1.4062
 8859SOL    HW238211   3.456   3.574   4.979  2.4974  3.1305 -0.2944
 8860SOL     OW38212   3.040   2.580   1.743  0.2285  0.2573  0.6092
 8860SOL    HW138213   3.061   2.521   1.670 -2.1422 -1.6317  1.4561
 8860SOL    HW238214   3.110   2.645   1.737  0.5938 -0.3666 -1.8892
 8861SOL     OW38215   2.409   0.350   6.041 -0.3066  0.3574  0.8190
 8861SOL    HW138216   2.364   0.373   6.122  0.8325 -0.2012  1.6052
 8861SOL    HW238217   2.466   0.289   6.087  0.3148  0.9214  0.8012
 8862SOL     OW38218   3.313   2.791   2.361 -0.2776  0.0975  0.2658
 8862SOL    HW138219   3.321   2.757   2.272 -0.8039 -2.1304  1.0497
 8862SOL    HW238220   3.223   2.764   2.380 -0.3934  1.4180  1.6247
 8863SOL     OW38221   0.969   1.142   9.102 -0.3576  0.0632 -0.4940
 8863SOL    HW138222   1.054   1.163   9.141 -1.0009  1.6047  0.0674
 8863SOL    HW238223   0.932   1.084   9.169  0.8039  0.3178  0.3610
 8864SOL     OW38224   0.343   4.526   9.084 -0.2754 -0.0468  0.4359
 8864SOL    HW138225   0.309   4.581   9.013  0.8780 -1.7530 -1.4301
 8864SOL    HW238226   0.432   4.512   9.051 -0.5178 -2.0132  0.6262
 8865SOL     OW38227   3.006   1.676   2.022 -0.0481 -0.0216 -0.2279
 8865SOL    HW138228   3.079   1.735   2.042 -0.9021  0.1810  2.3177
 8865SOL    HW238229   2.960   1.684   2.105 -2.8113 -0.6383 -1.6797
 8866SOL     OW38230   3.333   2.116   7.834 -0.0207  0.4362  0.6002
 8866SOL    HW138231   3.394   2.073   7.894  0.2775  2.5959  1.8417
 8866SOL    HW238232   3.342   2.049   7.767  0.5539  0.0547  1.0548
 8867SOL     OW38233   2.253   3.433  13.884 -0.0028  0.3885  0.5740
 8867SOL    HW138234   2.273   3.464  13.796 -2.5971 -3.3725 -1.3623
 8867SOL    HW238235   2.248   3.512  13.937  1.9022  1.3267 -0.6450
 8868SOL     OW38236   2.241   2.339   0.934 -0.1324 -0.3272 -0.4740
 8868SOL    HW138237   2.198   2.287   1.001  0.2667 -1.0099 -0.7475
 8868SOL    HW238238   2.329   2.327   0.968  0.8465  0.6527 -2.6819
 8869SOL     OW38239   3.672   2.617   2.566 -0.4040  0.5643  0.8043
 8869SOL    HW138240   3.584   2.631   2.600 -0.6738  3.6442 -1.2090
 8869SOL    HW238241   3.681   2.525   2.591 -0.6752 -0.0265 -1.2152
 8870SOL     OW38242   3.182   3.130   5.886 -0.2761 -0.1564  0.0163
 8870SOL    HW138243   3.249   3.169   5.943 -0.2405  1.1051 -0.8755
 8870SOL    HW238244   3.138   3.075   5.951 -0.7947  1.0400  0.6994
 8871SOL     OW38245   3.076   1.337   0.464 -0.3703  0.0239 -0.8560
 8871SOL    HW138246   3.119   1.366   0.383 -2.0358 -0.5177 -1.9258
 8871SOL    HW238247   2.985   1.366   0.465 -0.5927 -0.7233  0.6710
 8872SOL     OW38248   2.276   1.147   4.691  0.0454  0.0535  0.4320
 8872SOL    HW138249   2.296   1.231   4.734  1.3605 -2.3538  4.5075
 8872SOL    HW238250   2.246   1.168   4.603  1.3996 -0.6315 -0.2019
 8873SOL     OW38251   2.086   3.031  11.575  0.2947  0.2139  0.4188
 8873SOL    HW138252   2.131   3.005  11.494 -2.1732 -0.5044 -0.7058
 8873SOL    HW238253   2.058   3.120  11.554 -0.3818 -0.2105 -0.5088
 8874SOL     OW38254   1.473   2.250  13.886  0.5861 -0.3149  0.1823
 8874SOL    HW138255   1.400   2.195  13.857 -1.3888  2.4380 -0.0500
 8874SOL    HW238256   1.473   2.329  13.832 -0.1362 -0.7478 -0.4487
 8875SOL     OW38257   0.500   4.153   3.213  0.0397 -0.6471 -0.2326
 8875SOL    HW138258   0.419   4.128   3.168 -0.1364  0.2289 -0.3990
 8875SOL    HW238259   0.514   4.238   3.172 -2.5816 -0.6972 -1.2327
 8876SOL     OW38260   3.491   4.638  11.933 -0.0363  0.9431  0.1393
 8876SOL    HW138261   3.429   4.629  11.860 -0.8418 -0.3908  1.0031
 8876SOL    HW238262   3.571   4.622  11.883 -1.0538  0.6262 -1.3911
 8877SOL     OW38263   4.056   4.289   0.079 -0.3340  0.0571 -0.0594
 8877SOL    HW138264   4.001   4.353   0.125  3.5536  1.1606  3.0325
 8877SOL    HW238265   4.129   4.345   0.053 -0.7728  0.1165 -1.1488
 8878SOL     OW38266   3.291   2.760  14.271 -0.0205  0.3295 -0.1766
 8878SOL    HW138267   3.216   2.700  14.265  0.8801 -0.8841  0.5197
 8878SOL    HW238268   3.266   2.795  14.357  0.4728  0.2010  0.0183
 8879SOL     OW38269   2.861   4.337  10.739  0.4034 -0.0038 -0.3978
 8879SOL    HW138270   2.828   4.248  10.749 -2.1522  1.1329  1.2128
 8879SOL    HW238271   2.872   4.355  10.646  0.7750  1.3477 -0.0997
 8880SOL     OW38272   0.420   1.221   3.180  0.0311  0.8484 -0.1090
 8880SOL    HW138273   0.343   1.222   3.237  0.2530  0.4707  0.2014
 8880SOL    HW238274   0.377   1.200   3.097  0.0438 -2.0289  0.6035
 8881SOL     OW38275   0.747   4.264  14.596 -0.3070  0.8132 -0.0518
 8881SOL    HW138276   0.709   4.308  14.519  0.1781 -1.0186 -1.3548
 8881SOL    HW238277   0.807   4.196  14.565  0.3390  2.0366 -1.4835
 8882SOL     OW38278   3.453   4.249   1.365 -0.1308  0.0837 -1.0983
 8882SOL    HW138279   3.468   4.318   1.300  0.5984 -0.1138 -1.1504
 8882SOL    HW238280   3.518   4.187   1.331 -0.9131 -1.0339 -0.5224
 8883SOL     OW38281   1.175   2.841  16.218 -0.0310 -0.5284  0.6099
 8883SOL    HW138282   1.204   2.789  16.143  0.6676 -1.8995  1.8349
 8883SOL    HW238283   1.102   2.895  16.186  1.3672  0.7153 -0.4669
 8884SOL     OW38284   1.235   3.169   3.908  0.0547 -0.1433  0.2824
 8884SOL    HW138285   1.306   3.129   3.859  1.0665 -0.3345  1.9033
 8884SOL    HW238286   1.164   3.105   3.901  0.8221 -1.0387  0.6725
 8885SOL     OW38287   3.182   0.953   8.105 -0.2339 -0.3020 -0.4482
 8885SOL    HW138288   3.127   1.010   8.158  0.6392 -1.7126  1.9969
 8885SOL    HW238289   3.137   0.977   8.024 -4.1564 -4.3929  0.4675
 8886SOL     OW38290   3.414   0.175   2.727  0.2737 -0.0865  0.5276
 8886SOL    HW138291   3.362   0.115   2.674 -0.9705 -0.6298  2.3317
 8886SOL    HW238292   3.351   0.211   2.790  0.2456  0.5857  0.1150
 8887SOL     OW38293   0.729   2.581   5.053  0.4390  0.5105 -1.1495
 8887SOL    HW138294   0.759   2.615   4.969  1.3175 -0.1093 -1.0856
 8887SOL    HW238295   0.743   2.488   5.039  2.3164  0.6391 -0.1188
 8888SOL     OW38296   4.026   3.885   8.322  0.4059 -0.2257  0.0339
 8888SOL    HW138297   3.987   3.893   8.235  2.5087  2.1045 -0.7079
 8888SOL    HW238298   4.024   3.789   8.324  0.5880 -0.2470 -0.5211
 8889SOL     OW38299   1.326   1.472   8.729  0.0638  0.4426 -0.2391
 8889SOL    HW138300   1.419   1.486   8.713  0.6877 -0.4910  2.4582
 8889SOL    HW238301   1.323   1.456   8.824  1.6147  0.7155 -0.1392
 8890SOL     OW38302   2.661   3.682   7.977 -0.0486 -0.6768  0.0935
 8890SOL    HW138303   2.602   3.755   7.960  1.7372  0.5860 -0.7225
 8890SOL    HW238304   2.700   3.664   7.891  1.3181  1.9126  0.1691
 8891SOL     OW38305   0.541   3.304   0.778  0.1206 -0.0530 -0.5383
 8891SOL    HW138306   0.472   3.368   0.757 -0.1571 -0.1333  0.1373
 8891SOL    HW238307   0.487   3.225   0.776 -0.1853  0.1383  0.2270
 8892SOL     OW38308   0.626   0.513   3.203 -0.3598 -0.1588  0.2979
 8892SOL    HW138309   0.533   0.527   3.182  0.0849  0.3489 -1.3798
 8892SOL    HW238310   0.658   0.442   3.146 -1.5338  0.8760 -1.6733
 8893SOL     OW38311   0.970   1.267  10.378 -0.2367 -0.4923  0.0508
 8893SOL    HW138312   0.997   1.352  10.411 -0.5073 -0.1171 -0.6865
 8893SOL    HW238313   0.923   1.288  10.297 -1.4010  1.3797  1.2162
 8894SOL     OW38314   4.315   2.867   0.430 -0.4927  0.2519 -0.5263
 8894SOL    HW138315   4.406   2.852   0.405 -0.6848  1.8597 -2.1500
 8894SOL    HW238316   4.271   2.885   0.347 -1.2427 -2.0427 -0.6366
 8895SOL     OW38317   3.913   0.710  12.128  0.5079  0.1466 -0.3816
 8895SOL    HW138318   4.000   0.721  12.166  0.0790  0.3590  0.5485
 8895SOL    HW238319   3.855   0.739  12.198  0.8620  0.8659 -0.3875
 8896SOL     OW38320   0.648   0.473   8.372  0.5786 -0.1504 -0.1558
 8896SOL    HW138321   0.701   0.548   8.400  0.4880  0.5051 -1.7333
 8896SOL    HW238322   0.595   0.498   8.296  0.7097 -2.2473 -0.9510
 8897SOL     OW38323   3.085   1.562   9.475 -0.0760  0.5627 -0.0165
 8897SOL    HW138324   3.108   1.484   9.526 -1.1730 -1.2177 -2.1763
 8897SOL    HW238325   2.994   1.536   9.460  0.3158 -1.6186  1.4353
 8898SOL     OW38326   0.982   2.205   7.994  0.1615  0.3276 -0.4143
 8898SOL    HW138327   0.968   2.124   8.043 -2.7721  1.9355  1.4072
 8898SOL    HW238328   0.904   2.225   7.942  0.0166 -1.3248 -0.8300
 8899SOL     OW38329   1.675   4.238   8.641  0.2994 -0.3644  0.3374
 8899SOL    HW138330   1.607   4.171   8.649 -0.6348  0.3713 -1.4129
 8899SOL    HW238331   1.707   4.230   8.551 -0.9675 -0.9815 -0.0654
 8900SOL     OW38332   4.712   0.881  11.901  0.3170 -0.2623  0.3459
 8900SOL    HW138333   0.002   0.812  11.839  2.0679  0.2077  0.5073
 8900SOL    HW238334   0.059   0.886  11.952  0.4665  0.8385 -0.0072
 8901SOL     OW38335   2.713   4.532   5.315  0.6097  0.1385 -0.4552
 8901SOL    HW138336   2.701   4.549   5.408  1.7431  0.7559 -0.4184
 8901SOL    HW238337   2.627   4.497   5.293  0.6606 -1.2241  1.5691
 8902SOL     OW38338   2.216   1.681   2.769 -0.0987  0.2655  0.1767
 8902SOL    HW138339   2.250   1.634   2.845 -0.4959  2.1840  1.5302
 8902SOL    HW238340   2.299   1.670   2.722 -0.6810  3.4549 -1.5772
 8903SOL     OW38341   2.418   2.816  17.429  0.1588  0.3628  0.2957
 8903SOL    HW138342   2.366   2.872  17.372  3.3265  2.3907 -0.5973
 8903SOL    HW238343   2.355   2.750  17.460  2.5104 -1.8071  0.4627
 8904SOL     OW38344   2.573   2.939   1.842  0.5055 -0.0972 -0.6998
 8904SOL    HW138345   2.570   2.845   1.860  3.0137 -0.4579 -2.2030
 8904SOL    HW238346   2.550   2.985   1.923 -1.1714  1.6800 -2.1643
 8905SOL     OW38347   4.451   2.312  14.355 -0.4567 -0.6348 -0.3263
 8905SOL    HW138348   4.415   2.399  14.374 -0.7234 -0.7413 -0.3472
 8905SOL    HW238349   4.437   2.270  14.441  0.2283  0.3911  0.2872
 8906SOL     OW38350   1.753   2.773   9.142  0.1931  0.5561 -0.3368
 8906SOL    HW138351   1.763   2.857   9.187 -2.9831  0.5097  0.4891
 8906SOL    HW238352   1.763   2.785   9.048  0.6871  0.6920 -0.2672
 8907SOL     OW38353   1.020   3.723   7.519  0.5160  0.7612  0.3535
 8907SOL    HW138354   1.010   3.767   7.603  1.3216  1.0602  0.2966
 8907SOL    HW238355   0.935   3.678   7.514  1.0061  0.0764 -2.0369
 8908SOL     OW38356   0.996   2.288   3.235 -0.4173 -0.0073  0.0195
 8908SOL    HW138357   1.088   2.277   3.209 -0.1621 -0.0972  0.9388
 8908SOL    HW238358   0.944   2.270   3.157  0.2167 -0.4232 -0.3080
 8909SOL     OW38359   2.059   0.335   5.885 -0.0291 -0.4889  0.1918
 8909SOL    HW138360   2.068   0.285   5.804 -0.0957 -0.0885 -0.0606
 8909SOL    HW238361   2.031   0.261   5.940  0.2507 -0.4270  0.4181
 8910SOL     OW38362   2.286   3.307  11.417 -1.0598 -0.4319  0.4605
 8910SOL    HW138363   2.193   3.322  11.434 -1.6223 -0.0999 -2.8108
 8910SOL    HW238364   2.313   3.299  11.508  1.4707  0.3498 -0.2303
 8911SOL     OW38365   0.806   0.914   8.548  0.7015 -0.4604  0.6419
 8911SOL    HW138366   0.812   0.881   8.458 -0.8615  0.0550  0.3638
 8911SOL    HW238367   0.854   0.996   8.544  0.0356 -0.0815  0.4759
 8912SOL     OW38368   0.540   4.232   4.322  0.1072  0.2103 -0.1617
 8912SOL    HW138369   0.476   4.162   4.322  0.7380 -0.3811 -2.3441
 8912SOL    HW238370   0.504   4.289   4.254  0.3978  1.1864  0.4874
 8913SOL     OW38371   1.391   0.841  10.844  0.1721 -0.2062 -0.2215
 8913SOL    HW138372   1.431   0.883  10.920 -3.2890  1.1046  0.8396
 8913SOL    HW238373   1.299   0.868  10.851  0.3753 -0.6309  4.0011
 8914SOL     OW38374   1.988   0.510   2.408  0.1758  0.4794  0.3318
 8914SOL    HW138375   2.043   0.440   2.442 -0.4151  0.1623  0.6393
 8914SOL    HW238376   1.973   0.488   2.316 -2.5048 -0.5506  0.9951
 8915SOL     OW38377   2.034   3.038   7.471  0.5073 -0.3331  0.5116
 8915SOL    HW138378   2.095   3.032   7.398 -0.6071 -1.8755 -0.2857
 8915SOL    HW238379   1.968   3.097   7.434  0.9295  1.3784  2.5216
 8916SOL     OW38380   4.209   4.394   2.870 -0.2128 -0.0150  0.2031
 8916SOL    HW138381   4.153   4.338   2.924 -0.6967  2.3831  2.1705
 8916SOL    HW238382   4.200   4.474   2.921  0.8017  1.8471 -2.5766
 8917SOL     OW38383   3.579   3.287   2.241  0.2305 -0.8451  0.2567
 8917SOL    HW138384   3.609   3.201   2.210 -0.0855 -0.9689  0.2992
 8917SOL    HW238385   3.520   3.270   2.314 -0.1530 -0.7166 -0.0248
 8918SOL     OW38386   0.422   1.918   9.041 -0.4039 -0.3650  0.1757
 8918SOL    HW138387   0.433   1.918   9.136  0.1074 -1.1665  0.1208
 8918SOL    HW238388   0.493   1.978   9.019 -0.7069 -1.2110 -3.0431
 8919SOL     OW38389   3.760   2.470   8.025 -0.8572  0.2656  0.0366
 8919SOL    HW138390   3.750   2.564   8.039  3.3459  0.8910 -1.0654
 8919SOL    HW238391   3.839   2.447   8.074 -1.4411  0.3835  1.0297
 8920SOL     OW38392   1.277   3.682   8.067 -0.0088  0.3692  0.0118
 8920SOL    HW138393   1.222   3.603   8.072  0.8313 -0.1073  1.6970
 8920SOL    HW238394   1.342   3.674   7.998 -0.1345  1.6158 -0.2609
 8921SOL     OW38395   3.539   4.070   4.142 -0.4299  0.1568 -0.2719
 8921SOL    HW138396   3.496   4.121   4.073  1.2986  1.0799 -0.6687
 8921SOL    HW238397   3.560   4.142   4.201 -0.1371 -3.4822  4.0564
 8922SOL     OW38398   3.275   2.364   4.179  0.0349  0.1502  0.4963
 8922SOL    HW138399   3.224   2.441   4.156  1.1910  0.5499 -0.6877
 8922SOL    HW238400   3.218   2.309   4.234  0.8861  0.2432  1.4809
 8923SOL     OW38401   0.515   3.089   6.908  0.6186  0.1675  0.9317
 8923SOL    HW138402   0.462   3.163   6.879 -2.1162 -1.4578  1.7581
 8923SOL    HW238403   0.522   3.115   7.000  1.9825  0.7043  0.6711
 8924SOL     OW38404   4.568   3.125   3.157  0.4927  0.1379  0.5910
 8924SOL    HW138405   4.627   3.065   3.112  0.7648  0.3035  0.7271
 8924SOL    HW238406   4.506   3.070   3.205  0.7170 -1.6925 -1.2429
 8925SOL     OW38407   3.170   2.589  10.560 -0.3849 -1.2144  0.2449
 8925SOL    HW138408   3.141   2.667  10.512  1.0279 -1.6380 -1.2744
 8925SOL    HW238409   3.245   2.625  10.607 -0.6320 -1.2694  0.6902
 8926SOL     OW38410   4.417   1.189   8.085  0.4799  0.1835  0.1130
 8926SOL    HW138411   4.450   1.266   8.038 -0.4313  0.0001 -0.8477
 8926SOL    HW238412   4.497   1.141   8.108 -1.5746 -2.8596  0.8614
 8927SOL     OW38413   3.570   1.684   2.034  0.2110  0.3637 -0.3967
 8927SOL    HW138414   3.491   1.634   2.012 -0.5954  2.0148 -1.2676
 8927SOL    HW238415   3.543   1.730   2.113  2.7716  0.2675  0.5191
 8928SOL     OW38416   1.765   2.448   0.646  0.1060 -0.3974 -0.2489
 8928SOL    HW138417   1.720   2.520   0.602 -1.1634 -1.1657 -0.1743
 8928SOL    HW238418   1.741   2.372   0.593 -0.2415 -1.7635  1.8961
 8929SOL     OW38419   0.885   4.484   5.676 -0.0634 -0.0245  0.5235
 8929SOL    HW138420   0.819   4.456   5.612  1.1243  0.3980 -0.8636
 8929SOL    HW238421   0.933   4.402   5.690 -0.1781 -0.6811 -3.0661
 8930SOL     OW38422   1.463   2.039   2.887 -0.1258  0.6816 -0.1576
 8930SOL    HW138423   1.428   2.049   2.975  1.8371 -0.0139  0.6868
 8930SOL    HW238424   1.438   2.124   2.852  0.4669  1.5477  1.5720
 8931SOL     OW38425   4.284   2.205   3.884 -0.1469  0.4404 -0.0121
 8931SOL    HW138426   4.231   2.273   3.842 -1.2038 -0.7605 -0.5938
 8931SOL    HW238427   4.215   2.176   3.944 -0.1050 -0.8135 -0.5835
 8932SOL     OW38428   0.327   0.760   1.486 -0.2404 -0.0550  0.3924
 8932SOL    HW138429   0.237   0.731   1.497 -0.4507  0.0406 -0.9745
 8932SOL    HW238430   0.376   0.681   1.506  0.3268 -0.1848 -1.4376
 8933SOL     OW38431   4.612   1.435   8.331  0.2694 -0.4526 -0.0470
 8933SOL    HW138432   4.676   1.473   8.390  0.0242  3.2657 -2.1782
 8933SOL    HW238433   4.679   1.408   8.267 -1.4847 -2.5757 -0.9954
 8934SOL     OW38434   2.810   2.473  13.043  0.1036 -0.2259  0.0253
 8934SOL    HW138435   2.787   2.536  12.974  1.1712  0.4853  0.3129
 8934SOL    HW238436   2.723   2.451  13.075  1.2029  1.8261  4.4296
 8935SOL     OW38437   3.520   0.282   6.751  0.2121 -0.3750  0.7226
 8935SOL    HW138438   3.594   0.223   6.734  1.4818  1.6601 -0.8915
 8935SOL    HW238439   3.448   0.223   6.773  0.1310 -0.2110  0.8883
 8936SOL     OW38440   1.190   0.827   9.923 -0.4135 -0.0752 -0.2708
 8936SOL    HW138441   1.125   0.825   9.994 -1.9096  1.4887 -1.5623
 8936SOL    HW238442   1.269   0.793   9.964 -0.2647 -0.7377 -1.1023
 8937SOL     OW38443   2.109   4.537  11.476  0.5509 -0.1941  0.4342
 8937SOL    HW138444   2.017   4.528  11.452  0.7702 -2.3075  0.4361
 8937SOL    HW238445   2.096   4.617  11.527 -0.3085 -0.1115  0.1005
 8938SOL     OW38446   4.612   4.185   3.569  0.3336  0.0769  0.4026
 8938SOL    HW138447   4.616   4.115   3.635  0.8504 -1.8105 -1.6045
 8938SOL    HW238448   4.631   4.255   3.631  1.0013  2.4679 -2.5092
 8939SOL     OW38449   0.491   1.845  14.633  0.0608 -0.2276 -0.4695
 8939SOL    HW138450   0.515   1.761  14.595  5.5122  1.2823 -0.3653
 8939SOL    HW238451   0.418   1.814  14.687 -0.0316 -0.9304 -1.0044
 8940SOL     OW38452   2.545   2.702   8.723 -0.1139  0.5757  0.4569
 8940SOL    HW138453   2.470   2.681   8.778 -2.8212  1.4827 -2.8682
 8940SOL    HW238454   2.613   2.683   8.787 -0.2295  3.4206  1.4392
 8941SOL     OW38455   4.522   0.136   6.099  0.2234 -0.2326 -0.4258
 8941SOL    HW138456   4.451   0.096   6.047 -0.2188  1.0498 -0.7939
 8941SOL    HW238457   4.598   0.082   6.077  1.6744  1.0107  1.6774
 8942SOL     OW38458   3.107   1.379   4.086  0.0192  0.1447 -0.2674
 8942SOL    HW138459   3.131   1.298   4.042 -1.9809 -0.3216 -0.5012
 8942SOL    HW238460   3.103   1.441   4.013 -1.1300 -0.1090 -0.4176
 8943SOL     OW38461   2.736   1.558   7.562 -0.8816  0.3131 -0.4902
 8943SOL    HW138462   2.716   1.467   7.584 -0.0163  0.6257  1.5617
 8943SOL    HW238463   2.686   1.604   7.629 -0.4759 -1.4750  1.0363
 8944SOL     OW38464   1.367   0.736   4.274 -0.2586  0.6920  0.2562
 8944SOL    HW138465   1.317   0.748   4.354 -1.3032  1.5563 -0.5331
 8944SOL    HW238466   1.439   0.798   4.285 -0.6566  0.6770  2.7604
 8945SOL     OW38467   1.962   3.366  15.764  0.2619 -0.0349 -0.3582
 8945SOL    HW138468   1.954   3.285  15.814 -0.1440  2.0407  2.9421
 8945SOL    HW238469   2.052   3.393  15.780  0.1392  2.1306 -3.3740
 8946SOL     OW38470   3.835   0.066   5.109 -0.3368 -0.2261  0.2701
 8946SOL    HW138471   3.881   0.136   5.063 -0.3706  0.0441  0.6577
 8946SOL    HW238472   3.748   0.071   5.070  0.1034  0.3600 -0.6343
 8947SOL     OW38473   4.318   0.773   7.780 -0.1680  0.0668  0.2267
 8947SOL    HW138474   4.280   0.792   7.866  2.0275 -0.7342  1.3388
 8947SOL    HW238475   4.365   0.855   7.761  1.6192 -1.0630 -0.1572
 8948SOL     OW38476   1.418   0.544   6.914  0.9709  0.1989 -0.0831
 8948SOL    HW138477   1.486   0.488   6.950 -1.0498 -2.6868 -0.7641
 8948SOL    HW238478   1.358   0.573   6.983 -0.8201 -0.8946 -1.1786
 8949SOL     OW38479   4.183   1.154   9.542  0.0553  0.2865  0.3906
 8949SOL    HW138480   4.136   1.071   9.533  1.8897 -0.9183  1.8516
 8949SOL    HW238481   4.267   1.119   9.572 -0.6079 -1.0571  0.6854
 8950SOL     OW38482   4.553   1.704  14.810 -0.0638  0.2032 -0.3722
 8950SOL    HW138483   4.602   1.623  14.795  1.2155  0.6727  1.2905
 8950SOL    HW238484   4.466   1.668  14.827  0.6914 -0.6332  1.7185
 8951SOL     OW38485   1.572   0.385   0.389 -0.3807  0.2169  0.0786
 8951SOL    HW138486   1.525   0.402   0.308  0.9614 -0.3212 -0.8038
 8951SOL    HW238487   1.528   0.304   0.415 -2.1558  1.7353  1.8266
 8952SOL     OW38488   0.714   3.432   1.085 -0.1134  0.1312 -0.0008
 8952SOL    HW138489   0.626   3.401   1.064 -0.3382  0.1214  0.9621
 8952SOL    HW238490   0.736   3.402   1.173 -0.0430 -2.2010 -0.7850
 8953SOL     OW38491   4.079   3.698  10.600  0.2845 -0.3231 -0.1212
 8953SOL    HW138492   4.158   3.654  10.630  0.4405  1.6911  2.4257
 8953SOL    HW238493   4.111   3.748  10.525 -0.8701 -0.0413 -0.4280
 8954SOL     OW38494   2.881   1.719  12.408  0.2690 -0.4120  0.1630
 8954SOL    HW138495   2.923   1.667  12.339  1.8975 -1.3136  1.8427
 8954SOL    HW238496   2.868   1.804  12.365  0.1778  0.2003  1.4117
 8955SOL     OW38497   0.139   3.197   5.504 -0.1969 -0.4408 -0.0349
 8955SOL    HW138498   0.092   3.119   5.534 -0.6894 -0.0118  0.3175
 8955SOL    HW238499   0.221   3.201   5.552  0.2529  0.6910 -0.9019
 8956SOL     OW38500   0.755   3.705  11.639  0.1736 -0.1664 -0.1085
 8956SOL    HW138501   0.778   3.614  11.654  1.9586  0.2325 -0.3460
 8956SOL    HW238502   0.803   3.706  11.556 -0.3008 -0.6540 -0.3910
 8957SOL     OW38503   1.840   0.467   8.193  0.2841 -0.6779  0.2358
 8957SOL    HW138504   1.897   0.508   8.258 -0.2312  0.7179 -0.1913
 8957SOL    HW238505   1.757   0.511   8.210  1.3068  1.0299  0.7357
 8958SOL     OW38506   1.154   2.039   5.544  0.3400 -0.2292  0.2289
 8958SOL    HW138507   1.069   2.083   5.548  0.7807  0.4681  1.8442
 8958SOL    HW238508   1.173   2.038   5.637  0.7621  0.4587  0.1549
 8959SOL     OW38509   4.325   2.700   0.782  0.0110 -0.1495 -0.5057
 8959SOL    HW138510   4.276   2.740   0.710 -2.5832 -0.3431  1.1519
 8959SOL    HW238511   4.375   2.776   0.811 -0.6896  0.1914 -0.1798
 8960SOL     OW38512   2.620   2.944   3.184 -0.5655 -0.2810 -0.7082
 8960SOL    HW138513   2.544   2.922   3.238 -0.7143  2.0451  0.0199
 8960SOL    HW238514   2.633   2.851   3.166 -0.7915 -0.6889  1.2801
 8961SOL     OW38515   0.679   2.816  13.187 -0.5810 -0.0760  0.5715
 8961SOL    HW138516   0.723   2.738  13.218 -2.2533 -0.5079  1.8685
 8961SOL    HW238517   0.678   2.857  13.273  1.4806 -2.2338  1.6259
 8962SOL     OW38518   1.517   3.234   4.436  0.6307 -0.6778  0.0232
 8962SOL    HW138519   1.552   3.308   4.486  0.4878 -0.6439  0.0734
 8962SOL    HW238520   1.514   3.168   4.505 -0.0821 -0.0676  0.5721
 8963SOL     OW38521   1.833   4.728   1.587 -0.1698 -0.0237  0.0202
 8963SOL    HW138522   1.927   4.721   1.570  0.0450 -0.6306  1.4627
 8963SOL    HW238523   1.841   0.027   1.677  1.8412 -0.2020 -0.1019
 8964SOL     OW38524   3.541   4.000   5.700 -0.5720  0.2108 -0.0288
 8964SOL    HW138525   3.556   3.908   5.720  0.4943  0.5446  0.7409
 8964SOL    HW238526   3.480   4.033   5.767 -0.6789 -1.5147  0.7208
 8965SOL     OW38527   2.514   2.464   7.230  0.0350  0.5400 -0.6568
 8965SOL    HW138528   2.543   2.498   7.314 -0.7703  1.5748 -0.7970
 8965SOL    HW238529   2.498   2.373   7.254  0.7585  0.6261  0.1149
 8966SOL     OW38530   0.260   4.232   3.060  0.2356  0.2034  0.5145
 8966SOL    HW138531   0.301   4.209   2.977  0.4191  0.5312  0.5131
 8966SOL    HW238532   0.169   4.201   3.063 -0.2827  1.6112 -1.1111
 8967SOL     OW38533   0.982   0.660   5.143  0.1856  0.1361  0.0412
 8967SOL    HW138534   1.075   0.636   5.136  0.1349 -0.1594  0.3745
 8967SOL    HW238535   0.966   0.666   5.237  1.7235  1.9770  0.1841
 8968SOL     OW38536   1.466   1.049   6.471 -0.4800 -0.1897  0.3434
 8968SOL    HW138537   1.546   1.100   6.486 -0.8244  0.5334 -0.2434
 8968SOL    HW238538   1.421   1.088   6.546 -3.1880 -1.4211 -0.6430
 8969SOL     OW38539   2.378   0.764   9.765  0.2088  0.3121  0.2911
 8969SOL    HW138540   2.369   0.755   9.671 -1.6620 -0.2121  0.5240
 8969SOL    HW238541   2.472   0.752   9.778  0.5448  1.9743 -0.6090
 8970SOL     OW38542   0.793   0.854   8.915  0.0633 -0.3090  0.1620
 8970SOL    HW138543   0.728   0.917   8.947  1.3633  1.6855 -1.1263
 8970SOL    HW238544   0.856   0.921   8.886 -0.8280  1.2722  1.8640
 8971SOL     OW38545   1.538   4.539   6.681 -0.2955 -0.6454 -0.3028
 8971SOL    HW138546   1.447   4.559   6.701 -0.9346 -0.3029 -3.5189
 8971SOL    HW238547   1.562   4.607   6.618 -0.7714  0.6277  0.8879
 8972SOL     OW38548   1.126   1.801  13.837  0.2171  0.7647 -1.0532
 8972SOL    HW138549   1.138   1.711  13.806 -2.1804  0.0781  0.0313
 8972SOL    HW238550   1.033   1.797  13.859  0.3640 -0.0062 -0.5889
 8973SOL     OW38551   0.863   4.016  13.680  0.3255  0.1085  0.0751
 8973SOL    HW138552   0.803   3.946  13.654  0.2956  0.2301 -0.1865
 8973SOL    HW238553   0.871   4.068  13.600  0.9720  0.5580  0.4416
 8974SOL     OW38554   3.234   2.457   6.105 -0.1574  0.1707  0.3485
 8974SOL    HW138555   3.255   2.403   6.030  0.5489 -0.9629  1.3625
 8974SOL    HW238556   3.291   2.531   6.084 -1.0794  0.5346 -0.8071
 8975SOL     OW38557   3.233   3.528   3.092 -0.4037 -0.4434  0.2292
 8975SOL    HW138558   3.180   3.450   3.077 -2.7516  0.9705  1.2495
 8975SOL    HW238559   3.318   3.490   3.114 -0.2377  0.8795  1.8600
 8976SOL     OW38560   0.920   1.906   7.340 -0.2854  0.1026 -0.3856
 8976SOL    HW138561   0.836   1.869   7.313  0.8831 -2.3040 -0.7523
 8976SOL    HW238562   0.973   1.862   7.273 -0.0803  0.3444 -0.3808
 8977SOL     OW38563   2.410   2.814  13.563 -0.2633  0.0358  0.2815
 8977SOL    HW138564   2.418   2.826  13.658 -1.2959  1.8815  0.1255
 8977SOL    HW238565   2.378   2.724  13.556  3.9483 -1.3347 -1.4023
 8978SOL     OW38566   1.444   1.412   1.272  0.6413 -0.8142  0.0940
 8978SOL    HW138567   1.496   1.399   1.192  1.3589  0.8624  0.2899
 8978SOL    HW238568   1.394   1.491   1.253 -0.4252 -1.6609 -0.6093
 8979SOL     OW38569   0.353   1.956   7.912 -0.4506  0.1504 -0.5196
 8979SOL    HW138570   0.356   1.860   7.914  0.5300  0.1069 -3.3075
 8979SOL    HW238571   0.439   1.976   7.950 -0.7174  2.4680 -1.1097
 8980SOL     OW38572   1.126   1.077   3.345 -0.2587  0.0144 -0.4266
 8980SOL    HW138573   1.216   1.077   3.378 -1.4893 -0.9279  2.9019
 8980SOL    HW238574   1.143   1.045   3.256 -0.8664  1.7404 -1.1455
 8981SOL     OW38575   4.497   1.558   2.849 -0.2445 -0.2488 -0.2320
 8981SOL    HW138576   4.550   1.527   2.775  1.1334 -0.4060  0.8266
 8981SOL    HW238577   4.414   1.588   2.812 -0.3121 -0.6553 -0.4062
 8982SOL     OW38578   0.895   3.203   5.275  0.0515  0.0858  0.1140
 8982SOL    HW138579   0.928   3.251   5.199 -0.8851 -1.3452 -1.1785
 8982SOL    HW238580   0.862   3.280   5.322 -0.2992 -0.2767  0.4666
 8983SOL     OW38581   4.661   0.243   7.212  0.2654 -0.3091  0.1064
 8983SOL    HW138582   4.591   0.293   7.171  0.8240 -0.0327 -0.5107
 8983SOL    HW238583   4.672   0.297   7.291 -0.8632  1.4338 -0.9364
 8984SOL     OW38584   4.482   2.356  12.929  0.6539 -0.1654  0.5749
 8984SOL    HW138585   4.564   2.337  12.975  0.8686 -2.1583 -0.6466
 8984SOL    HW238586   4.459   2.269  12.897  2.5352 -0.4743  0.0305
 8985SOL     OW38587   4.383   4.702   5.938  0.4706 -0.3380 -0.1444
 8985SOL    HW138588   4.384   4.607   5.947  1.6937 -0.4415 -1.4994
 8985SOL    HW238589   4.326   4.715   5.862  0.6548  1.5087  0.0169
 8986SOL     OW38590   4.475   4.441   4.862  0.1389  0.2787 -0.3100
 8986SOL    HW138591   4.570   4.433   4.852  0.6149  2.7362  2.2536
 8986SOL    HW238592   4.476   4.505   4.934  1.0727  0.9321 -0.8922
 8987SOL     OW38593   1.875   0.946   5.754  0.0862 -0.3284  0.6507
 8987SOL    HW138594   1.792   0.935   5.709 -0.1162 -0.6855  1.1093
 8987SOL    HW238595   1.935   0.953   5.680 -0.6573 -2.1340 -0.1179
 8988SOL     OW38596   3.821   0.790   7.221 -0.3339  0.1897 -0.8513
 8988SOL    HW138597   3.914   0.792   7.245 -0.1469  1.4413 -1.7201
 8988SOL    HW238598   3.834   0.715   7.163 -3.3040 -0.7796 -0.2631
 8989SOL     OW38599   0.802   2.713   8.701 -0.0492  0.4471 -0.4213
 8989SOL    HW138600   0.800   2.807   8.687  1.8365  0.6186  0.4113
 8989SOL    HW238601   0.897   2.702   8.695  0.1868  1.5388  1.3738
 8990SOL     OW38602   2.782   0.799  13.893 -0.2323 -0.0374 -0.2274
 8990SOL    HW138603   2.876   0.786  13.907 -0.2340 -0.5023 -0.6472
 8990SOL    HW238604   2.754   0.779  13.982 -1.8945 -0.6202 -0.8856
 8991SOL     OW38605   0.766   0.060   2.976 -0.1597  0.4110 -0.1903
 8991SOL    HW138606   0.745   4.706   3.006 -1.4801  0.9127  0.3898
 8991SOL    HW238607   0.862   0.064   2.974 -0.0498 -2.1835  0.7139
 8992SOL     OW38608   0.451   0.218  11.830 -0.1425 -0.3788 -0.1103
 8992SOL    HW138609   0.439   0.214  11.925 -2.1864  0.5414 -0.3109
 8992SOL    HW238610   0.519   0.152  11.819 -0.1149  0.0342 -2.3806
 8993SOL     OW38611   3.660   0.124   5.392 -0.1932  0.4679 -0.5746
 8993SOL    HW138612   3.722   0.114   5.320 -0.0011 -3.2741  0.1100
 8993SOL    HW238613   3.597   0.186   5.357  2.1005  2.7478 -0.6076
 8994SOL     OW38614   1.041   3.320   3.787 -0.1998  0.3602 -0.5819
 8994SOL    HW138615   1.118   3.291   3.837 -0.4800 -0.2383 -0.5067
 8994SOL    HW238616   1.045   3.267   3.708 -3.2421 -2.6010  1.2781
 8995SOL     OW38617   2.145   3.912  16.431  0.7590 -0.6403 -0.1724
 8995SOL    HW138618   2.204   3.977  16.469  0.7956 -0.7353 -0.0667
 8995SOL    HW238619   2.102   3.885  16.513 -0.2292 -0.6742 -0.6963
 8996SOL     OW38620   4.285   0.558  12.183  0.5183  0.4085 -0.2615
 8996SOL    HW138621   4.337   0.484  12.217  1.6184 -0.0480 -2.9393
 8996SOL    HW238622   4.198   0.519  12.177  0.5003  0.2705  0.9172
 8997SOL     OW38623   3.064   3.144  15.477 -0.2560 -0.2447  0.4485
 8997SOL    HW138624   3.126   3.186  15.417 -2.3071 -1.8513 -2.7721
 8997SOL    HW238625   3.085   3.052  15.465 -1.0216 -0.2596 -0.8085
 8998SOL     OW38626   3.505   1.652  13.851  0.2324  0.2407  0.2821
 8998SOL    HW138627   3.426   1.636  13.903 -1.2603 -0.2900 -2.1242
 8998SOL    HW238628   3.549   1.567  13.853 -1.3188 -0.6304 -2.7291
 8999SOL     OW38629   0.989   2.591   1.547 -0.1872 -0.4503 -0.0935
 8999SOL    HW138630   1.007   2.674   1.590 -2.1808  0.2601 -0.6019
 8999SOL    HW238631   0.917   2.623   1.493  1.3821 -0.3096 -2.0920
 9000SOL     OW38632   2.108   3.636  12.044 -0.2005 -0.0451 -0.1752
 9000SOL    HW138633   2.018   3.605  12.030  1.3472 -5.0621  0.8795
 9000SOL    HW238634   2.099   3.711  11.985  2.6902  0.2170 -0.2949
 9001SOL     OW38635   2.155   2.273   4.841  0.4918 -0.1602  0.3378
 9001SOL    HW138636   2.122   2.231   4.921  0.9399 -1.6381 -0.2586
 9001SOL    HW238637   2.213   2.205   4.807  1.2006  0.6178  0.0063
 9002SOL     OW38638   0.910   0.155   7.416  0.0893 -0.1969 -0.4075
 9002SOL    HW138639   0.916   0.171   7.322  0.1476  1.3474 -0.1487
 9002SOL    HW238640   0.825   0.110   7.419 -0.3550  0.7021  0.8760
 9003SOL     OW38641   2.478   1.021   6.776  0.2977  0.0191  0.6161
 9003SOL    HW138642   2.479   1.053   6.686 -1.1748 -2.2832 -0.2171
 9003SOL    HW238643   2.573   1.017   6.790  0.4294  2.5136  0.5046
 9004SOL     OW38644   2.335   0.929   6.411 -0.3172 -0.7636 -0.1121
 9004SOL    HW138645   2.428   0.911   6.420 -0.6849 -2.1860  0.9268
 9004SOL    HW238646   2.326   0.912   6.318 -1.5476  1.7959 -0.4598
 9005SOL     OW38647   0.320   0.322  16.539  0.0898 -0.2710 -0.1543
 9005SOL    HW138648   0.301   0.373  16.617 -0.2409  0.2554 -0.5851
 9005SOL    HW238649   0.316   0.398  16.481  1.7934 -1.4975 -1.8888
 9006SOL     OW38650   4.044   3.881   5.190 -0.1680  0.1096  0.2911
 9006SOL    HW138651   4.056   3.976   5.198 -0.8102  0.3168 -1.1450
 9006SOL    HW238652   4.078   3.863   5.278  3.0617  2.1613 -0.5248
 9007SOL     OW38653   3.927   3.906   4.609 -0.6040  0.1949 -0.0029
 9007SOL    HW138654   3.914   3.816   4.638  0.3545  0.1196  0.1873
 9007SOL    HW238655   3.939   3.948   4.695  1.2568 -2.2496  0.9315
 9008SOL     OW38656   2.042   1.178  16.363 -0.5543 -0.7823 -0.6534
 9008SOL    HW138657   2.036   1.267  16.328  0.4300 -0.5635 -0.2558
 9008SOL    HW238658   2.036   1.123  16.285 -1.0008 -0.3200 -0.9486
 9009SOL     OW38659   1.683   1.181   6.483 -0.2302 -0.3268 -0.2622
 9009SOL    HW138660   1.733   1.262   6.489 -1.2910  0.3997 -1.2363
 9009SOL    HW238661   1.719   1.142   6.562  0.1297 -1.6064 -1.0592
 9010SOL     OW38662   1.145   0.553   2.444 -0.0873 -0.2880 -0.3956
 9010SOL    HW138663   1.235   0.537   2.416 -0.1166 -0.6754 -0.2601
 9010SOL    HW238664   1.151   0.631   2.499  1.6802 -1.7618  1.4813
 9011SOL     OW38665   2.239   1.107   5.100 -0.0880  0.5496 -0.5839
 9011SOL    HW138666   2.283   1.191   5.086 -1.0303  1.0542 -0.5090
 9011SOL    HW238667   2.302   1.050   5.058  0.0016  1.1108 -1.2119
 9012SOL     OW38668   3.755   2.645  12.280  0.8246  0.3370  0.3426
 9012SOL    HW138669   3.710   2.573  12.323  0.9720 -0.5750 -1.0489
 9012SOL    HW238670   3.817   2.670  12.348  0.1605 -1.8051  1.7148
 9013SOL     OW38671   0.807   3.706   1.738  0.0680  0.2690  0.1200
 9013SOL    HW138672   0.806   3.699   1.643  0.1417 -0.2591  0.1598
 9013SOL    HW238673   0.768   3.623   1.767  0.2297 -0.2317 -1.1061
 9014SOL     OW38674   1.092   2.915  17.559 -0.0047 -0.4130 -0.4356
 9014SOL    HW138675   1.091   3.008  17.585  0.3245 -0.9253  1.4716
 9014SOL    HW238676   1.079   2.920  17.465  2.5859  2.8513 -0.6362
 9015SOL     OW38677   0.467   4.282   8.071 -0.0719  0.7606 -0.1426
 9015SOL    HW138678   0.408   4.209   8.053  1.4252 -0.3922 -0.3737
 9015SOL    HW238679   0.477   4.322   7.985 -0.8180  0.9086 -0.1555
 9016SOL     OW38680   2.847   4.200  10.412  0.1986  0.2651  0.6165
 9016SOL    HW138681   2.824   4.171  10.324 -2.6259  3.8649  0.1830
 9016SOL    HW238682   2.892   4.283  10.397  0.8350 -0.0537  0.7571
 9017SOL     OW38683   1.821   1.536   0.955  0.6512 -0.3771  0.0379
 9017SOL    HW138684   1.875   1.577   1.022  0.5895 -0.1414 -0.0571
 9017SOL    HW238685   1.736   1.521   0.997  0.6685 -0.0661  0.1839
 9018SOL     OW38686   0.868   4.637   0.966  0.3339  0.1748  0.3889
 9018SOL    HW138687   0.812   4.578   1.017 -1.9886  1.7345 -0.3532
 9018SOL    HW238688   0.808   4.655   0.894  2.3980 -1.1457 -1.6613
 9019SOL     OW38689   0.207   2.255   5.278 -0.2447 -0.4909  0.4588
 9019SOL    HW138690   0.227   2.162   5.262 -1.2590 -0.1799 -2.6457
 9019SOL    HW238691   0.294   2.294   5.274  0.1549 -1.5183 -1.1116
 9020SOL     OW38692   4.599   1.421   7.005 -0.2800  0.4502  0.3115
 9020SOL    HW138693   4.613   1.377   6.921  1.5255  0.9340  0.3648
 9020SOL    HW238694   4.520   1.473   6.991 -0.3988  0.4668  1.0253
 9021SOL     OW38695   0.752   4.163   2.286 -0.3447  0.1941 -0.0824
 9021SOL    HW138696   0.664   4.132   2.309 -0.6878 -0.2228 -1.9334
 9021SOL    HW238697   0.732   4.189   2.196  0.7872  2.1760  0.2468
 9022SOL     OW38698   3.312   3.076   4.949 -0.0719  0.1381 -0.1380
 9022SOL    HW138699   3.324   3.037   5.036  3.5595  1.9215  0.1602
 9022SOL    HW238700   3.224   3.113   4.962 -0.3370  0.0947 -1.8795
 9023SOL     OW38701   3.558   0.193   8.862  0.4408 -0.8069  0.5204
 9023SOL    HW138702   3.561   0.241   8.945 -0.5563 -0.7495  0.5222
 9023SOL    HW238703   3.643   0.218   8.826 -1.3579 -1.2262 -4.0645
 9024SOL     OW38704   4.390   3.815   5.274  0.2064 -0.8401  0.8104
 9024SOL    HW138705   4.382   3.724   5.246  0.0851 -0.4288 -0.5008
 9024SOL    HW238706   4.483   3.814   5.297  0.6754  1.6115 -0.9546
 9025SOL     OW38707   1.103   1.269   8.733  0.0868  0.3651  0.2392
 9025SOL    HW138708   1.028   1.315   8.772 -1.1288  0.3143 -2.0752
 9025SOL    HW238709   1.172   1.336   8.737 -0.5554  0.9640  1.3587
 9026SOL     OW38710   1.659   3.858   8.788 -0.4936 -0.3338  0.3284
 9026SOL    HW138711   1.649   3.845   8.882  1.2667 -1.4816  0.3695
 9026SOL    HW238712   1.731   3.920   8.801  0.2317 -1.1221  0.1207
 9027SOL     OW38713   3.471   1.826   8.693 -0.3289  0.1291  0.2680
 9027SOL    HW138714   3.385   1.830   8.650 -1.2742 -2.2658  1.9019
 9027SOL    HW238715   3.430   1.790   8.772 -0.0555 -0.1687  0.2744
 9028SOL     OW38716   1.387   3.556   8.693 -0.3667  0.4994  0.4043
 9028SOL    HW138717   1.452   3.520   8.633 -1.7884 -0.8475 -0.3239
 9028SOL    HW238718   1.349   3.479   8.735  3.0237 -0.5480  1.5610
 9029SOL     OW38719   3.753   1.706   8.288 -0.5581  0.3475 -0.6474
 9029SOL    HW138720   3.692   1.699   8.215 -0.7045 -0.9682 -0.3997
 9029SOL    HW238721   3.830   1.745   8.246 -0.8084  0.8287 -0.6613
 9030SOL     OW38722   2.015   2.095   6.652  0.1318  0.2369  0.1688
 9030SOL    HW138723   2.058   2.178   6.673  1.2838  0.0141 -1.3159
 9030SOL    HW238724   2.060   2.031   6.708 -1.1660  0.5427  1.5684
 9031SOL     OW38725   3.401   4.597  14.042  0.8313  0.1241 -0.5812
 9031SOL    HW138726   3.376   4.620  14.132 -0.8962 -0.1130 -1.0101
 9031SOL    HW238727   3.329   4.544  14.009  0.4354  1.1954 -1.4245
 9032SOL     OW38728   2.439   3.920   4.668  0.3419 -0.3717 -0.1896
 9032SOL    HW138729   2.443   3.993   4.731 -0.8831  3.3360 -4.4351
 9032SOL    HW238730   2.504   3.954   4.607 -1.0916  2.3690 -0.1676
 9033SOL     OW38731   1.481   0.788  12.742 -0.6616 -0.3375 -0.7916
 9033SOL    HW138732   1.419   0.814  12.673  0.2628  2.2094 -0.6375
 9033SOL    HW238733   1.522   0.711  12.703  0.3308 -2.0100  3.5221
 9034SOL     OW38734   0.443   0.011  16.303  0.5084 -0.0018 -0.4889
 9034SOL    HW138735   0.481   0.065  16.233 -1.5624  1.6472 -0.3586
 9034SOL    HW238736   0.513   4.682  16.322  0.5544 -0.2184 -1.3708
 9035SOL     OW38737   4.336   1.794  16.115 -0.4937  0.1161 -0.4093
 9035SOL    HW138738   4.283   1.758  16.044 -0.0186 -1.5004  0.0526
 9035SOL    HW238739   4.311   1.885  16.100 -1.6716  0.1588  1.8420
 9036SOL     OW38740   2.621   1.534  17.462 -0.1284  0.0335  0.1004
 9036SOL    HW138741   2.663   1.552  17.378 -0.5871  3.6937  0.6418
 9036SOL    HW238742   2.647   1.442  17.464  1.5740  0.5233  0.6156
 9037SOL     OW38743   0.953   2.918   0.108  0.0719  0.0511  0.0135
 9037SOL    HW138744   0.878   2.966   0.075  0.5055  1.6895  1.4077
 9037SOL    HW238745   1.002   2.917   0.026  1.7103  1.3602  0.9784
 9038SOL     OW38746   0.830   3.158  14.236  0.8622 -0.0825  0.1674
 9038SOL    HW138747   0.806   3.193  14.322  0.2392  0.4971 -0.2402
 9038SOL    HW238748   0.804   3.232  14.181  0.8075  1.0767  1.7685
 9039SOL     OW38749   2.833   2.747   9.989 -0.1675  0.2176 -0.0181
 9039SOL    HW138750   2.756   2.771   9.939  0.5336 -0.6329 -1.5008
 9039SOL    HW238751   2.904   2.756   9.925 -0.4939  0.3797 -0.3531
 9040SOL     OW38752   4.355   3.388  10.891  0.6229  0.0615  0.3220
 9040SOL    HW138753   4.374   3.312  10.946 -0.2061 -0.0496  0.4520
 9040SOL    HW238754   4.374   3.465  10.944  1.4211 -0.2923  0.5553
 9041SOL     OW38755   0.177   3.968  12.696 -0.1023  0.9310 -0.5697
 9041SOL    HW138756   0.182   4.030  12.768 -1.0551  1.1027 -0.6481
 9041SOL    HW238757   0.084   3.966  12.675 -0.3586  2.2620  0.4376
 9042SOL     OW38758   0.783   3.847  10.274  0.1984  0.3644  0.2916
 9042SOL    HW138759   0.706   3.813  10.229 -1.4652  2.5715  1.4449
 9042SOL    HW238760   0.857   3.797  10.240  0.4560  1.2996 -0.5204
 9043SOL     OW38761   4.663   2.729  12.493  0.3999  0.4669  0.1119
 9043SOL    HW138762   4.589   2.691  12.447  0.0555  0.3940  0.7279
 9043SOL    HW238763   4.714   2.652  12.517  2.2654  1.1351 -1.6937
 9044SOL     OW38764   3.545   3.663   0.411  0.0382 -0.1026  0.4094
 9044SOL    HW138765   3.477   3.672   0.477 -0.3072 -1.2618  0.2138
 9044SOL    HW238766   3.625   3.694   0.453  0.5406  0.2965 -0.8432
 9045SOL     OW38767   3.559   4.387   1.158 -0.1552  0.5383  0.2395
 9045SOL    HW138768   3.649   4.411   1.178 -0.3929  1.0680  0.6931
 9045SOL    HW238769   3.561   4.384   1.063  0.9201 -2.6792  0.3674
 9046SOL     OW38770   4.090   3.858   6.702 -0.3624 -0.4189  0.5590
 9046SOL    HW138771   4.014   3.905   6.738 -1.0015 -1.9774  1.2209
 9046SOL    HW238772   4.086   3.898   6.615  0.1914 -1.4004  0.0835
 9047SOL     OW38773   2.671   3.574   9.016 -0.1499  0.1843 -0.3839
 9047SOL    HW138774   2.739   3.533   8.963  0.1621  0.2790 -0.0563
 9047SOL    HW238775   2.594   3.574   8.959 -1.3011 -1.0268  1.2033
 9048SOL     OW38776   4.244   4.074   3.478  0.2621  0.4630 -0.3362
 9048SOL    HW138777   4.293   4.046   3.555 -0.1555  0.3651 -0.1080
 9048SOL    HW238778   4.289   4.024   3.410  0.7673 -2.5646  2.2527
 9049SOL     OW38779   0.530   3.776   1.534  0.1824  0.4714  0.7190
 9049SOL    HW138780   0.516   3.741   1.621  0.5798 -0.5136  0.3875
 9049SOL    HW238781   0.452   3.831   1.524 -0.0881  0.1241  0.9338
 9050SOL     OW38782   3.894   2.329   7.458  0.0120  0.2033  0.0956
 9050SOL    HW138783   3.952   2.286   7.522  1.0847  0.8616 -0.4403
 9050SOL    HW238784   3.872   2.257   7.399  0.2395 -0.2156  0.5125
 9051SOL     OW38785   0.831   4.471   8.893  0.7095 -0.7691 -0.3138
 9051SOL    HW138786   0.877   4.447   8.812 -0.3911 -2.4191 -0.4458
 9051SOL    HW238787   0.896   4.535   8.922 -0.8048  1.0285 -0.8638
 9052SOL     OW38788   4.396   2.964  10.854  0.7454  0.4650 -0.0781
 9052SOL    HW138789   4.367   3.000  10.771 -3.3279 -0.1401  1.0812
 9052SOL    HW238790   4.313   2.956  10.901  0.7467  0.6878 -0.0374
 9053SOL     OW38791   2.677   2.481   6.699 -0.0911 -0.2902  0.0234
 9053SOL    HW138792   2.586   2.506   6.684  0.2034  1.1191  0.7018
 9053SOL    HW238793   2.669   2.439   6.785  2.3945  1.1364  0.9350
 9054SOL     OW38794   1.160   1.123  10.632  0.2231  0.8147  0.1137
 9054SOL    HW138795   1.246   1.150  10.600  0.4592  0.7185  0.6641
 9054SOL    HW238796   1.129   1.058  10.569  0.5511  1.5636 -0.8313
 9055SOL     OW38797   4.470   4.106  17.677  0.7677  0.7086 -0.6519
 9055SOL    HW138798   4.483   4.200  17.681  1.0209  0.6186  0.5206
 9055SOL    HW238799   4.394   4.098  17.733  0.9336 -1.2572 -0.7086
 9056SOL     OW38800   3.287   4.125   7.479  0.0364 -0.1851 -0.0740
 9056SOL    HW138801   3.208   4.071   7.489  0.6648 -0.9803  0.5340
 9056SOL    HW238802   3.339   4.059   7.434 -0.7811 -0.3351 -0.8152
 9057SOL     OW38803   0.288   1.706  15.556 -0.1847 -0.1496  0.1988
 9057SOL    HW138804   0.268   1.616  15.530 -1.1666  0.3375 -0.7492
 9057SOL    HW238805   0.358   1.727  15.494  0.5533  0.2658  1.1727
 9058SOL     OW38806   0.701   4.164   3.809  0.0605 -0.3923  0.1793
 9058SOL    HW138807   0.747   4.240   3.844 -0.5728 -0.1820  0.5540
 9058SOL    HW238808   0.697   4.114   3.890 -0.6562  0.9974  0.9918
 9059SOL     OW38809   3.714   0.001  16.698  0.1657  0.2460  0.2853
 9059SOL    HW138810   3.689   0.054  16.773  1.0106 -2.7434  2.6428
 9059SOL    HW238811   3.739   0.073  16.640  1.1210  0.2258  0.6743
 9060SOL     OW38812   2.586   4.178   3.542  0.0399 -0.2233  0.4577
 9060SOL    HW138813   2.497   4.150   3.520 -1.0164  1.4328  2.5811
 9060SOL    HW238814   2.616   4.117   3.610  0.6393 -0.3485  0.0790
 9061SOL     OW38815   1.665   0.722   0.774 -0.0051 -0.0197 -0.1931
 9061SOL    HW138816   1.634   0.696   0.688  1.9059 -1.5858 -0.4207
 9061SOL    HW238817   1.732   0.784   0.744  1.1750  0.0914  2.5812
 9062SOL     OW38818   3.355   1.554   4.662 -0.0816  0.2097  0.3471
 9062SOL    HW138819   3.320   1.480   4.613 -2.0968  0.4332  1.4500
 9062SOL    HW238820   3.271   1.599   4.669 -0.3283  0.0509 -1.6512
 9063SOL     OW38821   1.284   2.759   4.355 -0.4284 -0.0319 -0.1290
 9063SOL    HW138822   1.273   2.723   4.443 -1.0391  1.3351  0.3514
 9063SOL    HW238823   1.271   2.851   4.376 -2.5545 -0.4647  0.4863
 9064SOL     OW38824   4.404   4.632  12.509 -0.4835 -0.4571 -0.4149
 9064SOL    HW138825   4.477   4.578  12.539 -0.3542  0.0146  0.1440
 9064SOL    HW238826   4.347   4.611  12.583  0.7155 -3.7619 -0.4406
 9065SOL     OW38827   1.498   3.954   5.047  0.4157  0.6113 -0.1595
 9065SOL    HW138828   1.468   3.934   5.136  2.1488 -0.3407  0.2109
 9065SOL    HW238829   1.453   4.037   5.031  1.3066  1.5894  2.4450
 9066SOL     OW38830   2.394   2.251   5.099  0.0498 -0.2837  0.3286
 9066SOL    HW138831   2.342   2.323   5.062  0.4136 -1.5006 -2.5350
 9066SOL    HW238832   2.451   2.289   5.167  1.1040 -0.9600 -0.1658
 9067SOL     OW38833   3.111   1.884   3.995  0.6663  0.0769  0.0030
 9067SOL    HW138834   3.098   1.857   3.904 -2.6112  1.4141  0.1014
 9067SOL    HW238835   3.148   1.972   3.990 -0.3083  0.6691  2.8057
 9068SOL     OW38836   2.780   3.510   2.497  0.1210 -0.1971  0.1798
 9068SOL    HW138837   2.790   3.556   2.580 -1.0486  1.4770 -0.6161
 9068SOL    HW238838   2.701   3.552   2.463 -0.1958 -0.9558 -0.0279
 9069SOL     OW38839   3.073   2.467   9.091  0.2180 -0.3755 -1.0005
 9069SOL    HW138840   3.156   2.450   9.045  0.3949 -0.8694 -0.4899
 9069SOL    HW238841   3.081   2.557   9.123  2.3842 -0.7839 -0.3802
 9070SOL     OW38842   1.827   1.667   6.321  0.0187  0.2644 -0.5331
 9070SOL    HW138843   1.816   1.626   6.235 -3.6488 -1.3232  0.6699
 9070SOL    HW238844   1.919   1.658   6.345  0.4381  3.3266 -0.9145
 9071SOL     OW38845   4.205   4.036   0.353 -0.1670  0.1040 -0.8234
 9071SOL    HW138846   4.177   4.113   0.401 -1.4725 -1.6236  1.2012
 9071SOL    HW238847   4.299   4.050   0.339  0.2433 -0.4878  1.2831
 9072SOL     OW38848   2.249   0.216  10.479  0.1198 -0.5997 -0.1854
 9072SOL    HW138849   2.175   0.261  10.519  0.1529 -2.5847  2.1170
 9072SOL    HW238850   2.247   0.136  10.532 -0.2284  1.4266  2.8080
 9073SOL     OW38851   4.651   3.261   2.280  0.9020  0.3044  0.5553
 9073SOL    HW138852   0.008   3.256   2.251  0.7671  1.6352 -0.0827
 9073SOL    HW238853   4.653   3.337   2.337  1.5033 -3.2220  5.2188
 9074SOL     OW38854   4.430   2.981   8.920 -0.3139 -0.7158  0.3274
 9074SOL    HW138855   4.378   2.917   8.967  1.2121 -2.2177 -0.0406
 9074SOL    HW238856   4.404   2.958   8.831 -2.8267  0.6517  0.7243
 9075SOL     OW38857   3.037   1.479   7.147 -0.0487 -0.0531 -0.0214
 9075SOL    HW138858   3.008   1.528   7.224 -1.7201 -0.5599 -0.3439
 9075SOL    HW238859   2.959   1.490   7.093 -1.3821 -1.2402  1.6418
 9076SOL     OW38860   3.317   3.394   7.737  0.4728  0.5047  0.1184
 9076SOL    HW138861   3.358   3.444   7.666  3.5180 -0.1724  1.4053
 9076SOL    HW238862   3.319   3.457   7.809  1.9735 -0.9826  1.3680
 9077SOL     OW38863   4.447   3.379   4.771  0.3776 -0.3645  0.7577
 9077SOL    HW138864   4.449   3.471   4.799 -2.4548 -0.3098  0.7680
 9077SOL    HW238865   4.533   3.360   4.808  0.6601 -1.2733 -0.3537
 9078SOL     OW38866   2.274   3.305   3.132 -0.0601 -0.2837  0.3189
 9078SOL    HW138867   2.345   3.315   3.196  0.6757  2.6894 -0.9480
 9078SOL    HW238868   2.210   3.374   3.151  0.1698 -0.7523  2.7698
 9079SOL     OW38869   2.560   4.406  15.831 -0.1837  0.5230 -0.1582
 9079SOL    HW138870   2.520   4.492  15.831 -0.4132  0.4142 -0.3826
 9079SOL    HW238871   2.513   4.373  15.755  0.2121  3.5408 -1.6904
 9080SOL     OW38872   0.277   1.430  13.432  0.7415  0.3456  0.1176
 9080SOL    HW138873   0.265   1.351  13.379  0.8276 -1.0697  2.1857
 9080SOL    HW238874   0.223   1.404  13.508  1.0382 -1.0425 -0.1432
 9081SOL     OW38875   1.827   3.976   9.114 -0.2223  0.2574  0.2080
 9081SOL    HW138876   1.753   3.922   9.085  0.1576 -0.0690 -0.1442
 9081SOL    HW238877   1.788   4.063   9.106  0.2582  0.3253 -1.3103
 9082SOL     OW38878   3.264   3.577  13.187  0.4654  0.0222  0.2289
 9082SOL    HW138879   3.189   3.616  13.231  0.5994 -1.2185  1.5877
 9082SOL    HW238880   3.335   3.629  13.226 -0.3137  0.5435  0.9592
 9083SOL     OW38881   4.188   4.094   7.101 -0.4709 -0.0698  0.1363
 9083SOL    HW138882   4.227   4.117   7.186  0.1254  3.8393 -1.1972
 9083SOL    HW238883   4.163   4.185   7.082  0.8569 -0.5089 -3.7017
 9084SOL     OW38884   1.457   1.258   2.271  0.1439  0.5577 -0.6694
 9084SOL    HW138885   1.413   1.227   2.191  1.5162  1.6691 -1.8629
 9084SOL    HW238886   1.392   1.230   2.335 -0.6781  3.5324 -0.1895
 9085SOL     OW38887   1.623   3.487   3.840 -0.2244  0.1573  0.1230
 9085SOL    HW138888   1.650   3.578   3.826 -1.0378  0.4665  0.5785
 9085SOL    HW238889   1.642   3.450   3.754 -1.2860 -1.1229  0.4329
 9086SOL     OW38890   0.361   3.716   7.202 -0.1160  0.2471 -0.4818
 9086SOL    HW138891   0.416   3.659   7.149  1.2347  3.0289 -2.0680
 9086SOL    HW238892   0.275   3.675   7.191  0.1363 -0.3410 -0.2861
 9087SOL     OW38893   2.879   2.403   3.187  0.0486  0.2229  0.0445
 9087SOL    HW138894   2.861   2.497   3.180 -2.0059  0.0619  2.8269
 9087SOL    HW238895   2.900   2.388   3.279  0.4688  1.0645  0.0923
 9088SOL     OW38896   1.296   2.544  16.795  0.0211 -0.1533 -0.2161
 9088SOL    HW138897   1.303   2.638  16.780  4.0740 -0.0249  2.4737
 9088SOL    HW238898   1.387   2.517  16.811 -0.2736  0.3126  2.1665
 9089SOL     OW38899   4.518   2.393  16.015  0.2463 -0.2651  0.5110
 9089SOL    HW138900   4.476   2.362  16.095  0.7660  2.5736  1.9164
 9089SOL    HW238901   4.498   2.487  16.019  0.9710 -0.1746  2.2178
 9090SOL     OW38902   2.717   2.229   2.659  0.0225 -0.9918  0.3866
 9090SOL    HW138903   2.694   2.253   2.569 -4.3383 -1.4337  1.4163
 9090SOL    HW238904   2.629   2.218   2.694  0.6413  2.7973  3.2022
 9091SOL     OW38905   2.514   1.365   9.323 -0.4891 -0.2574  0.1321
 9091SOL    HW138906   2.580   1.360   9.254  0.1501 -1.5955  0.8476
 9091SOL    HW238907   2.473   1.278   9.327  1.8313 -1.2045  2.8252
 9092SOL     OW38908   1.428   4.576  17.402  0.2919 -0.6682 -0.1809
 9092SOL    HW138909   1.362   4.571  17.471 -0.6627  2.1913 -0.8772
 9092SOL    HW238910   1.438   4.482  17.385  1.1820 -0.5673 -0.2525
 9093SOL     OW38911   0.490   2.172   6.705 -0.6467  0.4469 -0.5027
 9093SOL    HW138912   0.469   2.085   6.741 -0.4336  0.9953  0.9515
 9093SOL    HW238913   0.576   2.150   6.668 -1.2054 -1.4091 -0.7016
 9094SOL     OW38914   2.337   0.408   2.730 -0.2991 -0.0733 -0.0159
 9094SOL    HW138915   2.347   0.498   2.760  2.2431 -1.2924  2.8063
 9094SOL    HW238916   2.250   0.411   2.689  0.4817 -0.0464 -1.6842
 9095SOL     OW38917   4.218   4.495  12.661  0.5676 -0.5142 -0.3466
 9095SOL    HW138918   4.275   4.450  12.724  2.1695 -1.6753 -2.6535
 9095SOL    HW238919   4.156   4.536  12.722  0.0712  0.1142 -1.2862
 9096SOL     OW38920   3.417   3.827   7.774 -0.1314 -0.0811  0.0433
 9096SOL    HW138921   3.504   3.796   7.748 -0.5822 -1.1823 -0.1700
 9096SOL    HW238922   3.428   3.922   7.776 -1.4326  0.1233 -1.8129
 9097SOL     OW38923   2.814   4.567   8.556 -0.0216 -0.3296  0.2549
 9097SOL    HW138924   2.893   4.543   8.605 -0.9749  0.7400  2.3012
 9097SOL    HW238925   2.782   4.642   8.605  0.8581  0.5033 -0.4512
 9098SOL     OW38926   0.011   0.539  14.298  0.5869  0.2433 -0.8981
 9098SOL    HW138927   0.006   0.543  14.394  0.0297  0.8323 -0.9486
 9098SOL    HW238928   4.650   0.532  14.289  0.4828  1.9382 -1.1514
 9099SOL     OW38929   1.947   2.867   4.992  0.2152 -0.7570  0.0110
 9099SOL    HW138930   2.003   2.926   4.942  0.3845 -2.3796 -1.7472
 9099SOL    HW238931   2.010   2.798   5.016 -0.4780 -0.7115  1.9837
 9100SOL     OW38932   3.316   4.732   0.782  0.0848 -0.2723  0.4941
 9100SOL    HW138933   3.406   4.723   0.751 -0.9391  0.6619 -2.6878
 9100SOL    HW238934   3.301   4.647   0.825  0.3490  0.3545  1.8191
 9101SOL     OW38935   1.758   3.079   6.650 -0.0437  0.4554  0.2616
 9101SOL    HW138936   1.838   3.072   6.597  0.0436 -3.5202  0.8972
 9101SOL    HW238937   1.712   3.120   6.577 -3.1783 -2.5907  0.5214
 9102SOL     OW38938   4.589   2.591   0.628  0.2197  0.6662 -0.0091
 9102SOL    HW138939   4.602   2.606   0.722 -2.1246 -1.0255  0.5926
 9102SOL    HW238940   4.610   2.674   0.586 -1.6126  0.1262 -2.0098
 9103SOL     OW38941   1.670   4.069   1.836 -0.5708 -0.1845  0.5957
 9103SOL    HW138942   1.591   4.098   1.882 -0.0871  1.4018  0.4195
 9103SOL    HW238943   1.655   4.112   1.752 -0.0462 -0.2981  0.4455
 9104SOL     OW38944   3.414   2.073   8.287  0.1545  0.3302  0.2689
 9104SOL    HW138945   3.484   2.122   8.329  0.2691  1.3741 -1.1468
 9104SOL    HW238946   3.430   1.988   8.327  0.7272  0.2004 -0.2310
 9105SOL     OW38947   4.632   0.849   6.341  0.6048 -0.7942 -0.2782
 9105SOL    HW138948   4.547   0.814   6.367  0.4930  1.7238  2.8184
 9105SOL    HW238949   4.606   0.941   6.342 -1.8567 -1.5242  0.4074
 9106SOL     OW38950   2.501   3.122   6.553 -0.4520 -0.1499  0.2424
 9106SOL    HW138951   2.547   3.173   6.486  0.2388 -0.9642  0.0903
 9106SOL    HW238952   2.542   3.037   6.535 -0.3788  0.0225 -0.4128
 9107SOL     OW38953   1.378   0.144   4.107  0.0986 -0.2629 -0.0105
 9107SOL    HW138954   1.345   0.059   4.077  1.7860 -0.1073 -2.3055
 9107SOL    HW238955   1.397   0.183   4.022 -2.0575  1.2270  0.1857
 9108SOL     OW38956   2.473   0.454   5.565 -0.5135  0.8157 -0.2791
 9108SOL    HW138957   2.498   0.542   5.591 -2.7292  1.7555 -1.2990
 9108SOL    HW238958   2.515   0.393   5.626 -0.6318  0.1233 -0.8858
 9109SOL     OW38959   2.034   3.608   8.062 -0.4619  0.1250 -0.3605
 9109SOL    HW138960   2.018   3.515   8.046  0.3224  0.0958 -1.0151
 9109SOL    HW238961   2.127   3.606   8.087 -0.1190  0.2995 -1.6207
 9110SOL     OW38962   3.484   0.793   7.420 -0.6183 -0.2238 -0.9197
 9110SOL    HW138963   3.561   0.808   7.475  0.2507 -0.2542 -2.1217
 9110SOL    HW238964   3.515   0.724   7.362 -0.0557  0.7531 -1.8013
 9111SOL     OW38965   2.747   3.915   1.081  0.1138 -0.2731 -0.4340
 9111SOL    HW138966   2.702   3.840   1.044  1.1978 -0.8170 -0.6273
 9111SOL    HW238967   2.768   3.880   1.168  0.0508  1.2039  0.1867
 9112SOL     OW38968   0.529   0.203   3.158 -1.0858 -0.0071 -0.3863
 9112SOL    HW138969   0.566   0.115   3.159 -0.8640  0.0846 -0.3424
 9112SOL    HW238970   0.522   0.225   3.065 -2.9498  0.2916 -0.1669
 9113SOL     OW38971   4.334   1.853  12.384 -0.2073  0.2944 -0.1133
 9113SOL    HW138972   4.416   1.834  12.338  0.0311 -1.9611  1.2379
 9113SOL    HW238973   4.273   1.805  12.328  0.6484 -1.1823  0.2183
 9114SOL     OW38974   3.924   4.129  14.236  0.2338  0.3843 -0.0338
 9114SOL    HW138975   3.967   4.212  14.254 -0.2709  0.5024  0.6268
 9114SOL    HW238976   3.843   4.126  14.285  0.1167  2.0925 -0.1411
 9115SOL     OW38977   3.340   3.156   2.341  0.0690 -0.0980  0.0286
 9115SOL    HW138978   3.304   3.170   2.429  1.4174 -0.3328  0.6167
 9115SOL    HW238979   3.402   3.084   2.350 -1.3616 -1.3697 -0.3109
 9116SOL     OW38980   0.393   1.347  16.266  0.1922  0.2554 -0.5149
 9116SOL    HW138981   0.420   1.358  16.358  1.8372 -1.4904 -0.7953
 9116SOL    HW238982   0.469   1.320  16.214 -2.2314 -1.1542 -3.2730
 9117SOL     OW38983   1.689   1.225   6.781  0.5991  0.0929 -0.3188
 9117SOL    HW138984   1.681   1.308   6.735  1.2182  0.9069  1.0193
 9117SOL    HW238985   1.732   1.254   6.862  0.7640 -0.9817 -0.0147
 9118SOL     OW38986   0.482   2.546   8.382  0.0497  0.1177 -0.6139
 9118SOL    HW138987   0.506   2.558   8.474  2.0198 -0.7883 -1.0137
 9118SOL    HW238988   0.515   2.622   8.334 -1.1607  0.2663 -1.1975
 9119SOL     OW38989   1.785   4.067   4.462  0.2098  0.5194  0.3481
 9119SOL    HW138990   1.827   4.047   4.546  0.6255  1.2233  0.2983
 9119SOL    HW238991   1.690   4.070   4.478 -0.0754 -1.6302 -0.8407
 9120SOL     OW38992   4.431   0.231   2.638  0.3278 -0.1634  0.6077
 9120SOL    HW138993   4.400   0.200   2.553  2.6082  3.4608 -1.5093
 9120SOL    HW238994   4.524   0.225   2.615  1.1422 -0.0514  3.7887
 9121SOL     OW38995   0.958   3.868   8.871  0.3935  0.2430 -0.1903
 9121SOL    HW138996   0.880   3.837   8.918  0.7114 -1.8629 -1.0297
 9121SOL    HW238997   0.922   3.875   8.783  0.3281  0.1600 -0.1704
 9122SOL     OW38998   3.055   3.060   6.244 -0.5908 -0.3718  0.1957
 9122SOL    HW138999   3.107   3.106   6.309  0.5217  1.0844 -1.7408
 9122SOL    HW239000   3.024   3.131   6.188  1.2761 -1.0254 -1.6436
 9123SOL     OW39001   0.180   0.981   7.068  0.0094 -0.3214  0.3262
 9123SOL    HW139002   0.228   0.984   7.151 -0.8584  1.7520  0.7475
 9123SOL    HW239003   0.089   0.973   7.097  0.1655 -0.5935  0.7359
 9124SOL     OW39004   0.849   3.439   5.401 -0.2899 -0.3338 -0.0951
 9124SOL    HW139005   0.830   3.505   5.334 -0.6515  1.4802  1.7579
 9124SOL    HW239006   0.937   3.463   5.431 -0.0676 -3.3446  1.6294
 9125SOL     OW39007   0.510   3.063   7.919  0.1193 -0.0150 -0.4151
 9125SOL    HW139008   0.479   2.975   7.943 -0.1928  0.3006  0.3211
 9125SOL    HW239009   0.429   3.111   7.937  0.3385  0.3254 -0.3413
 9126SOL     OW39010   4.657   0.183   2.504 -0.7390  0.0349 -0.0045
 9126SOL    HW139011   0.002   0.234   2.519 -1.0000  0.5539 -0.3724
 9126SOL    HW239012   4.650   0.191   2.408 -1.2696 -1.1270 -0.0704
 9127SOL     OW39013   0.633   3.206   4.696  0.1608  0.6839  0.3889
 9127SOL    HW139014   0.664   3.116   4.684  0.3105  0.8348 -0.3278
 9127SOL    HW239015   0.653   3.232   4.786 -3.3048 -0.0875  1.3883
 9128SOL     OW39016   3.974   3.969   7.380  0.1455 -0.3750 -0.1238
 9128SOL    HW139017   4.035   3.913   7.331 -1.0854 -1.4187 -0.4522
 9128SOL    HW239018   4.034   4.042   7.396 -0.4216 -0.3021  1.6506
 9129SOL     OW39019   0.326   3.969   5.163  0.2475  0.7633 -0.1989
 9129SOL    HW139020   0.241   3.998   5.130 -0.2542 -0.2750  0.1785
 9129SOL    HW239021   0.380   4.035   5.120 -0.6154  0.5501 -1.6024
 9130SOL     OW39022   2.079   4.725  11.729  0.6186  0.1507  0.2508
 9130SOL    HW139023   2.020   4.705  11.801 -1.7534 -2.0029 -2.2773
 9130SOL    HW239024   2.162   4.697  11.767  0.9342 -0.0193 -0.5557
 9131SOL     OW39025   1.128   1.252   6.962 -0.3605 -0.2662 -0.0929
 9131SOL    HW139026   1.114   1.214   6.875  0.6720 -1.4050  0.2445
 9131SOL    HW239027   1.222   1.262   6.977 -0.0401  0.1599 -2.4034
 9132SOL     OW39028   0.582   2.346   6.231 -0.3889  0.0437 -0.5194
 9132SOL    HW139029   0.595   2.441   6.234  1.4266 -0.2365  0.5017
 9132SOL    HW239030   0.636   2.312   6.303 -1.7641  0.6027  0.7680
 9133SOL     OW39031   0.251   0.729   0.692 -0.1235  0.1094  0.5906
 9133SOL    HW139032   0.175   0.765   0.647  1.2474 -0.2781 -2.0782
 9133SOL    HW239033   0.293   0.685   0.618 -0.5537  1.0532 -0.2196
 9134SOL     OW39034   2.627   2.220  13.827  0.6537  0.5070 -0.1005
 9134SOL    HW139035   2.548   2.269  13.849  0.9168  0.7601  0.2940
 9134SOL    HW239036   2.700   2.276  13.854  0.8279  0.4318 -0.4187
 9135SOL     OW39037   0.704   4.364  14.025 -0.3829 -0.0015  0.2968
 9135SOL    HW139038   0.745   4.291  13.977 -1.0112  0.2778 -0.6699
 9135SOL    HW239039   0.611   4.354  14.006  0.3389 -3.4414 -1.6239
 9136SOL     OW39040   1.233   0.433   2.792  0.2950  0.3142 -0.9299
 9136SOL    HW139041   1.267   0.505   2.739  2.7130  0.3578  0.6526
 9136SOL    HW239042   1.180   0.478   2.857 -1.4106 -1.0732 -1.3600
 9137SOL     OW39043   4.480   0.513  10.282  0.0818 -0.2378 -0.2982
 9137SOL    HW139044   4.525   0.482  10.203  0.9460 -3.3923  1.4595
 9137SOL    HW239045   4.401   0.542  10.237 -0.9695 -0.6926  1.2431
 9138SOL     OW39046   2.260   2.110   8.727  0.0774  0.7446  0.1633
 9138SOL    HW139047   2.355   2.106   8.742 -0.2312  1.1155  2.2449
 9138SOL    HW239048   2.246   2.204   8.723 -1.2566  0.4655 -1.5309
 9139SOL     OW39049   4.453   4.134  14.305  0.6951 -0.3551  0.0348
 9139SOL    HW139050   4.382   4.077  14.275 -0.5204  0.4658  1.3163
 9139SOL    HW239051   4.443   4.113  14.398 -0.5086 -0.1693 -0.0492
 9140SOL     OW39052   4.690   3.400  13.241  0.8010 -0.9101  0.1491
 9140SOL    HW139053   4.698   3.407  13.336 -0.8358  0.8829  0.1669
 9140SOL    HW239054   4.606   3.357  13.224 -1.1757  2.3454  1.7352
 9141SOL     OW39055   0.010   3.430   3.683 -0.0866 -0.1914 -0.1261
 9141SOL    HW139056   4.693   3.424   3.764 -0.0759 -0.6272 -0.1517
 9141SOL    HW239057   0.086   3.386   3.720 -0.6748 -1.6300 -0.5992
 9142SOL     OW39058   4.332   0.777   5.856 -0.1301 -0.1864  0.0143
 9142SOL    HW139059   4.249   0.755   5.814 -0.5568 -2.8011  2.2430
 9142SOL    HW239060   4.344   0.872   5.850 -0.9509 -0.1693 -1.2518
 9143SOL     OW39061   0.987   4.241   5.961 -0.1456 -0.0629 -0.3446
 9143SOL    HW139062   1.015   4.172   6.021 -0.3468 -1.5579 -1.9783
 9143SOL    HW239063   0.962   4.315   6.017 -2.2817 -1.0435  0.0189
 9144SOL     OW39064   2.962   2.399  14.844  0.7092  0.7620  0.3422
 9144SOL    HW139065   3.021   2.330  14.814 -0.8314  0.5220 -2.0637
 9144SOL    HW239066   2.956   2.385  14.939 -0.6164  0.8499  0.2736
 9145SOL     OW39067   3.958   3.690   5.789 -0.0008  0.4319  0.3523
 9145SOL    HW139068   4.031   3.752   5.780  0.4092 -0.0991 -0.0292
 9145SOL    HW239069   3.957   3.670   5.883 -0.1412  1.1768  0.5106
 9146SOL     OW39070   0.447   3.701   1.840 -0.1999 -0.3192  0.2694
 9146SOL    HW139071   0.453   3.791   1.808 -2.5194 -0.6203 -1.0021
 9146SOL    HW239072   0.382   3.721   1.907  0.3048  2.5665 -0.0905
 9147SOL     OW39073   1.865   4.181   5.289  0.5721  0.5049  0.6515
 9147SOL    HW139074   1.773   4.163   5.271  0.2710  1.1492  1.5281
 9147SOL    HW239075   1.870   4.175   5.385  2.3733  1.3158  0.6195
 9148SOL     OW39076   3.746   3.507   3.807 -0.0698 -0.1718  0.0015
 9148SOL    HW139077   3.818   3.477   3.862 -0.7366 -1.6866  0.0509
 9148SOL    HW239078   3.727   3.580   3.867  0.5292 -0.0141  0.0022
 9149SOL     OW39079   2.300   2.583   1.346 -0.6498 -0.2599 -0.1499
 9149SOL    HW139080   2.306   2.671   1.307 -0.5523 -0.5673 -0.8143
 9149SOL    HW239081   2.264   2.608   1.431  0.7582 -1.0115  0.6618
 9150SOL     OW39082   4.516   4.367   2.489  0.8485 -0.0524  0.0691
 9150SOL    HW139083   4.445   4.429   2.505 -0.3761 -1.4170 -0.0987
 9150SOL    HW239084   4.514   4.320   2.572  1.5135  0.5637  0.4354
 9151SOL     OW39085   4.118   3.231   8.934  0.0719  0.0839 -0.0221
 9151SOL    HW139086   4.205   3.237   8.973 -0.4489 -0.3851  1.2107
 9151SOL    HW239087   4.136   3.175   8.858 -1.2520 -2.0079  1.2196
 9152SOL     OW39088   3.571   1.516   8.705  0.5512  0.2275 -0.1344
 9152SOL    HW139089   3.505   1.454   8.674  0.5169  0.1844  0.0234
 9152SOL    HW239090   3.517   1.569   8.764  0.4962 -1.2094  1.0948
 9153SOL     OW39091   4.172   2.390   5.030  0.4924 -0.1497  0.1692
 9153SOL    HW139092   4.114   2.327   4.989  1.0943 -0.5854 -0.0213
 9153SOL    HW239093   4.114   2.455   5.070  0.5581  0.2624 -0.4121
 9154SOL     OW39094   1.071   1.365  10.075 -0.7850  0.6132 -0.1151
 9154SOL    HW139095   1.115   1.281  10.081 -0.6819  0.6419 -0.4211
 9154SOL    HW239096   1.146   1.426  10.075 -0.7584  0.5781 -1.1060
 9155SOL     OW39097   1.122   1.510  10.796 -0.0725  0.0037 -0.2961
 9155SOL    HW139098   1.197   1.472  10.842 -0.4478 -0.2009  0.1519
 9155SOL    HW239099   1.055   1.496  10.864  0.0098 -2.8261 -0.8053
 9156SOL     OW39100   1.014   2.719   7.025  0.4981 -0.2817  0.0273
 9156SOL    HW139101   1.047   2.719   7.115 -0.9224 -0.0745  0.5580
 9156SOL    HW239102   1.074   2.781   6.985  0.4166 -0.4167 -0.3026
 9157SOL     OW39103   4.429   1.552   7.519  0.2886 -0.2477  0.1405
 9157SOL    HW139104   4.387   1.474   7.480 -3.6223  1.8072  0.1937
 9157SOL    HW239105   4.488   1.578   7.449  2.2567 -3.0696  0.7544
 9158SOL     OW39106   0.788   2.818  14.993  0.9782  0.6379 -0.4137
 9158SOL    HW139107   0.723   2.769  14.942 -0.4208  2.9288 -0.8348
 9158SOL    HW239108   0.754   2.822  15.082  0.7987 -2.4030 -0.3263
 9159SOL     OW39109   1.460   1.933   3.729  0.0666  0.0587 -0.5961
 9159SOL    HW139110   1.534   1.897   3.680  1.5564  2.7390 -0.3029
 9159SOL    HW239111   1.398   1.869   3.694 -1.1523  0.9105 -0.0156
 9160SOL     OW39112   4.581   3.696   7.074  0.5684 -0.4971 -1.0996
 9160SOL    HW139113   4.630   3.697   6.992 -1.0624 -0.7960 -2.0863
 9160SOL    HW239114   4.502   3.643   7.058  1.4316 -2.3026  0.6599
 9161SOL     OW39115   2.061   4.130  16.856  0.2368  0.1517 -0.1994
 9161SOL    HW139116   2.073   4.214  16.901 -1.7169 -0.3164  1.2269
 9161SOL    HW239117   1.984   4.101  16.905  0.7638  2.0200  1.7205
 9162SOL     OW39118   3.937   2.343   6.054  0.1347  0.2983  0.0145
 9162SOL    HW139119   3.913   2.353   6.146 -2.1281  1.6578 -0.7307
 9162SOL    HW239120   4.013   2.287   6.073  0.5620  0.3935 -1.3683
 9163SOL     OW39121   0.040   3.722   3.680  0.2214  0.2484 -0.2671
 9163SOL    HW139122   0.006   3.634   3.693  0.2842  0.1522 -0.7288
 9163SOL    HW239123   0.126   3.718   3.722  0.6610 -0.7854 -1.2673
 9164SOL     OW39124   1.051   3.709  16.447 -0.7645 -0.4336  0.4930
 9164SOL    HW139125   1.074   3.736  16.536  0.2892  2.0411 -0.5227
 9164SOL    HW239126   1.040   3.794  16.404 -0.6472 -1.0079 -0.6743
 9165SOL     OW39127   4.099   3.263   7.885 -0.2218 -0.3068 -0.2936
 9165SOL    HW139128   4.100   3.266   7.981  3.1998  3.6761 -0.4670
 9165SOL    HW239129   4.160   3.334   7.867 -1.2390  0.1284 -1.9675
 9166SOL     OW39130   2.724   2.952  16.420  0.3092  0.2755  0.5801
 9166SOL    HW139131   2.814   2.984  16.425  0.2766  0.8022 -2.2219
 9166SOL    HW239132   2.669   3.018  16.378  0.6916  1.4671  1.9577
 9167SOL     OW39133   1.327   0.010  14.180 -0.5833  0.0773  0.4442
 9167SOL    HW139134   1.251   0.003  14.123 -0.6721 -3.2867  0.9491
 9167SOL    HW239135   1.332   0.103  14.202 -1.6411  0.7449 -2.1478
 9168SOL     OW39136   4.247   2.550   7.210  0.4587 -0.6601 -0.3829
 9168SOL    HW139137   4.317   2.487   7.225 -0.1357 -0.9748  1.0609
 9168SOL    HW239138   4.249   2.598   7.293  1.2395  0.6830 -1.1709
 9169SOL     OW39139   1.783   4.603  16.116 -0.6684 -0.3096  0.0221
 9169SOL    HW139140   1.736   4.686  16.104 -1.2045 -0.4678  1.0920
 9169SOL    HW239141   1.869   4.626  16.082 -0.5768  0.3994  0.7377
 9170SOL     OW39142   3.122   4.498  12.064  0.2697  0.1882 -0.0051
 9170SOL    HW139143   3.079   4.570  12.017  0.6144 -0.2761 -1.0300
 9170SOL    HW239144   3.128   4.423  12.004  0.1745  0.3433 -0.2083
 9171SOL     OW39145   1.545   4.171  12.941  0.2651  0.2934 -0.3763
 9171SOL    HW139146   1.516   4.257  12.970  0.0683  0.4660 -1.0895
 9171SOL    HW239147   1.520   4.116  13.016 -1.5325 -0.8048 -1.7833
 9172SOL     OW39148   2.216   1.897  10.162  0.2002  0.0339  0.3614
 9172SOL    HW139149   2.182   1.816  10.198 -0.2651 -0.0371 -0.2281
 9172SOL    HW239150   2.264   1.851  10.094  2.1453  1.6430  0.6557
 9173SOL     OW39151   0.221   0.046   6.475  0.7947  0.3896 -0.4310
 9173SOL    HW139152   0.151   0.108   6.453  0.1076 -0.3346 -0.3049
 9173SOL    HW239153   0.226   0.064   6.569 -0.3533  1.6151 -0.5968
 9174SOL     OW39154   0.293   4.150   5.808 -0.3070 -0.3519  0.1876
 9174SOL    HW139155   0.217   4.093   5.820 -0.8283  1.0061  3.2061
 9174SOL    HW239156   0.327   4.116   5.890 -2.2610  0.0363  1.1591
 9175SOL     OW39157   4.544   3.567   3.224 -0.0199 -0.6582 -0.4167
 9175SOL    HW139158   4.542   3.505   3.297 -0.4256  0.2260  0.3361
 9175SOL    HW239159   4.598   3.635   3.265 -2.1704  1.1842 -0.6129
 9176SOL     OW39160   1.046   2.476   2.169 -0.4802  0.3872 -0.0192
 9176SOL    HW139161   0.951   2.461   2.163 -0.7000  1.6975  0.3419
 9176SOL    HW239162   1.070   2.468   2.076 -0.0991  0.9819  0.0316
 9177SOL     OW39163   4.299   0.418   9.958 -0.8031  0.4865 -0.1007
 9177SOL    HW139164   4.314   0.357  10.030 -1.1688  3.1503  2.2652
 9177SOL    HW239165   4.286   0.498  10.010 -1.3391 -0.0416  0.5651
 9178SOL     OW39166   0.608   1.911   2.416  0.3541  0.4379 -0.0918
 9178SOL    HW139167   0.542   1.944   2.354  0.2681 -0.1959 -0.3349
 9178SOL    HW239168   0.661   1.991   2.427  3.6664 -1.4951 -2.0895
 9179SOL     OW39169   2.752   3.020  12.293  0.4820  0.2858 -0.8846
 9179SOL    HW139170   2.675   3.042  12.346 -0.9592 -0.6916 -2.5763
 9179SOL    HW239171   2.792   2.954  12.349  1.8747  0.1895 -1.9913
 9180SOL     OW39172   3.711   0.902  11.301 -0.8178  0.0413 -0.1384
 9180SOL    HW139173   3.635   0.887  11.356 -1.1977  0.6570 -0.4923
 9180SOL    HW239174   3.741   0.812  11.288  1.4279  0.6132  1.0524
 9181SOL     OW39175   2.820   3.399   3.059 -0.3156 -0.2565  0.4148
 9181SOL    HW139176   2.758   3.472   3.054  1.1586  1.0377  1.2261
 9181SOL    HW239177   2.777   3.331   3.111 -1.3817  0.4701  0.4947
 9182SOL     OW39178   2.919   0.675   8.591 -0.0265  0.2746  0.3736
 9182SOL    HW139179   2.970   0.627   8.657  0.4568  0.9477  0.4831
 9182SOL    HW239180   2.916   0.613   8.518 -0.3342 -0.8967  1.3702
 9183SOL     OW39181   1.223   0.315   5.305  0.2762  0.6524 -0.1083
 9183SOL    HW139182   1.227   0.307   5.400 -0.1241  2.9010  0.0877
 9183SOL    HW239183   1.160   0.246   5.284  1.5183 -0.5374  0.0893
 9184SOL     OW39184   4.727   2.741   5.660 -0.5878  0.1888  0.2788
 9184SOL    HW139185   4.699   2.721   5.749 -0.9208 -2.4551 -0.4048
 9184SOL    HW239186   0.088   2.732   5.662 -0.7635 -1.7536  0.1881
 9185SOL     OW39187   3.110   1.442   8.306 -0.5422 -0.1520  0.9450
 9185SOL    HW139188   3.113   1.538   8.306 -1.1929 -0.1283  1.8726
 9185SOL    HW239189   3.200   1.409   8.302 -0.6747 -0.4229  0.2599
 9186SOL     OW39190   2.593   0.152   9.307  0.2240  0.1104 -0.1710
 9186SOL    HW139191   2.536   0.171   9.382 -1.3585 -0.9419 -1.0956
 9186SOL    HW239192   2.674   0.127   9.351  1.4725  0.8495 -2.0667
 9187SOL     OW39193   3.792   2.432   4.185  0.6168 -0.1722  0.0207
 9187SOL    HW139194   3.801   2.474   4.099 -2.7482 -0.1330 -0.3073
 9187SOL    HW239195   3.697   2.419   4.183  0.7777 -1.6185  1.4528
 9188SOL     OW39196   0.821   3.294  11.997  0.5453 -0.2683 -0.2994
 9188SOL    HW139197   0.856   3.233  11.932  1.1051  0.9546 -1.1498
 9188SOL    HW239198   0.842   3.376  11.952 -3.1761  0.3965 -0.8601
 9189SOL     OW39199   0.268   2.184   9.505 -0.1689 -0.1596 -0.4042
 9189SOL    HW139200   0.215   2.156   9.580 -0.8005  2.6409  0.1942
 9189SOL    HW239201   0.357   2.173   9.537 -0.7702  3.0786  2.3194
 9190SOL     OW39202   4.168   3.081   4.635 -0.5082  0.4615  0.2079
 9190SOL    HW139203   4.197   3.001   4.678  0.2025  0.9481  0.6432
 9190SOL    HW239204   4.229   3.094   4.562 -1.2028 -0.1129 -0.4825
 9191SOL     OW39205   1.810   3.044   0.326 -0.2475 -0.2980  0.2963
 9191SOL    HW139206   1.778   2.982   0.392 -0.8186 -0.7863 -0.4425
 9191SOL    HW239207   1.744   3.112   0.336 -1.1891 -1.2656  0.6788
 9192SOL     OW39208   3.864   1.198   3.937  0.1231  0.0157 -0.8082
 9192SOL    HW139209   3.795   1.265   3.940  1.7676  1.8113 -3.7878
 9192SOL    HW239210   3.932   1.239   3.990  0.8950 -1.9008 -0.2946
 9193SOL     OW39211   0.845   2.049   8.395  0.5077 -0.0576 -0.1066
 9193SOL    HW139212   0.884   2.069   8.310  0.7643 -1.1428 -0.2355
 9193SOL    HW239213   0.768   2.105   8.400 -0.0095 -0.6298 -1.7748
 9194SOL     OW39214   0.832   1.565  12.022  0.1799 -0.0679 -0.3568
 9194SOL    HW139215   0.919   1.542  12.055 -1.0187 -2.5624  1.1061
 9194SOL    HW239216   0.841   1.648  11.976 -4.9981  1.1607  0.8643
 9195SOL     OW39217   0.473   1.444   5.164 -0.3408 -0.5008 -0.0233
 9195SOL    HW139218   0.554   1.414   5.124 -0.2002 -1.2821  0.8449
 9195SOL    HW239219   0.501   1.432   5.255 -1.1126 -0.4704  0.2163
 9196SOL     OW39220   0.283   1.469  10.048  0.0214 -0.3203  0.7532
 9196SOL    HW139221   0.200   1.425  10.066 -1.4556  2.1589  0.0650
 9196SOL    HW239222   0.301   1.412   9.973  2.2916 -1.1687  1.9552
 9197SOL     OW39223   4.313   4.149   4.620  0.3079 -0.3482  0.2196
 9197SOL    HW139224   4.295   4.239   4.592  0.4910 -0.4967 -0.3638
 9197SOL    HW239225   4.254   4.154   4.695 -0.2463  0.8677 -0.3086
 9198SOL     OW39226   1.674   4.158  16.289 -0.7235  0.0779  0.1970
 9198SOL    HW139227   1.727   4.196  16.359 -0.6585  0.1408  0.1125
 9198SOL    HW239228   1.674   4.223  16.218 -1.7527  0.1232  0.2420
 9199SOL     OW39229   3.551   1.539   2.947 -0.6515 -0.5995  0.5390
 9199SOL    HW139230   3.634   1.553   2.993  1.7104 -1.1513 -3.4801
 9199SOL    HW239231   3.496   1.506   3.017 -0.6297 -0.8575  0.4363
 9200SOL     OW39232   2.170   2.102  15.627 -0.0608 -0.0687 -0.3742
 9200SOL    HW139233   2.262   2.125  15.613  0.3906 -2.2966 -1.1359
 9200SOL    HW239234   2.142   2.182  15.672 -1.6739 -1.6350  1.4336
 9201SOL     OW39235   1.875   0.835   4.190 -0.0629  0.1674  1.0926
 9201SOL    HW139236   1.880   0.740   4.197 -0.6450  0.0354 -0.2259
 9201SOL    HW239237   1.919   0.837   4.105 -1.1656  2.8022  0.5580
 9202SOL     OW39238   2.288   0.772  12.797 -0.3712  0.1860 -0.1632
 9202SOL    HW139239   2.218   0.796  12.858  1.0621  1.3563  1.0272
 9202SOL    HW239240   2.309   0.848  12.742 -0.0888  0.8426  0.8545
 9203SOL     OW39241   2.756   3.433   5.993 -0.1449  0.1199 -0.3945
 9203SOL    HW139242   2.757   3.527   6.010 -0.9201  0.1825 -0.6588
 9203SOL    HW239243   2.716   3.437   5.906  2.0544  2.6386 -1.3047
 9204SOL     OW39244   0.813   2.295   1.291  0.7495 -0.0880  0.5671
 9204SOL    HW139245   0.749   2.359   1.322 -0.2683 -0.8906  0.1196
 9204SOL    HW239246   0.771   2.209   1.301  0.4100  0.0436  0.2800
 9205SOL     OW39247   4.711   4.197   8.998 -0.2414 -0.0417  0.0470
 9205SOL    HW139248   4.717   4.148   9.080 -2.0574 -1.6754 -0.7933
 9205SOL    HW239249   0.007   4.286   9.017 -0.0338  0.2069 -1.4437
 9206SOL     OW39250   3.541   3.401   5.636 -0.3268 -0.1978  0.1812
 9206SOL    HW139251   3.521   3.406   5.729  0.8791  0.1961  0.4100
 9206SOL    HW239252   3.456   3.426   5.600 -1.2251  0.4685  2.7785
 9207SOL     OW39253   0.800   3.599   5.199 -0.2348 -0.1581 -0.0586
 9207SOL    HW139254   0.795   3.694   5.200 -0.5940 -0.1680 -0.7882
 9207SOL    HW239255   0.719   3.585   5.149 -0.9102  1.2900  0.6274
 9208SOL     OW39256   4.364   4.523  13.823  0.4335 -0.1388  0.0213
 9208SOL    HW139257   4.344   4.500  13.733 -1.8566 -0.0948  0.5302
 9208SOL    HW239258   4.373   4.618  13.813  0.6271 -0.3266 -1.4632
 9209SOL     OW39259   3.909   0.680   0.509 -0.1669 -0.4163 -0.1860
 9209SOL    HW139260   3.935   0.622   0.581 -1.0254 -1.1996 -0.5007
 9209SOL    HW239261   3.991   0.681   0.461 -0.4842  0.4631 -0.7176
 9210SOL     OW39262   2.041   2.477   7.069 -0.2424  0.2487 -0.0888
 9210SOL    HW139263   2.116   2.519   7.025  1.4501 -3.1604 -0.4495
 9210SOL    HW239264   2.043   2.401   7.010  2.1640  1.1431 -1.1502
 9211SOL     OW39265   1.447   2.406  10.293 -0.0740 -0.1468  0.5508
 9211SOL    HW139266   1.493   2.399  10.377  1.0335  0.4018 -0.0135
 9211SOL    HW239267   1.422   2.313  10.291  1.7876 -0.6539  0.1497
 9212SOL     OW39268   0.547   1.051  12.820 -0.1411  0.2443 -0.1973
 9212SOL    HW139269   0.465   1.059  12.772 -0.6285 -2.0468  0.2513
 9212SOL    HW239270   0.518   0.974  12.870 -2.9793  2.4313  1.5334
 9213SOL     OW39271   4.482   2.061   5.567  0.4966 -0.5033  0.5143
 9213SOL    HW139272   4.517   2.084   5.480  0.7062 -0.4005  0.6268
 9213SOL    HW239273   4.554   2.104   5.612  0.4428  1.1566 -0.9460
 9214SOL     OW39274   2.149   1.500   3.355 -0.0600  0.1273  0.0392
 9214SOL    HW139275   2.092   1.520   3.281  0.1559 -0.6196 -0.3279
 9214SOL    HW239276   2.116   1.416   3.385 -0.7377  0.0406 -0.9560
 9215SOL     OW39277   3.762   1.280   5.694  0.6330 -0.5436 -0.1943
 9215SOL    HW139278   3.762   1.308   5.603  0.5376 -2.4307 -0.7798
 9215SOL    HW239279   3.672   1.249   5.702  0.6387 -0.4643  0.1649
 9216SOL     OW39280   2.449   0.855  13.986  0.7056  0.3969  0.1463
 9216SOL    HW139281   2.526   0.817  13.944  1.2190  1.7772 -0.1527
 9216SOL    HW239282   2.391   0.782  13.966  2.1758 -0.1297 -2.1239
 9217SOL     OW39283   3.908   0.189   4.855  0.7036 -0.7168 -0.4966
 9217SOL    HW139284   3.901   0.131   4.779  0.3572 -0.4285 -0.6870
 9217SOL    HW239285   3.899   0.275   4.813  0.7537  0.7542  2.4872
 9218SOL     OW39286   1.099   2.716  13.330  0.2799 -0.2223 -0.2239
 9218SOL    HW139287   1.085   2.757  13.245 -1.4672 -1.9863 -0.7931
 9218SOL    HW239288   1.114   2.792  13.387  0.5254  0.5008 -1.2600
 9219SOL     OW39289   3.904   2.010  16.212  0.1222 -0.1990 -1.1048
 9219SOL    HW139290   3.832   2.031  16.271  0.9274  1.0566 -0.5535
 9219SOL    HW239291   3.982   2.056  16.243 -0.5849  0.1789  0.1189
 9220SOL     OW39292   2.781   2.135   3.531 -0.4734 -0.4754  0.1927
 9220SOL    HW139293   2.730   2.086   3.595 -2.1261  0.6178 -0.2709
 9220SOL    HW239294   2.776   2.084   3.449  3.6637 -0.9350  0.2499
 9221SOL     OW39295   2.871   0.052   0.035  0.0899  0.5121  0.1231
 9221SOL    HW139296   2.890   0.137  17.731  0.3084  0.1400 -0.5716
 9221SOL    HW239297   2.803   0.077   0.098  1.3297 -1.0202  2.0966
 9222SOL     OW39298   3.240   0.937  11.673  0.0822  0.6433 -0.9879
 9222SOL    HW139299   3.195   0.895  11.746 -0.2129  0.3830 -1.3208
 9222SOL    HW239300   3.254   1.017  11.722  1.3037  0.6920 -1.4128
 9223SOL     OW39301   2.684   2.697  16.535  0.5360 -0.3540  0.2026
 9223SOL    HW139302   2.689   2.786  16.501  1.5349  0.5362  2.6714
 9223SOL    HW239303   2.771   2.666  16.510 -0.1849 -2.0143 -0.2988
 9224SOL     OW39304   3.308   0.906  15.435  0.0086 -0.0303  1.1258
 9224SOL    HW139305   3.260   0.843  15.382  2.0236  0.4351 -1.2512
 9224SOL    HW239306   3.397   0.911  15.400 -1.1113 -0.4199 -1.7659
 9225SOL     OW39307   2.942   2.435   6.110 -0.0370 -0.0436 -0.0433
 9225SOL    HW139308   3.030   2.465   6.132 -1.1748  3.7452 -0.6147
 9225SOL    HW239309   2.948   2.417   6.017  0.3629 -0.3951  0.0530
 9226SOL     OW39310   3.528   1.666  15.256  0.4228 -0.1596  0.0233
 9226SOL    HW139311   3.612   1.710  15.256  0.7226 -0.7284  0.7061
 9226SOL    HW239312   3.526   1.644  15.163  0.7496  0.9112 -0.2339
 9227SOL     OW39313   1.477   2.926   9.274 -0.0595 -0.1136  0.8266
 9227SOL    HW139314   1.522   2.957   9.352 -0.5623  0.5404  0.8535
 9227SOL    HW239315   1.395   2.975   9.282  1.1106  1.7995  1.0464
 9228SOL     OW39316   0.591   2.457   1.628  0.5896 -0.3703  0.4405
 9228SOL    HW139317   0.603   2.446   1.534  2.6963 -1.4978  0.8364
 9228SOL    HW239318   0.508   2.503   1.634  0.0473 -1.1941 -0.7564
 9229SOL     OW39319   2.207   2.306  10.955 -0.0697  0.6364 -0.4295
 9229SOL    HW139320   2.212   2.245  10.880  0.2229 -1.0964  1.0008
 9229SOL    HW239321   2.299   2.298  10.979 -0.4561 -0.1471  0.7856
 9230SOL     OW39322   3.820   0.832   6.870  0.3080 -0.1809  0.3774
 9230SOL    HW139323   3.756   0.778   6.916  1.0941  1.4612  3.4077
 9230SOL    HW239324   3.766   0.855   6.794  1.8445  0.7288 -0.4441
 9231SOL     OW39325   1.839   4.308   7.904  0.1956 -0.0071 -0.4148
 9231SOL    HW139326   1.748   4.337   7.902 -0.0338 -0.6483  1.4510
 9231SOL    HW239327   1.856   4.336   7.814 -0.6543  1.2204 -0.1995
 9232SOL     OW39328   0.051   2.768   7.163 -0.0684  0.5256  0.2888
 9232SOL    HW139329   4.724   2.774   7.090 -0.5811  0.9582  0.7432
 9232SOL    HW239330   0.041   2.687   7.213  2.5612  0.7666  1.2181
 9233SOL     OW39331   0.971   4.697   6.734  0.3605 -0.0458 -0.5468
 9233SOL    HW139332   1.010   0.050   6.744 -3.7584  1.7909 -0.2413
 9233SOL    HW239333   0.935   4.702   6.646 -0.4301  0.4020 -0.2032
 9234SOL     OW39334   2.683   2.049  15.688 -0.6979  0.7435 -0.1266
 9234SOL    HW139335   2.745   2.119  15.668 -0.3118 -0.0257 -1.6269
 9234SOL    HW239336   2.729   1.978  15.733  1.1004  1.3306 -1.0800
 9235SOL     OW39337   2.493   3.917  15.474 -0.2267  0.1211 -0.4558
 9235SOL    HW139338   2.499   3.854  15.545 -0.8384  0.1708 -0.3604
 9235SOL    HW239339   2.400   3.939  15.480 -0.2992 -0.1059 -0.7249
 9236SOL     OW39340   2.327   2.389   0.301 -0.5235  0.6330 -0.4144
 9236SOL    HW139341   2.300   2.473   0.340 -1.5656  0.7613 -1.4252
 9236SOL    HW239342   2.415   2.377   0.338 -0.1241  0.0708 -1.5608
 9237SOL     OW39343   4.123   4.396   1.200 -0.1105 -0.4182  0.0818
 9237SOL    HW139344   4.125   4.466   1.265 -1.2003  0.1417 -0.4729
 9237SOL    HW239345   4.113   4.312   1.244 -0.1906  0.5104  1.8490
 9238SOL     OW39346   3.335   0.849   8.734  0.3648 -0.1869  0.3755
 9238SOL    HW139347   3.336   0.770   8.680  0.7732 -0.9383  1.4944
 9238SOL    HW239348   3.273   0.828   8.805  0.1316 -0.5913  0.0509
 9239SOL     OW39349   1.194   2.949   8.547 -0.2606  0.0264 -0.2218
 9239SOL    HW139350   1.151   2.986   8.470  1.7120 -1.7551 -2.2123
 9239SOL    HW239351   1.277   2.997   8.552 -0.8963  0.8734  2.2394
 9240SOL     OW39352   1.247   1.378   7.983  0.2458 -0.2251  0.2852
 9240SOL    HW139353   1.214   1.356   8.070 -1.0874 -1.0399 -0.4202
 9240SOL    HW239354   1.197   1.308   7.940 -0.8053  0.3543  0.5755
 9241SOL     OW39355   2.173   4.649   6.837  0.0902  0.0918 -0.3401
 9241SOL    HW139356   2.132   4.671   6.753  1.9926  1.0977 -1.0069
 9241SOL    HW239357   2.196   4.731   6.882 -0.6072  0.4607 -0.6418
 9242SOL     OW39358   0.399   2.969   4.583  0.5030  0.7073  0.0502
 9242SOL    HW139359   0.446   3.035   4.530  1.7377 -2.1969 -2.4566
 9242SOL    HW239360   0.312   2.977   4.545  0.8995  1.1301 -0.7746
 9243SOL     OW39361   2.384   2.542   8.535  0.6198 -0.1132 -1.2666
 9243SOL    HW139362   2.445   2.595   8.585 -0.0784 -0.7034  0.2145
 9243SOL    HW239363   2.436   2.463   8.523 -0.9369 -1.5234  1.2618
 9244SOL     OW39364   3.417   4.535   2.258  0.6082 -0.2075  0.6075
 9244SOL    HW139365   3.433   4.564   2.348  1.3430 -0.7764  0.6624
 9244SOL    HW239366   3.324   4.554   2.257  0.6289 -0.0064  1.6071
 9245SOL     OW39367   1.771   3.713   8.577  0.1246 -0.4039  0.2528
 9245SOL    HW139368   1.757   3.716   8.482  2.1497 -0.0871 -0.0430
 9245SOL    HW239369   1.714   3.781   8.613 -0.0672  0.5180 -1.7926
 9246SOL     OW39370   1.913   3.308   3.372  0.7042  0.0629 -0.0905
 9246SOL    HW139371   1.953   3.253   3.304 -1.1497  0.3539 -1.4182
 9246SOL    HW239372   1.988   3.353   3.410  1.9442 -0.4727 -1.9189
 9247SOL     OW39373   2.476   2.031   9.523  0.2014  0.3724  0.1605
 9247SOL    HW139374   2.478   1.936   9.514  1.6559  0.4027  0.0875
 9247SOL    HW239375   2.438   2.043   9.610 -0.6442 -0.7377 -0.0603
 9248SOL     OW39376   3.975   0.167   7.898  0.1410  0.1354 -0.3111
 9248SOL    HW139377   3.953   0.214   7.979 -2.8937  0.7944 -1.5009
 9248SOL    HW239378   3.905   0.186   7.836 -1.0014  0.6444  1.1338
 9249SOL     OW39379   1.278   2.825   4.627  0.1973  0.6219  0.7951
 9249SOL    HW139380   1.195   2.850   4.666 -0.4719  0.5855 -0.6339
 9249SOL    HW239381   1.309   2.746   4.672 -0.7544  1.4727  2.9158
 9250SOL     OW39382   2.852   2.320   2.170  0.1475 -0.1521 -0.4709
 9250SOL    HW139383   2.896   2.329   2.085 -0.5536  0.3357 -0.7867
 9250SOL    HW239384   2.918   2.266   2.213 -0.8370  0.5481  1.9445
 9251SOL     OW39385   0.089   0.234   6.987  0.0847  0.1818 -0.1580
 9251SOL    HW139386   0.021   0.192   6.935  0.1375 -0.4029  0.2481
 9251SOL    HW239387   0.040   0.243   7.069 -1.0587 -2.3554 -0.5755
 9252SOL     OW39388   4.016   0.877  15.628  0.6377  0.0590 -0.2211
 9252SOL    HW139389   4.059   0.862  15.713 -2.2157  0.6159  1.3102
 9252SOL    HW239390   4.051   0.962  15.603  1.8353 -0.0752  0.9975
 9253SOL     OW39391   2.567   2.707   9.292  0.1959  0.0275 -0.2776
 9253SOL    HW139392   2.482   2.671   9.319  1.2594  0.0373  2.9905
 9253SOL    HW239393   2.555   2.801   9.310 -0.1937  0.0446 -0.6185
 9254SOL     OW39394   3.118   0.405  11.333  0.6738 -0.4480 -0.3615
 9254SOL    HW139395   3.177   0.427  11.405 -1.7149 -0.1311  1.4672
 9254SOL    HW239396   3.123   0.312  11.353 -0.3969 -0.0721  1.6498
 9255SOL     OW39397   2.862   1.834   7.935  0.6049 -0.0322 -0.1034
 9255SOL    HW139398   2.780   1.884   7.929  1.3940  1.1834 -0.7565
 9255SOL    HW239399   2.900   1.864   8.017 -0.2036  0.2156  0.1791
 9256SOL     OW39400   0.286   0.547  16.393  0.2987 -0.0319  0.6586
 9256SOL    HW139401   0.263   0.546  16.301 -1.9769  1.3623  1.2150
 9256SOL    HW239402   0.281   0.641  16.413  1.9423 -0.0552  1.1945
 9257SOL     OW39403   1.610   2.250  11.896  0.3469  0.3108 -0.0948
 9257SOL    HW139404   1.614   2.342  11.869  3.1523 -0.0349 -0.8570
 9257SOL    HW239405   1.699   2.228  11.869  0.1501  1.1952 -1.5409
 9258SOL     OW39406   4.665   1.165   2.737  0.5713 -0.3398  0.1258
 9258SOL    HW139407   4.706   1.096   2.684  3.2526  2.3433 -1.2665
 9258SOL    HW239408   4.612   1.201   2.666  0.3856  0.3365  0.6127
 9259SOL     OW39409   2.630   3.264   1.498 -0.1134  0.2721 -0.0257
 9259SOL    HW139410   2.650   3.200   1.567 -0.2720  0.9890  0.6802
 9259SOL    HW239411   2.671   3.348   1.518 -0.5317 -0.0140  2.1034
 9260SOL     OW39412   3.492   0.823   6.759  0.2239 -0.3071  0.0416
 9260SOL    HW139413   3.463   0.879   6.687  1.4164 -0.5539 -0.6165
 9260SOL    HW239414   3.449   0.745   6.726  0.1836 -0.8178  1.2832
 9261SOL     OW39415   4.333   3.066  11.918  1.0683  0.1221  0.0629
 9261SOL    HW139416   4.244   3.053  11.885  0.6496  0.5140  1.0531
 9261SOL    HW239417   4.359   3.134  11.856 -0.4252 -1.0110 -1.8187
 9262SOL     OW39418   0.551   1.774   3.493 -0.6918 -0.5063 -0.0231
 9262SOL    HW139419   0.546   1.848   3.432 -1.0392 -0.1133  0.4843
 9262SOL    HW239420   0.457   1.761   3.502 -0.5593 -0.2081  1.7887
 9263SOL     OW39421   4.459   3.216   5.296 -0.0006  0.4866  0.8941
 9263SOL    HW139422   4.540   3.255   5.264  0.1910 -0.3608  0.3496
 9263SOL    HW239423   4.455   3.264   5.379  0.2131  0.0039  1.1833
 9264SOL     OW39424   4.005   0.754  14.624  0.3241  0.5886 -0.2326
 9264SOL    HW139425   4.073   0.761  14.691 -0.5674 -1.0835  0.8625
 9264SOL    HW239426   3.979   0.662  14.617  1.5774  0.4466 -2.9104
 9265SOL     OW39427   2.713   0.511   0.033 -0.0723 -0.0463  0.1175
 9265SOL    HW139428   2.794   0.562   0.042 -1.4010  1.8195  1.4963
 9265SOL    HW239429   2.655   0.585   0.019  0.7625  1.0401  2.3845
 9266SOL     OW39430   0.896   2.613  16.138  0.4883  0.5548 -0.1927
 9266SOL    HW139431   0.889   2.699  16.097 -1.8558 -0.5699 -2.1777
 9266SOL    HW239432   0.980   2.591  16.099 -0.3334  2.0684 -2.8284
 9267SOL     OW39433   0.772   0.409   8.034  0.1151  0.1094 -0.0486
 9267SOL    HW139434   0.750   0.477   7.971  1.6539  0.4650 -0.1988
 9267SOL    HW239435   0.686   0.367   8.045 -0.1139  0.7612  0.6948
 9268SOL     OW39436   3.530   4.120   8.419 -0.3250  0.3226 -0.2762
 9268SOL    HW139437   3.567   4.198   8.378  0.4070 -0.5209 -1.2530
 9268SOL    HW239438   3.504   4.151   8.505 -1.8265 -2.8761  0.4226
 9269SOL     OW39439   2.722   2.912   4.135 -0.4601  0.4914 -0.3805
 9269SOL    HW139440   2.719   2.875   4.047 -1.9064  2.3463 -1.1113
 9269SOL    HW239441   2.752   2.833   4.180  1.4913  1.5003  0.0678
 9270SOL     OW39442   4.547   3.109   4.704  0.2967  0.6883 -0.3734
 9270SOL    HW139443   4.489   3.094   4.630  0.2567  0.0391 -0.2135
 9270SOL    HW239444   4.524   3.198   4.730  0.1011  0.6253 -0.3322
 9271SOL     OW39445   3.134   0.694  15.360  0.2586 -0.3962  0.2272
 9271SOL    HW139446   3.044   0.727  15.365  0.8166  0.8326  2.1186
 9271SOL    HW239447   3.151   0.688  15.266 -3.0701  1.3389 -0.4993
 9272SOL     OW39448   2.645   3.820   9.147  0.1731 -0.0664 -0.2530
 9272SOL    HW139449   2.657   3.741   9.095  2.8718  0.2818 -0.2080
 9272SOL    HW239450   2.564   3.807   9.196  1.0937 -0.3935  1.1966
 9273SOL     OW39451   4.692   2.027   8.491 -0.5228  0.8646 -0.1500
 9273SOL    HW139452   4.696   2.023   8.586  0.8973  4.2727 -0.0973
 9273SOL    HW239453   4.642   1.948   8.470 -2.6056  1.4894  2.5015
 9274SOL     OW39454   3.173   3.165   4.622  0.0292 -0.1259  0.3866
 9274SOL    HW139455   3.108   3.142   4.689 -0.0762  1.3596  0.8060
 9274SOL    HW239456   3.185   3.257   4.648  2.5149 -0.5676  0.7577
 9275SOL     OW39457   1.959   3.601   4.278 -0.2592  0.1055 -0.3139
 9275SOL    HW139458   1.975   3.686   4.236 -1.9420  0.5507 -0.0223
 9275SOL    HW239459   1.960   3.633   4.368 -0.4445 -1.9411  0.4025
 9276SOL     OW39460   0.462   3.315   8.978  0.0651 -0.0346 -0.3582
 9276SOL    HW139461   0.407   3.364   8.916 -1.9661 -1.9752 -0.1048
 9276SOL    HW239462   0.410   3.329   9.057  1.6147  1.8884  0.3200
 9277SOL     OW39463   1.181   4.188  13.417 -0.0519 -0.4865  0.7164
 9277SOL    HW139464   1.092   4.165  13.446 -0.2340 -1.2265 -0.4158
 9277SOL    HW239465   1.170   4.200  13.323 -2.0758  1.0526  1.1307
 9278SOL     OW39466   0.443   1.338  15.688  0.2034  0.5916 -0.2974
 9278SOL    HW139467   0.366   1.380  15.726  0.2895 -1.1826  1.8648
 9278SOL    HW239468   0.469   1.394  15.615  3.7512 -2.0318 -1.0261
 9279SOL     OW39469   4.592   0.651   7.229 -0.0724 -0.3304  0.4963
 9279SOL    HW139470   4.645   0.712   7.178 -2.0539 -1.1950 -2.5856
 9279SOL    HW239471   4.641   0.642   7.310  0.3104 -2.3578  0.0390
 9280SOL     OW39472   4.553   0.642   4.043  0.8798 -0.7066 -0.3123
 9280SOL    HW139473   4.502   0.657   4.123 -0.0117 -1.5552 -0.7222
 9280SOL    HW239474   4.522   0.718   3.995  1.3931  0.2899  0.9318
 9281SOL     OW39475   2.572   1.211  16.197 -0.0241 -0.1382  0.3248
 9281SOL    HW139476   2.622   1.165  16.264  0.8129  1.0683  0.5287
 9281SOL    HW239477   2.627   1.290  16.196  0.0522 -0.1891  0.6859
 9282SOL     OW39478   2.113   2.715   9.030  0.0680 -0.5147 -0.2727
 9282SOL    HW139479   2.077   2.791   9.075 -2.7473  0.2714 -3.8486
 9282SOL    HW239480   2.124   2.656   9.105  0.4751  0.7570  0.6578
 9283SOL     OW39481   1.501   0.837   3.657 -0.2424 -0.3390 -0.4932
 9283SOL    HW139482   1.465   0.751   3.676  1.2443 -1.1790 -1.4800
 9283SOL    HW239483   1.520   0.833   3.564  0.4127  2.2106 -0.4792
 9284SOL     OW39484   4.014   1.360   1.059  0.2609 -0.2756  0.2732
 9284SOL    HW139485   3.954   1.430   1.033 -0.5775 -1.2592 -0.4499
 9284SOL    HW239486   3.951   1.297   1.094 -1.4356  1.7713  0.8987
 9285SOL     OW39487   3.910   0.578  13.982 -0.4540 -0.6923  0.4885
 9285SOL    HW139488   3.871   0.517  13.920  1.1359 -0.8233 -0.3749
 9285SOL    HW239489   3.859   0.572  14.062  0.9113  0.1823  1.4266
 9286SOL     OW39490   1.732   0.795   0.386  0.3949 -0.4841 -0.4834
 9286SOL    HW139491   1.727   0.885   0.351 -0.6387  0.1003  1.1736
 9286SOL    HW239492   1.791   0.813   0.459 -1.2519  0.5019  0.6113
 9287SOL     OW39493   0.887   1.518  15.176  0.1974 -0.2440 -0.2543
 9287SOL    HW139494   0.956   1.535  15.112  1.1806  0.9297  1.1100
 9287SOL    HW239495   0.831   1.516  15.098  0.5589  1.8603 -0.5733
 9288SOL     OW39496   0.087   0.830   7.644 -0.1603 -0.1490 -0.1224
 9288SOL    HW139497   0.058   0.876   7.723 -1.2140  0.8390 -1.0813
 9288SOL    HW239498   0.144   0.775   7.697  2.3283 -0.0527 -2.7140
 9289SOL     OW39499   3.035   0.733   4.939  0.3330 -0.4407  0.2943
 9289SOL    HW139500   3.083   0.793   4.882 -0.8085  0.0289 -0.1862
 9289SOL    HW239501   2.943   0.754   4.923 -0.6569 -4.1047  1.3061
 9290SOL     OW39502   1.318   3.213   5.930  0.1986  0.1545  1.0916
 9290SOL    HW139503   1.413   3.220   5.944  0.0644  1.1081  1.4486
 9290SOL    HW239504   1.309   3.237   5.837  1.6255 -0.5030  0.7788
 9291SOL     OW39505   4.038   0.453  15.440 -0.7449  0.5018  0.2965
 9291SOL    HW139506   3.952   0.459  15.398 -0.4377  1.1107 -0.2489
 9291SOL    HW239507   4.016   0.501  15.520  0.2884  0.1329  0.7947
 9292SOL     OW39508   4.296   4.306   6.338 -0.3676  0.0170  0.2602
 9292SOL    HW139509   4.342   4.265   6.411  3.2580  1.2022 -1.3069
 9292SOL    HW239510   4.236   4.359   6.391 -1.5434  0.7649 -1.7849
 9293SOL     OW39511   3.854   0.932  15.386  0.7727  0.6975 -0.5411
 9293SOL    HW139512   3.893   0.922  15.473 -1.1628  2.8522  0.5978
 9293SOL    HW239513   3.935   0.938  15.335  0.4143  1.5763 -1.0179
 9294SOL     OW39514   0.574   2.948   5.866 -0.1237  0.1297 -0.0131
 9294SOL    HW139515   0.544   2.868   5.823 -0.0422  0.4538 -0.6863
 9294SOL    HW239516   0.502   2.957   5.928  0.8034  1.7722  0.8215
 9295SOL     OW39517   4.623   4.697   4.644  0.5450  0.1559  0.0091
 9295SOL    HW139518   4.612   4.639   4.570  1.2432  1.1985 -0.9048
 9295SOL    HW239519   4.686   0.028   4.614  1.2896 -0.1465  0.9141
 9296SOL     OW39520   1.369   4.458   8.846  0.2769  0.1491  0.2889
 9296SOL    HW139521   1.465   4.453   8.841  0.2509  0.6959 -0.8253
 9296SOL    HW239522   1.354   4.373   8.804 -0.7061  1.2334 -1.5684
 9297SOL     OW39523   4.520   1.800   6.497  0.7279  0.4055 -0.2189
 9297SOL    HW139524   4.548   1.890   6.481 -2.1395  1.1685 -1.0105
 9297SOL    HW239525   4.547   1.766   6.413  2.9831  0.0055  0.6831
 9298SOL     OW39526   4.588   3.479   2.745  0.3342  0.8544  0.3151
 9298SOL    HW139527   4.574   3.455   2.836  0.4262  1.3667  0.4659
 9298SOL    HW239528   4.519   3.542   2.724 -1.1379 -1.8595 -2.9936
 9299SOL     OW39529   0.645   2.949   3.849 -0.1574  0.0513  0.5288
 9299SOL    HW139530   0.613   2.883   3.912  1.6375 -1.2658  0.0430
 9299SOL    HW239531   0.645   2.893   3.772  1.2159 -1.6305  1.7353
 9300SOL     OW39532   1.377   2.133   7.642  0.3258  0.2368 -0.6303
 9300SOL    HW139533   1.344   2.145   7.731 -4.2254 -0.6211 -2.2031
 9300SOL    HW239534   1.436   2.060   7.658 -0.3683 -0.6081 -1.9233
 9301SOL     OW39535   0.571   1.753   6.873 -0.6450 -0.0034  0.0357
 9301SOL    HW139536   0.532   1.831   6.833  0.2297 -0.0669 -0.9298
 9301SOL    HW239537   0.566   1.778   6.966 -1.5016  1.1464 -0.3179
 9302SOL     OW39538   2.954   1.886   2.957  0.5882  0.4027 -0.7257
 9302SOL    HW139539   2.911   1.814   3.003 -0.5153  0.5735 -1.5046
 9302SOL    HW239540   2.970   1.840   2.874 -1.7334 -0.8853 -0.4462
 9303SOL     OW39541   1.893   1.428   9.418 -0.7676  0.0600 -0.0592
 9303SOL    HW139542   1.897   1.489   9.345  0.8134  1.2778  1.0468
 9303SOL    HW239543   1.979   1.385   9.412 -0.1319  1.1787  1.1599
 9304SOL     OW39544   2.217   1.317   6.155 -0.0758  0.0862 -0.2771
 9304SOL    HW139545   2.194   1.401   6.195 -0.4091  0.8068 -1.9879
 9304SOL    HW239546   2.165   1.253   6.203  0.8172 -1.7916 -1.8064
 9305SOL     OW39547   1.713   0.252   8.802 -0.0589  0.5815 -0.6906
 9305SOL    HW139548   1.722   0.162   8.771 -2.6587  0.0755 -0.0203
 9305SOL    HW239549   1.788   0.278   8.855 -0.6224  0.1920  0.3102
 9306SOL     OW39550   3.824   3.944   6.714  0.3165  0.5296 -0.5471
 9306SOL    HW139551   3.829   3.941   6.810  3.3914  2.8212 -0.6291
 9306SOL    HW239552   3.793   4.034   6.705  1.1227  1.0811  2.0504
 9307SOL     OW39553   0.423   2.556  10.765 -0.1994  0.0309  0.5480
 9307SOL    HW139554   0.363   2.572  10.838  0.4279 -1.1549  1.3257
 9307SOL    HW239555   0.375   2.488  10.719  0.0160  0.3151 -0.1025
 9308SOL     OW39556   2.492   0.064   8.351 -0.2735 -0.0647 -0.2551
 9308SOL    HW139557   2.499   0.107   8.436  1.5785 -1.3559  0.2473
 9308SOL    HW239558   2.533   4.713   8.367  0.8068  0.5619  0.3177
 9309SOL     OW39559   2.663   1.020  15.464 -0.0724  0.6930  0.2342
 9309SOL    HW139560   2.751   1.039  15.498  0.2497  0.1209 -0.2717
 9309SOL    HW239561   2.613   1.010  15.545 -1.9664 -1.7156 -1.2210
 9310SOL     OW39562   3.798   1.485   5.846 -0.4269 -0.3832 -0.4488
 9310SOL    HW139563   3.807   1.422   5.775 -1.6469 -0.6704 -0.3505
 9310SOL    HW239564   3.774   1.417   5.910 -1.0526  1.2156  1.0200
 9311SOL     OW39565   2.520   2.070   7.698 -0.0026  0.1199  0.0920
 9311SOL    HW139566   2.464   2.003   7.737 -0.2389  1.3176  1.8327
 9311SOL    HW239567   2.494   2.148   7.748  0.5922  0.8189 -0.6791
 9312SOL     OW39568   3.713   3.077   4.704  0.0568 -0.0354  0.0012
 9312SOL    HW139569   3.630   3.076   4.657 -1.8274  3.3339  3.3214
 9312SOL    HW239570   3.683   3.022   4.777  0.8377  1.1427  1.2198
 9313SOL     OW39571   2.735   2.702   7.746 -0.0274 -0.1491 -0.3831
 9313SOL    HW139572   2.708   2.621   7.791  1.1587 -0.8096 -0.8555
 9313SOL    HW239573   2.656   2.752   7.766 -0.2774 -0.6474 -0.1116
 9314SOL     OW39574   0.185   1.110  11.093  0.2834 -0.3209 -0.0090
 9314SOL    HW139575   0.182   1.052  11.169  0.0814  1.3083  1.2250
 9314SOL    HW239576   0.145   1.066  11.018  1.1828 -0.0798 -0.6353
 9315SOL     OW39577   4.378   2.121  12.829 -0.2838 -0.1613  0.0812
 9315SOL    HW139578   4.317   2.070  12.882  1.1804 -0.3270  1.5990
 9315SOL    HW239579   4.366   2.083  12.742  0.4756  0.0797 -0.1264
 9316SOL     OW39580   2.331   3.016   8.746  0.1945  0.0487 -0.4324
 9316SOL    HW139581   2.284   3.098   8.759 -1.0111 -0.4813 -1.4650
 9316SOL    HW239582   2.275   2.981   8.677 -2.7953  0.7322  1.6521
 9317SOL     OW39583   3.832   4.383   1.195  0.1142 -0.6444  0.8925
 9317SOL    HW139584   3.872   4.468   1.216  0.1613  0.0121 -1.8507
 9317SOL    HW239585   3.909   4.327   1.197 -2.2226 -3.9509 -1.6077
 9318SOL     OW39586   0.492   2.427   7.505  0.1109 -0.4100 -0.2752
 9318SOL    HW139587   0.513   2.471   7.422  2.9741 -0.4953  0.4090
 9318SOL    HW239588   0.573   2.448   7.551 -1.2023  2.1753  0.8399
 9319SOL     OW39589   0.929   4.484   8.015 -0.0427  0.6265 -0.9716
 9319SOL    HW139590   0.989   4.548   8.052 -0.8308  0.2912  0.8768
 9319SOL    HW239591   0.980   4.410   7.981  1.1645 -0.1796  2.6593
 9320SOL     OW39592   2.382   1.191   0.307 -0.0265 -0.3130  0.0241
 9320SOL    HW139593   2.388   1.277   0.265  0.3258 -0.0326  0.6362
 9320SOL    HW239594   2.308   1.200   0.367 -1.0789 -1.1852 -1.1476
 9321SOL     OW39595   3.373   2.692  10.710 -0.7106  0.2340 -0.2978
 9321SOL    HW139596   3.408   2.779  10.729  0.5207 -0.5716  1.1323
 9321SOL    HW239597   3.449   2.662  10.661 -1.4659 -0.7180 -0.8949
 9322SOL     OW39598   4.188   1.624   8.716  0.0799  0.1124  0.4146
 9322SOL    HW139599   4.179   1.588   8.804 -2.2219 -1.5235 -0.4997
 9322SOL    HW239600   4.100   1.658   8.700 -0.2906 -1.8819 -1.7659
 9323SOL     OW39601   1.206   0.060   2.596  0.8241 -0.6752  0.2150
 9323SOL    HW139602   1.256   0.116   2.537  1.4769  0.4921  1.8664
 9323SOL    HW239603   1.207   4.711   2.549 -1.1141 -1.0227  0.7791
 9324SOL     OW39604   1.127   4.324  10.412 -0.1210 -0.1953 -0.2297
 9324SOL    HW139605   1.109   4.412  10.380 -0.4271 -0.2673 -0.2566
 9324SOL    HW239606   1.217   4.316  10.382 -0.1730 -0.9058 -0.2022
 9325SOL     OW39607   4.417   3.150   2.366  0.4736  0.4921  0.0180
 9325SOL    HW139608   4.457   3.147   2.453  1.7641  0.5540 -0.5772
 9325SOL    HW239609   4.485   3.191   2.313  0.6010 -1.0679 -1.0386
 9326SOL     OW39610   1.297   1.174  10.003  0.3334  0.8839 -0.0663
 9326SOL    HW139611   1.287   1.143  10.093  0.6755 -0.7612 -0.5928
 9326SOL    HW239612   1.346   1.255  10.018  1.2278 -0.1316  2.5585
 9327SOL     OW39613   0.718   0.033  12.312  0.0603  0.4319 -0.1473
 9327SOL    HW139614   0.766   0.075  12.384  0.6672 -1.0604  0.3314
 9327SOL    HW239615   0.791   0.013  12.254  0.4988  0.3118  0.4355
 9328SOL     OW39616   0.724   4.077   4.103  0.2685  0.1202 -0.0383
 9328SOL    HW139617   0.664   4.072   4.177  0.2377 -3.0274 -0.3096
 9328SOL    HW239618   0.750   3.987   4.085 -0.0528 -0.1009  0.6058
 9329SOL     OW39619   0.035   1.346  15.870  0.5048  0.0414 -0.2123
 9329SOL    HW139620   0.084   1.356  15.952 -0.5480  1.9526  0.1991
 9329SOL    HW239621   4.702   1.413  15.882 -0.8914 -1.2976 -0.5301
 9330SOL     OW39622   4.338   3.523   3.524 -0.5106 -0.0745  0.1592
 9330SOL    HW139623   4.354   3.479   3.441 -0.7485 -0.1650  0.1632
 9330SOL    HW239624   4.316   3.448   3.579 -2.0789  1.0476  1.0600
 9331SOL     OW39625   1.167   2.143   2.486  0.1408  0.1783 -0.1722
 9331SOL    HW139626   1.093   2.158   2.545 -0.8784 -1.3327 -1.0545
 9331SOL    HW239627   1.211   2.083   2.547 -1.3615 -2.7748 -1.9728
 9332SOL     OW39628   0.660   2.418   2.388 -0.2687  0.7692  0.0293
 9332SOL    HW139629   0.738   2.449   2.435  2.0435 -0.9240 -2.7536
 9332SOL    HW239630   0.592   2.453   2.446 -0.5949 -1.0211  0.7365
 9333SOL     OW39631   3.564   1.094   1.341 -0.1163 -0.6199  0.2545
 9333SOL    HW139632   3.491   1.049   1.382 -1.7677  2.4654  0.7117
 9333SOL    HW239633   3.571   1.175   1.392 -0.8777  0.4204 -1.2855
 9334SOL     OW39634   2.593   0.906   7.080 -0.2672  0.2074 -0.0431
 9334SOL    HW139635   2.622   0.824   7.038 -1.3410  1.1427 -2.5789
 9334SOL    HW239636   2.506   0.920   7.044 -0.1348 -0.7503 -0.7488
 9335SOL     OW39637   1.289   0.448   9.170  0.0549 -0.2855  0.1448
 9335SOL    HW139638   1.208   0.500   9.166 -0.0625 -0.4242  0.7702
 9335SOL    HW239639   1.331   0.499   9.101 -1.1737 -1.5725 -1.5627
 9336SOL     OW39640   4.480   1.593   7.900 -0.4082 -0.4040 -0.6018
 9336SOL    HW139641   4.448   1.666   7.953  0.0935 -0.6621  0.0595
 9336SOL    HW239642   4.401   1.541   7.883 -1.3628 -0.1334  2.8765
 9337SOL     OW39643   2.217   3.373  14.298  0.3134  0.1885  0.4761
 9337SOL    HW139644   2.236   3.324  14.378  1.3590 -2.6374 -1.5109
 9337SOL    HW239645   2.305   3.368  14.260 -0.3844 -0.8602 -0.9924
 9338SOL     OW39646   0.742   4.107  16.169  0.3065 -0.2475  0.1308
 9338SOL    HW139647   0.682   4.038  16.142 -0.2585  0.5260 -0.5722
 9338SOL    HW239648   0.799   4.129  16.095 -0.5310  3.3440  0.6052
 9339SOL     OW39649   4.521   1.905   4.758 -0.4391  0.3953 -0.1462
 9339SOL    HW139650   4.561   1.876   4.841  0.3836 -1.4898 -1.1951
 9339SOL    HW239651   4.437   1.864   4.777 -1.2581  2.1980  0.0270
 9340SOL     OW39652   2.919   3.170   2.754  0.4818  0.5404  0.0157
 9340SOL    HW139653   2.975   3.098   2.786 -0.0141 -0.5210 -1.5308
 9340SOL    HW239654   2.860   3.171   2.829  1.8767  1.3858  1.1208
 9341SOL     OW39655   0.947   1.532  10.995 -0.0716 -0.1843  0.2323
 9341SOL    HW139656   0.981   1.524  11.084  1.2401  1.4440 -0.1316
 9341SOL    HW239657   0.860   1.563  11.018  0.2398 -1.1454  2.7214
 9342SOL     OW39658   1.491   2.105   6.307  0.2004  0.3428 -0.3806
 9342SOL    HW139659   1.483   2.029   6.249 -2.2494  0.2213  0.1034
 9342SOL    HW239660   1.463   2.168   6.241 -0.4416  0.9224  0.4499
 9343SOL     OW39661   3.854   1.742  11.633 -0.1609  0.0091 -0.3216
 9343SOL    HW139662   3.932   1.794  11.654  1.5879 -2.5860 -0.5012
 9343SOL    HW239663   3.809   1.799  11.571 -0.8442 -2.2515 -1.8894
 9344SOL     OW39664   1.243   4.566   6.108 -0.3574 -0.0179  0.0563
 9344SOL    HW139665   1.203   4.651   6.088  0.5387  0.2482 -0.6093
 9344SOL    HW239666   1.201   4.521   6.035 -1.4378 -0.1444  0.7443
 9345SOL     OW39667   4.714   0.788   6.835  0.5932 -0.1661  0.0327
 9345SOL    HW139668   0.054   0.753   6.786 -0.5064  0.7076 -2.2642
 9345SOL    HW239669   4.650   0.718   6.822 -0.9766  1.3256 -0.2796
 9346SOL     OW39670   3.478   1.218  17.032 -0.8496 -0.1096  0.2191
 9346SOL    HW139671   3.466   1.220  17.127 -1.0842 -0.3827  0.1948
 9346SOL    HW239672   3.397   1.193  16.989  0.9935 -3.5598 -1.2848
 9347SOL     OW39673   0.747   1.727   5.266 -0.1035 -0.5922 -0.2749
 9347SOL    HW139674   0.754   1.730   5.361 -2.3017  1.0970 -0.1725
 9347SOL    HW239675   0.805   1.652   5.250  0.1304 -0.4894  0.1184
 9348SOL     OW39676   2.439   1.845   7.876  0.1060 -0.2611  0.8621
 9348SOL    HW139677   2.430   1.882   7.963  1.1618 -0.5807  1.1038
 9348SOL    HW239678   2.348   1.836   7.845  0.8846  1.5347 -1.9521
 9349SOL     OW39679   1.696   2.078   2.737  0.2061  0.1519  0.7389
 9349SOL    HW139680   1.779   2.031   2.737  0.9199  1.4155 -1.7770
 9349SOL    HW239681   1.636   2.024   2.789 -0.9146  0.9710  0.3055
 9350SOL     OW39682   1.665   1.766   8.528 -0.9754  0.5565 -0.0924
 9350SOL    HW139683   1.609   1.747   8.453 -0.2969 -0.3651 -0.3532
 9350SOL    HW239684   1.646   1.860   8.528 -1.0663  0.5324 -1.4774
 9351SOL     OW39685   4.306   0.406   7.785  0.2979  0.0276  0.6299
 9351SOL    HW139686   4.373   0.435   7.723  0.3695  2.0924  1.6699
 9351SOL    HW239687   4.360   0.383   7.860  0.8982  0.3280  0.2875
 9352SOL     OW39688   4.282   1.797   4.427  0.0051  0.0441  0.2059
 9352SOL    HW139689   4.285   1.884   4.467 -1.5071  0.0173  0.3623
 9352SOL    HW239690   4.215   1.812   4.360 -1.4539 -1.2972  1.3667
 9353SOL     OW39691   1.512   1.367   0.734 -0.0557 -0.6079  0.0182
 9353SOL    HW139692   1.470   1.427   0.672  0.2618 -0.5105 -0.1054
 9353SOL    HW239693   1.434   1.313   0.746  1.5801 -2.8839  0.4396
 9354SOL     OW39694   2.457   0.390  11.995  0.7186 -0.1316 -0.2914
 9354SOL    HW139695   2.459   0.472  12.045  0.1495 -0.9877  1.1376
 9354SOL    HW239696   2.369   0.401  11.960  1.0252  0.7179 -0.8014
 9355SOL     OW39697   1.421   2.077   4.779  0.0139 -0.0565  0.8870
 9355SOL    HW139698   1.345   2.117   4.737 -0.0742  0.6839  1.7564
 9355SOL    HW239699   1.409   2.102   4.871 -1.6113  0.5946  0.4920
 9356SOL     OW39700   4.450   2.579   2.490  0.1236  0.3516  0.3352
 9356SOL    HW139701   4.481   2.659   2.449 -2.7013  1.4585  0.3819
 9356SOL    HW239702   4.524   2.555   2.545  0.4641  1.6261  0.4135
 9357SOL     OW39703   0.126   1.958   4.600  0.1193  0.3955 -0.0185
 9357SOL    HW139704   0.106   2.048   4.628  2.3996  1.3243 -1.3802
 9357SOL    HW239705   0.038   1.919   4.604  0.0828  0.4990  0.1993
 9358SOL     OW39706   3.041   4.374   9.026 -0.2028 -0.2751  0.2530
 9358SOL    HW139707   3.061   4.325   8.947  1.2189  1.3714 -0.4300
 9358SOL    HW239708   3.036   4.294   9.078 -2.2294  1.1964  2.3598
 9359SOL     OW39709   3.109   0.445  12.137 -0.2485 -0.0942 -0.2910
 9359SOL    HW139710   3.113   0.429  12.231 -0.6056 -0.7260 -0.3868
 9359SOL    HW239711   3.034   0.503  12.125 -1.5691 -1.0527  3.4085
 9360SOL     OW39712   2.002   0.457   6.613 -0.0594  0.7199 -0.1481
 9360SOL    HW139713   2.009   0.382   6.554 -1.8233 -2.1433  3.3159
 9360SOL    HW239714   2.090   0.494   6.615 -0.1155  0.9520 -1.6836
 9361SOL     OW39715   0.686   3.231  13.838  0.7309 -0.4307  0.4994
 9361SOL    HW139716   0.635   3.151  13.841 -0.9436  0.7190  2.9792
 9361SOL    HW239717   0.613   3.293  13.833  2.4988  1.7975  1.7910
 9362SOL     OW39718   3.529   1.259  12.400 -0.0415 -0.1324  0.2557
 9362SOL    HW139719   3.574   1.178  12.423  1.1722  0.4271 -0.1348
 9362SOL    HW239720   3.490   1.296  12.480 -1.6700 -0.9864 -0.1246
 9363SOL     OW39721   2.340   0.814   2.174  0.3503 -0.5194 -0.0680
 9363SOL    HW139722   2.330   0.846   2.264 -0.1544  1.6610 -0.9084
 9363SOL    HW239723   2.331   0.719   2.178  0.7338 -0.4199  3.0393
 9364SOL     OW39724   0.014   0.443   5.663 -0.1277 -0.5268 -0.3369
 9364SOL    HW139725   0.060   0.510   5.715  0.9660 -1.5109 -0.0329
 9364SOL    HW239726   4.693   0.497   5.606  2.1820  2.5315  0.2828
 9365SOL     OW39727   1.879   3.704   1.080 -0.0013  0.3336  0.6412
 9365SOL    HW139728   1.793   3.677   1.113 -1.4471  0.9409 -2.5076
 9365SOL    HW239729   1.932   3.688   1.158 -0.4686 -0.4734  0.7934
 9366SOL     OW39730   0.913   2.655   0.508 -0.0236 -0.3741  0.5548
 9366SOL    HW139731   0.826   2.647   0.470  0.7838 -2.6096 -0.8633
 9366SOL    HW239732   0.931   2.746   0.484 -0.2638 -0.4737 -0.0136
 9367SOL     OW39733   1.226   3.964  12.111  0.1164  0.5886 -0.5867
 9367SOL    HW139734   1.165   4.026  12.152 -0.5785 -1.3192  1.2296
 9367SOL    HW239735   1.281   4.032  12.070 -1.0932  2.4336  0.8520
 9368SOL     OW39736   3.354   1.375  16.056 -0.2349  0.0845 -0.2594
 9368SOL    HW139737   3.335   1.379  15.962  1.3253  0.6892 -0.5355
 9368SOL    HW239738   3.424   1.439  16.061  0.8709 -1.3064  2.0452
 9369SOL     OW39739   0.936   1.059  13.637  0.8479  0.5994  0.1194
 9369SOL    HW139740   0.945   0.982  13.580  0.3150  0.6613 -0.0478
 9369SOL    HW239741   1.026   1.090  13.650  0.6070  1.3973 -0.1563
 9370SOL     OW39742   4.215   1.264   2.104 -0.0879  0.0773 -0.2450
 9370SOL    HW139743   4.153   1.218   2.160  1.6261  0.2974  1.8581
 9370SOL    HW239744   4.181   1.248   2.016  1.2581 -1.0751 -0.5732
 9371SOL     OW39745   0.976   0.493   4.764 -0.0851 -0.3428  0.3881
 9371SOL    HW139746   0.926   0.571   4.788  1.5549  0.5165  0.9869
 9371SOL    HW239747   0.980   0.441   4.845 -0.6038  0.3627  0.8658
 9372SOL     OW39748   2.672   4.003   4.570  0.3944  0.3838 -0.1127
 9372SOL    HW139749   2.677   3.908   4.561  1.0752  0.3491  0.6112
 9372SOL    HW239750   2.730   4.037   4.502 -1.7370  2.2783 -0.9694
 9373SOL     OW39751   3.728   4.276   9.883  0.4933 -0.1005 -0.0713
 9373SOL    HW139752   3.641   4.314   9.879 -0.3199 -1.9338  0.4238
 9373SOL    HW239753   3.763   4.291   9.971  0.1609  0.1547  0.0184
 9374SOL     OW39754   3.719   4.665  10.058  0.6600  0.1218 -0.0382
 9374SOL    HW139755   3.669   4.596  10.102  2.7107  0.1042  2.2386
 9374SOL    HW239756   3.792   4.618  10.017  0.9163  0.1115  0.4277
 9375SOL     OW39757   0.327   2.324  12.096  0.4784  0.3201 -0.0537
 9375SOL    HW139758   0.324   2.339  12.002  0.9828  2.1549  0.2115
 9375SOL    HW239759   0.410   2.366  12.119  0.6791  0.1995 -0.5709
 9376SOL     OW39760   2.152   2.824  15.889 -0.1771  0.4513 -0.7748
 9376SOL    HW139761   2.194   2.797  15.807  0.1578  2.0977 -1.1482
 9376SOL    HW239762   2.205   2.784  15.958 -0.5784  1.8658  0.3523
 9377SOL     OW39763   2.114   2.472   7.348  0.1046 -0.2342 -0.4347
 9377SOL    HW139764   2.195   2.520   7.365 -1.1692  2.1584 -1.1331
 9377SOL    HW239765   2.093   2.477   7.255 -2.1724  1.3852  0.1607
 9378SOL     OW39766   4.172   2.840  11.257 -0.4319 -0.2443  0.1931
 9378SOL    HW139767   4.186   2.929  11.227 -1.3847 -0.5255 -1.0920
 9378SOL    HW239768   4.210   2.836  11.345 -1.7383  0.6264  0.7835
 9379SOL     OW39769   1.244   2.126   6.961  0.3578 -0.1288  0.5415
 9379SOL    HW139770   1.264   2.190   6.893  1.3616 -1.1300 -0.1010
 9379SOL    HW239771   1.305   2.055   6.940  0.7047  0.3074  0.0719
 9380SOL     OW39772   0.893   2.490   8.481 -0.6250  0.0144 -0.4205
 9380SOL    HW139773   0.918   2.580   8.459 -1.0153  0.3884  0.6997
 9380SOL    HW239774   0.921   2.439   8.405 -1.3333  1.2886 -1.5339
 9381SOL     OW39775   1.092   3.745   4.418  0.1013 -0.4391 -0.1430
 9381SOL    HW139776   1.046   3.662   4.406  1.4012 -1.2164  0.2619
 9381SOL    HW239777   1.174   3.731   4.371  0.6528  0.6493  0.4766
 9382SOL     OW39778   2.340   0.087  11.121  0.1208  0.0877  0.3493
 9382SOL    HW139779   2.303   0.124  11.040  1.3015 -1.1458 -0.7650
 9382SOL    HW239780   2.329   4.729  11.097 -1.8730  0.1430  1.0304
 9383SOL     OW39781   2.330   2.023   6.490  0.4462  0.4520  0.3240
 9383SOL    HW139782   2.264   1.973   6.538 -0.9260  1.0916 -0.9011
 9383SOL    HW239783   2.407   2.024   6.548  1.1739 -0.8858 -0.6042
 9384SOL     OW39784   2.387   1.500   6.955 -0.5366  0.3854  0.2707
 9384SOL    HW139785   2.384   1.405   6.959  1.9973  0.2711 -0.3357
 9384SOL    HW239786   2.454   1.504   6.886  1.2743 -0.5703  1.9760
 9385SOL     OW39787   1.401   3.165   9.636  0.6479  1.2916 -0.2526
 9385SOL    HW139788   1.374   3.229   9.570 -1.0895 -0.4790 -1.2740
 9385SOL    HW239789   1.321   3.128   9.673  1.3185  0.7349  0.6385
 9386SOL     OW39790   1.379   2.182   3.419 -0.5462  0.1938  0.3089
 9386SOL    HW139791   1.470   2.177   3.446 -0.4200  2.1483  0.1926
 9386SOL    HW239792   1.334   2.197   3.502  1.4516  2.3711  0.9781
 9387SOL     OW39793   1.483   0.887   6.897  0.0222  0.4979 -0.0605
 9387SOL    HW139794   1.563   0.879   6.845 -1.2754  2.0547 -2.2782
 9387SOL    HW239795   1.520   0.904   6.983  1.4784 -2.3846 -0.1071
 9388SOL     OW39796   1.642   2.649  11.780 -0.1307 -0.1166 -0.3846
 9388SOL    HW139797   1.628   2.582  11.847  0.6811 -1.2582 -1.3642
 9388SOL    HW239798   1.564   2.648  11.724 -1.0152 -2.1526  0.8661
 9389SOL     OW39799   2.744   4.637  13.127  0.3023  0.2202 -0.1626
 9389SOL    HW139800   2.794   4.692  13.067  0.3897 -0.1670 -0.4426
 9389SOL    HW239801   2.676   4.600  13.071  0.0470  0.7728 -0.2167
 9390SOL     OW39802   0.902   0.954   5.314 -0.0606 -0.3251 -0.4158
 9390SOL    HW139803   0.961   0.889   5.351 -1.2522 -0.8652  0.5247
 9390SOL    HW239804   0.938   0.966   5.226 -1.4428  1.1947 -0.7692
 9391SOL     OW39805   2.119   1.800   5.652 -0.0344  0.9004 -0.1224
 9391SOL    HW139806   2.170   1.809   5.732 -3.6901  0.9336  2.2178
 9391SOL    HW239807   2.189   1.785   5.588  0.0139  0.2376  0.0874
 9392SOL     OW39808   0.208   2.035   1.500  0.0577  0.0125 -0.0236
 9392SOL    HW139809   0.277   2.067   1.558 -0.0867 -1.6842  1.0852
 9392SOL    HW239810   0.179   1.956   1.546 -1.1617  0.7746  0.5132
 9393SOL     OW39811   3.307   0.656   0.699 -0.1545 -0.1823  0.0326
 9393SOL    HW139812   3.297   0.743   0.661 -0.3690 -0.0292  0.4373
 9393SOL    HW239813   3.396   0.635   0.671  0.1298  1.3477 -0.2034
 9394SOL     OW39814   1.160   1.692  10.575  0.1176 -0.8099 -0.0609
 9394SOL    HW139815   1.135   1.641  10.652  0.2643  0.2126  0.6622
 9394SOL    HW239816   1.114   1.636  10.512 -2.1127  1.2849 -0.3094
 9395SOL     OW39817   2.843   4.370  15.871 -0.0691  0.6059  0.0559
 9395SOL    HW139818   2.751   4.394  15.865 -1.0377 -3.7634 -1.9530
 9395SOL    HW239819   2.844   4.284  15.830 -0.6597  0.6014  0.0599
 9396SOL     OW39820   4.055   3.996   4.384 -0.1073 -0.0903  0.0421
 9396SOL    HW139821   4.008   4.074   4.355 -0.8719 -0.5364  0.1076
 9396SOL    HW239822   4.000   3.962   4.454 -2.3715  1.1990 -1.1138
 9397SOL     OW39823   3.462   2.924   5.494  0.2751 -0.7747  0.5829
 9397SOL    HW139824   3.485   3.008   5.455  1.2554 -1.6374 -0.7047
 9397SOL    HW239825   3.494   2.943   5.582 -0.6085  1.7432  0.3658
 9398SOL     OW39826   3.866   4.443   4.547 -0.1856 -0.1388  0.0686
 9398SOL    HW139827   3.855   4.369   4.606 -1.1936  0.5439  0.7255
 9398SOL    HW239828   3.836   4.510   4.608  0.9831  1.4984 -1.1264
 9399SOL     OW39829   2.398   2.051   4.286 -0.0242 -0.3813  0.0951
 9399SOL    HW139830   2.377   1.958   4.300  0.1344 -0.6719 -1.6731
 9399SOL    HW239831   2.371   2.062   4.195  2.0875 -0.7172 -0.5804
 9400SOL     OW39832   2.367   2.869   3.935 -0.0034  0.0768 -0.5209
 9400SOL    HW139833   2.455   2.835   3.949 -0.4712 -1.2001 -0.7532
 9400SOL    HW239834   2.379   2.943   3.874 -0.5324 -1.1015 -2.0541
 9401SOL     OW39835   3.798   4.109   1.496  0.6502  0.1376  0.4277
 9401SOL    HW139836   3.778   4.164   1.420  0.9754 -0.6617 -0.2243
 9401SOL    HW239837   3.763   4.163   1.567 -0.5526 -0.0115 -0.0487
 9402SOL     OW39838   4.039   3.860   3.743  0.4802 -0.1487 -0.1673
 9402SOL    HW139839   4.024   3.827   3.655  0.1106 -0.6069  0.0643
 9402SOL    HW239840   4.134   3.871   3.736  0.5062 -1.5338 -2.0848
 9403SOL     OW39841   3.346   3.386   6.292  0.4303 -0.6385  0.2171
 9403SOL    HW139842   3.398   3.466   6.277  0.2002 -0.4382  0.4938
 9403SOL    HW239843   3.268   3.426   6.253  0.3472 -0.2224  0.8184
 9404SOL     OW39844   1.183   1.821   4.911 -0.5676  0.4167  0.3338
 9404SOL    HW139845   1.150   1.911   4.907 -1.1310  0.1650 -0.8727
 9404SOL    HW239846   1.140   1.783   4.988 -1.0800  1.4005  0.5433
 9405SOL     OW39847   2.956   4.030   5.768  0.4272  0.2725  0.1773
 9405SOL    HW139848   2.875   3.980   5.758  0.3150  0.2452  1.2189
 9405SOL    HW239849   3.013   4.006   5.695  0.6095 -0.3684  0.5327
 9406SOL     OW39850   2.745   1.064   7.231 -0.1618 -0.2126  0.0671
 9406SOL    HW139851   2.684   1.005   7.187 -0.0845  0.5933 -1.1283
 9406SOL    HW239852   2.700   1.063   7.315  1.7391  2.0182  1.1242
 9407SOL     OW39853   0.831   3.956  14.892  0.1041 -0.0993 -0.6239
 9407SOL    HW139854   0.828   3.910  14.808  1.3544 -1.3744  0.0531
 9407SOL    HW239855   0.739   3.950  14.919 -0.0933 -0.7036 -1.4135
 9408SOL     OW39856   0.706   2.611  12.312 -0.0479  0.3670  0.0811
 9408SOL    HW139857   0.739   2.625  12.401  3.9482 -1.8727 -1.0288
 9408SOL    HW239858   0.632   2.672  12.313 -2.0430 -2.0263 -0.8223
 9409SOL     OW39859   4.213   1.681  13.030  0.1965 -0.0788 -0.6013
 9409SOL    HW139860   4.218   1.590  13.003  0.5023 -0.3631  0.4235
 9409SOL    HW239861   4.279   1.676  13.099 -2.1941  1.7842  1.8456
 9410SOL     OW39862   3.629   2.573   7.542  0.5494  0.1620  0.4058
 9410SOL    HW139863   3.687   2.649   7.555  2.2987 -1.2356  0.7683
 9410SOL    HW239864   3.548   2.611   7.576 -1.8148 -1.4755 -3.4939
 9411SOL     OW39865   1.798   0.315   0.239  0.4852  0.0313 -0.1131
 9411SOL    HW139866   1.824   0.404   0.216 -0.8357  0.0787 -1.4404
 9411SOL    HW239867   1.719   0.338   0.287  0.4597 -0.7264  0.2190
 9412SOL     OW39868   2.263   0.909   8.704  0.3343  0.3362  0.2416
 9412SOL    HW139869   2.243   0.861   8.784 -2.3139 -0.6460 -1.0046
 9412SOL    HW239870   2.181   0.937   8.663 -1.1622 -1.8194  1.7806
 9413SOL     OW39871   3.185   0.626  15.625  0.4151 -0.3685 -0.5361
 9413SOL    HW139872   3.169   0.661  15.537  0.3324  1.0571  0.0450
 9413SOL    HW239873   3.274   0.591  15.618 -0.1373 -1.7310 -0.8063
 9414SOL     OW39874   3.561   4.647   2.943  0.0901 -0.6589 -0.5506
 9414SOL    HW139875   3.523   4.628   3.029 -1.5354 -1.8371 -1.5089
 9414SOL    HW239876   3.496   4.600   2.890 -0.7332  0.1261 -0.2334
 9415SOL     OW39877   0.481   4.417  11.888 -0.0222  0.4277 -0.0405
 9415SOL    HW139878   0.431   4.433  11.808 -0.1998  1.5879  0.3072
 9415SOL    HW239879   0.415   4.361  11.930  1.0003 -0.7150  0.0376
 9416SOL     OW39880   1.462   1.959   5.592  0.2506 -0.1411  0.2360
 9416SOL    HW139881   1.439   2.030   5.532  3.0994 -0.7567 -1.5697
 9416SOL    HW239882   1.478   1.881   5.540  0.7445 -1.2041  1.9841
 9417SOL     OW39883   4.246   1.987   7.012 -0.3598  0.1052  0.0911
 9417SOL    HW139884   4.197   2.035   7.079 -0.8698 -1.1155  0.5863
 9417SOL    HW239885   4.327   1.956   7.051 -0.3103  0.8354  0.5769
 9418SOL     OW39886   0.862   3.843   7.280 -0.5142  0.1285 -0.2530
 9418SOL    HW139887   0.792   3.819   7.219  0.0027 -2.3639  0.1206
 9418SOL    HW239888   0.864   3.781   7.352  2.5526  1.4724  0.8256
 9419SOL     OW39889   4.082   3.964   6.420  0.6626 -0.6873  0.6449
 9419SOL    HW139890   4.032   3.896   6.375  0.1147 -0.5776  1.0819
 9419SOL    HW239891   4.015   4.033   6.422  0.7474 -0.6289  2.0182
 9420SOL     OW39892   0.592   4.436   8.989 -1.2038  0.2632  0.4064
 9420SOL    HW139893   0.674   4.432   8.940 -1.3915 -0.2628  0.1435
 9420SOL    HW239894   0.535   4.454   8.915 -0.2276 -0.9768 -0.6336
 9421SOL     OW39895   2.111   1.978   8.935 -0.1603  0.4270  0.4463
 9421SOL    HW139896   2.151   2.021   8.860 -2.8496 -0.3052 -1.4042
 9421SOL    HW239897   2.184   1.929   8.973  0.3923  1.3063  0.5008
 9422SOL     OW39898   3.205   4.649  10.927 -0.4507  0.0436 -0.0255
 9422SOL    HW139899   3.257   4.724  10.897  0.0057 -0.9825 -1.7867
 9422SOL    HW239900   3.137   4.648  10.860 -0.4608  1.4100 -0.0413
 9423SOL     OW39901   3.614   4.630  15.711 -0.8018  0.1230  0.0977
 9423SOL    HW139902   3.534   4.612  15.661 -0.8259  1.4231 -0.3364
 9423SOL    HW239903   3.636   4.537  15.712 -0.2378  0.2380 -1.2477
 9424SOL     OW39904   2.759   1.775   1.048 -0.0569  0.5427 -0.4025
 9424SOL    HW139905   2.745   1.868   1.033 -1.0724  0.8676  2.5618
 9424SOL    HW239906   2.669   1.760   1.077 -0.0252  3.5090  1.1814
 9425SOL     OW39907   3.102   4.727   1.543  0.2473 -0.2245 -0.2730
 9425SOL    HW139908   3.024   4.707   1.595  0.1838 -0.4877 -0.4707
 9425SOL    HW239909   3.102   4.662   1.473  1.8888  0.1855 -0.6462
 9426SOL     OW39910   0.217   1.455   3.724 -0.3517 -0.0085 -0.7792
 9426SOL    HW139911   0.156   1.478   3.654 -0.0372  0.5466 -0.8708
 9426SOL    HW239912   0.217   1.359   3.719  2.1754  0.0156 -0.9965
 9427SOL     OW39913   3.576   0.125   5.003 -0.4225 -0.4378  0.0547
 9427SOL    HW139914   3.487   0.091   4.990 -1.7390  2.4572  1.5435
 9427SOL    HW239915   3.615   0.118   4.916  0.8901  1.6759  0.4897
 9428SOL     OW39916   2.347   4.128   4.158 -0.2748  0.2362  0.1308
 9428SOL    HW139917   2.341   4.071   4.235 -1.6169 -1.3111 -1.1350
 9428SOL    HW239918   2.441   4.146   4.158 -0.0917 -0.7210  0.1589
 9429SOL     OW39919   1.146   1.155   7.853 -0.1681 -0.4123  0.1490
 9429SOL    HW139920   1.207   1.156   7.779 -0.9056  0.7911 -0.4300
 9429SOL    HW239921   1.213   1.122   7.914 -0.1062 -2.1676 -0.8652
 9430SOL     OW39922   3.540   4.548  16.782  0.3759 -0.2454 -0.9251
 9430SOL    HW139923   3.598   4.614  16.743  0.0834  0.0115 -0.9203
 9430SOL    HW239924   3.553   4.552  16.877 -1.6886  0.7704 -0.6897
 9431SOL     OW39925   1.600   0.850   5.631 -0.0531 -0.1744  0.3658
 9431SOL    HW139926   1.599   0.794   5.709  1.1669 -1.1239 -0.2931
 9431SOL    HW239927   1.511   0.883   5.629 -0.1701 -0.4740  0.6841
 9432SOL     OW39928   1.697   2.774   5.068 -0.0019  0.4165 -0.7285
 9432SOL    HW139929   1.712   2.723   5.147  2.0802 -0.1848 -1.5176
 9432SOL    HW239930   1.778   2.824   5.053 -0.1389  1.1749  1.0480
 9433SOL     OW39931   1.659   0.301  11.396 -0.4172  0.3864 -0.1167
 9433SOL    HW139932   1.749   0.330  11.413  0.1178 -1.3815  0.0343
 9433SOL    HW239933   1.619   0.379  11.358 -1.7751 -0.8051 -1.0911
 9434SOL     OW39934   2.021   4.608   3.902 -0.2186 -0.8647  0.2887
 9434SOL    HW139935   2.053   4.575   3.986 -0.3639 -2.0685 -0.1306
 9434SOL    HW239936   2.091   4.580   3.842 -0.2409 -0.2920 -0.0102
 9435SOL     OW39937   2.034   0.976   7.529 -0.1128 -0.3546 -0.3119
 9435SOL    HW139938   2.007   1.061   7.563 -2.0501 -0.6082 -1.2411
 9435SOL    HW239939   1.952   0.942   7.493 -0.2634  1.1167 -1.3313
 9436SOL     OW39940   4.103   1.106   8.663 -0.7691 -0.0651  0.1753
 9436SOL    HW139941   4.188   1.136   8.696 -0.0457  0.0519 -1.7860
 9436SOL    HW239942   4.102   1.162   8.586 -1.1501  1.0347  0.9885
 9437SOL     OW39943   3.449   1.860   3.528 -0.3891 -0.2544 -0.3051
 9437SOL    HW139944   3.355   1.878   3.525 -0.4235 -0.2753  0.7403
 9437SOL    HW239945   3.471   1.854   3.435  1.0674 -2.0174  0.1597
 9438SOL     OW39946   2.157   2.504   6.084  0.1567 -0.3749  0.7048
 9438SOL    HW139947   2.119   2.422   6.055  0.4535  0.3066 -1.5532
 9438SOL    HW239948   2.152   2.567   6.012 -0.1428 -1.0171  0.1718
 9439SOL     OW39949   4.540   0.190  11.353 -0.2627 -0.3236  0.4043
 9439SOL    HW139950   4.615   0.133  11.339 -0.1122 -0.0590  0.1360
 9439SOL    HW239951   4.564   0.213  11.443 -0.9710 -1.5971  0.9161
 9440SOL     OW39952   2.374   3.488   4.960 -0.0714 -0.0779  0.4322
 9440SOL    HW139953   2.367   3.569   5.011  1.2507 -0.5000  1.2820
 9440SOL    HW239954   2.389   3.532   4.876 -2.6950  1.5387  0.8107
 9441SOL     OW39955   4.293   1.215  17.514  0.2066 -0.4834  0.2622
 9441SOL    HW139956   4.346   1.144  17.550  0.2855 -1.2458 -1.3760
 9441SOL    HW239957   4.231   1.163  17.462  1.3238  0.0015 -1.5344
 9442SOL     OW39958   4.634   3.177   8.292  0.4789 -0.5172  0.2559
 9442SOL    HW139959   4.621   3.106   8.230  2.2220  0.8971 -1.7267
 9442SOL    HW239960   4.695   3.136   8.353  2.2124  0.9132 -0.4948
 9443SOL     OW39961   1.669   3.520  15.436 -0.3130 -0.0844 -0.0010
 9443SOL    HW139962   1.705   3.434  15.460  0.1424 -0.8463 -3.5003
 9443SOL    HW239963   1.749   3.571  15.446 -0.2032  0.2419 -2.5281
 9444SOL     OW39964   3.191   2.879  10.547  0.0083  0.1090 -0.2919
 9444SOL    HW139965   3.259   2.883  10.480  1.5673  0.3326  1.3213
 9444SOL    HW239966   3.125   2.939  10.510  2.4464  1.7430 -1.9779
 9445SOL     OW39967   2.530   0.015   3.926  0.1230 -0.0137 -0.0646
 9445SOL    HW139968   2.483   4.695   3.862 -0.2004  0.3677 -0.1577
 9445SOL    HW239969   2.584   0.069   3.868  0.5831 -1.9447 -1.4124
 9446SOL     OW39970   1.520   0.888  10.039  0.1064  0.2413 -0.2157
 9446SOL    HW139971   1.578   0.831   9.989  1.0419  0.8229  0.2133
 9446SOL    HW239972   1.486   0.825  10.103  3.6710 -0.3726  1.0297
 9447SOL     OW39973   1.256   2.707   9.487 -0.2164 -0.3951  0.0545
 9447SOL    HW139974   1.243   2.613   9.493 -0.9676 -0.2282  1.0122
 9447SOL    HW239975   1.217   2.716   9.400 -0.7483  2.7009  0.5935
 9448SOL     OW39976   3.763   4.623   3.296 -0.0984  0.1532 -0.0849
 9448SOL    HW139977   3.850   4.583   3.294 -0.0227  0.4015 -1.7696
 9448SOL    HW239978   3.710   4.546   3.272 -0.6655  0.4661  0.1551
 9449SOL     OW39979   1.722   1.741   1.405 -0.2554 -0.1497  0.2020
 9449SOL    HW139980   1.728   1.790   1.323  0.8115 -0.6180  0.0045
 9449SOL    HW239981   1.748   1.657   1.366  0.1222  1.3443 -2.8092
 9450SOL     OW39982   3.854   0.203   2.360  0.1148  0.1627 -0.2495
 9450SOL    HW139983   3.767   0.201   2.401  0.7024  1.5697  1.0745
 9450SOL    HW239984   3.901   0.121   2.377 -1.4393 -0.6646  0.0454
 9451SOL     OW39985   3.438   2.966   9.779  0.2308  0.1252 -0.2200
 9451SOL    HW139986   3.433   2.957   9.874 -1.7423  0.8940 -0.2477
 9451SOL    HW239987   3.369   2.908   9.746 -0.4510 -0.2940  1.9195
 9452SOL     OW39988   2.885   2.749   1.897 -0.0382  0.2902  0.1980
 9452SOL    HW139989   2.793   2.732   1.921 -1.1296  1.9442 -2.8026
 9452SOL    HW239990   2.909   2.673   1.843  0.2774 -0.6388  1.6296
 9453SOL     OW39991   0.866   1.407  14.006  0.3173  0.1396  0.1641
 9453SOL    HW139992   0.911   1.357  13.938 -1.1211  1.3702 -1.6894
 9453SOL    HW239993   0.941   1.464  14.024  1.1822 -0.5795 -1.2207
 9454SOL     OW39994   2.252   2.316   5.718 -0.2352 -0.6621  0.1563
 9454SOL    HW139995   2.208   2.239   5.754  1.7735 -2.8872 -2.2235
 9454SOL    HW239996   2.282   2.289   5.632 -0.1821 -0.1971  0.0294
 9455SOL     OW39997   0.232   4.624   7.717  0.2517  0.5508 -0.7284
 9455SOL    HW139998   0.244   4.638   7.623 -2.6104  0.9297 -1.0217
 9455SOL    HW239999   0.195   4.536   7.718 -0.6851  0.9906  3.3089
 9456SOL     OW40000   3.170   4.063   8.074 -0.4942  0.0262 -0.1897
 9456SOL    HW140001   3.129   4.024   7.997 -0.1367 -2.3407  0.8100
 9456SOL    HW240002   3.233   3.993   8.091  1.2936  0.9743 -2.8805
 9457SOL     OW40003   0.957   2.839  13.090  0.0899 -0.8778  0.1908
 9457SOL    HW140004   0.866   2.856  13.116 -0.3136 -2.1135 -0.4048
 9457SOL    HW240005   0.958   2.870  13.000  1.6830  1.1216  0.8887
 9458SOL     OW40006   4.299   1.122  12.263  0.7853  0.1656  0.1768
 9458SOL    HW140007   4.241   1.188  12.301  0.2145 -0.5820  0.5912
 9458SOL    HW240008   4.237   1.060  12.226  2.4362 -1.0888 -0.4942
 9459SOL     OW40009   1.414   0.972  17.358 -0.4276  0.7455 -0.0250
 9459SOL    HW140010   1.394   1.025  17.435 -0.7411  0.4878  0.0683
 9459SOL    HW240011   1.480   1.023  17.311  0.2493  0.3855  0.5280
 9460SOL     OW40012   0.169   1.445   3.117  0.0104 -0.6657  0.0964
 9460SOL    HW140013   0.145   1.395   3.038  0.1535 -1.2635  0.4303
 9460SOL    HW240014   0.103   1.411   3.177 -0.4595  1.6023  0.8586
 9461SOL     OW40015   4.082   0.429   7.566  0.1523  0.2706 -0.3018
 9461SOL    HW140016   4.139   0.398   7.636  0.5514  0.1417 -0.6816
 9461SOL    HW240017   3.996   0.427   7.608  0.2968  3.0726  0.1121
 9462SOL     OW40018   1.940   1.448   1.694 -0.0135 -0.1520  0.0186
 9462SOL    HW140019   1.860   1.452   1.747  1.5186  0.0094  2.3155
 9462SOL    HW240020   1.965   1.356   1.701  0.1721 -0.0887  0.1906
 9463SOL     OW40021   1.830   2.979   7.885  0.0560 -0.0494  0.1661
 9463SOL    HW140022   1.769   2.921   7.840 -1.1865  0.4198  1.2403
 9463SOL    HW240023   1.911   2.978   7.834 -0.7836  0.0406 -1.1673
 9464SOL     OW40024   3.861   3.301   7.470  0.2734  0.0112 -0.8185
 9464SOL    HW140025   3.878   3.321   7.562 -0.9022 -1.9739 -0.1738
 9464SOL    HW240026   3.951   3.298   7.437  1.0811 -1.0044  1.5126
 9465SOL     OW40027   1.470   2.584  16.055 -0.4660  0.3628  0.0070
 9465SOL    HW140028   1.428   2.498  16.050  1.5748 -0.7402  1.9218
 9465SOL    HW240029   1.405   2.642  16.015 -1.5007 -1.3014 -0.7247
 9466SOL     OW40030   4.444   4.690   3.508  0.8801  0.3405  0.0412
 9466SOL    HW140031   4.414   4.667   3.596 -0.0928  0.5760 -0.2408
 9466SOL    HW240032   4.538   4.707   3.522  0.6072  0.2715  1.9376
 9467SOL     OW40033   4.289   4.086   3.097 -0.0835  0.0903  0.1449
 9467SOL    HW140034   4.385   4.085   3.098 -0.0769  1.3821  1.4790
 9467SOL    HW240035   4.275   4.181   3.092 -2.2866 -0.1361  1.9640
 9468SOL     OW40036   4.537   2.270  10.609  0.0954  0.6613 -0.4028
 9468SOL    HW140037   4.571   2.329  10.543  1.1311 -0.3187 -0.7340
 9468SOL    HW240038   4.555   2.309  10.695  0.5560 -0.0449 -0.1777
 9469SOL     OW40039   2.482   0.374   7.604 -0.4433 -0.2623 -0.2451
 9469SOL    HW140040   2.394   0.374   7.642  0.7628  0.9376  2.5485
 9469SOL    HW240041   2.510   0.465   7.605 -2.9209  0.5079 -0.4251
 9470SOL     OW40042   0.625   1.854   9.835  0.0044  0.1412 -0.1733
 9470SOL    HW140043   0.536   1.846   9.869 -0.9556  2.3438 -2.1610
 9470SOL    HW240044   0.664   1.900   9.909 -1.5012 -0.1395  0.7892
 9471SOL     OW40045   1.784   4.722  13.463 -0.6243  0.1149 -0.2093
 9471SOL    HW140046   1.821   0.018  13.380  0.0918 -0.2628 -0.0316
 9471SOL    HW240047   1.824   0.049  13.525 -1.6700 -0.5086  1.0821
 9472SOL     OW40048   1.015   2.812   1.279 -0.1709 -0.0076  0.6392
 9472SOL    HW140049   0.958   2.771   1.214 -0.0825  0.3506  0.3369
 9472SOL    HW240050   1.088   2.753   1.297  1.7471  1.7407 -1.4560
 9473SOL     OW40051   2.469   4.148   4.820  0.0111 -0.2934  0.0121
 9473SOL    HW140052   2.431   4.229   4.784 -0.8168 -1.2683 -1.3481
 9473SOL    HW240053   2.408   4.128   4.891 -0.6122  3.3436  0.5112
 9474SOL     OW40054   3.154   4.686   3.558 -0.3234  0.7427 -0.6536
 9474SOL    HW140055   3.182   0.037   3.592  1.4259  0.4364 -1.3388
 9474SOL    HW240056   3.237   4.655   3.523  1.0148  0.7396  2.5700
 9475SOL     OW40057   3.748   2.322  11.611  0.0397  0.8519 -0.2035
 9475SOL    HW140058   3.754   2.229  11.587  0.5952  0.2596  2.1853
 9475SOL    HW240059   3.842   2.335  11.625 -0.0603 -0.2818  1.5535
 9476SOL     OW40060   3.155   3.872   3.744 -0.0148  0.2430  0.3469
 9476SOL    HW140061   3.150   3.789   3.697 -2.1573 -0.9640  2.7253
 9476SOL    HW240062   3.067   3.906   3.726  0.2262  1.2243  1.0280
 9477SOL     OW40063   2.752   3.463   3.707 -0.3750  0.5535 -0.1756
 9477SOL    HW140064   2.793   3.550   3.709 -2.3161  1.4502 -0.2224
 9477SOL    HW240065   2.831   3.408   3.707 -0.0791  0.9810 -0.6307
 9478SOL     OW40066   1.389   0.544  17.448 -0.4316 -0.6970 -0.3365
 9478SOL    HW140067   1.435   0.586  17.375  0.4102  0.5850  0.9358
 9478SOL    HW240068   1.316   0.604  17.461 -0.9041 -1.4366  0.3809
 9479SOL     OW40069   3.216   4.575   9.026  0.2947 -0.1902  0.3781
 9479SOL    HW140070   3.258   4.536   8.949  0.5405  0.9823 -0.0768
 9479SOL    HW240071   3.141   4.516   9.036 -1.5875  1.9688 -1.1330
 9480SOL     OW40072   3.377   2.234   6.368 -0.2738  0.2948  0.7744
 9480SOL    HW140073   3.457   2.249   6.317 -0.5814 -1.5551 -0.2329
 9480SOL    HW240074   3.328   2.183   6.304 -0.6732 -0.1374  1.4283
 9481SOL     OW40075   4.497   1.812  15.896 -0.0677  0.1260 -0.4537
 9481SOL    HW140076   4.471   1.823  15.988  0.1889 -0.2426 -0.3380
 9481SOL    HW240077   4.447   1.882  15.855  2.3904  2.9728  1.4605
 9482SOL     OW40078   3.346   3.715   0.599  0.8790 -0.1204  0.4104
 9482SOL    HW140079   3.405   3.755   0.663  1.3471 -1.4989  0.8483
 9482SOL    HW240080   3.261   3.750   0.626 -0.2655 -2.3776 -0.2677
 9483SOL     OW40081   1.671   2.425   7.433 -0.3543  0.0480  0.4939
 9483SOL    HW140082   1.703   2.385   7.352 -0.4977  0.1366  0.3939
 9483SOL    HW240083   1.604   2.359   7.448  0.0258  0.4698  4.0380
 9484SOL     OW40084   0.212   1.447   5.062 -0.5643 -0.4974  0.0012
 9484SOL    HW140085   0.300   1.432   5.098  0.0177  0.9265 -0.8271
 9484SOL    HW240086   0.238   1.454   4.970 -2.2540 -1.0517 -0.5080
 9485SOL     OW40087   2.114   1.522  13.527  0.7410  0.8358  0.2888
 9485SOL    HW140088   2.194   1.484  13.562  0.8796 -1.1404 -2.1259
 9485SOL    HW240089   2.112   1.467  13.448  2.1847 -1.4340  1.8636
 9486SOL     OW40090   0.276   3.020   2.975  0.6220 -0.1682  0.1210
 9486SOL    HW140091   0.279   3.009   2.880  2.5537 -1.1990  0.2951
 9486SOL    HW240092   0.324   3.103   2.981  1.0338 -0.4362  0.6005
 9487SOL     OW40093   2.278   4.259  16.665 -0.3335  0.2936 -0.3915
 9487SOL    HW140094   2.218   4.249  16.738 -1.1345  1.8938 -0.8262
 9487SOL    HW240095   2.352   4.307  16.702  0.0912 -0.7219  0.0496
 9488SOL     OW40096   3.443   2.513   8.464  0.1243  0.1982  0.3047
 9488SOL    HW140097   3.372   2.572   8.491  1.4233  0.3012  3.5020
 9488SOL    HW240098   3.499   2.521   8.541  1.4447 -0.1272 -0.6121
 9489SOL     OW40099   0.793   1.001  12.665  0.2865  0.5944  0.0989
 9489SOL    HW140100   0.766   1.068  12.601  0.2955  0.6244  0.1267
 9489SOL    HW240101   0.718   0.985  12.722  0.1869  1.4826  0.2136
 9490SOL     OW40102   3.297   4.295   7.677 -0.1572  0.2842  0.2285
 9490SOL    HW140103   3.298   4.249   7.593 -0.9302 -1.1431  0.9974
 9490SOL    HW240104   3.201   4.304   7.681 -0.3181 -0.9182 -0.7635
 9491SOL     OW40105   4.425   4.481  17.470 -0.5319 -0.1455 -0.0046
 9491SOL    HW140106   4.332   4.494  17.451 -0.7878  0.0856  1.4012
 9491SOL    HW240107   4.474   4.519  17.396  1.8798  1.7274  2.5269
 9492SOL     OW40108   2.744   0.601   4.389  0.1327  0.9141 -0.1630
 9492SOL    HW140109   2.805   0.544   4.342  1.5930  1.3942  1.1308
 9492SOL    HW240110   2.667   0.548   4.405  0.1523  0.4006 -1.7206
 9493SOL     OW40111   2.450   0.628  12.145 -0.2614 -0.4734 -0.1980
 9493SOL    HW140112   2.390   0.607  12.217 -2.4529  1.6897 -1.3775
 9493SOL    HW240113   2.517   0.685  12.182  0.3261 -1.9965  1.0919
 9494SOL     OW40114   2.010   0.547   8.691 -0.5150  0.3452  0.6438
 9494SOL    HW140115   2.065   0.617   8.727  0.1867  0.1044  0.0124
 9494SOL    HW240116   2.018   0.487   8.766  1.0237 -0.2662 -0.0087
 9495SOL     OW40117   1.942   3.804  14.297  0.3827  0.5882 -0.3078
 9495SOL    HW140118   1.979   3.858  14.366  0.5601 -0.8710  0.7311
 9495SOL    HW240119   1.975   3.718  14.321 -2.3187  0.0616  1.5085
 9496SOL     OW40120   2.291   1.566   8.059  0.2248 -0.0712 -0.2051
 9496SOL    HW140121   2.375   1.594   8.094  2.1926 -3.4524 -2.2291
 9496SOL    HW240122   2.232   1.597   8.128  0.6619  0.7105 -0.1825
 9497SOL     OW40123   3.830   2.707  12.555 -0.2114  0.4914  0.2787
 9497SOL    HW140124   3.787   2.723  12.639  2.2850 -0.1381  1.7000
 9497SOL    HW240125   3.916   2.745  12.577  0.5090 -0.3380 -1.1174
 9498SOL     OW40126   4.405   2.937   7.003  0.0325 -0.0171 -0.4499
 9498SOL    HW140127   4.313   2.910   7.005  0.2143 -0.6224 -0.4836
 9498SOL    HW240128   4.437   2.914   7.090  1.0517  2.2950 -0.1980
 9499SOL     OW40129   4.042   1.664   3.020 -0.3580 -0.7285  0.1448
 9499SOL    HW140130   4.097   1.646   2.943 -0.6380  0.1222 -0.2484
 9499SOL    HW240131   3.964   1.701   2.980 -0.0260  0.2674  0.4156
 9500SOL     OW40132   2.330   0.034   2.189  0.3652 -0.8197  0.6076
 9500SOL    HW140133   2.387   4.701   2.228  1.1293 -0.4745  0.0966
 9500SOL    HW240134   2.325   0.006   2.097 -0.5037 -2.8803  1.2697
 9501SOL     OW40135   1.166   4.441   9.450  0.0423 -0.1925  0.2746
 9501SOL    HW140136   1.072   4.425   9.458  0.0669 -0.6104 -0.2698
 9501SOL    HW240137   1.171   4.531   9.482  0.6650  0.6030 -2.1004
 9502SOL     OW40138   2.712   0.859  12.161  0.5290  0.2785  0.4908
 9502SOL    HW140139   2.742   0.950  12.164 -0.2910  0.4995  1.7546
 9502SOL    HW240140   2.797   0.824  12.131 -0.6902 -2.4130  0.2014
 9503SOL     OW40141   2.324   2.126  17.125  0.4224 -0.0724  0.1188
 9503SOL    HW140142   2.292   2.211  17.155  0.6403  1.0764 -2.8865
 9503SOL    HW240143   2.242   2.077  17.120  0.1610  0.5955 -2.1376
 9504SOL     OW40144   3.159   1.909  16.926 -0.2689  0.2636  0.1117
 9504SOL    HW140145   3.090   1.883  16.987  0.9184  0.8397  1.7269
 9504SOL    HW240146   3.154   1.828  16.876  2.1240  0.9407 -1.2046
 9505SOL     OW40147   3.636   1.789   7.790 -0.4582  0.2729  0.4970
 9505SOL    HW140148   3.630   1.880   7.819  0.4760  0.6119 -0.3408
 9505SOL    HW240149   3.641   1.805   7.695 -2.7802 -0.3727  0.2835
 9506SOL     OW40150   1.074   0.463   8.370  0.3973 -0.1636  0.4350
 9506SOL    HW140151   1.002   0.400   8.380 -0.4626  0.2869 -2.7257
 9506SOL    HW240152   1.125   0.427   8.442  1.8156  2.7031  0.8417
 9507SOL     OW40153   4.654   3.177   8.767 -0.0252 -0.0272 -0.3722
 9507SOL    HW140154   4.565   3.206   8.750 -0.1512  0.8248  1.8356
 9507SOL    HW240155   4.673   3.142   8.679  0.6147  2.2646 -1.1459
 9508SOL     OW40156   1.694   4.031   3.109  0.6280 -0.0950  0.3914
 9508SOL    HW140157   1.687   3.946   3.150  1.0008  0.1994  1.0612
 9508SOL    HW240158   1.733   4.012   3.023  1.1729  0.2676  0.5543
 9509SOL     OW40159   1.972   3.152   6.955  0.1348 -0.3164 -0.0064
 9509SOL    HW140160   2.061   3.119   6.947  0.4765  0.7925 -0.9210
 9509SOL    HW240161   1.947   3.134   6.864  0.1411 -2.0127  0.3403
 9510SOL     OW40162   0.392   1.914   7.145 -0.4154 -0.0618  0.1818
 9510SOL    HW140163   0.342   1.994   7.158  0.2383  0.3877 -0.0525
 9510SOL    HW240164   0.346   1.852   7.201  0.3826 -1.2869 -0.5153
 9511SOL     OW40165   0.924   3.190   9.416 -0.5184  0.0138  0.2557
 9511SOL    HW140166   0.974   3.109   9.426  0.7408  0.7135 -0.4282
 9511SOL    HW240167   0.920   3.224   9.505 -0.4427  0.4639  0.0889
 9512SOL     OW40168   3.118   3.945   4.101  0.4282 -0.4619  0.0477
 9512SOL    HW140169   3.133   3.861   4.057  1.8535 -0.7968  1.2060
 9512SOL    HW240170   3.036   3.915   4.142 -0.5489 -1.1226 -2.3534
 9513SOL     OW40171   4.263   4.495   4.182 -0.7256  0.1993  0.6685
 9513SOL    HW140172   4.200   4.488   4.254 -0.3508 -3.4299  0.6388
 9513SOL    HW240173   4.230   4.428   4.122 -0.1495 -0.2245  0.8200
 9514SOL     OW40174   2.315   0.987   7.062  0.9187  0.1966  0.4083
 9514SOL    HW140175   2.269   0.994   7.146  0.7710  1.1920  0.2376
 9514SOL    HW240176   2.284   0.907   7.019  1.3598  0.4813 -0.4390
 9515SOL     OW40177   0.535   1.049   5.848 -0.4411  0.3874  0.4400
 9515SOL    HW140178   0.472   1.118   5.825 -0.0236  0.7230  0.3048
 9515SOL    HW240179   0.607   1.092   5.801 -1.6447  1.8415 -0.0886
 9516SOL     OW40180   0.037   3.298   2.531  0.3250  0.2250  0.6200
 9516SOL    HW140181   0.092   3.370   2.499 -1.3112  0.0261 -2.6059
 9516SOL    HW240182   0.019   3.315   2.624 -0.5515  0.8518  0.3414
 9517SOL     OW40183   1.162   1.133   6.708 -0.1988 -0.3783  0.2724
 9517SOL    HW140184   1.126   1.190   6.640 -0.7096 -0.7045  0.2691
 9517SOL    HW240185   1.252   1.158   6.688 -1.0204  0.4738 -2.4507
 9518SOL     OW40186   0.129   4.006   4.437 -0.3705  0.5417 -0.7497
 9518SOL    HW140187   0.078   4.071   4.486  1.3548  0.6287  0.9328
 9518SOL    HW240188   0.159   3.958   4.514 -3.6069 -0.5813 -0.1710
 9519SOL     OW40189   0.369   1.139  10.628  0.4054 -0.2503 -0.6866
 9519SOL    HW140190   0.300   1.074  10.618  2.0634 -2.4876  2.3469
 9519SOL    HW240191   0.339   1.194  10.700  1.9306  0.7967 -0.8519
 9520SOL     OW40192   1.037   2.918  17.304  0.3348 -0.2771 -0.1541
 9520SOL    HW140193   1.087   2.854  17.253 -0.1668 -0.6413 -0.1930
 9520SOL    HW240194   1.024   2.988  17.240 -1.5574 -0.0208  0.5314
 9521SOL     OW40195   2.919   4.537  13.324  0.0278  0.2663  0.1394
 9521SOL    HW140196   2.915   4.441  13.323 -1.8721  0.3368  0.2252
 9521SOL    HW240197   2.844   4.567  13.272  1.8711  2.8424 -1.0304
 9522SOL     OW40198   4.062   3.087  11.833 -0.4790 -0.0658  0.0504
 9522SOL    HW140199   4.055   3.035  11.753  1.2920  0.3533 -0.3736
 9522SOL    HW240200   3.994   3.039  11.880 -0.3893  1.3990  1.6668
 9523SOL     OW40201   4.270   3.651  16.106 -0.0025  0.2143 -0.0040
 9523SOL    HW140202   4.238   3.561  16.101 -1.8407  1.0315 -2.7368
 9523SOL    HW240203   4.345   3.638  16.164 -0.0591  2.2186  0.5251
 9524SOL     OW40204   2.775   1.742   3.733 -0.1543  0.2958  0.0752
 9524SOL    HW140205   2.706   1.798   3.696 -1.8807 -0.5610  2.0144
 9524SOL    HW240206   2.745   1.656   3.705  2.1430 -0.5937  0.3907
 9525SOL     OW40207   2.057   4.150   3.302  0.1604  0.2163  0.2999
 9525SOL    HW140208   2.136   4.177   3.348  1.1402 -0.4142 -1.0138
 9525SOL    HW240209   2.094   4.087   3.240  1.1789  0.0497  1.0817
 9526SOL     OW40210   3.038   4.475   8.638 -0.4021 -0.6343  0.6547
 9526SOL    HW140211   3.130   4.454   8.622  0.0867  0.6080  1.8205
 9526SOL    HW240212   3.006   4.404   8.694 -1.8487 -0.2612  0.2981
 9527SOL     OW40213   2.967   1.314   8.683  0.2557  0.5001 -0.0373
 9527SOL    HW140214   2.924   1.253   8.743  1.0276 -0.0209 -0.0060
 9527SOL    HW240215   3.038   1.264   8.643  1.6938  2.0383  0.5839
 9528SOL     OW40216   0.680   4.072  11.624  0.0853 -0.0767  0.5762
 9528SOL    HW140217   0.727   4.008  11.677 -0.2523 -1.3395 -0.6425
 9528SOL    HW240218   0.593   4.033  11.615 -0.7984  1.7694  1.0067
 9529SOL     OW40219   3.579   1.471  16.885  0.5995  0.5480  0.6528
 9529SOL    HW140220   3.559   1.385  16.923  1.2543 -0.3655 -1.0540
 9529SOL    HW240221   3.497   1.519  16.899  2.6974  3.4335  2.8676
 9530SOL     OW40222   4.498   3.135   2.638  0.2125 -0.2005  0.2959
 9530SOL    HW140223   4.491   3.221   2.678  1.2278 -0.5703  1.2714
 9530SOL    HW240224   4.460   3.077   2.705 -1.4798 -0.9939 -1.3712
 9531SOL     OW40225   1.165   3.860   1.716  0.6438  0.0865  0.0475
 9531SOL    HW140226   1.149   3.954   1.703 -0.7528 -0.1840 -0.1873
 9531SOL    HW240227   1.139   3.821   1.633 -0.3460  0.6835  0.0719
 9532SOL     OW40228   3.037   2.560   3.659  0.4267 -0.0486 -0.0254
 9532SOL    HW140229   3.004   2.522   3.577 -0.2780 -1.8044  1.0744
 9532SOL    HW240230   3.127   2.527   3.660  0.5808  0.4460  2.2721
 9533SOL     OW40231   0.464   2.218   4.040 -0.4859 -0.2605 -0.1456
 9533SOL    HW140232   0.464   2.123   4.029 -0.7469 -0.4412  1.5198
 9533SOL    HW240233   0.558   2.237   4.032 -0.4628 -0.6219 -0.8247
 9534SOL     OW40234   3.656   2.790   8.402  0.4403  0.4735 -0.9163
 9534SOL    HW140235   3.596   2.758   8.335  0.4949  1.4112 -1.4107
 9534SOL    HW240236   3.725   2.726   8.387 -0.4727 -0.5456 -0.8036
 9535SOL     OW40237   2.662   1.830   5.148  0.2001  0.2836  0.1417
 9535SOL    HW140238   2.624   1.896   5.090  1.2352  0.8517  0.1310
 9535SOL    HW240239   2.587   1.780   5.181 -0.1487  1.1557  0.6804
 9536SOL     OW40240   1.669   1.740   5.250 -0.2894  0.6613  0.0427
 9536SOL    HW140241   1.637   1.789   5.175 -1.6320  0.0928  0.2364
 9536SOL    HW240242   1.596   1.742   5.312 -0.0240 -0.3531  0.3844
 9537SOL     OW40243   0.461   4.412   3.555 -0.0372  0.6332  0.9225
 9537SOL    HW140244   0.544   4.391   3.514 -0.6272 -1.8103  0.9532
 9537SOL    HW240245   0.402   4.401   3.480  0.2458  0.1263  0.7787
 9538SOL     OW40246   1.341   1.429   5.515 -0.0838 -0.5539 -0.5555
 9538SOL    HW140247   1.396   1.355   5.491 -2.2168 -2.3202 -0.1146
 9538SOL    HW240248   1.301   1.416   5.602  0.7454 -3.0943 -0.5610
 9539SOL     OW40249   0.200   0.464   1.353 -0.1098 -0.0064 -0.1534
 9539SOL    HW140250   0.181   0.439   1.444  0.0103 -3.2837 -1.0536
 9539SOL    HW240251   0.158   0.550   1.361  1.6752  1.0623 -2.6320
 9540SOL     OW40252   2.058   0.311  10.840 -0.6498 -0.2590 -0.0587
 9540SOL    HW140253   2.148   0.341  10.854 -0.1796 -0.4415 -2.7845
 9540SOL    HW240254   2.040   0.364  10.763 -0.6612 -2.4372 -1.5404
 9541SOL     OW40255   3.558   2.831  16.830 -0.1400  0.7141 -0.0309
 9541SOL    HW140256   3.598   2.807  16.913 -2.5569  0.4458  1.0741
 9541SOL    HW240257   3.539   2.923  16.847  0.9558  0.7070  1.2259
 9542SOL     OW40258   1.991   3.242  16.999  0.1449 -0.0644  0.3261
 9542SOL    HW140259   2.035   3.220  16.917  0.0646  0.2892  0.1874
 9542SOL    HW240260   2.032   3.327  17.016 -1.0517  0.4463  0.7181
 9543SOL     OW40261   1.364   0.055   5.514  0.6134  0.4935  0.5369
 9543SOL    HW140262   1.383   0.084   5.424 -1.0520  0.6609  0.2395
 9543SOL    HW240263   1.377   0.137   5.562 -0.4709  1.1735 -0.3278
 9544SOL     OW40264   2.243   3.180   7.116 -0.2892  0.0966 -0.0591
 9544SOL    HW140265   2.260   3.267   7.151  1.4196 -0.1121 -0.3478
 9544SOL    HW240266   2.309   3.181   7.047 -1.0734 -0.0945 -0.8148
 9545SOL     OW40267   1.361   1.157  17.608  0.2692  0.5635 -0.2829
 9545SOL    HW140268   1.286   1.204  17.572 -0.0730 -0.3037 -0.7001
 9545SOL    HW240269   1.430   1.215  17.578  0.7447  0.9210  1.4834
 9546SOL     OW40270   1.064   2.878  15.788 -0.0187 -0.1852  0.7373
 9546SOL    HW140271   1.158   2.865  15.773 -0.0270 -0.2665  0.7596
 9546SOL    HW240272   1.068   2.966  15.750 -0.1862  0.6453  2.6589
 9547SOL     OW40273   3.326   3.494   4.161 -0.0382  0.0111 -0.6872
 9547SOL    HW140274   3.271   3.429   4.205 -0.4237  0.1591 -0.9490
 9547SOL    HW240275   3.276   3.575   4.149 -1.0118 -0.4703  0.1534
 9548SOL     OW40276   0.842   2.588   8.979  0.6232 -0.3162 -0.0727
 9548SOL    HW140277   0.922   2.546   8.947 -1.2036 -2.9308 -1.2086
 9548SOL    HW240278   0.809   2.621   8.896 -1.0069  0.3228  0.8172
 9549SOL     OW40279   4.699   1.427   0.939  0.2500  0.0006  0.2047
 9549SOL    HW140280   4.605   1.415   0.925 -0.1150  0.9081  1.8923
 9549SOL    HW240281   0.004   1.405   0.855 -1.1003 -2.5768  0.2498
 9550SOL     OW40282   4.410   2.083  12.241  0.3373  0.8859  0.0571
 9550SOL    HW140283   4.357   2.083  12.320  0.8501  0.6305  0.3976
 9550SOL    HW240284   4.489   2.059  12.290 -0.6175 -0.5640  0.8665
 9551SOL     OW40285   4.517   0.811   8.334  0.0354  0.4617 -0.0265
 9551SOL    HW140286   4.478   0.876   8.393 -0.8565  1.3369 -1.5685
 9551SOL    HW240287   4.572   0.773   8.402 -0.9342  0.5773  0.8299
 9552SOL     OW40288   4.137   0.738   4.386 -0.3248  0.3493 -0.0061
 9552SOL    HW140289   4.110   0.693   4.466 -0.0607  0.1002 -0.0589
 9552SOL    HW240290   4.088   0.820   4.385 -0.0114  0.5624  2.0752
 9553SOL     OW40291   3.311   1.930   7.639  0.4011  0.3668  0.4190
 9553SOL    HW140292   3.231   1.926   7.586 -0.1584 -0.5830  1.3074
 9553SOL    HW240293   3.338   1.841   7.616 -1.6836  0.0646 -0.8952
 9554SOL     OW40294   0.246   3.154  16.586 -0.2949  0.5720 -0.3992
 9554SOL    HW140295   0.226   3.110  16.504  0.0025 -1.6882  0.7569
 9554SOL    HW240296   0.341   3.142  16.597 -0.4230 -0.4831 -0.4643
 9555SOL     OW40297   0.490   0.240   2.868  0.1619  0.1223 -0.2666
 9555SOL    HW140298   0.489   0.147   2.893  1.7526  0.4092  0.8378
 9555SOL    HW240299   0.550   0.245   2.794  0.8155  0.2765  0.2796
 9556SOL     OW40300   0.275   1.970   8.197 -0.1319  0.1306  0.3843
 9556SOL    HW140301   0.351   2.028   8.190 -0.0558 -0.0401 -0.1723
 9556SOL    HW240302   0.211   2.013   8.140  1.0362  0.5639 -0.5998
 9557SOL     OW40303   1.135   1.562   6.782  0.0443 -0.0031  0.9018
 9557SOL    HW140304   1.052   1.606   6.803  0.1228 -0.4448  2.1212
 9557SOL    HW240305   1.200   1.608   6.835  2.1670 -3.4675  1.2379
 9558SOL     OW40306   0.757   0.454   9.328 -0.3175 -0.0060 -0.0522
 9558SOL    HW140307   0.780   0.528   9.272 -0.5035  0.6549  0.7504
 9558SOL    HW240308   0.661   0.455   9.321 -0.1799  3.0026 -1.6862
 9559SOL     OW40309   0.372   1.457   9.643 -0.0352  0.1346 -0.3687
 9559SOL    HW140310   0.294   1.512   9.641 -0.5934 -0.6425  0.3730
 9559SOL    HW240311   0.353   1.415   9.727  2.5108  0.5309  0.4041
 9560SOL     OW40312   1.719   0.542   2.971  0.7324  0.1804  0.5461
 9560SOL    HW140313   1.809   0.519   2.948 -0.4948 -2.5986 -1.4107
 9560SOL    HW240314   1.691   0.627   2.937  0.4329 -0.5618 -1.0267
 9561SOL     OW40315   3.063   3.333  11.621 -0.5223  0.3262 -0.0398
 9561SOL    HW140316   3.154   3.318  11.645 -0.1338 -2.3052 -3.1351
 9561SOL    HW240317   3.019   3.339  11.706 -1.2705 -1.9284 -0.2510
 9562SOL     OW40318   0.623   2.044  17.397  0.1590 -0.2852 -0.1343
 9562SOL    HW140319   0.632   2.111  17.465  1.1770  1.1851 -1.7318
 9562SOL    HW240320   0.528   2.048  17.381  0.1569 -0.4292 -0.1521
 9563SOL     OW40321   0.291   2.069   6.031  0.2779  0.1969 -0.0304
 9563SOL    HW140322   0.205   2.030   6.012  2.0753 -2.6004 -2.3706
 9563SOL    HW240323   0.264   2.159   6.052 -0.1745  0.5833 -2.3357
 9564SOL     OW40324   0.944   4.216  13.191  0.5092  0.5919 -0.3408
 9564SOL    HW140325   0.986   4.300  13.208  0.9181  0.2069  0.5763
 9564SOL    HW240326   0.956   4.227  13.097 -0.3772 -1.0736 -0.6431
 9565SOL     OW40327   2.749   1.047   3.852 -0.3883  0.2393  0.1954
 9565SOL    HW140328   2.835   1.054   3.810 -1.2744  1.2809 -1.4297
 9565SOL    HW240329   2.727   0.956   3.833 -0.3982  0.4159 -0.6450
 9566SOL     OW40330   3.682   0.294   3.771  0.2184  0.3578  0.1708
 9566SOL    HW140331   3.644   0.373   3.733 -0.0985  0.4747  0.7296
 9566SOL    HW240332   3.715   0.249   3.693  0.2206 -1.6541  1.3321
 9567SOL     OW40333   0.994   3.557  15.460  0.3891  0.7168  0.4333
 9567SOL    HW140334   1.026   3.572  15.549  1.4423  0.7527  0.0434
 9567SOL    HW240335   0.968   3.466  15.474 -0.6398  0.9447  0.0463
 9568SOL     OW40336   2.954   2.256   6.383 -0.2378 -0.3753  0.1395
 9568SOL    HW140337   3.010   2.247   6.460  1.4958 -3.1524 -1.4479
 9568SOL    HW240338   2.950   2.349   6.358 -1.4314  0.0388  1.9151
 9569SOL     OW40339   3.789   0.866   8.636 -0.3297 -0.3183  0.0457
 9569SOL    HW140340   3.711   0.916   8.614 -1.1818 -1.1879  1.0450
 9569SOL    HW240341   3.799   0.870   8.731  0.1264  0.0520 -0.0199
 9570SOL     OW40342   4.553   1.218   8.915 -0.3705  0.1423 -0.0983
 9570SOL    HW140343   4.636   1.249   8.950  0.0138  0.6536 -1.4602
 9570SOL    HW240344   4.493   1.267   8.972 -0.2136 -1.7969  1.7219
 9571SOL     OW40345   4.672   1.874   2.588 -0.5072 -0.1633 -0.4907
 9571SOL    HW140346   0.025   1.878   2.628  0.1418  1.9527 -2.1268
 9571SOL    HW240347   4.661   1.780   2.576 -3.9566 -0.1846  2.6337
   4.73412   4.73412  17.73556
