Membrane in water
40347
    1TMC1    C1    1   0.235   1.213  11.376  0.5403  0.4028 -0.1941
    1TMC1    C2    2   0.362   1.271  11.374  0.0904 -0.8508 -1.0320
    1TMC1    C3    3   0.378   1.403  11.358 -0.4210 -0.4769  0.0175
    1TMC1    C4    4   0.125   1.287  11.355  0.1044 -0.0983 -0.2444
    1TMC1    C5    5   0.149   1.419  11.330  0.1113  0.7988  0.5961
    1TMC1    C6    6   0.276   1.485  11.335  1.0499 -0.1226 -0.8665
    1TMC1     C    7   0.221   1.071  11.367  0.0710 -0.6171  0.9324
    1TMC1     O    8   0.112   1.020  11.382 -0.0011 -0.3812 -0.1958
    1TMC1     H    9   0.447   1.211  11.405  0.2157  0.3957  1.0234
    1TMC1    H1   10   0.033   1.233  11.339  0.8600 -0.5457 -3.0970
    1TMC1    H2   11   0.281   1.593  11.334 -2.1200  0.0606  1.7283
    1TMC1    C7   12   0.038   1.510  11.304  0.3673  0.2082  0.1438
    1TMC1    C8   13   0.508   1.457  11.357  0.8176  0.1352 -0.1821
    1TMC1    O1   14   0.049   1.608  11.236 -0.4281 -0.5114 -0.3575
    1TMC1    O2   15   0.607   1.416  11.299 -0.0532  0.2339  0.1634
    1TMC1    O3   16   4.657   1.454  11.331  0.0127  0.0773  0.3565
    1TMC1    H3   17   4.665   1.381  11.397  1.4556 -1.4115 -1.4844
    1TMC1    O5   18   0.508   1.566  11.432  0.3277  0.1770  0.4569
    1TMC1    H5   19   0.422   1.581  11.477 -0.7446 -0.7228 -1.2651
    2MPD2     C   20   0.456   0.604  11.344 -0.4343 -0.6069  0.0111
    2MPD2    C1   21   0.320   0.639  11.366  0.4278  0.0622 -1.4498
    2MPD2    C2   22   0.285   0.773  11.347 -0.5995  0.0820  0.3756
    2MPD2    C3   23   0.372   0.876  11.326  0.1850 -0.9667 -0.2049
    2MPD2    C4   24   0.503   0.839  11.300  0.0912  0.2330 -0.7696
    2MPD2    C5   25   0.541   0.708  11.311 -0.2419 -0.2986 -0.0979
    2MPD2     H   26   0.180   0.799  11.348 -0.9189 -1.1899 -0.9524
    2MPD2    H1   27   0.582   0.912  11.286  1.1195 -0.6185  0.5328
    2MPD2    H2   28   0.495   0.504  11.362 -1.1311 -0.9746 -0.5053
    2MPD2    H3   29   0.644   0.683  11.289  0.0838 -1.2280  2.5058
    2MPD2     N   30   0.339   1.013  11.314  0.4577  0.2310 -0.2138
    2MPD2    H5   31   0.416   1.076  11.295 -0.8310  1.9640  0.2847
    2MPD2    N1   32   0.223   0.546  11.410  0.1751 -0.0276 -0.4346
    2MPD2    H7   33   0.136   0.598  11.413 -0.5664 -1.2266 -1.6888
    3TMC1    C1   34   3.948   1.736  10.555 -0.2593  0.1102 -0.0650
    3TMC1    C2   35   3.954   1.872  10.520  0.8175  0.2786 -0.2894
    3TMC1    C3   36   4.012   1.910  10.403  0.4164 -1.0677  0.2386
    3TMC1    C4   37   4.026   1.644  10.486 -0.2157 -0.1838 -0.7371
    3TMC1    C5   38   4.095   1.689  10.384 -0.8525  0.2316 -0.3101
    3TMC1    C6   39   4.089   1.820  10.332 -0.0043 -0.2539  0.1515
    3TMC1     C   40   3.895   1.687  10.678  0.7693 -0.1452 -0.0572
    3TMC1     O   41   3.918   1.569  10.698  0.3640  0.1337  0.3887
    3TMC1     H   42   3.883   1.944  10.560 -0.3015 -0.1196 -1.5467
    3TMC1    H1   43   4.032   1.540  10.517 -0.2639 -0.1524 -0.6236
    3TMC1    H2   44   4.154   1.857  10.254  0.7309  0.2607  1.0199
    3TMC1    C7   45   4.198   1.604  10.345  0.7280 -0.4005 -0.0466
    3TMC1    C8   46   4.024   2.049  10.369  0.3987 -0.0459  0.1560
    3TMC1    O1   47   4.191   1.483  10.323  0.2141  0.1450  0.0879
    3TMC1    O2   48   3.933   2.129  10.380  0.4809  0.2285  0.5189
    3TMC1    O3   49   4.309   1.683  10.337 -0.5179 -0.0294 -0.2626
    3TMC1    H3   50   4.302   1.770  10.380  0.3661 -1.1657  2.2066
    3TMC1    O5   51   4.156   2.075  10.348  0.0140 -0.5162 -0.4380
    3TMC1    H5   52   4.209   2.012  10.401  1.0953  1.1290  0.4751
    4MPD2     C   53   3.623   1.687  11.115  0.1431 -0.3709  0.3332
    4MPD2    C1   54   3.655   1.817  11.078  0.4491 -0.0988 -0.1609
    4MPD2    C2   55   3.719   1.843  10.961 -0.0613 -0.3724 -0.6758
    4MPD2    C3   56   3.758   1.743  10.877 -0.5291 -0.3272 -0.1509
    4MPD2    C4   57   3.724   1.616  10.916 -0.0693  0.3956 -0.4913
    4MPD2    C5   58   3.650   1.588  11.030 -0.1969 -0.0079 -0.4737
    4MPD2     H   59   3.744   1.946  10.937 -0.2645  0.0205  0.7785
    4MPD2    H1   60   3.759   1.529  10.862  0.1483  1.6362 -2.3238
    4MPD2    H2   61   3.564   1.660  11.202  0.5147  0.7504  0.9301
    4MPD2    H3   62   3.619   1.487  11.055 -2.0237  1.5761  3.5919
    4MPD2     N   63   3.828   1.779  10.757 -0.5104 -0.2265  0.8877
    4MPD2    H5   64   3.831   1.875  10.726 -1.2025 -0.0152  1.4578
    4MPD2    N1   65   3.626   1.925  11.162 -0.7224  0.1239  0.6162
    4MPD2    H7   66   3.651   2.017  11.125 -1.1050 -0.7506 -1.8625
    5TCq1    O1   67   0.124   3.968  12.319  0.3176 -0.1594 -0.3868
    5TCq1    C1   68   0.100   3.840  12.358 -0.0567 -0.1294  0.9387
    5TCq1    O2   69   0.120   3.808  12.472 -0.0698  0.7175  0.0849
    5TCq1    C2   70   0.119   3.749  12.250 -0.0894 -0.6205 -0.2265
    5TCq1    C3   71   0.175   3.624  12.287  0.3225  0.1358 -0.3947
    5TCq1    C4   72   0.164   3.525  12.193 -0.2516 -0.6223 -0.0989
    5TCq1    C5   73   0.090   3.547  12.080  0.1382  0.0506 -0.3025
    5TCq1    C6   74   0.026   3.666  12.054 -0.1725 -0.4522  0.0621
    5TCq1    C7   75   0.034   3.769  12.141 -0.2248  0.1418 -0.3140
    5TCq1    C8   76   4.669   3.665  11.952 -0.3140  0.3107  1.0138
    5TCq1    O4   77   4.668   3.568  11.878  0.4480 -0.7304 -0.0895
    5TCq1    C9   78   0.203   3.402  12.242  0.9545  0.5613 -0.0653
    5TCq1    O5   79   0.148   3.297  12.198 -0.1253  0.2647  0.1797
    5TCq1    O6   80   0.262   3.404  12.351  0.1422 -0.2139  0.1921
    5TCq1    H1   81   0.146   3.965  12.223  1.8410  1.3226 -0.0905
    5TCq1    H2   82   0.229   3.618  12.381  1.1717  2.2855 -0.7418
    5TCq1    H3   83   0.073   3.471  12.004 -1.1278 -0.6087  0.6515
    5TCq1    H4   84   4.737   3.869  12.120 -2.2483 -0.9934 -2.0663
    6MPD2     C   85   4.343   3.830  11.920 -0.1779  0.4707 -0.3288
    6MPD2    C1   86   4.461   3.770  11.881  0.4910  0.2751 -0.7793
    6MPD2    C2   87   4.463   3.718  11.754 -0.3385 -0.7737 -0.3463
    6MPD2    C3   88   4.349   3.711  11.672 -0.0867 -0.1446 -0.3526
    6MPD2    C4   89   4.237   3.775  11.715  0.5848 -0.3560  0.2188
    6MPD2    C5   90   4.231   3.826  11.845  0.7166  0.1031  0.6235
    6MPD2     H   91   4.549   3.668  11.712 -0.4315 -0.4202 -0.9681
    6MPD2    H1   92   4.151   3.776  11.650  0.2605 -1.8172  0.6289
    6MPD2    H2   93   4.338   3.854  12.025  1.2439  0.9371 -0.3680
    6MPD2    H3   94   4.137   3.867  11.882  0.9231  1.6158 -0.5197
    6MPD2     N   95   4.351   3.638  11.553 -0.2598  0.1960 -0.2558
    6MPD2    H5   96   4.439   3.598  11.522  0.0049  0.9452 -0.4772
    6MPD2    N1   97   4.568   3.753  11.970  0.5397 -0.0686  0.0774
    6MPD2    H7   98   4.559   3.807  12.056  1.4216 -1.3259  0.9483
    7TCq1    O1   99   1.397   2.829  12.985  0.4704 -0.2565 -0.0412
    7TCq1    C1  100   1.434   2.813  12.857  0.7516  0.2835 -0.3503
    7TCq1    O2  101   1.431   2.884  12.759 -0.2912  0.2666 -0.4309
    7TCq1    C2  102   1.488   2.680  12.827 -0.8220  0.1743 -0.3538
    7TCq1    C3  103   1.465   2.634  12.700 -0.1662  0.5960  0.1056
    7TCq1    C4  104   1.535   2.524  12.653  0.0412 -0.3306  0.1553
    7TCq1    C5  105   1.642   2.469  12.728  0.1392 -0.1721 -0.0204
    7TCq1    C6  106   1.657   2.519  12.855 -0.3309  0.7995  0.7316
    7TCq1    C7  107   1.583   2.623  12.908 -0.0342  0.2800  0.7065
    7TCq1    C8  108   1.752   2.441  12.943 -0.1495  0.0780 -0.8902
    7TCq1    O4  109   1.790   2.328  12.904 -0.3336 -0.6751 -0.9954
    7TCq1    C9  110   1.495   2.463  12.524  0.1420 -0.1891 -0.5594
    7TCq1    O5  111   1.389   2.501  12.462 -0.1739  0.3861  0.6281
    7TCq1    O6  112   1.572   2.374  12.482  0.4826 -0.3273  0.2901
    7TCq1    H1  113   1.404   2.742  13.030  1.8236 -0.7160 -1.1399
    7TCq1    H2  114   1.389   2.678  12.636  2.5692  2.3642 -1.8669
    7TCq1    H3  115   1.691   2.380  12.691  0.2983  0.4589 -1.3464
    7TCq1    H4  116   1.607   2.677  12.999 -0.4265  0.9429  0.4115
    8MPD2     C  117   1.973   2.320  13.384 -0.4947  0.6155  0.1110
    8MPD2    C1  118   1.954   2.237  13.277 -0.6029  0.5614 -0.0444
    8MPD2    C2  119   1.882   2.296  13.172 -0.0999  0.4827  0.0162
    8MPD2    C3  120   1.845   2.431  13.176 -0.1734 -0.2639 -0.5808
    8MPD2    C4  121   1.873   2.508  13.289  0.0297 -0.1986 -0.2196
    8MPD2    C5  122   1.935   2.452  13.391  0.7393  0.1182 -0.7813
    8MPD2     H  123   1.860   2.237  13.083  0.3841  1.7753 -0.9580
    8MPD2    H1  124   1.843   2.612  13.299  0.8702  0.1627 -1.4339
    8MPD2    H2  125   2.027   2.275  13.467  1.0750  1.6125 -0.3765
    8MPD2    H3  126   1.937   2.509  13.484 -0.8425 -0.8561 -0.1407
    8MPD2     N  127   1.772   2.490  13.070 -0.0720  0.4889  0.1395
    8MPD2    H5  128   1.742   2.585  13.092 -0.3696  0.0436  1.6715
    8MPD2    N1  129   2.003   2.110  13.284 -0.1440 -0.1846  0.1063
    8MPD2    H7  130   2.077   2.101  13.353 -0.3151  0.6598  0.3970
    9TMC1    C1  131   4.325   1.806  11.332  0.1493 -0.4605 -0.0914
    9TMC1    C2  132   4.322   1.685  11.264  0.6590 -0.1410  0.5226
    9TMC1    C3  133   4.422   1.662  11.179  0.3485 -0.0999  0.6723
    9TMC1    C4  134   4.434   1.892  11.326 -0.4283  0.3876 -0.3118
    9TMC1    C5  135   4.539   1.851  11.250 -0.0480 -0.3028 -0.0087
    9TMC1    C6  136   4.532   1.744  11.172 -0.1808 -0.9226 -0.6194
    9TMC1     C  137   4.225   1.835  11.433  0.2136  0.8300 -0.6506
    9TMC1     O  138   4.201   1.947  11.480 -0.2012 -0.1173 -0.3407
    9TMC1     H  139   4.227   1.637  11.247  0.4132  0.7075 -0.5333
    9TMC1    H1  140   4.442   1.968  11.403  1.3214 -1.3557  1.2053
    9TMC1    H2  141   4.614   1.723  11.104  0.0225 -0.6704 -0.4519
    9TMC1    C7  142   4.655   1.945  11.252 -0.1567 -0.1150 -0.0066
    9TMC1    C8  143   4.412   1.553  11.084  0.2958 -0.6484 -0.7841
    9TMC1    O1  144   4.644   2.062  11.282 -0.0649 -0.6690  0.1528
    9TMC1    O2  145   4.471   1.564  10.975 -0.4141  0.1250 -0.1136
    9TMC1    O3  146   0.032   1.878  11.260  0.1274  0.1249  0.3686
    9TMC1    H3  147   0.024   1.781  11.251  1.2747  0.0590  0.0808
    9TMC1    O5  148   4.385   1.436  11.140 -0.1755  0.0043  0.7174
    9TMC1    H5  149   4.344   1.452  11.228 -0.9540  2.8456 -0.1603
   10MPD2     C  150   4.068   1.789  11.687  0.6460  0.1215  0.0076
   10MPD2    C1  151   4.125   1.685  11.608  0.2392  0.3525 -0.7451
   10MPD2    C2  152   4.121   1.557  11.661 -0.2152 -0.2667  0.4688
   10MPD2    C3  153   4.061   1.530  11.781  0.1503  0.1716  0.3121
   10MPD2    C4  154   3.989   1.625  11.843 -0.4463 -0.0558  0.5095
   10MPD2    C5  155   4.007   1.754  11.805 -0.2433  0.6388  0.0572
   10MPD2     H  156   4.173   1.486  11.598 -0.7446 -1.9589  1.9122
   10MPD2    H1  157   3.922   1.615  11.927 -0.1408  0.2029  0.7825
   10MPD2    H2  158   4.077   1.895  11.669  2.4184 -0.1290 -0.6632
   10MPD2    H3  159   3.954   1.827  11.866 -1.4542  0.2252 -0.5002
   10MPD2     N  160   4.062   1.401  11.840  0.7767 -0.2174  0.3464
   10MPD2    H5  161   4.013   1.391  11.928 -1.0365  0.1872 -0.6033
   10MPD2    N1  162   4.193   1.708  11.483  0.1026 -0.6045  0.3811
   10MPD2    H7  163   4.238   1.633  11.432  0.0750 -1.4981  1.6793
   11TCq1    O1  164   0.450   1.539  14.603 -0.0597  0.2142 -0.0053
   11TCq1    C1  165   0.310   1.533  14.608 -0.0391  1.0693  0.0597
   11TCq1    O2  166   0.255   1.506  14.716 -0.2160 -0.1675 -0.4824
   11TCq1    C2  167   0.251   1.492  14.483 -0.7507  0.1452  0.4665
   11TCq1    C3  168   0.329   1.425  14.392  0.5498 -0.9611 -0.1629
   11TCq1    C4  169   0.268   1.369  14.288 -0.0678  0.4117 -0.3702
   11TCq1    C5  170   0.138   1.385  14.274  0.0964 -0.4703  0.7566
   11TCq1    C6  171   0.058   1.439  14.374  0.5505  0.8131 -0.5363
   11TCq1    C7  172   0.119   1.493  14.481  0.1963  0.3005  0.4104
   11TCq1    C8  173   4.652   1.451  14.357  0.1233 -0.0676 -0.2752
   11TCq1    O4  174   4.604   1.552  14.406  0.1636  0.1969  0.3644
   11TCq1    C9  175   0.342   1.283  14.194 -0.3074  0.0891 -0.8913
   11TCq1    O5  176   0.463   1.266  14.213  0.0401  0.2741  0.4372
   11TCq1    O6  177   0.280   1.253  14.085 -0.2219 -0.6939 -0.0868
   11TCq1    H1  178   0.462   1.579  14.513 -0.7608 -0.2769 -0.3193
   11TCq1    H2  179   0.437   1.425  14.399  0.3978 -0.2496  2.1591
   11TCq1    H3  180   0.104   1.357  14.175  0.4068  0.5131  0.3687
   11TCq1    H4  181   0.065   1.536  14.565  1.6987 -2.2330  2.7132
   12MPD2     C  182   4.370   1.409  14.292  0.6834 -0.2525  1.1426
   12MPD2    C1  183   4.469   1.332  14.247  0.1384  0.4863 -1.0006
   12MPD2    C2  184   4.430   1.211  14.184 -0.4882 -0.2124  0.2556
   12MPD2    C3  185   4.298   1.161  14.184 -0.7700  0.1417  0.4783
   12MPD2    C4  186   4.204   1.246  14.233 -0.7596  0.0671  0.0398
   12MPD2    C5  187   4.239   1.365  14.283  0.1128 -0.5428 -0.3039
   12MPD2     H  188   4.516   1.153  14.152 -1.7071 -0.8673 -1.8121
   12MPD2    H1  189   4.098   1.224  14.228 -0.8716  0.4585  0.6197
   12MPD2    H2  190   4.384   1.510  14.329  0.5286  0.7475 -1.5395
   12MPD2    H3  191   4.162   1.435  14.312  1.6399  1.0535 -0.0803
   12MPD2     N  192   4.253   1.034  14.133 -0.0175 -0.3796 -0.4439
   12MPD2    H5  193   4.152   1.031  14.133 -0.0284  0.0756  0.2736
   12MPD2    N1  194   4.608   1.357  14.268  0.8279 -0.2145 -0.2301
   12MPD2    H7  195   4.673   1.292  14.225  1.1947 -0.5200  0.7715
   13TCq1    O1  196   4.043   2.204  10.667 -0.1394 -0.0705 -0.3341
   13TCq1    C1  197   3.989   2.128  10.761  0.2357 -0.6787 -0.4501
   13TCq1    O2  198   3.884   2.065  10.754 -0.0806  0.3069  0.5637
   13TCq1    C2  199   4.103   2.046  10.804  0.7249 -0.5710 -0.4306
   13TCq1    C3  200   4.197   2.010  10.705 -0.2701 -0.6557 -0.6748
   13TCq1    C4  201   4.261   1.898  10.709  0.3505 -0.9400 -0.4327
   13TCq1    C5  202   4.241   1.807  10.812 -0.4502 -0.0818 -0.3526
   13TCq1    C6  203   4.152   1.844  10.910  0.1682  0.3253 -0.1813
   13TCq1    C7  204   4.082   1.959  10.907  0.3367  0.2713  0.3300
   13TCq1    C8  205   4.107   1.743  11.006 -0.1857  0.9512  0.4952
   13TCq1    O4  206   4.064   1.777  11.112  0.2059  0.0170 -0.4802
   13TCq1    C9  207   4.341   1.862  10.599 -0.2072  0.1262 -0.1720
   13TCq1    O5  208   4.302   1.910  10.491 -0.4018  0.4234 -0.2749
   13TCq1    O6  209   4.415   1.762  10.615 -0.0983 -0.0549  0.3429
   13TCq1    H1  210   4.136   2.232  10.683 -0.9015  2.4758 -0.3496
   13TCq1    H2  211   4.220   2.072  10.619 -1.6593 -0.2378 -0.7380
   13TCq1    H3  212   4.308   1.723  10.825  1.0339  1.3516  1.3274
   13TCq1    H4  213   4.018   1.974  10.993  1.4737 -0.2472  1.2596
   14MPD2     C  214   4.078   1.375  10.934 -0.0387 -0.1474  0.7257
   14MPD2    C1  215   4.072   1.496  11.001 -0.2915  0.8434 -0.0029
   14MPD2    C2  216   4.008   1.495  11.126  0.2498  0.3671  0.3012
   14MPD2    C3  217   3.964   1.379  11.184  0.1154  0.1080  0.3769
   14MPD2    C4  218   3.975   1.261  11.112  0.3624 -0.9208  0.0777
   14MPD2    C5  219   4.029   1.264  10.989  0.4203 -0.3675 -0.7824
   14MPD2     H  220   3.997   1.581  11.190  0.9743 -1.0913  2.3932
   14MPD2    H1  221   3.939   1.170  11.158 -0.1657  0.6423  2.7820
   14MPD2    H2  222   4.138   1.370  10.844 -1.3769 -0.6478 -0.1393
   14MPD2    H3  223   4.047   1.165  10.948  3.2013 -0.5408  0.8086
   14MPD2     N  224   3.903   1.388  11.312  0.7219  0.1799 -0.2284
   14MPD2    H5  225   3.909   1.483  11.347  1.0425 -0.3523  1.1605
   14MPD2    N1  226   4.114   1.615  10.941 -0.4015  0.0558 -0.0449
   14MPD2    H7  227   4.147   1.622  10.845  0.2813 -0.4549  0.1496
   15TCq1    O1  228   2.367   1.283   1.811  0.5854  0.0351 -0.1331
   15TCq1    C1  229   2.338   1.223   1.695  0.4381  0.1761  0.8564
   15TCq1    O2  230   2.420   1.204   1.604 -0.3655 -0.7861  0.2461
   15TCq1    C2  231   2.211   1.147   1.700 -0.2883 -0.8743 -0.1581
   15TCq1    C3  232   2.105   1.198   1.781  0.0658 -0.4141  0.8980
   15TCq1    C4  233   1.991   1.118   1.785 -0.2053  0.0181  0.5660
   15TCq1    C5  234   1.983   1.010   1.705 -0.0476  0.2216  1.2246
   15TCq1    C6  235   2.087   0.966   1.624 -0.5294 -0.8633 -0.7370
   15TCq1    C7  236   2.204   1.028   1.619  0.1901  0.9516  0.2994
   15TCq1    C8  237   2.064   0.854   1.530 -0.8897 -0.4931 -0.2982
   15TCq1    O4  238   2.158   0.813   1.464  0.3257 -0.1248 -0.5462
   15TCq1    C9  239   1.890   1.149   1.887  0.0467  0.2607  0.7099
   15TCq1    O5  240   1.819   1.046   1.917 -0.0272  0.2400  0.0323
   15TCq1    O6  241   1.892   1.259   1.944  0.6236  0.0018  0.2579
   15TCq1    H1  242   2.289   1.273   1.869 -0.2617 -0.4720 -1.3600
   15TCq1    H2  243   2.113   1.284   1.846 -1.7115  0.1423  0.3510
   15TCq1    H3  244   1.895   0.948   1.719 -2.0012  3.3335  2.5752
   15TCq1    H4  245   2.289   0.996   1.559  0.8422 -0.6851  2.0864
   16MPD2     C  246   1.740   0.724   1.410 -0.5004 -0.1534  0.6214
   16MPD2    C1  247   1.871   0.721   1.447  0.5510 -0.2365 -0.0257
   16MPD2    C2  248   1.953   0.613   1.422 -0.4829 -0.2640 -0.5355
   16MPD2    C3  249   1.900   0.502   1.361 -0.0567 -0.4574 -0.1912
   16MPD2    C4  250   1.764   0.501   1.332 -0.0391 -0.2186 -0.6480
   16MPD2    C5  251   1.688   0.609   1.355  0.3105 -0.4730  0.4616
   16MPD2     H  252   2.058   0.618   1.445 -0.0038 -1.5787 -2.4384
   16MPD2    H1  253   1.707   0.422   1.284 -0.8410 -0.4982  0.7830
   16MPD2    H2  254   1.682   0.812   1.432 -0.8506  0.1172 -1.4148
   16MPD2    H3  255   1.581   0.615   1.339  0.6533 -1.7494 -2.2406
   16MPD2     N  256   1.985   0.393   1.337  0.1330  0.3237  0.3990
   16MPD2    H5  257   2.079   0.407   1.374  0.9935  0.0081 -1.6795
   16MPD2    N1  258   1.930   0.837   1.507  0.5818 -0.6288  0.2417
   16MPD2    H7  259   1.864   0.904   1.545 -1.7019 -2.5914 -0.2592
   17TMC1    C1  260   4.388   4.635  10.985 -0.7596 -0.1193 -1.1708
   17TMC1    C2  261   4.348   0.022  10.948 -0.3542 -0.1728 -0.2876
   17TMC1    C3  262   4.242   0.043  10.867  0.5341 -0.0841 -0.0205
   17TMC1    C4  263   4.326   4.530  10.933  0.1528 -0.0632 -0.5958
   17TMC1    C5  264   4.230   4.558  10.841  0.0927  0.0819  0.4518
   17TMC1    C6  265   4.182   4.682  10.806  0.4213 -0.1369  0.2822
   17TMC1     C  266   4.502   4.615  11.074  0.0268 -0.2959 -0.3878
   17TMC1     O  267   4.520   4.500  11.109 -0.0176 -0.1463  0.0771
   17TMC1     H  268   4.384   0.115  10.990  2.2283 -0.7746 -1.1844
   17TMC1    H1  269   4.349   4.431  10.969  1.7866  0.0855 -1.2153
   17TMC1    H2  270   4.100   4.701  10.738  1.1067  1.0767 -0.2043
   17TMC1    C7  271   4.136   4.453  10.821  0.1773  0.5555 -0.2187
   17TMC1    C8  272   4.207   0.171  10.809 -0.1852 -0.2153 -0.1649
   17TMC1    O1  273   4.019   4.485  10.791  0.0979 -0.0599  0.3133
   17TMC1    O2  274   4.237   0.274  10.863 -0.2864 -0.1609 -0.6809
   17TMC1    O3  275   4.212   4.360  10.761  0.0731 -0.1450 -0.0188
   17TMC1    H3  276   4.308   4.346  10.777  0.0637 -0.1000  0.0756
   17TMC1    O5  277   4.222   0.151  10.680  0.2529 -0.7966 -0.3023
   17TMC1    H5  278   4.206   0.234  10.630 -0.1664 -0.4308  0.4441
   18MPD2     C  279   4.737   4.679  11.259 -0.2343 -0.4365  0.8873
   18MPD2    C1  280   4.692   0.023  11.168  0.4831 -0.3212 -0.6221
   18MPD2    C2  281   0.030   0.129  11.126  0.4858 -0.0987 -0.0905
   18MPD2    C3  282   0.154   0.152  11.188 -0.2123 -0.6508 -0.0650
   18MPD2    C4  283   0.205   0.056  11.281  0.0080  0.0827  0.6980
   18MPD2    C5  284   0.124   4.686  11.307  0.4944 -0.2395 -0.0569
   18MPD2     H  285   4.733   0.197  11.050  2.5091  0.0819 -0.9231
   18MPD2    H1  286   0.300   0.047  11.332 -0.2873 -1.6884  0.9173
   18MPD2    H2  287   4.682   4.586  11.268 -1.0733  0.1673  1.9136
   18MPD2    H3  288   0.166   4.610  11.372  0.9965  0.1387  0.0527
   18MPD2     N  289   0.244   0.258  11.145 -0.7609  0.9678  0.4383
   18MPD2    H5  290   0.336   0.254  11.186 -1.0806 -0.9606  0.9497
   18MPD2    N1  291   4.572   4.732  11.093 -0.1086  0.5400  0.1795
   18MPD2    H7  292   4.534   0.069  11.041 -1.2422 -0.4754 -0.5017
   19TMC2    C1  293   0.991   1.068  14.129  0.2882 -0.1485 -0.0193
   19TMC2    C2  294   0.961   1.194  14.178  0.1001  0.4883 -0.0782
   19TMC2    C3  295   0.840   1.210  14.243  0.1169 -0.4000 -0.3042
   19TMC2    C4  296   0.896   0.973  14.137  0.2888 -0.0651  0.3080
   19TMC2    C5  297   0.766   1.004  14.177  0.9578 -0.5380  0.0013
   19TMC2    C6  298   0.737   1.121  14.240  0.5235  0.2458 -0.1975
   19TMC2     C  299   1.128   1.042  14.095  0.7951  1.2599 -0.7017
   19TMC2     O  300   1.195   1.137  14.056  0.6246  0.2095  0.5334
   19TMC2     H  301   1.033   1.274  14.160 -0.5861  1.4047  1.2190
   19TMC2    H1  302   0.915   0.874  14.097 -0.6645 -0.8969  1.9330
   19TMC2    H2  303   0.643   1.133  14.294  0.0817  0.3832 -0.9998
   19TMC2    C7  304   0.679   0.885  14.181 -0.7719 -0.4923  0.6671
   19TMC2    C8  305   0.818   1.341  14.300 -0.4166 -0.0217 -0.5696
   19TMC2    O1  306   0.728   0.774  14.185  0.2383 -0.5392 -0.8031
   19TMC2    O2  307   0.915   1.410  14.316  0.1895 -0.5027  0.1860
   19TMC2    O5  308   0.691   1.382  14.289 -0.1646 -0.3174  0.1878
   19TMC2    H5  309   0.621   1.322  14.254 -0.4172  0.1490 -0.1029
   20MPD2     C  310   1.418   0.953  14.128 -0.3481 -0.7182  0.1224
   20MPD2    C1  311   1.309   0.889  14.191 -0.1393 -0.2232  0.0464
   20MPD2    C2  312   1.334   0.782  14.278  0.3586  0.4120 -0.0835
   20MPD2    C3  313   1.466   0.743  14.308 -0.5547  1.0154  0.7789
   20MPD2    C4  314   1.573   0.810  14.247  0.5057 -0.1683 -0.5339
   20MPD2    C5  315   1.550   0.911  14.166  0.2647 -0.1394 -0.5252
   20MPD2     H  316   1.246   0.731  14.315  0.8134 -0.8421 -0.7640
   20MPD2    H1  317   1.677   0.795  14.271  0.0290 -1.5121  0.6540
   20MPD2    H2  318   1.417   1.033  14.055 -1.8694 -1.6048 -0.8183
   20MPD2    H3  319   1.632   0.962  14.117  0.9739 -1.3216 -0.5480
   20MPD2     N  320   1.504   0.632  14.387 -0.2696  0.6004 -0.0825
   20MPD2    H5  321   1.604   0.619  14.388 -0.4545 -0.7934  0.0418
   20MPD2    N1  322   1.170   0.935  14.166  0.4177 -0.4169 -0.0231
   20MPD2    H7  323   1.093   0.882  14.206  0.8035  0.1469  1.4938
   21TMC2    C1  324   3.817   0.848  14.300  0.2803  0.0143  0.6147
   21TMC2    C2  325   3.922   0.765  14.320  0.3052  0.6789 -0.2187
   21TMC2    C3  326   3.931   0.695  14.433 -0.0692 -0.5578  1.1904
   21TMC2    C4  327   3.737   0.879  14.403 -0.3383 -0.1029  0.3823
   21TMC2    C5  328   3.755   0.807  14.518  0.2813  0.0729  0.0575
   21TMC2    C6  329   3.856   0.715  14.537  0.2654  0.3459 -0.3150
   21TMC2     C  330   3.864   0.970  14.235 -0.4119  0.0720 -0.4748
   21TMC2     O  331   3.984   0.992  14.219  1.0399 -0.0032 -0.3504
   21TMC2     H  332   3.996   0.745  14.243 -0.3919  0.9592 -0.9653
   21TMC2    H1  333   3.646   0.936  14.393 -0.9566 -1.2932 -0.6976
   21TMC2    H2  334   3.860   0.652  14.625 -0.8260  1.1521  0.3094
   21TMC2    C7  335   3.717   0.879  14.637  0.3670 -0.4934 -0.1501
   21TMC2    C8  336   4.037   0.594  14.442 -0.6320  0.2285 -0.2322
   21TMC2    O1  337   3.740   0.822  14.742 -0.1722 -0.1468  0.3261
   21TMC2    O2  338   4.080   0.542  14.341 -0.2130 -0.2873 -0.2191
   21TMC2    O5  339   4.112   0.618  14.551  0.1316 -0.0269 -0.0369
   21TMC2    H5  340   4.057   0.655  14.623  1.7322  1.7451  0.2448
   22MPD2     C  341   3.808   1.428  14.424  0.1444 -0.1010  0.1277
   22MPD2    C1  342   3.904   1.330  14.453 -0.1209  0.6430 -0.7941
   22MPD2    C2  343   3.884   1.205  14.389 -0.0469 -0.2084 -0.8336
   22MPD2    C3  344   3.778   1.178  14.301  0.2417  0.2285  0.3318
   22MPD2    C4  345   3.674   1.270  14.282 -0.1221  0.3221  0.3215
   22MPD2    C5  346   3.694   1.394  14.345 -0.0232  0.3066 -0.5076
   22MPD2     H  347   3.956   1.126  14.408  0.8229  0.5688 -0.9425
   22MPD2    H1  348   3.580   1.255  14.229 -0.1016  1.5824 -0.0753
   22MPD2    H2  349   3.802   1.528  14.466  2.2315  0.2108 -0.3089
   22MPD2    H3  350   3.615   1.468  14.337 -0.5774 -0.4014 -1.6489
   22MPD2     N  351   3.763   1.056  14.234  0.3077  0.3720 -0.0101
   22MPD2    H5  352   3.674   1.033  14.192 -0.8077  1.1603  1.9307
   22MPD2    N1  353   4.013   1.337  14.547 -0.4390  0.0814 -0.3741
   22MPD2    H7  354   4.080   1.261  14.551  1.9852  2.2676  0.5840
   23TMC2    C1  355   0.255   2.575  14.793 -0.4831 -0.9187  0.2207
   23TMC2    C2  356   0.132   2.554  14.851  0.2504 -0.2694 -0.1677
   23TMC2    C3  357   0.021   2.575  14.767  0.2598  0.8499 -0.4078
   23TMC2    C4  358   0.267   2.639  14.669 -0.3658  0.5854  0.8681
   23TMC2    C5  359   0.147   2.670  14.599  0.4685  1.0886 -0.2660
   23TMC2    C6  360   0.023   2.633  14.647 -0.0929 -0.1010 -0.2138
   23TMC2     C  361   0.357   2.489  14.849 -0.1176  0.6460  0.1447
   23TMC2     O  362   0.319   2.414  14.938 -0.0229  0.1893 -0.0402
   23TMC2     H  363   0.120   2.512  14.950 -1.4583 -0.3016 -0.3828
   23TMC2    H1  364   0.363   2.667  14.626 -2.0646  1.2737 -2.5309
   23TMC2    H2  365   4.674   2.678  14.607 -0.5641 -0.2149  0.7338
   23TMC2    C7  366   0.151   2.780  14.501 -0.4246  0.6857  0.8383
   23TMC2    C8  367   4.643   2.589  14.847  0.6568  0.3448 -0.1103
   23TMC2    O1  368   0.255   2.838  14.477 -0.4753  0.1272  0.1449
   23TMC2    O2  369   4.641   2.575  14.967  0.3626 -0.2183 -0.1263
   23TMC2    O5  370   4.534   2.598  14.775 -0.0462 -0.6466  0.1039
   23TMC2    H5  371   4.557   2.585  14.680 -0.4639  2.1890 -0.3994
   24MPD2     C  372   0.821   2.282  14.862 -0.0737 -0.1325  0.9705
   24MPD2    C1  373   0.724   2.294  14.959 -0.5099  0.7957 -0.1919
   24MPD2    C2  374   0.611   2.367  14.933 -0.7359  0.9956 -0.1563
   24MPD2    C3  375   0.593   2.436  14.810  0.1872 -0.9469  0.8095
   24MPD2    C4  376   0.695   2.430  14.711 -1.0671 -0.7573 -0.1776
   24MPD2    C5  377   0.812   2.358  14.747 -0.3457 -0.8533  0.1566
   24MPD2     H  378   0.537   2.383  15.011  0.1656  0.0373  0.8985
   24MPD2    H1  379   0.682   2.487  14.620  0.4764 -0.8408 -0.4549
   24MPD2    H2  380   0.915   2.232  14.885 -0.4379 -0.7489  1.1126
   24MPD2    H3  381   0.890   2.354  14.672  0.4187 -2.2723  1.0119
   24MPD2     N  382   0.473   2.501  14.772 -0.3066  0.1277  0.0982
   24MPD2    H5  383   0.488   2.557  14.688 -2.1676 -1.5952 -1.3607
   24MPD2    N1  384   0.719   2.215  15.078 -0.2468  0.6543  0.7245
   24MPD2    H7  385   0.646   2.235  15.146 -0.0436  1.3367  0.7436
   25TMC2    C1  386   4.454   4.200  11.923  0.2945  0.4362  0.3739
   25TMC2    C2  387   4.527   4.126  12.005  0.1523 -0.8189  0.5076
   25TMC2    C3  388   4.501   4.157  12.136  0.2733  0.0756 -0.5806
   25TMC2    C4  389   4.372   4.300  11.963 -0.4605  0.2707 -0.1277
   25TMC2    C5  390   4.365   4.336  12.095  0.8703 -1.3371  0.1359
   25TMC2    C6  391   4.425   4.260  12.190 -0.3649  0.7353  0.0173
   25TMC2     C  392   4.442   4.149  11.787  0.2826  0.1589 -0.2100
   25TMC2     O  393   4.538   4.086  11.748 -0.0119  0.0222  0.5716
   25TMC2     H  394   4.575   4.034  11.976  0.2173 -0.3969 -0.7288
   25TMC2    H1  395   4.328   4.365  11.888  1.6300  0.7024 -0.9767
   25TMC2    H2  396   4.408   4.285  12.295  2.6860 -0.2668  0.7513
   25TMC2    C7  397   4.304   4.457  12.135  0.6696 -0.6418 -0.3666
   25TMC2    C8  398   4.536   4.057  12.230 -0.0079  0.2044  0.0910
   25TMC2    O1  399   4.252   4.464  12.243  0.3854  0.7430  0.0499
   25TMC2    O2  400   4.531   3.940  12.201 -0.9459 -0.3901  0.5043
   25TMC2    O5  401   4.576   4.113  12.345  0.1779  0.0809 -0.0707
   25TMC2    H5  402   4.598   4.208  12.342  1.7046 -0.3565 -2.9683
   26MPD2     C  403   4.180   3.965  11.381  0.4701 -0.0347 -0.9943
   26MPD2    C1  404   4.088   4.046  11.453 -0.1090  0.4167 -0.0380
   26MPD2    C2  405   4.134   4.108  11.571  0.0883 -0.4890  0.5736
   26MPD2    C3  406   4.268   4.100  11.615  0.2943  1.4880 -0.3322
   26MPD2    C4  407   4.359   4.024  11.538  0.7362  0.4634 -0.3694
   26MPD2    C5  408   4.310   3.960  11.419  0.0011 -0.7136 -0.3412
   26MPD2     H  409   4.076   4.179  11.629 -1.5205 -3.0339  2.1073
   26MPD2    H1  410   4.457   3.998  11.574  0.7072 -1.7202 -1.8649
   26MPD2    H2  411   4.146   3.903  11.299  0.9940 -1.9111  0.1963
   26MPD2    H3  412   4.378   3.896  11.364  3.9012  3.2124 -0.0560
   26MPD2     N  413   4.314   4.165  11.731 -0.3119 -0.2012 -0.4538
   26MPD2    H5  414   4.240   4.207  11.787  0.7426  0.2385  0.6080
   26MPD2    N1  415   3.956   4.053  11.407 -0.1090 -0.0389 -0.2396
   26MPD2    H7  416   3.937   4.015  11.315 -3.1938  0.3970  0.2069
   27TMC2    C1  417   3.074   2.368  12.311  0.0525 -0.5799 -0.4093
   27TMC2    C2  418   3.134   2.457  12.229 -0.7145  0.7728  0.2941
   27TMC2    C3  419   3.224   2.544  12.285 -0.5436  0.1916 -0.0746
   27TMC2    C4  420   3.096   2.357  12.443 -0.1749 -0.1484 -1.3153
   27TMC2    C5  421   3.178   2.453  12.493  0.2745  0.4463 -0.1576
   27TMC2    C6  422   3.242   2.548  12.415 -0.3705 -0.7692 -0.0625
   27TMC2     C  423   2.955   2.295  12.258  0.2673 -0.3985 -0.4875
   27TMC2     O  424   2.915   2.309  12.142 -0.2527  0.1419 -0.1813
   27TMC2     H  425   3.102   2.454  12.126  0.3340  3.3777 -0.0999
   27TMC2    H1  426   3.038   2.297  12.513 -0.2636  2.1523  0.6032
   27TMC2    H2  427   3.318   2.621  12.440 -2.3117  0.9736  0.7226
   27TMC2    C7  428   3.179   2.455  12.641  0.5309  0.5846 -0.3479
   27TMC2    C8  429   3.294   2.642  12.204 -0.4365  0.9469 -0.5966
   27TMC2    O1  430   3.160   2.347  12.697 -0.9323  0.1540 -0.3298
   27TMC2    O2  431   3.312   2.617  12.088 -0.3556  0.2426 -0.3041
   27TMC2    O5  432   3.253   2.757  12.251  0.1473  0.0284  0.4686
   27TMC2    H5  433   3.232   2.754  12.346  0.7052 -0.7141  0.5703
   28MPD2     C  434   2.527   2.006  12.369 -0.1162  0.2032 -0.3268
   28MPD2    C1  435   2.571   2.063  12.483 -0.1157  0.0111 -0.1220
   28MPD2    C2  436   2.689   2.142  12.474 -0.6174 -0.7529 -0.3343
   28MPD2    C3  437   2.755   2.172  12.355 -0.0495 -0.5229 -0.4274
   28MPD2    C4  438   2.703   2.106  12.244  0.2728 -0.0620 -0.1644
   28MPD2    C5  439   2.593   2.023  12.254 -0.3427  0.6290  0.1330
   28MPD2     H  440   2.729   2.183  12.567  0.3420  3.1892 -2.5099
   28MPD2    H1  441   2.737   2.111  12.142 -1.0179 -0.5836 -0.6135
   28MPD2    H2  442   2.431   1.955  12.365  1.3464 -2.3466 -2.1212
   28MPD2    H3  443   2.564   1.984  12.158  0.6011  0.2234  0.0110
   28MPD2     N  444   2.877   2.247  12.362  0.1227  0.2390  0.0884
   28MPD2    H5  445   2.911   2.272  12.455 -1.6365  2.0216  0.2346
   28MPD2    N1  446   2.493   2.050  12.601 -0.1945  0.4566 -0.4256
   28MPD2    H7  447   2.418   1.981  12.598  0.2911 -0.0505 -0.8189
   29TMC2    C1  448   2.356   4.467  14.375  0.0197  0.2289  0.8094
   29TMC2    C2  449   2.340   4.458  14.512  0.1814  0.1316 -0.4894
   29TMC2    C3  450   2.391   4.567  14.581  0.3771  0.5622  1.0262
   29TMC2    C4  451   2.425   4.570  14.314  0.0438 -0.2809 -0.0340
   29TMC2    C5  452   2.484   4.664  14.386 -0.0293 -0.1732 -0.1901
   29TMC2    C6  453   2.466   4.668  14.524  0.1702  0.2594 -0.2692
   29TMC2     C  454   2.348   4.335  14.310  0.9041  0.0592  0.0848
   29TMC2     O  455   2.431   4.312  14.223  0.0913 -0.4321  0.1393
   29TMC2     H  456   2.285   4.381  14.564  1.7411 -0.6718 -0.0365
   29TMC2    H1  457   2.456   4.559  14.211  0.7182 -1.4614  0.2958
   29TMC2    H2  458   2.508   4.738  14.596  0.5500  0.3276 -0.5567
   29TMC2    C7  459   2.528   0.045  14.315  0.3895 -0.3493 -0.1396
   29TMC2    C8  460   2.340   4.584  14.715 -0.3579  0.8989 -0.4471
   29TMC2    O1  461   2.505   0.047  14.192  0.0361 -0.7306 -0.1385
   29TMC2    O2  462   2.290   4.485  14.764  0.4164  0.0162 -0.6587
   29TMC2    O5  463   2.276   4.707  14.723  0.2995  0.3700  0.5014
   29TMC2    H5  464   2.318   0.028  14.659  1.1975 -0.5290  0.2115
   30MPD2     C  465   2.132   3.881  14.231 -0.0468 -0.1444 -0.3130
   30MPD2    C1  466   2.250   3.931  14.188 -0.0453  0.0757 -0.0782
   30MPD2    C2  467   2.287   4.062  14.225  0.0781 -0.3079 -0.1748
   30MPD2    C3  468   2.200   4.136  14.307  0.3756 -1.0172  0.3003
   30MPD2    C4  469   2.080   4.086  14.352 -1.3234 -0.3483  0.1405
   30MPD2    C5  470   2.048   3.959  14.311  0.7241 -0.4524  0.5006
   30MPD2     H  471   2.385   4.090  14.188 -0.0202  1.0599  0.5960
   30MPD2    H1  472   2.008   4.131  14.418 -0.0995  2.4242 -0.4391
   30MPD2    H2  473   2.095   3.781  14.215 -3.3648  1.0107  0.0699
   30MPD2    H3  474   1.959   3.908  14.346 -0.9802  1.2673 -1.3741
   30MPD2     N  475   2.241   4.265  14.354 -0.3695  0.6967  0.2490
   30MPD2    H5  476   2.173   4.312  14.413  0.5186  0.8016  1.1928
   30MPD2    N1  477   2.349   3.845  14.127 -0.6376  0.2028  0.1314
   30MPD2    H7  478   2.442   3.882  14.112 -1.3158  0.6742 -2.9462
   31TMC2    C1  479   0.032   3.087  15.226  1.5106  0.2307  0.1342
   31TMC2    C2  480   4.650   3.123  15.180 -0.4366  0.5172 -0.1624
   31TMC2    C3  481   4.544   3.072  15.246  0.0732  0.0239 -0.2738
   31TMC2    C4  482   0.060   3.002  15.325 -0.2634  0.0610 -1.1390
   31TMC2    C5  483   4.688   2.955  15.391  1.0115 -0.0879  0.5390
   31TMC2    C6  484   4.560   2.984  15.349 -0.3884  1.0029 -0.0196
   31TMC2     C  485   0.138   3.164  15.161  0.4302  0.0828  0.4666
   31TMC2     O  486   0.112   3.280  15.128 -0.0122  0.9626  0.2111
   31TMC2     H  487   4.634   3.180  15.089  0.3665  2.7837  1.0987
   31TMC2    H1  488   0.159   2.996  15.368  0.2470  0.7492 -2.2328
   31TMC2    H2  489   4.475   2.944  15.403 -0.1454  0.1720 -0.2531
   31TMC2    C7  490   4.710   2.916  15.529 -0.6610 -0.0028  0.2558
   31TMC2    C8  491   4.409   3.122  15.230  0.5816 -0.5677  0.0872
   31TMC2    O1  492   0.081   2.875  15.562  0.0425 -0.8751  0.5368
   31TMC2    O2  493   4.325   3.103  15.315  0.4776 -0.1061  0.3909
   31TMC2    O5  494   4.387   3.171  15.102 -1.0381 -0.0217 -0.0816
   31TMC2    H5  495   4.463   3.162  15.041  0.1191  0.5320  1.2604
   32MPD2     C  496   0.634   3.264  15.114  0.0637 -0.7806  0.7733
   32MPD2    C1  497   0.532   3.348  15.112 -0.8668  0.5885  0.4455
   32MPD2    C2  498   0.407   3.303  15.125 -0.1516 -0.1079  0.0931
   32MPD2    C3  499   0.385   3.167  15.151 -0.9684  0.6894  0.0687
   32MPD2    C4  500   0.493   3.083  15.150  0.0970 -0.1381  0.2388
   32MPD2    C5  501   0.613   3.130  15.114  0.0062 -1.1979  0.3414
   32MPD2     H  502   0.323   3.370  15.111  0.5130  0.6021 -0.4952
   32MPD2    H1  503   0.495   2.976  15.171  1.3215 -0.3647 -1.0529
   32MPD2    H2  504   0.733   3.307  15.105 -0.9108  1.0069 -1.4797
   32MPD2    H3  505   0.698   3.066  15.094  1.2687 -0.2317  2.6226
   32MPD2     N  506   0.261   3.103  15.162  0.7386  0.0746  0.2675
   32MPD2    H5  507   0.257   3.003  15.174  0.3862 -0.1278 -1.6265
   32MPD2    N1  508   0.563   3.483  15.080  0.3609 -0.4814 -0.2139
   32MPD2    H7  509   0.644   3.498  15.021 -0.8276 -0.8740 -1.9552
   33TMC2    C1  510   4.716   1.355  10.705 -0.4893 -0.2778 -0.7990
   33TMC2    C2  511   4.584   1.335  10.700 -0.1739  0.1168 -0.3423
   33TMC2    C3  512   4.513   1.426  10.633  0.3272 -0.0376 -0.0375
   33TMC2    C4  513   0.041   1.461  10.635 -0.1799 -0.1681 -0.8169
   33TMC2    C5  514   4.700   1.543  10.570  0.1947  0.4376 -0.1312
   33TMC2    C6  515   4.567   1.525  10.559  0.0286 -0.6752 -0.4267
   33TMC2     C  516   0.063   1.249  10.746 -0.2619 -0.1976  0.0693
   33TMC2     O  517   0.017   1.137  10.759 -0.4804  0.1254  0.2510
   33TMC2     H  518   4.531   1.252  10.746 -0.3191  1.6065  2.2150
   33TMC2    H1  519   0.149   1.472  10.633 -0.2350  0.4804 -0.2534
   33TMC2    H2  520   4.504   1.586  10.495 -0.2522 -0.1562  0.3423
   33TMC2    C7  521   0.017   1.663  10.508  0.2467  0.1998  0.4544
   33TMC2    C8  522   4.367   1.408  10.633  0.8042  0.9994  0.2286
   33TMC2    O1  523   0.138   1.659  10.489 -0.0693 -0.7567 -0.2513
   33TMC2    O2  524   4.313   1.297  10.633  0.1881  0.5863  0.2251
   33TMC2    O5  525   4.309   1.527  10.651 -0.1628 -0.0278  0.0178
   33TMC2    H5  526   4.378   1.596  10.657 -0.9998  0.8939 -0.8996
   34MPD2     C  527   0.487   1.116  11.001 -0.3910  0.5381 -0.3526
   34MPD2    C1  528   0.395   1.034  10.944  0.3041 -0.4740  0.0322
   34MPD2    C2  529   0.290   1.092  10.874  0.1335 -0.6914 -0.1126
   34MPD2    C3  530   0.286   1.231  10.862  0.2036  0.3672  0.1442
   34MPD2    C4  531   0.379   1.313  10.922 -0.1999 -0.0735  0.6944
   34MPD2    C5  532   0.484   1.255  10.989 -0.4067 -0.0247 -0.1294
   34MPD2     H  533   0.222   1.030  10.816  1.7289 -0.5245 -2.1739
   34MPD2    H1  534   0.386   1.419  10.902  1.7632 -0.3385 -0.0998
   34MPD2    H2  535   0.573   1.073  11.052 -2.1083  0.2629  2.3018
   34MPD2    H3  536   0.564   1.316  11.031 -2.2494  1.4079  1.2948
   34MPD2     N  537   0.180   1.302  10.798 -0.1862 -0.1299 -0.3225
   34MPD2    H5  538   0.185   1.404  10.798 -1.4865 -0.0552 -0.2273
   34MPD2    N1  539   0.414   0.893  10.954  0.7111  0.4720  0.0428
   34MPD2    H7  540   0.501   0.862  10.997 -0.0491 -0.2831  1.0418
   35TMC2    C1  541   1.441   2.323  11.721  0.5131 -0.3198 -0.5056
   35TMC2    C2  542   1.337   2.398  11.676  0.0898 -0.6026  0.1452
   35TMC2    C3  543   1.215   2.370  11.717  0.0429  0.0179  0.1753
   35TMC2    C4  544   1.433   2.217  11.805 -0.4941  0.0300 -0.3331
   35TMC2    C5  545   1.304   2.194  11.836 -0.1784 -0.2264 -0.1025
   35TMC2    C6  546   1.195   2.258  11.791  0.0074 -0.1061 -0.6073
   35TMC2     C  547   1.570   2.370  11.678 -0.3433 -0.7065  0.0579
   35TMC2     O  548   1.576   2.456  11.589  0.3892 -0.2139 -0.3785
   35TMC2     H  549   1.352   2.475  11.602  0.2115 -0.5234  0.2524
   35TMC2    H1  550   1.520   2.155  11.820 -0.5362 -0.0773 -0.5386
   35TMC2    H2  551   1.094   2.227  11.819 -0.1459  0.2196 -0.8038
   35TMC2    C7  552   1.278   2.083  11.924  0.8337  0.4486 -0.6878
   35TMC2    C8  553   1.101   2.433  11.655  0.4319  0.3500  0.1808
   35TMC2    O1  554   1.162   2.037  11.931  0.2006  0.1021  0.0341
   35TMC2    O2  555   1.115   2.513  11.562 -0.3377 -0.0370 -0.2172
   35TMC2    O5  556   1.016   2.455  11.758 -0.4115  0.1606  0.2601
   35TMC2    H5  557   1.036   2.417  11.846 -2.8739  0.8175  1.0765
   36MPD2     C  558   2.076   2.379  11.716  0.4291  0.4516  0.2366
   36MPD2    C1  559   2.029   2.327  11.835 -0.1407 -0.1843 -0.5373
   36MPD2    C2  560   1.894   2.329  11.854 -0.1974  0.5676  0.2934
   36MPD2    C3  561   1.809   2.356  11.748  0.5275 -0.9706 -0.5159
   36MPD2    C4  562   1.864   2.402  11.625  0.3162 -0.0219 -0.3852
   36MPD2    C5  563   1.998   2.429  11.620  0.0765  0.1851 -0.3841
   36MPD2     H  564   1.848   2.292  11.945  0.4779 -2.2329 -0.5076
   36MPD2    H1  565   1.798   2.436  11.546  0.9330  0.2944 -0.7589
   36MPD2    H2  566   2.183   2.385  11.702  0.5381  1.8440  1.6182
   36MPD2    H3  567   2.043   2.475  11.533 -0.2930 -0.0738 -0.7144
   36MPD2     N  568   1.670   2.333  11.766  0.4855 -0.5988  0.0572
   36MPD2    H5  569   1.636   2.275  11.842  1.4210  0.3629  1.2052
   36MPD2    N1  570   2.117   2.278  11.932 -0.8949 -0.1869 -0.3030
   36MPD2    H7  571   2.211   2.317  11.927 -1.8812  2.1231 -0.7077
   37TMC2    C1  572   3.289   3.116  12.080  0.2596  0.0538 -0.7550
   37TMC2    C2  573   3.252   3.230  12.008 -0.6797  0.0814  0.0242
   37TMC2    C3  574   3.264   3.213  11.870  0.2817  0.0783  0.2756
   37TMC2    C4  575   3.324   2.998  12.025 -0.1509  0.1605  0.2022
   37TMC2    C5  576   3.332   2.989  11.893 -0.2545 -0.4534  0.0850
   37TMC2    C6  577   3.298   3.093  11.810  0.4157 -0.5881  0.1870
   37TMC2     C  578   3.297   3.134  12.222 -0.5800  0.2541  0.3293
   37TMC2     O  579   3.209   3.198  12.277  0.7106 -0.1407  0.0072
   37TMC2     H  580   3.230   3.323  12.061 -0.5137  0.7466 -1.0810
   37TMC2    H1  581   3.348   2.908  12.080 -2.0752  0.4947  1.6006
   37TMC2    H2  582   3.311   3.090  11.703 -1.5329 -0.9600 -0.0361
   37TMC2    C7  583   3.445   2.911  11.846  0.2755 -0.0586 -0.6517
   37TMC2    C8  584   3.275   3.330  11.787  0.5631  0.0952 -0.5509
   37TMC2    O1  585   3.526   2.891  11.936  1.1064  0.3430 -1.0254
   37TMC2    O2  586   3.267   3.317  11.667 -0.3530  0.1812  0.2193
   37TMC2    O5  587   3.360   3.414  11.841 -0.0664  0.1202 -0.0132
   37TMC2    H5  588   3.382   3.386  11.932  1.0315  1.6666  0.1819
   38MPD2     C  589   3.533   2.999  12.651  0.2889 -0.4824  0.1342
   38MPD2    C1  590   3.592   2.935  12.551  0.3880 -0.6914 -0.3274
   38MPD2    C2  591   3.539   2.966  12.422  0.1980 -0.1967 -0.2731
   38MPD2    C3  592   3.441   3.059  12.402 -0.1857 -0.7473  0.3241
   38MPD2    C4  593   3.383   3.116  12.510 -0.4670 -0.5305 -0.2547
   38MPD2    C5  594   3.432   3.085  12.630 -0.2159  0.0043 -0.9207
   38MPD2     H  595   3.562   2.909  12.332  2.3797  1.6393 -0.8623
   38MPD2    H1  596   3.307   3.193  12.500 -1.6753 -1.7370 -0.3989
   38MPD2    H2  597   3.562   2.990  12.755  1.4348  0.3124 -0.1167
   38MPD2    H3  598   3.405   3.135  12.722  1.0671  1.5595 -1.3943
   38MPD2     N  599   3.405   3.067  12.269  0.5401 -0.1014  0.6524
   38MPD2    H5  600   3.462   3.021  12.200 -1.5781  0.6799 -1.6317
   38MPD2    N1  601   3.694   2.839  12.571  0.5666 -0.4524  0.2280
   38MPD2    H7  602   3.721   2.789  12.488  0.0990  0.0026 -0.2005
   39TMC2    C1  603   1.904   0.283   1.685 -0.4141 -0.3649  0.3313
   39TMC2    C2  604   1.804   0.383   1.698 -0.5517  0.1878 -0.5978
   39TMC2    C3  605   1.850   0.497   1.755  1.0171 -0.0470 -0.4851
   39TMC2    C4  606   2.040   0.307   1.702  0.4840  0.0915  0.2565
   39TMC2    C5  607   2.077   0.430   1.737 -0.2443  0.6536  0.2625
   39TMC2    C6  608   1.985   0.527   1.772  1.0472  0.2041 -0.1208
   39TMC2     C  609   1.860   0.164   1.614  1.2856  0.8422 -0.6068
   39TMC2     O  610   1.741   0.165   1.578  0.1203  0.6027 -0.9993
   39TMC2     H  611   1.705   0.372   1.655 -1.8857 -1.1826  2.8444
   39TMC2    H1  612   2.112   0.234   1.666  1.7993  0.9954  1.0325
   39TMC2    H2  613   2.018   0.625   1.804  0.3891  0.2833  0.3138
   39TMC2    C7  614   2.180   0.478   1.650 -0.0790 -0.7443 -0.1855
   39TMC2    C8  615   1.759   0.605   1.787  0.4052 -0.2303 -1.0398
   39TMC2    O1  616   2.199   0.399   1.558  0.5666 -0.4040  0.2898
   39TMC2    O2  617   1.777   0.726   1.781 -0.4742 -0.0125  0.0777
   39TMC2    O5  618   1.659   0.540   1.859 -0.0946  0.5843  0.2347
   39TMC2    H5  619   1.653   0.444   1.841 -0.0804  0.6878 -0.3101
   40MPD2     C  620   2.078   4.606   1.534 -0.1446  0.0488  0.3788
   40MPD2    C1  621   1.965   4.687   1.528 -0.5010  0.1944 -0.6510
   40MPD2    C2  622   1.851   4.639   1.459 -0.0914 -0.3154  0.1527
   40MPD2    C3  623   1.858   4.513   1.397 -0.5519 -0.2859  1.1965
   40MPD2    C4  624   1.970   4.433   1.408 -0.1523  0.0930 -0.3718
   40MPD2    C5  625   2.084   4.484   1.467 -0.0647 -0.0312 -0.8309
   40MPD2     H  626   1.758   4.695   1.457 -0.1073 -0.3790 -0.9920
   40MPD2    H1  627   1.989   4.344   1.349 -1.4702 -0.3795 -0.0996
   40MPD2    H2  628   2.170   4.651   1.570  0.2404 -1.8451  1.7441
   40MPD2    H3  629   2.177   4.429   1.468 -0.0258  0.0059 -1.9865
   40MPD2     N  630   1.756   4.460   1.312  0.5677  0.8182  0.2734
   40MPD2    H5  631   1.784   4.376   1.263  0.3637  1.3878 -0.8408
   40MPD2    N1  632   1.959   0.073   1.600 -0.5677 -1.0159 -0.2257
   40MPD2    H7  633   2.041   0.094   1.655  0.5461 -1.7939 -1.6020
   41TMC2    C1  634   1.476   1.553  13.775 -0.4450  0.3940  0.0009
   41TMC2    C2  635   1.399   1.467  13.698 -0.5716 -1.2588  0.1515
   41TMC2    C3  636   1.339   1.504  13.582  0.3843  0.2115  0.4500
   41TMC2    C4  637   1.494   1.674  13.731  0.3983  0.2690 -0.3403
   41TMC2    C5  638   1.433   1.713  13.611  0.4657 -0.5765  0.1166
   41TMC2    C6  639   1.355   1.629  13.543 -0.0912  0.9458  0.2260
   41TMC2     C  640   1.555   1.502  13.874 -0.9253  0.1005  0.4241
   41TMC2     O  641   1.539   1.381  13.895 -0.3828  0.2734 -0.6138
   41TMC2     H  642   1.383   1.370  13.743 -2.4687 -0.7139  0.6449
   41TMC2    H1  643   1.547   1.758  13.775 -0.3236  0.4421  0.1845
   41TMC2    H2  644   1.305   1.662  13.452  1.7817  0.2758 -1.0325
   41TMC2    C7  645   1.424   1.859  13.593  0.5231  0.7026  0.4594
   41TMC2    C8  646   1.266   1.405  13.507  0.5223 -0.2052  0.1889
   41TMC2    O1  647   1.444   1.933  13.690 -0.0645  0.3378  0.3346
   41TMC2    O2  648   1.284   1.284  13.504 -0.3791  0.0603 -0.0181
   41TMC2    O5  649   1.159   1.473  13.461 -0.0535  0.5039 -0.7814
   41TMC2    H5  650   1.153   1.568  13.487  0.0562  0.5606 -0.9588
   42MPD2     C  651   1.751   1.438  14.092 -0.4376 -0.1705 -0.4598
   42MPD2    C1  652   1.725   1.563  14.042  0.0912 -0.4784 -0.0693
   42MPD2    C2  653   1.798   1.667  14.086 -0.3024  0.1586  0.1291
   42MPD2    C3  654   1.888   1.652  14.193 -0.2328 -0.0955 -0.2091
   42MPD2    C4  655   1.919   1.525  14.242  0.0365  0.1532  0.9987
   42MPD2    C5  656   1.848   1.418  14.188 -0.1267 -0.4067 -0.6029
   42MPD2     H  657   1.783   1.765  14.041  1.2051  1.0895  1.6431
   42MPD2    H1  658   1.981   1.506  14.329 -1.2417  0.1273  1.9146
   42MPD2    H2  659   1.697   1.352  14.053  1.5610 -1.5607 -0.1685
   42MPD2    H3  660   1.875   1.317  14.217 -0.4740 -0.3657 -0.1317
   42MPD2     N  661   1.958   1.760  14.251 -0.4744 -0.1181  0.0980
   42MPD2    H5  662   2.025   1.738  14.324 -0.3033 -0.0623 -0.0401
   42MPD2    N1  663   1.641   1.597  13.940 -0.0588  0.1974  0.1751
   42MPD2    H7  664   1.622   1.696  13.932 -2.6850 -0.2524  0.8507
   43TMC2    C1  665   2.433   0.716   0.868  1.2882  0.7575  0.2813
   43TMC2    C2  666   2.343   0.816   0.833  0.0122  0.2758  0.7663
   43TMC2    C3  667   2.354   0.928   0.907  0.0601 -0.1214 -0.5592
   43TMC2    C4  668   2.512   0.719   0.971 -0.3840  0.1182 -0.6066
   43TMC2    C5  669   2.509   0.829   1.057  1.1230 -0.6752 -0.3441
   43TMC2    C6  670   2.427   0.934   1.024  0.2573  0.2512  0.1473
   43TMC2     C  671   2.440   0.596   0.784 -0.5653 -0.5044 -0.9851
   43TMC2     O  672   2.543   0.530   0.774 -0.2687  0.2164  0.4143
   43TMC2     H  673   2.264   0.813   0.759  0.3095  0.3424  0.4492
   43TMC2    H1  674   2.572   0.629   0.977  0.2025  0.5480 -0.0124
   43TMC2    H2  675   2.429   1.027   1.079  0.4691  0.9816 -1.0975
   43TMC2    C7  676   2.625   0.865   1.134  0.2387 -0.2921 -0.3074
   43TMC2    C8  677   2.262   1.032   0.886  0.1892  0.9685 -0.3071
   43TMC2    O1  678   2.731   0.828   1.090  0.0476 -0.6561  0.0009
   43TMC2    O2  679   2.231   1.106   0.973 -0.3242  0.5729 -0.4427
   43TMC2    O5  680   2.284   1.068   0.759  0.4800  0.4740  0.1511
   43TMC2    H5  681   2.341   1.007   0.708  1.8176  0.3244  1.8392
   44MPD2     C  682   2.281   0.348   0.356 -0.3904 -0.7044 -0.0542
   44MPD2    C1  683   2.405   0.347   0.423 -0.4725  0.5868  0.5272
   44MPD2    C2  684   2.406   0.401   0.548 -0.3398 -0.1937  0.1843
   44MPD2    C3  685   2.309   0.489   0.596 -0.6184  0.3310  0.0811
   44MPD2    C4  686   2.187   0.491   0.528 -0.5480  0.3854  0.1682
   44MPD2    C5  687   2.177   0.419   0.408 -0.4745  0.0953 -0.2088
   44MPD2     H  688   2.496   0.381   0.606  0.0077  1.1864  0.1322
   44MPD2    H1  689   2.110   0.564   0.548 -1.8875 -1.5061  1.9305
   44MPD2    H2  690   2.257   0.278   0.276  0.4787 -0.9964 -0.0571
   44MPD2    H3  691   2.088   0.435   0.347 -0.7989  0.1815  0.2856
   44MPD2     N  692   2.328   0.572   0.709 -0.2715 -0.1444  0.5873
   44MPD2    H5  693   2.253   0.636   0.733  2.1222  2.7437  0.2907
   44MPD2    N1  694   2.522   0.282   0.367  0.0607 -0.0207 -0.0734
   44MPD2    H7  695   2.610   0.277   0.419  1.2160 -1.5760 -2.1861
   45TMC2    C1  696   2.866   2.605   9.948 -1.0925  0.4067  0.5096
   45TMC2    C2  697   2.926   2.490   9.969 -0.3641 -0.9431 -1.1746
   45TMC2    C3  698   3.038   2.482  10.048  0.5467  0.4683 -0.3203
   45TMC2    C4  699   2.915   2.725   9.999 -0.3369  0.9349 -0.2265
   45TMC2    C5  700   3.032   2.713  10.062 -0.5078 -0.2196 -0.1250
   45TMC2    C6  701   3.100   2.595  10.092 -0.4937 -0.2351  0.5177
   45TMC2     C  702   2.774   2.607   9.831  0.0175 -0.3862 -0.0630
   45TMC2     O  703   2.784   2.519   9.750 -0.2372  0.2174  0.6575
   45TMC2     H  704   2.867   2.405   9.939 -1.3861 -0.6349 -0.0583
   45TMC2    H1  705   2.859   2.817   9.993  0.8860  1.6663 -0.3261
   45TMC2    H2  706   3.193   2.600  10.149  0.0327 -0.9886 -0.2669
   45TMC2    C7  707   3.113   2.830  10.074 -0.9140  0.2166 -0.0884
   45TMC2    C8  708   3.124   2.366  10.039 -0.7358  0.6735 -0.3242
   45TMC2    O1  709   3.201   2.832  10.160 -0.4494 -0.8419 -0.7321
   45TMC2    O2  710   3.116   2.290   9.941  0.4516 -0.2137  0.0721
   45TMC2    O5  711   3.199   2.346  10.150  0.2425  0.2827 -0.3716
   45TMC2    H5  712   3.185   2.404  10.228  0.1746 -2.0322  1.3354
   46MPD2     C  713   2.566   2.663   9.625 -0.2091  0.2619 -0.2411
   46MPD2    C1  714   2.561   2.711   9.758  0.2725  0.9149  0.1165
   46MPD2    C2  715   2.435   2.756   9.804 -0.1212  0.5640  0.8785
   46MPD2    C3  716   2.329   2.767   9.714  0.7635 -0.2124  0.2988
   46MPD2    C4  717   2.349   2.726   9.582 -0.5458  0.4085  0.5063
   46MPD2    C5  718   2.464   2.670   9.543 -0.4575  0.4635  0.0202
   46MPD2     H  719   2.431   2.797   9.905 -1.1968 -0.7540  1.3652
   46MPD2    H1  720   2.276   2.730   9.502  0.6132 -0.4715 -0.5939
   46MPD2    H2  721   2.651   2.608   9.588  1.5546  1.9162  1.3657
   46MPD2    H3  722   2.473   2.620   9.447 -0.6963 -1.0777  0.7968
   46MPD2     N  723   2.200   2.810   9.763 -0.1853 -0.2647 -0.6599
   46MPD2    H5  724   2.188   2.838   9.860  0.0142  0.3096 -0.7989
   46MPD2    N1  725   2.677   2.703   9.847  0.4961 -0.6572 -0.1177
   46MPD2    H7  726   2.665   2.758   9.931 -1.1708 -0.6890 -0.3356
   47TMC2    C1  727   1.009   3.834   9.277 -0.2761  0.3658 -0.1228
   47TMC2    C2  728   1.017   3.956   9.211  0.6661 -0.1144 -0.4066
   47TMC2    C3  729   0.901   4.016   9.169 -0.5585 -0.0985 -1.2175
   47TMC2    C4  730   0.890   3.770   9.280 -0.0268  0.1477 -0.5646
   47TMC2    C5  731   0.776   3.829   9.227  0.6117  0.4756 -0.3127
   47TMC2    C6  732   0.784   3.952   9.170 -0.4999  0.8947 -0.5684
   47TMC2     C  733   1.129   3.776   9.327 -0.0018 -0.5051 -0.2209
   47TMC2     O  734   1.227   3.850   9.318 -0.8044 -0.0255  0.5311
   47TMC2     H  735   1.112   4.008   9.201 -0.2864  1.9048  0.9594
   47TMC2    H1  736   0.877   3.674   9.328 -0.9404  1.4298  1.7362
   47TMC2    H2  737   0.693   4.000   9.137 -0.1970  1.1425 -1.0576
   47TMC2    C7  738   0.651   3.762   9.234  0.3573 -0.7463 -0.7822
   47TMC2    C8  739   0.908   4.153   9.119 -0.9974 -0.8000 -0.2047
   47TMC2    O1  740   0.556   3.814   9.181 -0.6256 -0.0827 -0.0746
   47TMC2    O2  741   0.992   4.229   9.157 -0.1277 -0.8596 -0.6450
   47TMC2    O5  742   0.891   4.139   8.985 -0.0991  0.0219  0.0144
   47TMC2    H5  743   0.818   4.078   8.966  1.0274 -1.2666 -0.1597
   48MPD2     C  744   1.351   3.591   9.387  0.1924 -0.2704 -0.1969
   48MPD2    C1  745   1.219   3.562   9.405  0.1374  0.4177 -0.2540
   48MPD2    C2  746   1.183   3.436   9.458  0.1464  0.5692 -0.5492
   48MPD2    C3  747   1.282   3.352   9.505  0.5460  0.1704  0.1046
   48MPD2    C4  748   1.419   3.386   9.486 -0.2854  0.8708  0.0491
   48MPD2    C5  749   1.444   3.504   9.438 -0.5581 -0.5249  0.2919
   48MPD2     H  750   1.080   3.405   9.473  0.1109 -0.0345 -2.0715
   48MPD2    H1  751   1.498   3.320   9.522 -0.5354 -1.0572 -2.9587
   48MPD2    H2  752   1.386   3.682   9.339 -0.6400  0.4410  0.5372
   48MPD2    H3  753   1.549   3.527   9.422 -0.9449  0.3564 -1.0178
   48MPD2     N  754   1.246   3.239   9.584  0.0763 -0.1565  0.2366
   48MPD2    H5  755   1.149   3.211   9.587 -0.0074  0.1261  0.1020
   48MPD2    N1  756   1.116   3.646   9.366 -0.2158  0.0710  0.3339
   48MPD2    H7  757   1.022   3.609   9.379 -0.5171  0.9092  0.5403
   49TMC2    C1  758   3.723   0.159  10.480 -0.0489  0.0901  0.2182
   49TMC2    C2  759   3.712   0.020  10.463 -0.1016 -0.2707 -0.2841
   49TMC2    C3  760   3.757   4.675  10.563  0.6818  0.3930 -0.0343
   49TMC2    C4  761   3.796   0.212  10.587 -0.3531 -0.5100 -0.5296
   49TMC2    C5  762   3.842   0.122  10.675  0.8505 -0.5435 -0.1406
   49TMC2    C6  763   3.819   4.721  10.675 -0.2026  0.0981  0.8144
   49TMC2     C  764   3.677   0.245  10.379 -0.6634  0.0427 -0.4058
   49TMC2     O  765   3.673   0.187  10.270 -0.3216 -0.0410  0.3217
   49TMC2     H  766   3.670   4.717  10.373 -2.5586  0.0635  0.6792
   49TMC2    H1  767   3.807   0.319  10.597 -2.6816 -0.2741 -0.4809
   49TMC2    H2  768   3.847   4.660  10.761 -0.6116  2.1753  2.4308
   49TMC2    C7  769   3.881   0.163  10.812  0.9744 -0.5292  0.1191
   49TMC2    C8  770   3.733   4.534  10.532  0.0500  0.5669  0.2711
   49TMC2    O1  771   3.904   0.083  10.899 -0.0692 -0.1962  0.4045
   49TMC2    O2  772   3.648   4.498  10.456 -0.5219 -0.5689 -0.0989
   49TMC2    O5  773   3.785   4.463  10.632 -0.0251 -0.2443 -0.0430
   49TMC2    H5  774   3.856   4.501  10.687 -1.9134  1.9085  0.9199
   50MPD2     C  775   3.596   0.483  10.199  0.6491  0.5021  0.0562
   50MPD2    C1  776   3.623   0.490  10.339 -0.0977 -0.7646  0.1560
   50MPD2    C2  777   3.609   0.616  10.394  0.3111 -0.3837 -0.6688
   50MPD2    C3  778   3.590   0.733  10.324 -0.7727  0.4726 -0.3670
   50MPD2    C4  779   3.563   0.721  10.190  0.1477  0.0837 -0.5846
   50MPD2    C5  780   3.562   0.595  10.130 -0.1200 -0.7578 -0.1012
   50MPD2     H  781   3.626   0.625  10.501 -0.7111 -0.3288 -0.5129
   50MPD2    H1  782   3.554   0.807  10.124 -0.9124  0.2008 -0.2984
   50MPD2    H2  783   3.588   0.389  10.146  1.9646 -0.6933  1.9619
   50MPD2    H3  784   3.520   0.585  10.030 -1.2074 -3.7762  0.6743
   50MPD2     N  785   3.594   0.869  10.381  0.2487 -0.3068 -0.4568
   50MPD2    H5  786   3.581   0.948  10.318 -0.2787 -1.7305 -2.1467
   50MPD2    N1  787   3.656   0.376  10.419  0.3224 -0.0373 -0.1188
   50MPD2    H7  788   3.664   0.405  10.516 -0.2034  1.5822 -0.5445
   51TMC2    C1  789   3.431   0.088   0.841  0.1140 -0.5610  0.1102
   51TMC2    C2  790   3.457   0.203   0.909  0.3768 -0.2000 -0.6226
   51TMC2    C3  791   3.544   0.297   0.853  0.2644  0.7571 -0.2699
   51TMC2    C4  792   3.501   0.064   0.724  0.7778 -0.8526  0.2455
   51TMC2    C5  793   3.586   0.157   0.674  0.6639 -0.1383 -0.6264
   51TMC2    C6  794   3.609   0.280   0.739  0.3337  0.1103  0.3101
   51TMC2     C  795   3.404   4.707   0.916  1.1690  0.1921  0.2540
   51TMC2     O  796   3.459   4.605   0.878 -0.2124 -1.1877 -0.7718
   51TMC2     H  797   3.417   0.229   1.007  0.9600 -0.4074 -0.3299
   51TMC2    H1  798   3.493   4.705   0.681  0.5246 -0.6560 -0.1611
   51TMC2    H2  799   3.678   0.355   0.703  1.4543 -0.7767  0.5906
   51TMC2    C7  800   3.703   0.102   0.609  0.2682 -0.6393  0.8570
   51TMC2    C8  801   3.590   0.409   0.933 -0.0475 -0.1037 -0.2833
   51TMC2    O1  802   3.813   0.130   0.653  0.1808 -1.1614 -0.3162
   51TMC2    O2  803   3.621   0.521   0.890 -0.2140 -0.3686 -0.5019
   51TMC2    O5  804   3.647   0.343   1.039  0.3038 -0.5477 -0.3731
   51TMC2    H5  805   3.624   0.248   1.044  1.0801 -0.6858  0.5394
   52MPD2     C  806   3.346   4.520   1.404 -0.3906  0.0705 -0.5583
   52MPD2    C1  807   3.397   4.464   1.290 -0.4786 -0.2268  0.1780
   52MPD2    C2  808   3.406   4.536   1.168 -0.0332  0.3133 -0.5641
   52MPD2    C3  809   3.331   4.651   1.155  0.2366 -0.4207 -0.7241
   52MPD2    C4  810   3.263   4.702   1.265  0.3636 -0.9035 -0.0652
   52MPD2    C5  811   3.270   4.632   1.379  0.1038  0.0318  0.3245
   52MPD2     H  812   3.454   4.497   1.079 -0.8650  1.5677 -1.5506
   52MPD2    H1  813   3.195   0.046   1.257 -1.5117 -2.3969  0.0285
   52MPD2    H2  814   3.337   4.472   1.501 -0.0767 -0.2629 -0.6935
   52MPD2    H3  815   3.219   4.674   1.464 -1.1332  1.2159 -1.0008
   52MPD2     N  816   3.341   4.732   1.039  0.4236  0.7708 -0.1437
   52MPD2    H5  817   3.295   0.082   1.041 -2.0223 -0.4197 -2.6237
   52MPD2    N1  818   3.464   4.336   1.289  0.1424  0.0168 -0.4810
   52MPD2    H7  819   3.507   4.310   1.201  0.9499  0.7423 -0.3048
   53TMC2    C1  820   4.105   2.610  11.773 -0.4306 -0.5442  0.0383
   53TMC2    C2  821   4.188   2.500  11.783  0.6969 -0.1391 -0.0142
   53TMC2    C3  822   4.267   2.491  11.892 -0.0570 -0.0968  0.7474
   53TMC2    C4  823   4.109   2.708  11.869  0.6426  0.4263  0.4051
   53TMC2    C5  824   4.187   2.689  11.982 -0.5943 -0.0800 -0.1435
   53TMC2    C6  825   4.273   2.585  11.991 -0.2399 -1.0698  0.2364
   53TMC2     C  826   3.978   2.595  11.696  0.2563  0.1137  1.0010
   53TMC2     O  827   3.963   2.487  11.641  0.2900  0.6388 -0.0822
   53TMC2     H  828   4.186   2.417  11.714  2.3838 -0.8900  0.8395
   53TMC2    H1  829   4.048   2.798  11.863  1.5961  0.9663 -1.2235
   53TMC2    H2  830   4.334   2.581  12.081 -0.3787 -2.5939  0.2614
   53TMC2    C7  831   4.157   2.780  12.094 -0.1941  0.6815  0.5920
   53TMC2    C8  832   4.360   2.385  11.901 -1.0391  0.9906  0.1209
   53TMC2    O1  833   4.059   2.849  12.090  0.2950  0.2516 -0.0461
   53TMC2    O2  834   4.431   2.366  11.998  0.1883  0.6937  0.3094
   53TMC2    O5  835   4.406   2.380  11.778  0.1619  0.0668 -0.4767
   53TMC2    H5  836   4.360   2.422  11.702  0.1956  2.1908  0.6897
   54MPD2     C  837   3.741   2.641  11.542 -0.2256 -0.2401  0.7300
   54MPD2    C1  838   3.764   2.700  11.665 -0.4406 -0.2547 -0.3399
   54MPD2    C2  839   3.670   2.779  11.722 -0.3868  0.4561 -0.0562
   54MPD2    C3  840   3.546   2.788  11.664 -0.5162  0.4153 -0.4547
   54MPD2    C4  841   3.525   2.739  11.535  0.0911 -0.0701 -0.1790
   54MPD2    C5  842   3.632   2.675  11.471 -0.1950  1.0318  0.1394
   54MPD2     H  843   3.700   2.832  11.811  0.1671  1.3318 -0.7598
   54MPD2    H1  844   3.434   2.756  11.479 -0.6806 -1.6111  0.6107
   54MPD2    H2  845   3.825   2.587  11.498 -0.3616  2.0033 -2.2754
   54MPD2    H3  846   3.630   2.636  11.370  0.3756  1.3119  0.0175
   54MPD2     N  847   3.446   2.870  11.715 -0.3273  0.3543  0.1941
   54MPD2    H5  848   3.367   2.891  11.655 -1.5715  0.8484  1.9904
   54MPD2    N1  849   3.892   2.695  11.724 -0.3509  0.1910 -0.3136
   54MPD2    H7  850   3.909   2.749  11.808 -1.2472  1.9441 -1.2582
   55TMC2    C1  851   0.643   1.319   0.163 -0.0937 -0.3516  0.5185
   55TMC2    C2  852   0.727   1.390   0.080  0.3218 -0.1522  0.2292
   55TMC2    C3  853   0.857   1.375   0.100 -0.0068  0.1045 -0.7562
   55TMC2    C4  854   0.682   1.233   0.256  0.0409 -0.6584  0.1481
   55TMC2    C5  855   0.815   1.221   0.270 -0.6604 -0.0363  0.9531
   55TMC2    C6  856   0.901   1.293   0.198  0.3551  0.6472 -0.3953
   55TMC2     C  857   0.498   1.303   0.127 -0.0043 -0.3327  0.9443
   55TMC2     O  858   0.430   1.216   0.174  0.1812 -0.4247 -0.1557
   55TMC2     H  859   0.689   1.448  17.756  1.1758 -2.4373 -1.7253
   55TMC2    H1  860   0.609   1.193   0.325 -0.6738  0.7756  0.2378
   55TMC2    H2  861   1.007   1.270   0.210  0.6048  1.8943 -0.2405
   55TMC2    C7  862   0.864   1.100   0.336 -0.6067 -0.0697  0.5171
   55TMC2    C8  863   0.948   1.435  17.759 -0.2075 -1.0232 -0.6730
   55TMC2    O1  864   0.989   1.090   0.350 -0.0540 -1.0937  0.3737
   55TMC2    O2  865   1.063   1.396  17.740 -0.1975 -0.6500 -0.2674
   55TMC2    O5  866   0.922   1.567   0.010  0.3009  0.3499 -0.2540
   55TMC2    H5  867   0.827   1.589   0.019 -0.1609 -0.7420 -2.3929
   56MPD2     C  868   0.315   1.565  17.679 -0.5822 -0.0993 -0.0357
   56MPD2    C1  869   0.329   1.467   0.016  0.1062  0.5992 -0.5411
   56MPD2    C2  870   0.224   1.444   0.102 -0.6216 -0.5116 -0.1553
   56MPD2    C3  871   0.105   1.521   0.095  0.0726  0.0992 -0.3646
   56MPD2    C4  872   0.097   1.608  17.756 -0.3197 -0.4320  0.2765
   56MPD2    C5  873   0.200   1.630  17.668 -0.1421  0.3933  0.3979
   56MPD2     H  874   0.238   1.359   0.168 -3.6527  0.1991  1.3541
   56MPD2    H1  875   0.003   1.660  17.748 -0.0536 -0.2443 -1.7290
   56MPD2    H2  876   0.394   1.577  17.605 -2.2333 -1.6717 -2.0564
   56MPD2    H3  877   0.184   1.703  17.588 -0.3057 -0.3599 -0.2542
   56MPD2     N  878   4.740   1.505   0.182 -0.2942  0.5968 -0.1984
   56MPD2    H5  879   4.654   1.552   0.158 -0.3005  0.9509  0.5010
   56MPD2    N1  880   0.457   1.409   0.040 -0.0925  0.1939 -0.0694
   56MPD2    H7  881   0.531   1.458  17.751 -1.8648  1.0282 -1.9185
   57TMC2    C1  882   4.350   1.379  13.882 -0.9049 -0.0091 -0.7160
   57TMC2    C2  883   4.261   1.294  13.824 -0.2075  0.5553  0.2781
   57TMC2    C3  884   4.311   1.177  13.767 -0.5509 -0.2771  0.8024
   57TMC2    C4  885   4.487   1.353  13.893 -0.0383 -0.3553  0.7548
   57TMC2    C5  886   4.531   1.237  13.827 -0.4336  0.3102  0.0797
   57TMC2    C6  887   4.443   1.153  13.757 -0.5492  0.2738  0.1662
   57TMC2     C  888   4.287   1.483  13.959 -0.1778  0.0325 -0.5854
   57TMC2     O  889   4.166   1.465  13.973 -0.5045 -0.2737 -0.3638
   57TMC2     H  890   4.157   1.320  13.812  0.5412  3.1595 -0.6606
   57TMC2    H1  891   4.556   1.424  13.936  1.6915 -0.6057 -1.6496
   57TMC2    H2  892   4.487   1.092  13.679 -0.0378  0.8417  0.0096
   57TMC2    C7  893   4.656   1.259  13.764 -0.1759  0.0341  0.0619
   57TMC2    C8  894   4.218   1.095  13.693  0.3094 -0.3083 -0.4995
   57TMC2    O1  895   4.717   1.364  13.778 -0.0286  0.6438  0.3671
   57TMC2    O2  896   4.112   1.130  13.649 -0.2076 -0.2003  0.7054
   57TMC2    O5  897   4.269   0.965  13.681 -0.0364  0.5548  0.2532
   57TMC2    H5  898   4.355   0.948  13.725  0.4472 -0.6044 -1.1537
   58MPD2     C  899   4.286   1.859  14.304 -0.1097 -0.5073 -0.6724
   58MPD2    C1  900   4.180   1.802  14.241  0.1031 -0.5589 -0.1691
   58MPD2    C2  901   4.211   1.706  14.147 -0.3782 -0.3732  0.4413
   58MPD2    C3  902   4.339   1.672  14.110 -0.1623  0.5385 -0.3133
   58MPD2    C4  903   4.446   1.738  14.170 -0.0303  0.7197  0.4356
   58MPD2    C5  904   4.415   1.819  14.272 -0.0132  0.0732  0.1978
   58MPD2     H  905   4.129   1.657  14.094  0.1239 -1.5180  0.7180
   58MPD2    H1  906   4.550   1.728  14.139 -0.9700 -1.9744 -1.8129
   58MPD2    H2  907   4.273   1.929  14.386 -0.9184 -1.0856 -0.3140
   58MPD2    H3  908   4.500   1.861  14.323  1.4186 -0.8570 -1.4304
   58MPD2     N  909   4.372   1.576  14.004 -0.7005  0.0992  0.1747
   58MPD2    H5  910   4.466   1.574  13.965 -1.3344  1.7079 -1.4388
   58MPD2    N1  911   4.042   1.825  14.274 -0.2523 -0.5221  0.1759
   58MPD2    H7  912   3.979   1.767  14.219 -1.4264  1.1825 -0.2587
   59TMC2    C1  913   2.347   1.547  13.097  0.0658  0.0979 -0.4262
   59TMC2    C2  914   2.338   1.443  13.181  0.6669  0.2511  0.0290
   59TMC2    C3  915   2.262   1.338  13.147 -0.2285  0.5051  0.6345
   59TMC2    C4  916   2.263   1.569  12.990  0.0250 -0.4613 -0.1125
   59TMC2    C5  917   2.174   1.465  12.963 -0.7436 -0.2773  0.4091
   59TMC2    C6  918   2.181   1.349  13.038  0.1111 -0.4279 -0.0997
   59TMC2     C  919   2.391   1.670  13.159 -0.3740 -0.6065  0.3292
   59TMC2     O  920   2.321   1.767  13.138 -0.6909  0.8796 -0.4236
   59TMC2     H  921   2.390   1.429  13.276 -1.0526 -0.1021  0.9186
   59TMC2    H1  922   2.262   1.663  12.936  1.7881  0.7264  1.9206
   59TMC2    H2  923   2.107   1.270  13.034 -0.4950  0.1171  0.2909
   59TMC2    C7  924   2.103   1.448  12.838 -0.1823 -0.4280 -0.3215
   59TMC2    C8  925   2.221   1.260  13.257  0.5782  0.9929 -0.3479
   59TMC2    O1  926   2.036   1.347  12.825  0.3160 -0.1817 -0.1362
   59TMC2    O2  927   2.165   1.305  13.356  0.2572  0.0571 -0.4209
   59TMC2    O5  928   2.331   1.193  13.269 -0.3727  0.0556 -0.3635
   59TMC2    H5  929   2.375   1.172  13.184 -1.4430 -0.7901 -0.7156
   60MPD2     C  930   2.464   1.843  13.404 -0.3682  0.5380  0.1694
   60MPD2    C1  931   2.550   1.745  13.350 -0.8223 -0.3307  0.3577
   60MPD2    C2  932   2.679   1.739  13.401 -0.3946 -0.4232 -0.5067
   60MPD2    C3  933   2.718   1.831  13.502  0.4899 -0.4671 -0.3480
   60MPD2    C4  934   2.629   1.914  13.560 -0.9018 -0.0127 -0.3755
   60MPD2    C5  935   2.504   1.922  13.506 -0.0328 -0.0100 -0.0679
   60MPD2     H  936   2.744   1.678  13.338  1.4088  3.2552 -2.1891
   60MPD2    H1  937   2.654   1.990  13.633  0.0615  1.1606 -1.9359
   60MPD2    H2  938   2.364   1.860  13.366  0.0353  0.3720 -0.9921
   60MPD2    H3  939   2.439   2.004  13.533 -0.8385 -0.0089 -2.0404
   60MPD2     N  940   2.857   1.830  13.546  0.1506  0.1942  0.0533
   60MPD2    H5  941   2.879   1.889  13.625  1.5909 -0.1585 -0.0796
   60MPD2    N1  942   2.500   1.653  13.248 -0.2945  0.2910  0.1972
   60MPD2    H7  943   2.558   1.571  13.231 -0.5462 -0.2615  2.0797
   61TMC2    C1  944   1.325   2.762  15.575 -0.0757  0.1955  0.1134
   61TMC2    C2  945   1.226   2.715  15.664  0.6572  0.2216 -0.1556
   61TMC2    C3  946   1.115   2.795  15.683  0.7392  0.6975  0.4115
   61TMC2    C4  947   1.317   2.895  15.534 -0.0241 -0.0710 -0.0656
   61TMC2    C5  948   1.209   2.972  15.564 -0.4026 -0.8554 -0.4148
   61TMC2    C6  949   1.105   2.922  15.639  0.2191  0.1790  0.2784
   61TMC2     C  950   1.452   2.693  15.569  0.0027 -1.0890 -0.0259
   61TMC2     O  951   1.462   2.592  15.638  0.0585 -0.5334  0.2983
   61TMC2     H  952   1.234   2.616  15.706 -1.8549 -0.2515 -0.7929
   61TMC2    H1  953   1.396   2.934  15.472 -2.3960 -1.2547 -3.8493
   61TMC2    H2  954   1.011   2.974  15.654 -0.5581  0.2583 -4.8337
   61TMC2    C7  955   1.219   3.113  15.515  0.1223 -0.6082  0.3505
   61TMC2    C8  956   1.010   2.722  15.749 -0.0155  0.0955 -0.4037
   61TMC2    O1  957   1.333   3.155  15.499  0.1205  0.1336 -0.6136
   61TMC2    O2  958   0.981   2.608  15.721  0.0947 -0.3756 -0.1974
   61TMC2    O5  959   0.941   2.813  15.821  0.0092  0.3488 -0.2116
   61TMC2    H5  960   0.992   2.897  15.819 -0.6750  0.8202  2.0235
   62MPD2     C  961   1.738   2.635  15.542  0.6652 -0.3862  0.2119
   62MPD2    C1  962   1.662   2.704  15.446 -0.0271  0.0418 -0.3257
   62MPD2    C2  963   1.718   2.766  15.336  0.1294  0.0972  0.0166
   62MPD2    C3  964   1.857   2.769  15.326 -0.3242 -0.0206 -0.1149
   62MPD2    C4  965   1.936   2.703  15.418  1.4588 -0.5548  0.7789
   62MPD2    C5  966   1.873   2.639  15.524 -0.5685 -0.1201 -1.1115
   62MPD2     H  967   1.656   2.814  15.260  0.6806  1.7653  0.6092
   62MPD2    H1  968   2.043   2.719  15.419  1.2296  0.9100  1.5787
   62MPD2    H2  969   1.697   2.583  15.628 -0.0969 -2.6081 -1.5149
   62MPD2    H3  970   1.935   2.592  15.599  0.3651  2.1736 -0.4420
   62MPD2     N  971   1.905   2.843  15.212  0.2042  0.4584 -0.6302
   62MPD2    H5  972   1.838   2.893  15.154 -0.1033  0.0718 -0.6111
   62MPD2    N1  973   1.526   2.721  15.453 -0.1674 -0.2600  0.4176
   62MPD2    H7  974   1.478   2.783  15.388  0.6725 -1.2949 -1.1777
   63TMC2    C1  975   0.976   3.200  10.548 -1.0303 -0.0228 -0.4192
   63TMC2    C2  976   1.100   3.258  10.528  0.1421 -0.8430  0.6339
   63TMC2    C3  977   1.110   3.350  10.430  0.2508 -0.1915  0.1242
   63TMC2    C4  978   0.887   3.211  10.449  0.2848  0.4617  0.6494
   63TMC2    C5  979   0.905   3.292  10.343 -0.6371  1.0831  0.7749
   63TMC2    C6  980   1.016   3.363  10.335 -0.0776  0.3178  0.0841
   63TMC2     C  981   0.938   3.163  10.684 -0.4234 -0.1137  1.1067
   63TMC2     O  982   1.003   3.216  10.776 -0.6233 -0.3919  0.2369
   63TMC2     H  983   1.188   3.246  10.590  1.1826  0.2485 -0.6276
   63TMC2    H1  984   0.792   3.160  10.461  0.5646 -0.1362  0.3287
   63TMC2    H2  985   1.028   3.421  10.244 -0.7287 -1.4765 -1.1216
   63TMC2    C7  986   0.803   3.289  10.246  0.6128 -1.5499  0.2572
   63TMC2    C8  987   1.251   3.376  10.405 -0.5762 -0.3503  0.2531
   63TMC2    O1  988   0.701   3.234  10.286 -0.1103  0.7190 -0.1668
   63TMC2    O2  989   1.341   3.288  10.403 -0.5707  0.0001  0.2312
   63TMC2    O5  990   1.252   3.492  10.340  0.1295 -0.2650 -0.3695
   63TMC2    H5  991   1.169   3.545  10.343  0.4458  0.2403 -0.5807
   64MPD2     C  992   0.590   2.962  10.997 -0.1789 -0.3732  0.5834
   64MPD2    C1  993   0.628   2.857  10.913  0.4793  0.1079  0.2449
   64MPD2    C2  994   0.723   2.893  10.815 -0.0891 -0.1400  0.0848
   64MPD2    C3  995   0.778   3.017  10.808 -0.0255 -0.2063  0.2269
   64MPD2    C4  996   0.754   3.109  10.909 -0.3025  0.5304  0.2361
   64MPD2    C5  997   0.653   3.077  10.995 -0.1499  0.9993  0.0835
   64MPD2     H  998   0.756   2.818  10.745 -2.7787 -1.6048  0.3761
   64MPD2    H1  999   0.812   3.200  10.913 -1.4146  1.2053  1.2773
   64MPD2    H2 1000   0.510   2.947  11.069 -3.0525  0.7763 -2.3913
   64MPD2    H3 1001   0.625   3.154  11.066  0.2157 -0.1657  1.4821
   64MPD2     N 1002   0.857   3.058  10.694 -0.3738  0.3023  0.5227
   64MPD2    H5 1003   0.867   2.990  10.619 -0.4260  0.5647  0.2763
   64MPD2    N1 1004   0.587   2.729  10.913 -0.0452 -0.0309 -0.3101
   64MPD2    H7 1005   0.619   2.663  10.843  0.0661  1.1480 -1.3581
   65TMC2    C1 1006   2.275   2.366  15.619  0.5781  0.5080  0.3304
   65TMC2    C2 1007   2.214   2.357  15.496  0.6673 -0.0953 -0.6425
   65TMC2    C3 1008   2.211   2.467  15.421 -0.2486 -0.7824  0.5966
   65TMC2    C4 1009   2.317   2.486  15.673  0.3683 -0.3568 -0.3191
   65TMC2    C5 1010   2.302   2.597  15.585  0.4199  0.1173  0.1468
   65TMC2    C6 1011   2.260   2.592  15.457  0.2214 -0.1470  0.2482
   65TMC2     C 1012   2.278   2.249  15.709 -0.2554  0.1584  0.3670
   65TMC2     O 1013   2.281   2.282  15.827 -0.1309 -0.1442  0.3543
   65TMC2     H 1014   2.204   2.265  15.440  1.2114 -2.5155  3.2886
   65TMC2    H1 1015   2.336   2.496  15.779  0.3431  1.9420 -0.5281
   65TMC2    H2 1016   2.239   2.679  15.396 -0.4092  1.3950  2.7192
   65TMC2    C7 1017   2.303   2.729  15.646 -0.3121  0.2650  0.1046
   65TMC2    C8 1018   2.135   2.466  15.296  0.3765  0.0353  0.2778
   65TMC2    O1 1019   2.352   2.824  15.583  0.4242  0.2435  0.0742
   65TMC2    O2 1020   2.159   2.534  15.197  0.4609 -0.1083  0.1338
   65TMC2    O5 1021   2.037   2.377  15.310  0.1314 -0.6409  0.1436
   65TMC2    H5 1022   2.017   2.337  15.397 -0.1684 -3.2381 -1.1120
   66MPD2     C 1023   2.148   2.004  15.828 -0.6090 -0.8087  0.4834
   66MPD2    C1 1024   2.184   2.012  15.696 -1.1489  0.0239  0.5555
   66MPD2    C2 1025   2.168   1.906  15.610 -0.2255 -0.1986 -0.6539
   66MPD2    C3 1026   2.108   1.789  15.660 -0.0132  0.7413 -0.2471
   66MPD2    C4 1027   2.081   1.785  15.794 -0.1159 -0.7532 -0.3413
   66MPD2    C5 1028   2.104   1.888  15.883  0.5379  0.2039  0.3575
   66MPD2     H 1029   2.197   1.924  15.507 -1.3026 -0.0493 -0.9236
   66MPD2    H1 1030   2.028   1.697  15.830 -3.6377  0.3130 -2.9702
   66MPD2    H2 1031   2.148   2.091  15.892  0.8185 -0.8210  0.4981
   66MPD2    H3 1032   2.079   1.886  15.988 -1.3048 -1.9679 -0.1074
   66MPD2     N 1033   2.061   1.679  15.585 -0.7158  0.3846  0.0485
   66MPD2    H5 1034   2.002   1.610  15.631  1.5736 -2.0916 -0.6901
   66MPD2    N1 1035   2.231   2.134  15.640  0.0719  0.5139 -0.2661
   66MPD2    H7 1036   2.246   2.136  15.539 -0.6074 -0.5193 -0.3918
   67TMC2    C1 1037   2.704   1.843  14.248 -0.5103  0.1469  0.2656
   67TMC2    C2 1038   2.806   1.938  14.268  0.0914 -0.8759 -0.1870
   67TMC2    C3 1039   2.855   1.957  14.395 -0.4981  1.0654  0.0706
   67TMC2    C4 1040   2.658   1.767  14.350 -0.2323  0.3196  0.4630
   67TMC2    C5 1041   2.706   1.801  14.473  0.2700  0.7532  0.6366
   67TMC2    C6 1042   2.795   1.895  14.500  0.4583  0.5173  0.8135
   67TMC2     C 1043   2.667   1.814  14.112  0.4768  0.1882  0.2968
   67TMC2     O 1044   2.724   1.879  14.027 -0.4197  0.0698  0.0152
   67TMC2     H 1045   2.870   1.978  14.191  0.8113  1.1229  1.4344
   67TMC2    H1 1046   2.568   1.708  14.338  1.2080 -1.4686 -1.4773
   67TMC2    H2 1047   2.832   1.917  14.600 -1.3433  1.6128  1.2351
   67TMC2    C7 1048   2.686   1.696  14.566 -0.1074  0.2177  0.1378
   67TMC2    C8 1049   2.978   2.034  14.415  0.5121  0.1006  0.6331
   67TMC2    O1 1050   2.629   1.597  14.517  0.3755  0.0906 -0.2521
   67TMC2    O2 1051   3.041   2.019  14.521 -0.0533  0.4144 -0.1644
   67TMC2    O5 1052   2.952   2.154  14.358  0.0762 -0.2783  0.2385
   67TMC2    H5 1053   2.864   2.156  14.315  0.4103 -1.7228 -0.5288
   68MPD2     C 1054   2.609   1.675  13.848 -0.3729  0.2825  0.1391
   68MPD2    C1 1055   2.555   1.640  13.971 -0.4118 -0.5509 -0.0268
   68MPD2    C2 1056   2.458   1.546  13.974 -0.6591  0.4441 -0.2817
   68MPD2    C3 1057   2.410   1.492  13.856  0.2099 -0.4999 -0.1144
   68MPD2    C4 1058   2.457   1.532  13.738  0.2210 -0.2447  0.2044
   68MPD2    C5 1059   2.558   1.621  13.732 -0.3997 -0.4270  0.1271
   68MPD2     H 1060   2.423   1.509  14.070 -0.1326 -2.1365 -1.0802
   68MPD2    H1 1061   2.398   1.511  13.649 -1.1192  2.2456  0.4840
   68MPD2    H2 1062   2.675   1.758  13.827 -0.4237  0.6603  1.4607
   68MPD2    H3 1063   2.599   1.662  13.640 -1.5755  0.1015 -0.1633
   68MPD2     N 1064   2.297   1.402  13.849  0.2994  0.4992 -0.5728
   68MPD2    H5 1065   2.267   1.379  13.755  0.9508  1.3165 -0.9758
   68MPD2    N1 1066   2.600   1.694  14.094 -0.4006 -0.3925  0.1109
   68MPD2    H7 1067   2.569   1.645  14.178 -1.0999 -0.1321  0.0095
   69TMC2    C1 1068   4.380   3.234  12.428 -0.3285  0.6451  0.2214
   69TMC2    C2 1069   4.270   3.313  12.406  0.4529 -0.2662  0.1007
   69TMC2    C3 1070   4.229   3.314  12.280  0.5715  0.0768  0.5931
   69TMC2    C4 1071   4.440   3.151  12.330 -0.1923  0.3530 -0.3977
   69TMC2    C5 1072   4.383   3.156  12.203  0.2043  0.1324 -0.3692
   69TMC2    C6 1073   4.274   3.238  12.178 -0.4050  0.3982  0.1964
   69TMC2     C 1074   4.420   3.206  12.568  0.2976  0.4542  0.2242
   69TMC2     O 1075   4.331   3.240  12.644 -0.3594 -0.4900 -0.4790
   69TMC2     H 1076   4.236   3.384  12.481  2.0201 -1.2390  1.7319
   69TMC2    H1 1077   4.514   3.075  12.352 -1.9792 -1.0723  0.7794
   69TMC2    H2 1078   4.226   3.253  12.082  1.1548 -2.7738 -1.0763
   69TMC2    C7 1079   4.424   3.060  12.102  0.4601  0.0795 -0.0101
   69TMC2    C8 1080   4.104   3.388  12.269  0.2093  0.4678 -0.5339
   69TMC2    O1 1081   4.496   2.965  12.140  0.8451  0.1694  0.2652
   69TMC2    O2 1082   4.079   3.475  12.353 -0.9532 -0.2744 -0.0656
   69TMC2    O5 1083   4.010   3.307  12.212  0.3926  0.0823  0.7311
   69TMC2    H5 1084   4.047   3.234  12.157 -0.7053 -1.4534  2.0163
   70MPD2     C 1085   4.735   3.101  12.710 -0.4126 -0.7133 -0.5676
   70MPD2    C1 1086   4.600   3.125  12.707 -0.0302  0.3899  0.1280
   70MPD2    C2 1087   4.521   3.104  12.824  0.5739  0.0310 -0.7805
   70MPD2    C3 1088   4.589   3.060  12.936  0.9553  0.2492 -0.6181
   70MPD2    C4 1089   4.727   3.060  12.943 -0.4659 -0.6279 -0.0303
   70MPD2    C5 1090   0.058   3.081  12.829 -0.1333  0.1601 -0.2956
   70MPD2     H 1091   4.415   3.123  12.824  0.5317 -0.1176 -4.3285
   70MPD2    H1 1092   0.034   3.032  13.037  1.2656  0.8277 -0.4810
   70MPD2    H2 1093   0.056   3.119  12.623 -1.3051 -0.1308 -1.0666
   70MPD2    H3 1094   0.165   3.066  12.817  0.5964  3.9916  1.1358
   70MPD2     N 1095   4.523   3.015  13.054  0.2395 -0.2866  0.1109
   70MPD2    H5 1096   4.578   3.006  13.138  1.4770  1.0335 -0.5613
   70MPD2    N1 1097   4.546   3.156  12.586  0.5077  0.3439  0.0568
   70MPD2    H7 1098   4.614   3.158  12.511 -0.2708 -0.9849 -0.6801
   71TMC2    C1 1099   0.908   4.227   1.442 -0.4996  0.0288 -0.1820
   71TMC2    C2 1100   0.914   4.261   1.577  0.6945 -0.2239  0.6332
   71TMC2    C3 1101   0.816   4.348   1.618  0.1614 -0.1403  0.1645
   71TMC2    C4 1102   0.816   4.277   1.350  0.8123 -1.1022  1.2554
   71TMC2    C5 1103   0.722   4.356   1.404  0.5356 -0.1963 -0.1079
   71TMC2    C6 1104   0.720   4.391   1.536  0.4215 -0.5739 -0.8664
   71TMC2     C 1105   1.021   4.154   1.396  0.6633 -0.8841 -0.2265
   71TMC2     O 1106   1.117   4.140   1.468 -1.1127 -0.0203 -0.4260
   71TMC2     H 1107   1.001   4.241   1.639  1.4435  0.6627 -0.1304
   71TMC2    H1 1108   0.835   4.268   1.244 -0.3596 -1.9339  1.1218
   71TMC2    H2 1109   0.638   4.449   1.579  2.0402  0.4432  0.8511
   71TMC2    C7 1110   0.597   4.354   1.347  0.1959  0.2177 -0.3198
   71TMC2    C8 1111   0.802   4.383   1.759 -0.0660  0.7314 -0.2258
   71TMC2    O1 1112   0.520   4.445   1.371  0.0310 -0.8171 -0.9574
   71TMC2    O2 1113   0.746   4.478   1.813 -0.0598  0.0517 -0.2957
   71TMC2    O5 1114   0.853   4.280   1.831  0.3518  0.1543  0.5895
   71TMC2    H5 1115   0.879   4.201   1.779 -0.6514  0.4641 -0.3601
   72MPD2     C 1116   1.240   3.904   1.005  0.2343 -0.2804  0.0046
   72MPD2    C1 1117   1.296   3.944   1.127  0.0648  0.5007  0.5052
   72MPD2    C2 1118   1.221   4.018   1.220  0.3285 -0.5420 -0.8721
   72MPD2    C3 1119   1.087   4.027   1.193  0.7790  0.2729 -0.7333
   72MPD2    C4 1120   1.029   3.977   1.081  0.0138  0.4614  0.3029
   72MPD2    C5 1121   1.106   3.916   0.988  0.0510 -0.6104  0.4545
   72MPD2     H 1122   1.271   4.071   1.300  0.5363  0.1912 -1.4918
   72MPD2    H1 1123   0.921   3.980   1.070  0.1201  1.7860 -0.3582
   72MPD2    H2 1124   1.297   3.857   0.926  2.3369  0.9212  0.8320
   72MPD2    H3 1125   1.062   3.889   0.893  1.2755 -1.3402  0.0954
   72MPD2     N 1126   0.993   4.104   1.274 -0.2207 -0.3313  0.0546
   72MPD2    H5 1127   0.896   4.113   1.249 -0.1628 -0.4851 -0.2212
   72MPD2    N1 1128   1.435   3.941   1.154  0.0879 -0.0407 -0.0729
   72MPD2    H7 1129   1.463   3.990   1.238  0.2343  1.8595 -1.2381
   73TMC2    C1 1130   0.877   0.286  14.055 -0.4481  0.4036  0.7019
   73TMC2    C2 1131   0.819   0.329  14.171 -0.8242  0.6752  0.3577
   73TMC2    C3 1132   0.849   0.263  14.287  0.0659 -0.7209 -0.3662
   73TMC2    C4 1133   0.963   0.178  14.057 -0.1921 -0.2700  1.2395
   73TMC2    C5 1134   0.995   0.121  14.181  0.4438  0.0621  0.7279
   73TMC2    C6 1135   0.943   0.170  14.298 -0.2808 -0.2824  0.2974
   73TMC2     C 1136   0.927   0.382  13.962  0.7916 -0.4776  0.3020
   73TMC2     O 1137   1.033   0.355  13.911 -0.1275 -0.3658  0.4690
   73TMC2     H 1138   0.758   0.418  14.181 -0.4214  0.9316  0.5629
   73TMC2    H1 1139   0.996   0.131  13.965 -0.7057  1.5062  0.1478
   73TMC2    H2 1140   0.986   0.138  14.392  0.1334 -0.3908  0.0695
   73TMC2    C7 1141   1.136   0.105  14.196 -0.5284  0.2666  1.1081
   73TMC2    C8 1142   0.782   0.308  14.412  0.2503  0.5258 -0.3641
   73TMC2    O1 1143   1.180   0.049  14.297 -0.3146 -0.2192  0.3853
   73TMC2    O2 1144   0.724   0.413  14.421 -0.2443 -0.0263  0.3048
   73TMC2    O5 1145   0.750   0.196  14.474  0.6704 -0.3113  0.5690
   73TMC2    H5 1146   0.791   0.119  14.429  1.9054  1.9284 -2.0643
   74MPD2     C 1147   0.959   0.856  13.778 -0.1480  0.1398  0.2446
   74MPD2    C1 1148   1.060   0.769  13.793 -0.1988  0.4602  0.5065
   74MPD2    C2 1149   1.026   0.645  13.850  0.2286  0.1175  0.7789
   74MPD2    C3 1150   0.899   0.620  13.894 -0.5716  0.2440  0.7769
   74MPD2    C4 1151   0.803   0.717  13.882  0.2260 -0.5930  0.4168
   74MPD2    C5 1152   0.829   0.835  13.820  0.3331 -0.7432 -0.0526
   74MPD2     H 1153   1.097   0.568  13.879  3.2738  2.2656 -0.9063
   74MPD2    H1 1154   0.701   0.688  13.907 -0.4419  2.6928  1.4767
   74MPD2    H2 1155   0.980   0.956  13.741 -0.9522  0.9899  2.1019
   74MPD2    H3 1156   0.756   0.914  13.808  1.5594  0.6542  1.6390
   74MPD2     N 1157   0.865   0.508  13.966  0.2363  0.5624 -0.8002
   74MPD2    H5 1158   0.776   0.521  14.012  0.9038 -2.0414  1.2425
   74MPD2    N1 1159   1.193   0.802  13.744 -0.0677 -0.0691  0.2686
   74MPD2    H7 1160   1.208   0.891  13.698 -1.6561  0.3373  0.5368
   75TMC2    C1 1161   2.103   1.294  13.928 -0.1251 -0.9287  0.6278
   75TMC2    C2 1162   2.077   1.168  13.981  0.5912 -0.2695 -0.0853
   75TMC2    C3 1163   1.970   1.104  13.922  0.3628 -0.2169 -0.5923
   75TMC2    C4 1164   2.028   1.358  13.833 -0.7303 -0.2096 -0.4009
   75TMC2    C5 1165   1.920   1.288  13.782 -0.1691 -0.0537 -0.6783
   75TMC2    C6 1166   1.894   1.159  13.822 -0.1613 -0.3893  0.0866
   75TMC2     C 1167   2.240   1.347  13.954  0.1385  0.4379 -0.2154
   75TMC2     O 1168   2.282   1.334  14.067  0.7891  0.1801 -0.5504
   75TMC2     H 1169   2.149   1.128  14.050 -0.4149 -0.4372  0.8619
   75TMC2    H1 1170   2.053   1.460  13.806 -0.1624  0.2546  1.8893
   75TMC2    H2 1171   1.824   1.096  13.769  1.1590 -1.6093 -0.1940
   75TMC2    C7 1172   1.844   1.338  13.675 -0.0951  0.3052 -0.1797
   75TMC2    C8 1173   1.946   0.968  13.957 -0.1657 -0.3268 -0.1295
   75TMC2    O1 1174   1.775   1.262  13.607  0.5293 -0.2679  0.2413
   75TMC2    O2 1175   2.035   0.898  14.011  0.0348 -0.0759  0.4605
   75TMC2    O5 1176   1.815   0.942  13.957 -0.8200  1.0530  0.3780
   75TMC2    H5 1177   1.751   1.012  13.931 -3.0457 -2.0371 -2.4870
   76TMC2    C1 1178   0.571   1.900  12.033 -0.5240 -0.1634 -0.6723
   76TMC2    C2 1179   0.491   1.802  11.996  0.3265  0.5936 -0.7038
   76TMC2    C3 1180   0.535   1.673  12.008  0.0754  0.3265 -0.3697
   76TMC2    C4 1181   0.695   1.878  12.092  0.2837 -0.3436 -0.3071
   76TMC2    C5 1182   0.733   1.752  12.102  0.2272 -0.4759 -0.4301
   76TMC2    C6 1183   0.651   1.646  12.061  0.7843 -0.1388 -0.5818
   76TMC2     C 1184   0.539   2.035  11.981 -0.0033  0.0605 -0.0098
   76TMC2     O 1185   0.433   2.038  11.915  0.7182 -0.1221  0.1431
   76TMC2     H 1186   0.399   1.822  11.942  0.7628 -0.1942 -1.7274
   76TMC2    H1 1187   0.764   1.957  12.120  1.1557 -1.3495  0.3522
   76TMC2    H2 1188   0.677   1.542  12.077 -1.3621 -0.7058 -0.7237
   76TMC2    C7 1189   0.844   1.700  12.193  0.3441  0.2506 -0.5105
   76TMC2    C8 1190   0.451   1.565  11.949 -0.1125 -0.2630 -0.3704
   76TMC2    O1 1191   0.880   1.582  12.178 -0.2025  0.7251  0.2010
   76TMC2    O2 1192   0.333   1.579  11.918  0.7034  0.1574  0.0632
   76TMC2    O5 1193   0.530   1.474  11.895 -0.3497 -0.7075 -0.4810
   76TMC2    H5 1194   0.621   1.510  11.886  0.8150 -3.1259  1.2983
   77MPD2     C 1195   0.627   2.523  11.883 -0.4596  0.4936  0.5598
   77MPD2    C1 1196   0.509   2.450  11.886 -0.6151  0.2452 -0.8563
   77MPD2    C2 1197   0.513   2.319  11.923 -0.0947 -1.2389  0.2429
   77MPD2    C3 1198   0.629   2.259  11.968 -0.2850 -0.5356  0.2662
   77MPD2    C4 1199   0.746   2.335  11.969  0.4851  0.7474 -0.1468
   77MPD2    C5 1200   0.742   2.458  11.920  0.3307 -0.2177 -0.9673
   77MPD2     H 1201   0.424   2.258  11.923 -1.2751  0.4659 -0.5475
   77MPD2    H1 1202   0.839   2.301  12.012 -0.4513 -1.3848  0.1575
   77MPD2    H2 1203   0.639   2.625  11.847  0.3280  0.6472  1.2674
   77MPD2    H3 1204   0.834   2.513  11.929 -1.1076  2.4366 -2.4100
   77MPD2     N 1205   0.635   2.128  12.010  0.3169 -0.1366 -0.0764
   77MPD2    H5 1206   0.725   2.096  12.044 -0.1396 -0.4160  0.8706
   77MPD2    N1 1207   0.384   2.501  11.840 -0.4603  0.0007 -0.2215
   77MPD2    H7 1208   0.301   2.445  11.854 -0.9816  1.2379  1.6994
   78TMC2    C1 1209   1.714   4.349   1.675  0.0933 -0.5525 -0.4568
   78TMC2    C2 1210   1.773   4.437   1.761  0.3343  0.1005 -0.5630
   78TMC2    C3 1211   1.906   4.403   1.801  0.2118 -0.2574  0.0550
   78TMC2    C4 1212   1.778   4.235   1.625 -0.0423  0.3695  0.3551
   78TMC2    C5 1213   1.903   4.210   1.670  0.0850 -0.1914 -0.1310
   78TMC2    C6 1214   1.969   4.286   1.767 -0.1078  0.3284 -0.8577
   78TMC2     C 1215   1.575   4.372   1.649  0.3277  0.3698 -0.0089
   78TMC2     O 1216   1.524   4.295   1.570  0.1131 -0.7740  0.5330
   78TMC2     H 1217   1.746   4.540   1.778 -3.2988 -0.8805 -0.3791
   78TMC2    H1 1218   1.735   4.168   1.552  2.9278 -1.5705  0.3849
   78TMC2    H2 1219   2.065   4.262   1.812 -0.0699  0.0848 -1.0617
   78TMC2    C7 1220   1.983   4.107   1.607 -0.5600  0.2524  0.1340
   78TMC2    C8 1221   1.981   4.492   1.889  0.6209 -0.1787  0.0391
   78TMC2    O1 1222   2.101   4.128   1.594 -0.0784  0.0937 -0.1069
   78TMC2    O2 1223   1.926   4.577   1.960 -0.1520 -0.3201 -0.2642
   78TMC2    O5 1224   2.104   4.506   1.841  0.0001  0.5571 -0.3522
   78TMC2    H5 1225   2.130   4.446   1.768  0.5297  0.6864 -0.2742
   79MPD1     C 1226   1.119   4.599   1.724 -0.0346  0.6237 -0.5865
   79MPD1    C1 1227   1.164   4.539   1.608 -0.5463 -0.6895  0.8404
   79MPD1    C2 1228   1.294   4.493   1.612  0.0645 -0.1354  0.3332
   79MPD1    C3 1229   1.378   4.504   1.723  0.5839  0.0927 -0.4960
   79MPD1    C4 1230   1.328   4.565   1.832  0.4153 -0.1819  0.4436
   79MPD1    C5 1231   1.199   4.620   1.829 -0.4195 -0.1100  0.2294
   79MPD1     H 1232   1.343   4.453   1.525 -3.3381  0.0403 -1.6585
   79MPD1    H1 1233   1.390   4.585   1.918 -0.9113  0.0131  1.3486
   79MPD1    H2 1234   1.013   4.614   1.742  0.4148  4.1865 -1.0285
   79MPD1    H3 1235   1.168   4.669   1.921  0.6657  0.6928  0.1758
   79MPD1     N 1236   1.516   4.468   1.731 -0.5836  0.1237  0.6716
   79MPD1    H5 1237   1.556   4.489   1.822  2.6399  0.6334 -0.8902
   79MPD1    N1 1238   1.073   4.504   1.510  0.8664 -0.1120 -0.1280
   79MPD1    H6 1239   0.994   4.568   1.509  2.3541  1.7193  0.6038
   79MPD1    H7 1240   1.108   4.495   1.415  0.3251  3.2555 -0.6505
   80TMC2    C1 1241   4.312   1.920  11.915  0.3044  0.4716  0.2578
   80TMC2    C2 1242   4.395   1.883  11.813 -0.1241  0.5095  0.0667
   80TMC2    C3 1243   4.436   1.756  11.805 -0.4284  0.0840  0.3448
   80TMC2    C4 1244   4.285   1.837  12.021 -0.0978  0.0703  0.2438
   80TMC2    C5 1245   4.332   1.706  12.005  0.2151  0.5955  0.4447
   80TMC2    C6 1246   4.386   1.660  11.891  0.2941  0.8140  0.3838
   80TMC2     C 1247   4.241   2.044  11.905 -0.5536  0.7539  0.7394
   80TMC2     O 1248   4.238   2.106  11.800 -0.4330 -0.4038  0.3062
   80TMC2     H 1249   4.414   1.959  11.738 -0.4982 -1.6577 -2.2146
   80TMC2    H1 1250   4.194   1.858  12.076 -1.0529 -1.2001 -0.8348
   80TMC2    H2 1251   4.392   1.554  11.866 -1.5903  0.8692 -0.2666
   80TMC2    C7 1252   4.280   1.611  12.099  0.2020 -0.0662  0.9840
   80TMC2    C8 1253   4.477   1.719  11.675  0.2213 -0.0643 -0.2594
   80TMC2    O1 1254   4.252   1.499  12.056 -0.1396 -0.4126 -0.1173
   80TMC2    O2 1255   4.449   1.612  11.622 -0.2633  0.7342 -0.3273
   80TMC2    O5 1256   4.548   1.824  11.624  0.4293 -0.1119  0.4999
   80TMC2    H5 1257   4.571   1.896  11.686  2.0580 -0.4390  0.2796
   81MPD2     C 1258   4.014   2.223  11.935  0.9445 -0.7490  0.0944
   81MPD2    C1 1259   4.100   2.197  12.040 -0.8911 -0.0064  0.0152
   81MPD2    C2 1260   4.096   2.276  12.149  0.6049  1.1889 -0.0161
   81MPD2    C3 1261   4.001   2.386  12.154  0.0687 -0.5825 -0.3884
   81MPD2    C4 1262   3.911   2.414  12.046  0.2532 -0.3485 -0.1739
   81MPD2    C5 1263   3.929   2.336  11.936 -0.7324 -0.5028  0.7208
   81MPD2     H 1264   4.158   2.253  12.235  0.1172  0.4681  0.1398
   81MPD2    H1 1265   3.851   2.504  12.041  0.9881  0.0523 -1.6463
   81MPD2    H2 1266   4.015   2.164  11.845  1.2120 -2.2839  1.0924
   81MPD2    H3 1267   3.879   2.355  11.842  0.7694 -2.2835 -0.4358
   81MPD2     N 1268   4.010   2.457  12.277  1.0405 -0.0088  0.1034
   81MPD2    H5 1269   4.091   2.436  12.334  1.2412  0.7292  0.0791
   81MPD2    N1 1270   4.191   2.089  12.031 -0.6314 -0.3929 -0.8185
   81MPD2    H7 1271   4.240   2.058  12.115  0.4258  0.7373 -1.0195
   82TMC2    C1 1272   2.707   1.698  11.235  0.3741  1.0129 -0.8882
   82TMC2    C2 1273   2.753   1.763  11.340  0.5024  0.2643 -1.0946
   82TMC2    C3 1274   2.707   1.732  11.464 -0.4187 -0.4637 -0.3637
   82TMC2    C4 1275   2.615   1.598  11.244  0.3889  0.0206  0.5340
   82TMC2    C5 1276   2.559   1.578  11.372 -0.5716  0.3759  0.2944
   82TMC2    C6 1277   2.607   1.644  11.477  0.2238  0.3171 -0.2405
   82TMC2     C 1278   2.734   1.748  11.101  0.2607  0.4803 -0.4818
   82TMC2     O 1279   2.834   1.815  11.077 -0.1091  0.3453 -0.1602
   82TMC2     H 1280   2.818   1.848  11.320 -0.0488  0.9328 -0.0649
   82TMC2    H1 1281   2.591   1.529  11.164 -1.6587 -0.8186  1.8892
   82TMC2    H2 1282   2.572   1.616  11.576 -0.2339 -1.9132 -1.0411
   82TMC2    C7 1283   2.470   1.466  11.406  0.9681 -0.4127  0.0103
   82TMC2    C8 1284   2.728   1.824  11.567  0.0387  0.4202  0.4027
   82TMC2    O1 1285   2.465   1.425  11.522  0.5258 -0.1068 -0.3301
   82TMC2    O2 1286   2.656   1.856  11.660  0.7956  0.6065  0.2906
   82TMC2    O5 1287   2.856   1.859  11.553 -0.6276  0.1832 -0.6973
   82TMC2    H5 1288   2.906   1.806  11.488 -0.6455  0.0500 -0.6032
   83MPD2     C 1289   2.551   1.882  10.649  0.0853 -0.6646 -0.2413
   83MPD2    C1 1290   2.451   1.808  10.712  0.1250 -0.2168  0.6796
   83MPD2    C2 1291   2.469   1.764  10.842 -0.7579  0.1354  0.4597
   83MPD2    C3 1292   2.593   1.790  10.898  0.7757 -0.2855  0.7291
   83MPD2    C4 1293   2.695   1.858  10.828 -0.1886 -0.6564 -0.6109
   83MPD2    C5 1294   2.668   1.909  10.706 -0.5760 -0.0293  0.4604
   83MPD2     H 1295   2.391   1.734  10.911  0.6607 -0.3510  1.8380
   83MPD2    H1 1296   2.795   1.872  10.866 -0.0792 -0.9595 -0.7876
   83MPD2    H2 1297   2.537   1.932  10.554  0.6048  0.4931  0.2881
   83MPD2    H3 1298   2.747   1.963  10.655 -0.5360 -0.4145  0.1099
   83MPD2     N 1299   2.619   1.738  11.026 -0.0863 -0.3294  0.6059
   83MPD2    H5 1300   2.538   1.701  11.074  0.4655 -1.3969  0.6962
   83MPD2    N1 1301   2.318   1.809  10.654 -0.5159 -0.2933 -0.3606
   83MPD2    H7 1302   2.300   1.868  10.573  0.3524 -1.0341 -1.0941
   84TMC2    C1 1303   3.566   1.195  10.719  0.6482 -0.4108 -0.3455
   84TMC2    C2 1304   3.558   1.292  10.620  0.7613 -0.1508 -0.6387
   84TMC2    C3 1305   3.594   1.261  10.489  0.0685  0.6074 -0.0547
   84TMC2    C4 1306   3.573   1.063  10.678  0.7799 -0.7285 -0.5505
   84TMC2    C5 1307   3.598   1.039  10.551 -0.3200 -0.1262 -0.3905
   84TMC2    C6 1308   3.623   1.137  10.456 -0.1169 -0.6107 -0.0873
   84TMC2     C 1309   3.534   1.225  10.849 -0.3512 -0.3090  0.8126
   84TMC2     O 1310   3.473   1.329  10.864 -0.4744  0.7100  0.1570
   84TMC2     H 1311   3.540   1.395  10.649 -0.2997  0.6438 -4.0612
   84TMC2    H1 1312   3.541   0.985  10.747 -0.8633  1.4325  1.1408
   84TMC2    H2 1313   3.659   1.113  10.357 -0.1326  0.5004 -0.3669
   84TMC2    C7 1314   3.608   0.896  10.516 -0.0089 -0.2222 -0.3991
   84TMC2    C8 1315   3.676   1.352  10.408 -1.0081 -0.7290  0.4033
   84TMC2    O1 1316   3.619   0.817  10.610 -0.0461 -0.2262  0.2445
   84TMC2    O2 1317   3.770   1.315  10.340  0.3597 -0.8058  0.1442
   84TMC2    O5 1318   3.656   1.476  10.450 -0.2402  0.0424 -0.2887
   84TMC2    H5 1319   3.569   1.504  10.486  0.6377  1.3707  0.7555
   85TMC2    C1 1320   4.464   3.693  16.153 -0.5842  0.6772  0.6492
   85TMC2    C2 1321   4.335   3.733  16.117  0.0902 -0.2919  0.0266
   85TMC2    C3 1322   4.327   3.835  16.021 -0.0533  0.4754 -0.5496
   85TMC2    C4 1323   4.578   3.753  16.110  0.1265 -0.1935  0.1116
   85TMC2    C5 1324   4.558   3.864  16.033  1.2029  0.1942  0.4421
   85TMC2    C6 1325   4.442   3.901  15.979 -0.6898  0.6075 -0.1936
   85TMC2     C 1326   4.484   3.587  16.250 -0.9282 -0.3779 -0.1240
   85TMC2     O 1327   4.589   3.586  16.320 -0.3280 -0.2295  0.7058
   85TMC2     H 1328   4.246   3.684  16.155 -0.4641  1.6441  1.2264
   85TMC2    H1 1329   4.676   3.725  16.148  0.0647 -0.1519  0.3053
   85TMC2    H2 1330   4.421   3.975  15.903  2.7228  1.6790 -0.1234
   85TMC2    C7 1331   4.679   3.924  15.968 -0.1712  0.2125  0.5249
   85TMC2    C8 1332   4.208   3.852  15.942 -0.2058 -0.5482 -0.2517
   85TMC2    O1 1333   0.040   3.857  15.979 -0.9852  0.0258  0.6192
   85TMC2    O2 1334   4.192   3.956  15.881  0.2380  0.2211  0.1555
   85TMC2    O5 1335   4.132   3.743  15.938 -0.1755  0.0808 -0.0948
   85TMC2    H5 1336   4.174   3.667  15.984  1.6595  0.8510 -0.4626
   86MPD2     C 1337   4.349   3.129  16.447 -0.3904  0.1501 -0.5733
   86MPD2    C1 1338   4.268   3.163  16.342 -0.0008  0.3649 -0.0243
   86MPD2    C2 1339   4.289   3.275  16.272  0.6958  0.3797  0.0643
   86MPD2    C3 1340   4.380   3.371  16.312 -0.1780 -0.1572 -0.0862
   86MPD2    C4 1341   4.456   3.345  16.425 -0.6911  0.8872 -0.0120
   86MPD2    C5 1342   4.448   3.224  16.486 -0.6184  0.3540  0.1635
   86MPD2     H 1343   4.229   3.286  16.182  0.9439 -0.8320 -0.2574
   86MPD2    H1 1344   4.532   3.414  16.459  0.1198  0.2618 -0.5894
   86MPD2    H2 1345   4.335   3.042  16.510  1.0737  0.6178  0.4036
   86MPD2    H3 1346   4.513   3.194  16.568  0.3199 -0.7564 -0.9848
   86MPD2     N 1347   4.390   3.484  16.232 -0.1595 -0.1660  0.8627
   86MPD2    H5 1348   4.326   3.490  16.153 -1.2327 -1.5754  1.6177
   86MPD2    N1 1349   4.163   3.073  16.296 -0.1762 -0.5898 -0.3382
   86MPD2    H7 1350   4.113   3.090  16.209 -1.2046 -3.6937 -0.3414
   87TMC2    C1 1351   2.483   1.744   0.773  0.0293 -0.0686 -0.2690
   87TMC2    C2 1352   2.584   1.812   0.830  0.1124 -0.2056 -0.1388
   87TMC2    C3 1353   2.546   1.911   0.913  0.3661 -0.5791 -0.3377
   87TMC2    C4 1354   2.352   1.764   0.804  0.8614 -0.0956 -0.4573
   87TMC2    C5 1355   2.319   1.863   0.889  0.0905  0.6350  0.4923
   87TMC2    C6 1356   2.419   1.928   0.950  0.0484  0.5506  0.6152
   87TMC2     C 1357   2.518   1.619   0.709 -0.6391 -0.5723  0.3967
   87TMC2     O 1358   2.486   1.600   0.594 -0.2935  0.2080  0.0452
   87TMC2     H 1359   2.688   1.799   0.803  0.0458 -0.2517 -0.3751
   87TMC2    H1 1360   2.280   1.694   0.763  1.4190 -0.7030 -0.4062
   87TMC2    H2 1361   2.386   2.002   1.021  1.7649  2.6343 -0.7849
   87TMC2    C7 1362   2.184   1.921   0.908 -0.0412 -0.5750 -0.3750
   87TMC2    C8 1363   2.649   1.957   1.004 -0.3098 -0.9255 -0.8742
   87TMC2    O1 1364   2.187   2.024   0.977 -0.5286  0.1020 -0.6803
   87TMC2    O2 1365   2.757   1.900   1.015 -0.7397 -0.1216  0.2499
   87TMC2    O5 1366   2.610   2.063   1.076 -0.4934 -0.4412  0.1493
   87TMC2    H5 1367   2.544   2.114   1.024  0.9168  0.2220 -1.0129
   88MPD2     C 1368   1.854   1.767   0.866  0.3521 -0.1295 -0.4233
   88MPD2    C1 1369   1.939   1.862   0.915  0.4836 -1.6442 -0.0917
   88MPD2    C2 1370   1.896   1.968   0.985 -0.3115 -0.0663 -0.1882
   88MPD2    C3 1371   1.767   1.982   1.012  0.6410 -0.3501 -0.5986
   88MPD2    C4 1372   1.674   1.904   0.948 -1.3489  0.6884 -0.3437
   88MPD2    C5 1373   1.721   1.800   0.871 -0.3477  0.2541 -0.2605
   88MPD2     H 1374   1.969   2.039   1.023 -0.9606  1.2523 -1.4191
   88MPD2    H1 1375   1.567   1.917   0.958 -1.7325 -1.5963 -1.3850
   88MPD2    H2 1376   1.882   1.690   0.795 -2.0940 -1.2852 -0.1187
   88MPD2    H3 1377   1.650   1.735   0.821 -0.7217 -0.1004  0.7250
   88MPD2     N 1378   1.714   2.088   1.090 -0.1014 -0.0910 -0.5414
   88MPD2    H5 1379   1.613   2.102   1.091 -0.2961 -1.6307  1.0151
   88MPD2    N1 1380   2.079   1.838   0.881  0.7425  0.0270 -0.1908
   88MPD2    H7 1381   2.098   1.752   0.829  0.9900  0.6263 -1.0926
   89TMC2    C1 1382   2.764   1.079   1.827  0.4214 -0.4278 -0.0846
   89TMC2    C2 1383   2.672   1.151   1.890  0.1894 -0.0221  0.3833
   89TMC2    C3 1384   2.719   1.263   1.954 -0.0425  0.2636  0.1301
   89TMC2    C4 1385   2.897   1.112   1.824  0.3036  0.5595 -0.5873
   89TMC2    C5 1386   2.938   1.224   1.891 -0.1718  0.6507 -0.1449
   89TMC2    C6 1387   2.853   1.295   1.961 -0.2411  0.3127 -0.2823
   89TMC2     C 1388   2.723   0.965   1.743  0.5660 -0.4677 -0.1424
   89TMC2     O 1389   2.812   0.911   1.675  0.3508 -0.1824  0.3109
   89TMC2     H 1390   2.566   1.133   1.881  0.3959 -0.9373 -0.2673
   89TMC2    H1 1391   2.969   1.039   1.790 -0.7374 -0.5142 -0.4888
   89TMC2    H2 1392   2.891   1.374   2.024  0.1966  1.4683 -1.9993
   89TMC2    C7 1393   3.066   1.282   1.862 -0.6486 -0.1323  0.5063
   89TMC2    C8 1394   2.629   1.342   2.030  0.8536 -0.0336 -0.5866
   89TMC2    O1 1395   3.099   1.375   1.931 -0.1859  0.1242  0.7238
   89TMC2    O2 1396   2.653   1.463   2.035  0.0665  0.0927 -0.1414
   89TMC2    O5 1397   2.580   1.258   2.124 -0.0113 -0.1147  0.0266
   89TMC2    H5 1398   2.614   1.167   2.112  0.5208 -0.3818  3.4764
   90MPD2     C 1399   2.411   0.613   1.529 -0.3399  0.0066 -0.7291
   90MPD2    C1 1400   2.359   0.648   1.649 -0.3644  0.3169  0.4809
   90MPD2    C2 1401   2.419   0.756   1.724 -0.2715  0.2981  0.3902
   90MPD2    C3 1402   2.527   0.826   1.671 -0.9893  0.4030 -0.1412
   90MPD2    C4 1403   2.576   0.796   1.548 -0.2342 -0.0454  0.5448
   90MPD2    C5 1404   2.522   0.687   1.483 -0.6784  0.7964 -0.2041
   90MPD2     H 1405   2.386   0.786   1.823  1.5298 -0.2941  1.1706
   90MPD2    H1 1406   2.650   0.853   1.493  0.4419 -2.0723 -0.6051
   90MPD2    H2 1407   2.375   0.530   1.470  1.3101 -0.4339 -1.1002
   90MPD2    H3 1408   2.582   0.650   1.401 -0.8169 -1.1003  0.5458
   90MPD2     N 1409   2.592   0.923   1.746 -0.0774 -0.6957 -0.3368
   90MPD2    H5 1410   2.530   0.954   1.820  2.0768 -2.1241  2.0982
   90MPD2    N1 1411   2.248   0.585   1.703  0.8191  0.1099  0.5326
   90MPD2    H7 1412   2.228   0.602   1.801 -1.9499 -0.8326  0.1243
   91TMC2    C1 1413   4.252   4.216  16.307 -0.1004 -1.0371  0.2680
   91TMC2    C2 1414   4.257   4.316  16.211  0.2143  0.9449  0.0064
   91TMC2    C3 1415   4.137   4.372  16.170 -0.0270 -0.4469  0.1221
   91TMC2    C4 1416   4.134   4.177  16.372 -0.1868 -0.5533  0.3970
   91TMC2    C5 1417   4.022   4.251  16.334  0.1925  0.4564  0.5569
   91TMC2    C6 1418   4.019   4.350  16.235 -0.7750 -0.1426 -0.4007
   91TMC2     C 1419   4.360   4.123  16.326  0.5988  0.0231  0.1395
   91TMC2     O 1420   4.319   4.017  16.375 -0.3190 -0.1564  0.5885
   91TMC2     H 1421   4.345   4.325  16.149  0.7799  1.1846  0.8383
   91TMC2    H1 1422   4.125   4.097  16.445  1.9686  2.5149  3.9910
   91TMC2    H2 1423   3.923   4.394  16.213 -0.1665  0.5909 -1.5779
   91TMC2    C7 1424   3.899   4.184  16.387  0.0209 -0.5011 -1.0177
   91TMC2    C8 1425   4.145   4.466  16.058 -0.0902 -0.6690  0.1608
   91TMC2    O1 1426   3.913   4.110  16.480 -0.3778 -0.0630 -0.0192
   91TMC2    O2 1427   4.250   4.490  15.995  0.1874  0.2143  0.4307
   91TMC2    O5 1428   4.033   4.545  16.073  0.0326  0.3903  0.7300
   91TMC2    H5 1429   3.991   4.538  16.161  1.3705 -1.0342  1.2451
   92MPD2     C 1430   4.634   4.000  16.354 -0.7803  0.2275  0.3331
   92MPD2    C1 1431   4.613   4.132  16.328 -0.4045 -0.3300 -0.3999
   92MPD2    C2 1432   4.713   4.229  16.333  0.4554  0.1636 -0.0781
   92MPD2    C3 1433   0.103   4.193  16.372  0.4764 -0.2279  0.1004
   92MPD2    C4 1434   0.123   4.055  16.401  0.5917  0.4533  0.3879
   92MPD2    C5 1435   0.027   3.964  16.390  0.3427 -0.0485 -0.1952
   92MPD2     H 1436   4.673   4.329  16.323  0.4409  0.4461  2.9622
   92MPD2    H1 1437   0.219   4.014  16.428  0.9217  0.6184 -0.5332
   92MPD2    H2 1438   4.554   3.927  16.357 -0.6736 -0.0025 -2.3808
   92MPD2    H3 1439   0.057   3.863  16.415 -1.5399 -0.8467 -1.2241
   92MPD2     N 1440   0.205   4.291  16.374 -0.4994 -0.3388  0.2219
   92MPD2    H5 1441   0.177   4.389  16.375 -0.1034 -0.2128 -0.7845
   92MPD2    N1 1442   4.482   4.179  16.295 -0.2300 -0.3626 -0.3092
   92MPD2    H7 1443   4.471   4.279  16.282  0.5355  0.1455  2.8593
   93TMC2    C1 1444   1.709   4.603  13.859 -0.0683  0.0205 -0.6166
   93TMC2    C2 1445   1.597   4.679  13.843  0.3324 -0.0772 -0.0674
   93TMC2    C3 1446   1.610   0.075  13.832  0.7625  0.0172  0.0061
   93TMC2    C4 1447   1.836   4.651  13.864  0.4373 -0.4107  0.5856
   93TMC2    C5 1448   1.840   0.050  13.845  0.2860  1.1514  0.1927
   93TMC2    C6 1449   1.733   0.130  13.837  0.1058 -0.7698 -0.7222
   93TMC2     C 1450   1.705   4.456  13.854  0.4168  0.7401 -0.1140
   93TMC2     O 1451   1.795   4.394  13.801 -0.1108  0.2719 -0.4393
   93TMC2     H 1452   1.498   4.634  13.841 -0.0564  0.7006  1.3144
   93TMC2    H1 1453   1.920   4.583  13.867 -1.5842 -2.9635 -1.7285
   93TMC2    H2 1454   1.732   0.235  13.809 -0.5555 -1.1551 -2.1325
   93TMC2    C7 1455   1.955   0.106  13.777  0.0907 -0.2011 -0.3755
   93TMC2    C8 1456   1.512   0.148  13.756 -0.3248 -0.4776  1.0698
   93TMC2    O1 1457   1.925   0.193  13.693 -0.9077 -0.2613 -0.0745
   93TMC2    O2 1458   1.528   0.267  13.723  0.1738  0.0139 -0.5766
   93TMC2    O5 1459   1.423   0.063  13.698 -0.0933 -0.5020 -0.4050
   93TMC2    H5 1460   1.393   4.733  13.760 -0.7078  0.3642  0.2828
   94MPD2     C 1461   1.599   4.170  13.862 -0.0990 -0.1835  0.2448
   94MPD2    C1 1462   1.528   4.280  13.900  0.6821 -0.5930  0.3007
   94MPD2    C2 1463   1.397   4.262  13.937 -0.2663  0.5206 -0.3116
   94MPD2    C3 1464   1.330   4.140  13.923  0.1630 -0.3316 -0.3114
   94MPD2    C4 1465   1.403   4.033  13.880 -0.2905 -0.3412  0.5550
   94MPD2    C5 1466   1.539   4.048  13.857  0.2809 -0.1184  0.3656
   94MPD2     H 1467   1.345   4.343  13.986 -2.0772 -0.7560 -0.1038
   94MPD2    H1 1468   1.352   3.937  13.881 -2.4376  0.8175  1.0398
   94MPD2    H2 1469   1.706   4.175  13.846 -0.4081  0.2329 -1.7854
   94MPD2    H3 1470   1.606   3.967  13.830  1.7787  0.5248  2.1174
   94MPD2     N 1471   1.198   4.111  13.954 -0.3327 -0.5205  0.1564
   94MPD2    H5 1472   1.157   4.026  13.916  0.6162 -0.2053 -1.5849
   94MPD2    N1 1473   1.580   4.414  13.900 -0.1039 -0.4286 -0.7054
   94MPD2    H7 1474   1.525   4.482  13.951  1.4339 -0.3431  0.8132
   95TMC2    C1 1475   1.088   1.521  15.651 -0.5067  0.4885  0.0517
   95TMC2    C2 1476   0.998   1.446  15.721 -0.5464  0.0695 -0.7578
   95TMC2    C3 1477   0.906   1.513  15.797 -0.0040 -0.0659  0.3672
   95TMC2    C4 1478   1.076   1.656  15.651  0.4901  0.4180 -0.0582
   95TMC2    C5 1479   0.984   1.719  15.729 -0.0600 -0.7126  0.4676
   95TMC2    C6 1480   0.898   1.649  15.799 -0.0606  0.1801 -0.0212
   95TMC2     C 1481   1.186   1.451  15.562  0.1681 -0.0304  0.6388
   95TMC2     O 1482   1.239   1.517  15.479  0.9180  0.0274  0.1958
   95TMC2     H 1483   0.998   1.337  15.719  2.7474  0.1045 -2.2976
   95TMC2    H1 1484   1.140   1.716  15.588  0.9042  0.1173  0.0816
   95TMC2    H2 1485   0.841   1.689  15.883  1.0656  3.8730 -0.9970
   95TMC2    C7 1486   0.976   1.865  15.729 -0.1157  0.5467  0.1291
   95TMC2    C8 1487   0.801   1.429  15.845 -0.3962 -0.4868  0.1062
   95TMC2    O1 1488   0.896   1.916  15.808 -0.4389 -0.4912 -0.7125
   95TMC2    O2 1489   0.809   1.313  15.884 -0.5892 -0.2911 -0.0709
   95TMC2    O5 1490   0.702   1.513  15.875  0.1212 -0.0473 -0.4240
   95TMC2    H5 1491   0.705   1.601  15.832 -1.8433 -0.3074 -1.0873
   96MPD2     C 1492   1.492   1.078  15.397 -1.1748  0.1148 -0.3376
   96MPD2    C1 1493   1.517   1.212  15.431 -0.2169  0.1127 -0.0122
   96MPD2    C2 1494   1.417   1.288  15.488 -0.0425  0.2126 -0.6791
   96MPD2    C3 1495   1.293   1.229  15.512 -0.0133  0.0633 -0.5934
   96MPD2    C4 1496   1.277   1.090  15.503 -0.1390  0.4689  0.3180
   96MPD2    C5 1497   1.377   1.025  15.431  0.8139 -0.2453 -0.3623
   96MPD2     H 1498   1.435   1.394  15.500 -1.1928  0.6187 -2.5502
   96MPD2    H1 1499   1.188   1.038  15.536  1.7363 -3.6884 -1.1845
   96MPD2    H2 1500   1.562   1.024  15.335 -0.6332  0.3238  0.0856
   96MPD2    H3 1501   1.351   0.929  15.388 -0.2579 -0.9057  1.7876
   96MPD2     N 1502   1.188   1.308  15.569 -0.0458  0.3098 -0.5072
   96MPD2    H5 1503   1.112   1.252  15.607 -0.2643  1.6229  1.0130
   96MPD2    N1 1504   1.643   1.270  15.402  0.2009 -0.3995 -0.0241
   96MPD2    H7 1505   1.705   1.200  15.363 -1.1438 -1.6575  0.0489
   97TMC2    C1 1506   3.822   4.080   0.015  0.3584  0.0869 -0.1035
   97TMC2    C2 1507   3.755   4.012  17.682 -0.6887  0.3390  0.2069
   97TMC2    C3 1508   3.734   4.076  17.562  0.4610 -0.1928  0.5752
   97TMC2    C4 1509   3.866   4.209  17.752  0.1249 -0.0836  0.5726
   97TMC2    C5 1510   3.842   4.266  17.628 -0.0596 -0.3303 -0.4095
   97TMC2    C6 1511   3.779   4.201  17.529  0.0393 -0.8160 -0.3123
   97TMC2     C 1512   3.830   4.018   0.147 -0.2837 -0.1856  0.5485
   97TMC2     O 1513   3.849   3.896   0.144 -0.0118  0.0905 -0.1275
   97TMC2     H 1514   3.720   3.911  17.699  2.3114 -0.4361  1.7558
   97TMC2    H1 1515   3.932   4.262   0.061  1.2570  2.0882 -2.1645
   97TMC2    H2 1516   3.759   4.239  17.430 -0.2259 -0.3333 -0.0743
   97TMC2    C7 1517   3.904   4.405  17.605  0.2055 -0.0003  0.1659
   97TMC2    C8 1518   3.711   4.001  17.439  0.4939  0.4215  0.5139
   97TMC2    O1 1519   3.955   4.464  17.699 -0.7706 -0.0019 -0.3015
   97TMC2    O2 1520   3.776   4.020  17.336 -0.5951 -0.2154 -0.4605
   97TMC2    O5 1521   3.646   3.883  17.465  0.1755  0.1912 -0.1986
   97TMC2    H5 1522   3.584   3.904  17.538 -0.2968 -1.6863 -0.0842
   98MPD2     C 1523   3.768   4.053   0.651 -0.1164 -0.6496 -0.2182
   98MPD2    C1 1524   3.772   3.942   0.575  0.4812 -1.0492 -0.2720
   98MPD2    C2 1525   3.792   3.958   0.434  0.3551 -0.1698  0.1273
   98MPD2    C3 1526   3.790   4.088   0.377  0.2560  0.2604  0.3561
   98MPD2    C4 1527   3.770   4.193   0.460  0.5733  0.0668  0.0172
   98MPD2    C5 1528   3.772   4.175   0.595 -0.1425  0.3314  1.0829
   98MPD2     H 1529   3.801   3.874   0.366  0.0006  1.4710 -1.9116
   98MPD2    H1 1530   3.744   4.290   0.417 -0.1060 -1.0305 -2.0640
   98MPD2    H2 1531   3.768   4.056   0.760 -0.6339 -2.2360 -0.1738
   98MPD2    H3 1532   3.770   4.258   0.665  1.5245  0.9991  0.3087
   98MPD2     N 1533   3.801   4.115   0.242 -0.0192 -0.1198  0.1139
   98MPD2    H5 1534   3.779   4.207   0.207  0.5632 -0.1257 -0.2720
   98MPD2    N1 1535   3.753   3.809   0.631 -1.1302 -0.1379  0.0376
   98MPD2    H7 1536   3.745   3.800   0.732  2.7255  0.9523  0.4387
   99TMC2    C1 1537   2.669   1.538   1.662 -0.2933 -0.2129 -0.1595
   99TMC2    C2 1538   2.735   1.644   1.724 -0.4650 -0.2855  0.5690
   99TMC2    C3 1539   2.661   1.739   1.782  0.0298  0.2485  0.3046
   99TMC2    C4 1540   2.532   1.525   1.660  0.0927 -0.6535 -0.4794
   99TMC2    C5 1541   2.460   1.630   1.707 -0.2070  0.4402  0.0094
   99TMC2    C6 1542   2.522   1.730   1.780  0.0932  0.3597 -0.0270
   99TMC2     C 1543   2.751   1.443   1.585  0.0302  0.0722 -0.6577
   99TMC2     O 1544   2.871   1.458   1.596  0.4474 -0.4405 -0.0925
   99TMC2     H 1545   2.842   1.654   1.714 -0.3850 -1.2005  0.4369
   99TMC2    H1 1546   2.486   1.440   1.610 -1.6904  0.5804 -0.9131
   99TMC2    H2 1547   2.466   1.815   1.817 -1.5025  0.1539 -1.9310
   99TMC2    C7 1548   2.317   1.636   1.717  0.0881 -0.5643 -0.5454
   99TMC2    C8 1549   2.723   1.858   1.837  0.4709  0.5093  0.5894
   99TMC2    O1 1550   2.268   1.691   1.819 -0.2916  0.3113 -0.2536
   99TMC2    O2 1551   2.670   1.968   1.851 -0.5734  0.4582  0.0641
   99TMC2    O5 1552   2.843   1.825   1.887  0.1676 -0.0200  0.3127
   99TMC2    H5 1553   2.861   1.730   1.904  1.0470 -0.0621 -0.8527
  100MPD2     C 1554   2.861   1.254   1.387 -0.6886 -0.3160 -0.7960
  100MPD2    C1 1555   2.722   1.266   1.412  0.0764 -0.5332 -0.3034
  100MPD2    C2 1556   2.633   1.176   1.346  0.1057  0.3820  0.6052
  100MPD2    C3 1557   2.689   1.068   1.279 -0.1617 -0.0142  0.0580
  100MPD2    C4 1558   2.823   1.074   1.242  0.1650 -0.2486  0.0278
  100MPD2    C5 1559   2.911   1.166   1.298 -0.1954  0.7012 -0.6292
  100MPD2     H 1560   2.526   1.187   1.359  0.6708  2.5953  3.3270
  100MPD2    H1 1561   2.867   1.010   1.167 -0.5666 -0.6861 -0.0254
  100MPD2    H2 1562   2.929   1.324   1.435  0.5801  0.0436 -3.1004
  100MPD2    H3 1563   3.017   1.172   1.274 -0.1046  2.6885  0.2661
  100MPD2     N 1564   2.600   0.968   1.224 -0.0448  0.7012  0.1291
  100MPD2    H5 1565   2.503   0.981   1.251 -0.4099 -0.0782 -0.8467
  100MPD2    N1 1566   2.671   1.369   1.495 -0.2827 -0.6813 -0.1757
  100MPD2    H7 1567   2.571   1.371   1.508 -0.0596  0.9492  1.1766
  101TMC2    C1 1568   3.144   2.833  13.460  0.1219 -0.5113  0.2097
  101TMC2    C2 1569   3.009   2.847  13.483  0.0886 -0.8572  0.6464
  101TMC2    C3 1570   2.958   2.966  13.435  0.3312 -0.1685 -0.3189
  101TMC2    C4 1571   3.221   2.926  13.401  0.2138 -0.0746  0.8945
  101TMC2    C5 1572   3.164   3.048  13.372 -0.3211 -0.4294  0.1221
  101TMC2    C6 1573   3.033   3.071  13.388 -0.3460  0.2104  0.0843
  101TMC2     C 1574   3.189   2.698  13.465  0.4796  0.5683 -0.9002
  101TMC2     O 1575   3.153   2.638  13.567  0.7043  0.1845 -0.7260
  101TMC2     H 1576   2.944   2.778  13.534 -1.6240 -1.4513 -2.3513
  101TMC2    H1 1577   3.326   2.903  13.394 -0.0630 -1.2754  0.6153
  101TMC2    H2 1578   2.986   3.160  13.347 -0.7255 -0.1570 -0.2728
  101TMC2    C7 1579   3.253   3.138  13.296  0.1580 -0.5140 -0.2530
  101TMC2    C8 1580   2.816   2.973  13.409 -0.8967 -0.2891  0.6753
  101TMC2    O1 1581   3.370   3.110  13.280 -0.3053 -0.1817  0.0733
  101TMC2    O2 1582   2.751   3.074  13.420 -0.0706  0.4522  0.5137
  101TMC2    O5 1583   2.770   2.860  13.348  0.0796 -0.1964 -0.4890
  101TMC2    H5 1584   2.833   2.785  13.337  0.0353  0.0382 -2.2797
  102MPD2     C 1585   3.356   2.509  13.212 -0.5989  0.7031  0.1984
  102MPD2    C1 1586   3.307   2.529  13.341 -0.9152 -0.2662 -0.2283
  102MPD2    C2 1587   3.278   2.421  13.427 -0.4817 -0.5346 -0.1898
  102MPD2    C3 1588   3.307   2.296  13.372  0.5482 -0.3735 -0.2322
  102MPD2    C4 1589   3.358   2.281  13.241  0.1913  0.1818 -0.8724
  102MPD2    C5 1590   3.389   2.393  13.166 -0.4943  0.6038 -0.4977
  102MPD2     H 1591   3.241   2.426  13.529 -0.5657  1.7312 -0.3238
  102MPD2    H1 1592   3.376   2.187  13.191 -1.7284 -0.9469  0.5440
  102MPD2    H2 1593   3.372   2.597  13.152 -0.7644  0.5079 -0.1348
  102MPD2    H3 1594   3.437   2.391  13.069 -1.1945  2.3589 -0.8789
  102MPD2     N 1595   3.277   2.183  13.453  0.3514 -0.4458 -0.0023
  102MPD2    H5 1596   3.250   2.196  13.550  0.6253 -1.6525  0.2405
  102MPD2    N1 1597   3.272   2.660  13.365 -0.4930 -0.6198 -0.6036
  102MPD2    H7 1598   3.290   2.726  13.290  0.1633 -1.1052 -0.8762
  103TMC2    C1 1599   1.256   2.211  12.704  0.3482  0.1171 -0.7164
  103TMC2    C2 1600   1.203   2.325  12.632  0.1922  0.4328  0.4079
  103TMC2    C3 1601   1.159   2.432  12.704  0.1554  0.0234 -0.1275
  103TMC2    C4 1602   1.272   2.212  12.836  0.6227 -0.2611 -0.4396
  103TMC2    C5 1603   1.228   2.320  12.903 -0.4075  0.4600  0.0648
  103TMC2    C6 1604   1.169   2.431  12.841 -0.6075  0.3961  0.0796
  103TMC2     C 1605   1.276   2.086  12.633  0.2185 -0.5007 -0.0099
  103TMC2     O 1606   1.353   2.004  12.683  0.1043  0.3337  0.1794
  103TMC2     H 1607   1.201   2.319  12.524  0.7798 -0.6497  0.4502
  103TMC2    H1 1608   1.316   2.124  12.882  0.8466  0.8971  1.5581
  103TMC2    H2 1609   1.121   2.513  12.894  1.6502  1.4881  0.4629
  103TMC2    C7 1610   1.245   2.331  13.048 -0.3550 -0.1791  0.6224
  103TMC2    C8 1611   1.086   2.544  12.646  0.0218 -0.5737  0.0349
  103TMC2    O1 1612   1.220   2.439  13.104 -0.2265  0.3626  0.8032
  103TMC2    O2 1613   0.999   2.602  12.706 -0.2838  0.2414  0.3101
  103TMC2    O5 1614   1.136   2.572  12.528 -0.4092 -0.0499 -0.3141
  103TMC2    H5 1615   1.216   2.518  12.510  0.9648  0.8363  3.0274
  104MPD2     C 1616   1.237   1.828  12.499  0.7615  0.1819  0.1737
  104MPD2    C1 1617   1.167   1.943  12.466 -0.0387  0.1313 -0.4549
  104MPD2    C2 1618   1.065   1.931  12.369 -0.0591  0.3395  0.5637
  104MPD2    C3 1619   1.022   1.810  12.321 -0.3683  0.1509 -0.1083
  104MPD2    C4 1620   1.094   1.699  12.352 -0.1122 -0.2234  0.0687
  104MPD2    C5 1621   1.197   1.713  12.444  0.6717  0.5137  0.0002
  104MPD2     H 1622   1.023   2.025  12.338  1.9362  1.1815  0.3874
  104MPD2    H1 1623   1.065   1.601  12.316  0.4990 -0.6368  0.7063
  104MPD2    H2 1624   1.316   1.820  12.572 -0.8380  1.2386  2.0301
  104MPD2    H3 1625   1.247   1.623  12.479 -0.3343  0.5859  1.6445
  104MPD2     N 1626   0.903   1.808  12.244 -0.1647  0.1221 -0.4664
  104MPD2    H5 1627   0.862   1.900  12.242  1.2883  0.7483 -1.4595
  104MPD2    N1 1628   1.185   2.072  12.525 -0.0416 -0.4339 -0.0974
  104MPD2    H7 1629   1.126   2.149  12.496 -0.5136 -1.3539 -1.5801
  105TMC2    C1 1630   2.535   0.909   0.168  0.1894  0.2451 -0.1660
  105TMC2    C2 1631   2.428   0.826   0.155 -0.0650  0.7370 -0.1564
  105TMC2    C3 1632   2.340   0.810   0.255 -0.0793  1.2265 -0.0857
  105TMC2    C4 1633   2.556   0.985   0.279  0.1367 -0.0807 -0.0852
  105TMC2    C5 1634   2.459   0.975   0.380 -0.1300  1.5526 -0.4826
  105TMC2    C6 1635   2.349   0.885   0.374 -0.5514 -0.2228 -0.0598
  105TMC2     C 1636   2.637   0.918   0.062  0.0169 -0.3305 -0.6594
  105TMC2     O 1637   2.629   0.826  17.744 -0.5222 -0.4211 -0.2023
  105TMC2     H 1638   2.422   0.768   0.064 -0.4969 -0.8429  0.8646
  105TMC2    H1 1639   2.646   1.041   0.303 -0.0393  0.3680 -0.4718
  105TMC2    H2 1640   2.284   0.877   0.460  0.9564 -0.1330  1.0921
  105TMC2    C7 1641   2.505   1.001   0.516  0.0675  0.2204  0.2066
  105TMC2    C8 1642   2.216   0.740   0.241  0.0124  0.1255 -0.1421
  105TMC2    O1 1643   2.458   0.928   0.606 -0.6169 -0.3864  0.0025
  105TMC2    O2 1644   2.128   0.722   0.326 -0.4513 -0.3866  0.2855
  105TMC2    O5 1645   2.247   0.654   0.138  0.1264  0.1234 -0.1521
  105TMC2    H5 1646   2.180   0.584   0.120  0.2285 -0.6275  2.2522
  106MPD2     C 1647   3.022   1.042  17.527  0.2450  1.2546 -0.3368
  106MPD2    C1 1648   2.963   1.165  17.579  0.2005 -0.3820 -0.3423
  106MPD2    C2 1649   2.870   1.160  17.681  0.0719 -0.1224  0.0860
  106MPD2    C3 1650   2.822   1.037  17.723  0.5416 -0.5579 -0.0593
  106MPD2    C4 1651   2.874   0.921  17.678  0.1662 -0.7235 -0.3397
  106MPD2    C5 1652   2.985   0.928  17.592 -0.1137  0.3694 -0.3336
  106MPD2     H 1653   2.826   1.254  17.710 -0.6444 -0.7120  0.8850
  106MPD2    H1 1654   2.852   0.820  17.710  1.2111 -1.4084 -1.7761
  106MPD2    H2 1655   3.116   1.031  17.473 -0.3728 -0.9057 -0.9659
  106MPD2    H3 1656   3.032   0.837  17.557  1.4347  1.2298 -0.5080
  106MPD2     N 1657   2.712   1.033   0.054 -0.2756 -0.3784 -0.3727
  106MPD2    H5 1658   2.672   1.118   0.092  0.3231  0.0803 -0.7722
  106MPD2    N1 1659   3.006   1.286  17.528 -0.1456  0.0152  0.4638
  106MPD2    H7 1660   2.966   1.365  17.577  0.7972  1.3842 -1.0277
  107TMC2    C1 1661   3.184   1.560  11.703  0.2039  0.0153 -0.1538
  107TMC2    C2 1662   3.182   1.668  11.624 -0.6796 -0.6677 -0.1288
  107TMC2    C3 1663   3.243   1.664  11.504  0.5607 -0.5920  0.8133
  107TMC2    C4 1664   3.265   1.452  11.674  0.4864 -0.0014  0.0899
  107TMC2    C5 1665   3.328   1.457  11.547 -0.3702 -0.5652  0.7563
  107TMC2    C6 1666   3.321   1.563  11.465 -0.1821  0.1337 -0.7609
  107TMC2     C 1667   3.122   1.550  11.830 -0.0311 -0.1455  0.2292
  107TMC2     O 1668   3.094   1.440  11.883  0.0256  0.5521 -0.4760
  107TMC2     H 1669   3.115   1.751  11.641  1.1138  0.7788 -0.1571
  107TMC2    H1 1670   3.258   1.358  11.727 -0.2089  0.2112  0.3786
  107TMC2    H2 1671   3.360   1.557  11.364  0.5025 -0.3254 -0.4715
  107TMC2    C7 1672   3.391   1.333  11.499 -0.2546 -0.0426 -0.4892
  107TMC2    C8 1673   3.167   1.720  11.396  0.2228 -0.1008  0.7025
  107TMC2    O1 1674   3.419   1.253  11.592 -0.3032 -0.2818  0.0870
  107TMC2    O2 1675   3.045   1.740  11.409  0.8097  0.1480 -0.2048
  107TMC2    O5 1676   3.241   1.807  11.325 -0.2014 -0.3883  0.0424
  107TMC2    H5 1677   3.338   1.806  11.339 -0.1597 -1.0116 -0.2704
  108MPD2     C 1678   3.020   1.836  12.023  0.5954  0.4159  0.4019
  108MPD2    C1 1679   3.037   1.701  12.005  0.0813  0.0294  0.4492
  108MPD2    C2 1680   2.979   1.618  12.092 -0.0951  0.3299 -0.8822
  108MPD2    C3 1681   2.906   1.678  12.197 -0.4409  0.1690  0.1307
  108MPD2    C4 1682   2.894   1.812  12.215  0.0611  0.4842  0.2886
  108MPD2    C5 1683   2.941   1.889  12.120  0.0101  0.4442  1.1559
  108MPD2     H 1684   2.993   1.512  12.071 -1.1055  0.6371 -2.9879
  108MPD2    H1 1685   2.838   1.848  12.300 -0.2385  1.1550 -0.1997
  108MPD2    H2 1686   3.051   1.909  11.949  2.0801 -1.1162 -0.4901
  108MPD2    H3 1687   2.930   1.997  12.117  2.2411  0.6802  1.3852
  108MPD2     N 1688   2.843   1.592  12.292 -0.1089  0.5345  0.0863
  108MPD2    H5 1689   2.781   1.633  12.362 -0.4293 -2.4192  1.5492
  108MPD2    N1 1690   3.096   1.671  11.881  0.6886  0.1976  0.3100
  108MPD2    H7 1691   3.121   1.753  11.827 -0.1036 -1.2193 -2.1969
  109TMC2    C1 1692   2.922   4.158   0.445  0.2368 -0.9199  0.3036
  109TMC2    C2 1693   2.964   4.222   0.332 -0.2237 -0.5598 -0.3303
  109TMC2    C3 1694   3.026   4.158   0.233 -0.3236  0.0413 -0.0393
  109TMC2    C4 1695   2.946   4.023   0.457 -0.6944 -0.5420 -0.3925
  109TMC2    C5 1696   3.025   3.961   0.361 -0.4337 -0.3488  0.1471
  109TMC2    C6 1697   3.075   4.031   0.252  0.2600 -0.2903  0.3855
  109TMC2     C 1698   2.867   4.237   0.551 -0.2712  0.0215 -0.0133
  109TMC2     O 1699   2.804   4.334   0.514  0.3599  0.1215 -0.1241
  109TMC2     H 1700   2.948   4.329   0.328  0.8811 -0.4378 -1.2683
  109TMC2    H1 1701   2.903   3.967   0.539 -2.2055  0.8141 -0.2464
  109TMC2    H2 1702   3.130   3.969   0.183  2.1819  1.8133  0.0603
  109TMC2    C7 1703   3.053   3.814   0.373 -0.0083 -0.0211 -0.4550
  109TMC2    C8 1704   3.076   4.223   0.112  0.7815 -0.7967  0.4288
  109TMC2    O1 1705   3.131   3.767   0.295  0.4379 -0.4195  0.6363
  109TMC2    O2 1706   3.181   4.196   0.055 -0.2210 -1.2451  0.1931
  109TMC2    O5 1707   2.994   4.331   0.100 -0.2676 -0.1864 -0.5011
  109TMC2    H5 1708   2.904   4.309   0.131 -0.3098  2.7277  1.5025
  110MPD2     C 1709   2.709   4.293   1.033 -0.3592  0.1882 -0.3142
  110MPD2    C1 1710   2.757   4.163   1.014  0.1865  0.6421 -0.3483
  110MPD2    C2 1711   2.825   4.131   0.901  0.0863  0.3837  0.3988
  110MPD2    C3 1712   2.836   4.229   0.805  0.2524 -0.1367 -0.8610
  110MPD2    C4 1713   2.791   4.353   0.822  0.1401 -0.8442 -0.5745
  110MPD2    C5 1714   2.721   4.388   0.931  0.4838  0.5631 -0.5748
  110MPD2     H 1715   2.843   4.027   0.875 -2.9331 -0.2790  1.0205
  110MPD2    H1 1716   2.797   4.419   0.735  0.0959  0.8760  0.7300
  110MPD2    H2 1717   2.674   4.331   1.128  1.9842  0.1131  0.5630
  110MPD2    H3 1718   2.694   4.493   0.937  2.6617  1.1884 -1.8921
  110MPD2     N 1719   2.892   4.184   0.676  0.1997  0.1360  0.1430
  110MPD2    H5 1720   2.949   4.100   0.673  0.3165  0.1564  1.8627
  110MPD2    N1 1721   2.739   4.069   1.118 -0.0691  0.5791  0.5272
  110MPD2    H7 1722   2.674   4.095   1.191 -0.8885 -0.0143  0.0088
  111TMC2    C1 1723   3.066   3.655  11.986 -0.1083  1.1021  1.1324
  111TMC2    C2 1724   2.985   3.686  12.089  0.2787  0.6748  0.1588
  111TMC2    C3 1725   3.022   3.785  12.175 -0.2213  0.3622  0.0655
  111TMC2    C4 1726   3.191   3.704  11.968  0.1624 -0.0971  0.4049
  111TMC2    C5 1727   3.227   3.794  12.064  0.0386 -0.2283 -0.1533
  111TMC2    C6 1728   3.148   3.847  12.162 -0.5509  0.6057 -0.2567
  111TMC2     C 1729   3.011   3.543  11.907 -0.1240 -0.4691  0.2552
  111TMC2     O 1730   3.046   3.534  11.788 -0.5385 -0.3364 -0.4060
  111TMC2     H 1731   2.880   3.661  12.077  0.1046  1.7239 -0.5621
  111TMC2    H1 1732   3.254   3.659  11.892  0.6219 -0.4145  0.9635
  111TMC2    H2 1733   3.193   3.907  12.240  1.1754  0.1985 -0.9384
  111TMC2    C7 1734   3.359   3.774  12.122  0.0886 -0.6572  0.3190
  111TMC2    C8 1735   2.926   3.843  12.265 -0.2634 -0.5894  0.2405
  111TMC2    O1 1736   3.384   3.812  12.237  0.0152  0.3190  0.5876
  111TMC2    O2 1737   2.930   3.964  12.275  1.0423  0.1913 -0.8320
  111TMC2    O5 1738   2.821   3.759  12.274  0.3088 -0.1820  0.2142
  111TMC2    H5 1739   2.842   3.664  12.259  2.3420  0.3691 -0.4000
  112MPD2     C 1740   2.915   3.074  11.828  0.4225  0.5092  0.4575
  112MPD2    C1 1741   2.892   3.176  11.747  0.0653 -0.8454 -0.0100
  112MPD2    C2 1742   2.893   3.305  11.790  0.1313 -0.7898 -0.3262
  112MPD2    C3 1743   2.902   3.324  11.928 -0.4528  0.0886 -0.3595
  112MPD2    C4 1744   2.917   3.219  12.018 -0.3391 -0.3720  0.3216
  112MPD2    C5 1745   2.926   3.091  11.965  0.1954  0.2787  0.0020
  112MPD2     H 1746   2.885   3.378  11.710  2.3024 -0.3563 -0.1390
  112MPD2    H1 1747   2.911   3.229  12.126 -0.7188 -0.0337  0.2689
  112MPD2    H2 1748   2.926   2.970  11.798 -0.8251 -0.0316  1.8658
  112MPD2    H3 1749   2.934   3.006  12.031  1.9000  0.4860  0.0851
  112MPD2     N 1750   2.947   3.448  11.984 -0.6536  0.0262 -0.2192
  112MPD2    H5 1751   2.952   3.468  12.084  1.0873  1.6777 -0.6337
  112MPD2    N1 1752   2.861   3.163  11.613  0.1039  0.0960 -0.3701
  112MPD2    H7 1753   2.853   3.250  11.561  0.6637 -1.0916 -2.4421
  113TMC2    C1 1754   1.277   1.143   0.784 -0.0275  0.2609  0.0061
  113TMC2    C2 1755   1.171   1.196   0.720  0.1118  0.4977 -0.3318
  113TMC2    C3 1756   1.056   1.122   0.701 -0.1782 -0.4258  0.6019
  113TMC2    C4 1757   1.268   1.009   0.825 -0.3996 -1.4958  0.1689
  113TMC2    C5 1758   1.159   0.940   0.805  0.6924 -0.1966  0.4485
  113TMC2    C6 1759   1.050   0.992   0.739  0.4428 -0.3006  0.0648
  113TMC2     C 1760   1.409   1.212   0.774 -0.3688  0.4093 -0.2395
  113TMC2     O 1761   1.411   1.335   0.768 -0.1517  0.0595  0.0519
  113TMC2     H 1762   1.177   1.299   0.689  3.4053  0.0622 -1.2177
  113TMC2    H1 1763   1.349   0.963   0.880  0.6228 -0.0184 -0.1035
  113TMC2    H2 1764   0.961   0.934   0.715  0.0308  0.0685  0.7139
  113TMC2    C7 1765   1.170   0.801   0.789  0.3138 -0.7987 -0.0070
  113TMC2    C8 1766   0.933   1.190   0.668  0.9519  0.2959 -0.0050
  113TMC2    O1 1767   1.267   0.775   0.717 -0.0538  0.5275 -0.2703
  113TMC2    O2 1768   0.818   1.167   0.711 -0.0554  0.2680  0.3481
  113TMC2    O5 1769   0.969   1.309   0.609 -0.3512 -0.1858 -0.8531
  113TMC2    H5 1770   1.046   1.297   0.550  0.9640  0.5120  0.7286
  114MPD2     C 1771   1.900   1.229   0.944 -0.6062 -0.0008 -0.1692
  114MPD2    C1 1772   1.796   1.325   0.945 -0.6819  0.6004 -0.4811
  114MPD2    C2 1773   1.673   1.297   0.887 -0.2698  0.1833 -0.5650
  114MPD2    C3 1774   1.647   1.171   0.834 -0.2126  0.3468 -0.2454
  114MPD2    C4 1775   1.751   1.084   0.820  0.4269 -0.3457 -0.1095
  114MPD2    C5 1776   1.869   1.115   0.877 -0.1251 -0.3001 -0.0303
  114MPD2     H 1777   1.590   1.366   0.899  0.6195  1.2809 -0.7688
  114MPD2    H1 1778   1.742   0.997   0.756  2.6651 -0.5242 -0.1663
  114MPD2    H2 1779   2.000   1.244   0.985  0.3560  0.2974 -2.6466
  114MPD2    H3 1780   1.950   1.045   0.859  0.3047  0.5117 -1.3064
  114MPD2     N 1781   1.519   1.125   0.792  0.0511 -0.1252 -0.4394
  114MPD2    H5 1782   1.512   1.027   0.766  0.2624 -0.7676  1.9249
  114MPD2    N1 1783   1.805   1.441   1.023 -0.0880 -0.1954  0.1864
  114MPD2    H7 1784   1.727   1.506   1.013 -1.2112 -1.4571  0.7593
  115TMC2    C1 1785   2.360   3.006   0.393  0.0827 -0.3707  0.2338
  115TMC2    C2 1786   2.497   3.005   0.419 -0.3138  0.1748 -0.8849
  115TMC2    C3 1787   2.572   3.111   0.393 -0.6688 -0.3169  0.6382
  115TMC2    C4 1788   2.301   3.115   0.344 -0.2520 -0.4543  0.4367
  115TMC2    C5 1789   2.384   3.222   0.311  1.0014 -0.4787  0.6031
  115TMC2    C6 1790   2.518   3.227   0.340 -0.0233 -0.3650 -0.6599
  115TMC2     C 1791   2.297   2.882   0.363  0.4547 -0.4129  0.4892
  115TMC2     O 1792   2.234   2.878   0.258  0.1985  0.3332 -0.4640
  115TMC2     H 1793   2.542   2.915   0.460 -0.3070  0.4179 -0.3592
  115TMC2    H1 1794   2.198   3.110   0.313 -0.1029  1.6120 -0.3474
  115TMC2    H2 1795   2.583   3.308   0.310  0.4757  0.5787  2.9831
  115TMC2    C7 1796   2.320   3.341   0.275 -0.2093  0.4562 -0.0696
  115TMC2    C8 1797   2.710   3.104   0.413  0.1461 -0.0211 -0.7290
  115TMC2    O1 1798   2.205   3.358   0.305  0.1421  0.3000 -0.2037
  115TMC2    O2 1799   2.773   2.999   0.408 -0.0222  0.2946 -0.2297
  115TMC2    O5 1800   2.749   3.226   0.464 -0.0156 -0.3880  0.2895
  115TMC2    H5 1801   2.672   3.278   0.496  0.8682  0.6465  0.7442
  116MPD2     C 1802   2.014   2.486   0.524  0.0161 -0.0623  0.2930
  116MPD2    C1 1803   2.013   2.554   0.398  0.3000 -0.1740 -0.4498
  116MPD2    C2 1804   2.085   2.670   0.391  0.7015 -0.0024  0.8579
  116MPD2    C3 1805   2.189   2.699   0.482  0.7014 -0.0186  0.4327
  116MPD2    C4 1806   2.187   2.624   0.602  0.7282  0.5168 -0.6010
  116MPD2    C5 1807   2.099   2.521   0.623 -0.1849 -0.5666  0.5223
  116MPD2     H 1808   2.085   2.728   0.300 -0.4662  0.7833  1.3675
  116MPD2    H1 1809   2.269   2.648   0.670  1.0393  0.9819 -1.1332
  116MPD2    H2 1810   1.949   2.399   0.532 -0.8184  0.5769  0.4988
  116MPD2    H3 1811   2.111   2.472   0.719  0.6238 -1.2207  0.0816
  116MPD2     N 1812   2.279   2.807   0.473 -0.0432 -0.4255  0.2981
  116MPD2    H5 1813   2.326   2.835   0.559 -0.4619 -1.5122  0.8738
  116MPD2    N1 1814   1.926   2.516   0.292 -0.8082  0.7087  0.5987
  116MPD2    H7 1815   1.852   2.453   0.319 -0.2929 -0.8423 -1.5945
  117TMC2    C1 1816   0.285   0.133  13.867 -0.9035  0.4502  0.7451
  117TMC2    C2 1817   0.380   0.040  13.850 -0.2355  0.0148  0.2554
  117TMC2    C3 1818   0.505   0.083  13.892 -0.3414 -0.1571 -0.0719
  117TMC2    C4 1819   0.301   0.264  13.914  0.3553  0.7459 -0.0574
  117TMC2    C5 1820   0.421   0.297  13.950  0.1604  0.0406 -0.4530
  117TMC2    C6 1821   0.527   0.209  13.944  0.0266  0.7372  0.2947
  117TMC2     C 1822   0.154   0.097  13.801 -0.0045  0.4328 -0.2274
  117TMC2     O 1823   0.143   4.737  13.735  0.1752 -0.2363  0.4209
  117TMC2     H 1824   0.363   4.689  13.796  0.1833  0.8602 -1.3235
  117TMC2    H1 1825   0.221   0.336  13.927 -1.6934 -1.9672  2.3410
  117TMC2    H2 1826   0.627   0.241  13.971  0.2486  0.1387  0.1807
  117TMC2    C7 1827   0.455   0.422  14.007 -0.1730  1.6484  0.4383
  117TMC2    C8 1828   0.618   4.738  13.858 -0.1593  0.3572 -0.0927
  117TMC2    O1 1829   0.573   0.442  14.036 -0.4913 -0.3341  0.0098
  117TMC2    O2 1830   0.728   0.044  13.835 -0.3499  0.2366  0.0665
  117TMC2    O5 1831   0.596   4.609  13.905 -0.6963  0.0321 -0.4224
  117TMC2    H5 1832   0.503   4.603  13.936 -0.5964 -0.6422 -0.2549
  118MPD2     C 1833   0.210   0.686  14.124 -0.2667 -0.2743  0.3251
  118MPD2    C1 1834   0.336   0.635  14.089 -0.4240  0.1040 -0.4294
  118MPD2    C2 1835   0.450   0.718  14.116 -0.0657  0.1750 -0.0872
  118MPD2    C3 1836   0.429   0.845  14.160  0.4215 -0.1168 -0.6701
  118MPD2    C4 1837   0.297   0.896  14.174 -0.5605  0.4642  0.7812
  118MPD2    C5 1838   0.190   0.817  14.154  0.1541 -0.0556 -0.4416
  118MPD2     H 1839   0.550   0.682  14.095 -0.3995  0.0045 -1.3739
  118MPD2    H1 1840   0.275   0.994  14.214 -0.5003  0.0996  1.7095
  118MPD2    H2 1841   0.122   0.622  14.129 -0.1085 -0.3637  2.0698
  118MPD2    H3 1842   0.090   0.855  14.172 -0.3703 -2.0345  0.7960
  118MPD2     N 1843   0.546   0.925  14.186  0.2967  0.0198 -0.4912
  118MPD2    H5 1844   0.536   1.024  14.207  1.4677 -0.3915  1.9279
  118MPD2    N1 1845   0.344   0.500  14.041  0.3371  0.4456  0.1703
  118MPD2    H7 1846   0.260   0.443  14.049  0.4564  0.7400  3.7176
  119TMC2    C1 1847   4.146   1.936  13.920  0.9581  0.0325  0.0479
  119TMC2    C2 1848   4.280   1.961  13.908  0.2288 -0.4944  0.1241
  119TMC2    C3 1849   4.354   1.895  13.817  0.1545 -0.0264 -0.1499
  119TMC2    C4 1850   4.095   1.828  13.859 -0.1565  0.0919 -0.0459
  119TMC2    C5 1851   4.175   1.760  13.772  0.4209 -0.0635 -0.5004
  119TMC2    C6 1852   4.297   1.794  13.742 -0.3085 -0.1360 -0.5486
  119TMC2     C 1853   4.051   2.033  13.985 -0.0730 -0.3205  0.4800
  119TMC2     O 1854   3.939   1.995  14.006 -0.3744 -0.1501  0.7275
  119TMC2     H 1855   4.325   2.043  13.962 -1.2704  0.3465  0.1008
  119TMC2    H1 1856   3.991   1.804  13.878  0.8030 -2.1809  2.4055
  119TMC2    H2 1857   4.344   1.729  13.669 -0.6903 -0.8223 -0.1793
  119TMC2    C7 1858   4.102   1.674  13.682  0.5453  0.2045  0.1487
  119TMC2    C8 1859   4.490   1.942  13.792 -0.1788 -0.1634  0.2025
  119TMC2    O1 1860   4.146   1.667  13.567 -0.1201  0.0850  0.2819
  119TMC2    O2 1861   4.553   2.001  13.878 -0.4087  0.4005 -0.0090
  119TMC2    O5 1862   4.507   1.955  13.656  0.1576  0.0368 -0.2961
  119TMC2    H5 1863   4.433   1.925  13.600  0.5231 -0.5648 -0.4625
  120MPD2     C 1864   4.004   2.439  14.294  0.0538 -0.1989 -0.6100
  120MPD2    C1 1865   3.907   2.345  14.263 -0.1169  0.2486 -0.1796
  120MPD2    C2 1866   3.949   2.240  14.181  0.3868 -0.0854 -0.2381
  120MPD2    C3 1867   4.071   2.241  14.121 -0.1411  0.4650  0.1770
  120MPD2    C4 1868   4.156   2.344  14.146 -0.5724  0.2959 -0.2407
  120MPD2    C5 1869   4.129   2.444  14.232  0.7172  0.1098  0.3582
  120MPD2     H 1870   3.877   2.163  14.157  0.5617 -1.2221  2.8366
  120MPD2    H1 1871   4.259   2.339  14.112 -0.6923 -0.3181 -0.5192
  120MPD2    H2 1872   3.991   2.519  14.365 -2.1170 -0.3130 -0.8869
  120MPD2    H3 1873   4.212   2.511  14.251 -0.0281  1.2541 -0.4010
  120MPD2     N 1874   4.116   2.147  14.026  0.0479 -0.3993  0.0399
  120MPD2    H5 1875   4.212   2.164  13.996 -0.1007 -1.3430 -0.9640
  120MPD2    N1 1876   3.791   2.349  14.343 -0.3208  0.1448  0.4785
  120MPD2    H7 1877   3.761   2.441  14.376 -3.3326 -1.3862  1.9845
  121TMC2    C1 1878   0.792   3.122  14.703 -0.1399  0.1677 -0.1469
  121TMC2    C2 1879   0.878   3.032  14.648  0.0833 -0.2358  0.0598
  121TMC2    C3 1880   0.855   2.900  14.675 -0.1118 -0.7035 -0.5930
  121TMC2    C4 1881   0.682   3.092  14.771  0.0532 -0.1881 -0.6536
  121TMC2    C5 1882   0.664   2.956  14.794 -0.1682 -0.4359  0.7187
  121TMC2    C6 1883   0.745   2.854  14.744  0.1246 -0.3350 -0.1491
  121TMC2     C 1884   0.820   3.261  14.694 -0.1269 -0.0064  0.3211
  121TMC2     O 1885   0.774   3.332  14.779  0.3296 -0.2291 -0.4612
  121TMC2     H 1886   0.964   3.070  14.594  0.9671  0.9387  2.2584
  121TMC2    H1 1887   0.619   3.168  14.815  3.5906  0.2539  3.7430
  121TMC2    H2 1888   0.729   2.748  14.761 -2.4036 -0.2308 -1.8753
  121TMC2    C7 1889   0.530   2.914  14.834  0.8655  0.4032 -0.2956
  121TMC2    C8 1890   0.917   2.800  14.588  0.1182  0.0080  0.4143
  121TMC2    O1 1891   0.530   2.810  14.896 -0.3528 -0.1336  0.0112
  121TMC2    O2 1892   0.939   2.688  14.633 -0.0085 -0.1215 -0.2550
  121TMC2    O5 1893   0.879   2.826  14.462  0.5875 -0.5303  0.1137
  121TMC2    H5 1894   0.864   2.921  14.443  2.2039  0.2327  2.5517
  122MPD2     C 1895   0.910   3.531  14.606 -0.6265 -0.7243 -0.1303
  122MPD2    C1 1896   0.887   3.420  14.525 -0.2063 -0.7170  0.1435
  122MPD2    C2 1897   0.892   3.428  14.384  0.3237 -0.7291  0.5436
  122MPD2    C3 1898   0.897   3.553  14.325 -0.2414  0.8716  0.5296
  122MPD2    C4 1899   0.927   3.666  14.412 -0.9387  0.3755 -0.9164
  122MPD2    C5 1900   0.938   3.652  14.548 -0.8902 -0.5133  0.0317
  122MPD2     H 1901   0.871   3.339  14.326 -0.5022  0.7131 -1.4065
  122MPD2    H1 1902   0.967   3.753  14.361  1.3441  0.1851  0.5533
  122MPD2    H2 1903   0.924   3.525  14.714 -0.8544  0.2903 -0.0384
  122MPD2    H3 1904   0.971   3.733  14.611  1.6682 -1.4376 -0.1139
  122MPD2     N 1905   0.906   3.568  14.183 -0.1867  0.3724  0.3243
  122MPD2    H5 1906   0.921   3.662  14.148  0.1876  0.4034  0.5593
  122MPD2    N1 1907   0.866   3.294  14.572 -0.3314  0.0270  0.1067
  122MPD2    H7 1908   0.867   3.218  14.505  0.5536  0.0735  0.0605
  123TMC2    C1 1909   3.309   1.649  10.917 -0.0120  0.3012  0.0426
  123TMC2    C2 1910   3.294   1.773  10.977 -0.5165 -0.0704 -0.1027
  123TMC2    C3 1911   3.317   1.893  10.905  0.4396  0.0461 -0.0958
  123TMC2    C4 1912   3.337   1.642  10.782  0.0522 -0.1283 -0.0807
  123TMC2    C5 1913   3.365   1.759  10.717 -0.3204 -0.3816  0.1766
  123TMC2    C6 1914   3.362   1.882  10.775  0.5499  0.9649 -0.4104
  123TMC2     C 1915   3.240   1.536  10.977 -0.4589  0.3441 -1.1164
  123TMC2     O 1916   3.245   1.515  11.095  0.3469 -0.7581 -0.3368
  123TMC2     H 1917   3.266   1.771  11.082 -0.1426 -1.9702 -0.0481
  123TMC2    H1 1918   3.344   1.541  10.743  2.8992  0.7230 -1.7376
  123TMC2    H2 1919   3.355   1.971  10.714 -1.0608  2.1974  1.5625
  123TMC2    C7 1920   3.440   1.740  10.595 -0.6057  0.0955 -0.1464
  123TMC2    C8 1921   3.360   2.011  10.975  0.4017 -0.9211 -0.4658
  123TMC2    O1 1922   3.461   1.621  10.561  0.1243 -0.2514 -0.2548
  123TMC2    O2 1923   3.450   2.084  10.935  0.4722 -0.0516 -0.0610
  123TMC2    O5 1924   3.306   2.022  11.099 -0.6397  0.1957  0.1409
  123TMC2    H5 1925   3.218   1.980  11.091  0.2913 -1.4098 -1.5708
  124MPD2     C 1926   3.037   1.064  10.897  0.1592 -0.4260  0.8054
  124MPD2    C1 1927   3.017   1.140  10.784  0.9041  0.0958  0.5628
  124MPD2    C2 1928   3.068   1.268  10.785 -0.5235  0.1310 -0.4835
  124MPD2    C3 1929   3.133   1.325  10.893 -0.0253 -0.1966 -0.3356
  124MPD2    C4 1930   3.152   1.247  11.007  0.5906  0.1651  0.0847
  124MPD2    C5 1931   3.102   1.118  11.006 -0.0013 -0.1776  0.2229
  124MPD2     H 1932   3.062   1.332  10.697  0.0605  1.7070  0.6137
  124MPD2    H1 1933   3.199   1.293  11.093  0.0223  0.5934  0.1701
  124MPD2    H2 1934   3.003   0.961  10.908 -0.6747 -0.2470 -0.1333
  124MPD2    H3 1935   3.115   1.062  11.098  0.9685 -1.4340 -0.6821
  124MPD2     N 1936   3.182   1.461  10.877  0.3818 -0.3969 -0.2473
  124MPD2    H5 1937   3.171   1.513  10.791  0.0207  0.7530  0.4889
  124MPD2    N1 1938   2.948   1.081  10.677  0.1935  0.3577 -0.2392
  124MPD2    H7 1939   2.924   0.983  10.675  0.0608  0.3977 -0.7650
  125TMC2    C1 1940   4.472   3.488   9.162 -0.8000  0.8175 -0.7209
  125TMC2    C2 1941   4.469   3.561   9.051  0.3304  0.4297  0.4299
  125TMC2    C3 1942   4.598   3.600   9.013 -0.0395 -0.1859 -0.3003
  125TMC2    C4 1943   4.591   3.437   9.226  0.2344 -1.1218  0.1941
  125TMC2    C5 1944   4.710   3.477   9.173  0.3493 -0.3759 -0.5480
  125TMC2    C6 1945   4.712   3.558   9.065 -0.9593 -0.1999 -0.2511
  125TMC2     C 1946   4.350   3.444   9.233  0.2340 -0.0129  0.0505
  125TMC2     O 1947   4.357   3.431   9.359  0.1941  0.5546 -0.0718
  125TMC2     H 1948   4.379   3.586   8.997  1.5224 -0.1252 -1.8100
  125TMC2    H1 1949   4.573   3.387   9.320  0.2196  0.1022  0.8465
  125TMC2    H2 1950   0.065   3.565   9.011 -0.7170 -1.4360 -0.0001
  125TMC2    C7 1951   0.082   3.426   9.243 -0.8548 -0.1953  0.2579
  125TMC2    C8 1952   4.600   3.699   8.907 -0.2981  0.6732 -0.2781
  125TMC2    O1 1953   0.077   3.314   9.288 -0.0409  0.2304  0.2146
  125TMC2    O2 1954   4.494   3.720   8.846 -0.0142  0.1108 -0.3369
  125TMC2    O5 1955   4.686   3.793   8.943 -0.3579 -0.3956  0.0579
  125TMC2    H5 1956   0.017   3.760   9.002 -1.9215 -2.0835  1.0073
  126MPD1     C 1957   3.883   3.245   9.231  0.0705 -0.1483  0.4249
  126MPD1    C1 1958   3.901   3.302   9.113 -0.0871 -0.4136 -0.0876
  126MPD1    C2 1959   4.012   3.382   9.096  0.1338 -0.2817 -0.3199
  126MPD1    C3 1960   4.114   3.378   9.184  0.5423 -0.4132 -0.2540
  126MPD1    C4 1961   4.102   3.309   9.301  0.2341  0.1184  0.2783
  126MPD1    C5 1962   3.977   3.260   9.332  0.3338 -0.4845 -0.3260
  126MPD1     H 1963   4.023   3.437   9.004  0.4113 -0.6968 -0.5345
  126MPD1    H1 1964   4.184   3.302   9.371  1.5550  2.2556 -1.0672
  126MPD1    H2 1965   3.786   3.214   9.267  1.3566 -1.4033  2.7964
  126MPD1    H3 1966   3.951   3.234   9.434  2.5882 -1.3142  0.0335
  126MPD1     N 1967   4.236   3.448   9.151 -1.3468 -0.3145 -0.5522
  126MPD1    H5 1968   4.235   3.478   9.054 -3.8785  3.0850  0.5529
  126MPD1    N1 1969   3.787   3.307   9.028 -0.0761 -0.7633  0.1952
  126MPD1    H6 1970   3.739   3.217   9.029 -0.8667 -0.3916 -3.3462
  126MPD1    H7 1971   3.808   3.347   8.936  0.5182  2.0089  1.5306
  127TMC2    C1 1972   0.599   2.342  10.135  0.1356 -0.7652  0.7736
  127TMC2    C2 1973   0.652   2.336  10.268 -0.5388 -0.0388  0.0361
  127TMC2    C3 1974   0.585   2.278  10.369  0.4415 -0.2522  0.5760
  127TMC2    C4 1975   0.468   2.303  10.116  0.2237 -0.6242  0.0979
  127TMC2    C5 1976   0.407   2.255  10.225  0.2541 -0.7891 -0.5678
  127TMC2    C6 1977   0.455   2.245  10.352 -0.6582 -0.1814 -0.2599
  127TMC2     C 1978   0.670   2.432  10.042  0.1249  0.4547  0.2601
  127TMC2     O 1979   0.788   2.449  10.059 -0.3198  0.4268 -0.2461
  127TMC2     H 1980   0.751   2.371  10.294  0.1203 -0.0057 -2.4339
  127TMC2    H1 1981   0.419   2.302  10.019  1.7166 -0.4942 -0.6568
  127TMC2    H2 1982   0.394   2.212  10.435  0.0451  1.2455  0.8065
  127TMC2    C7 1983   0.277   2.199  10.202 -0.1587  0.1016 -1.0429
  127TMC2    C8 1984   0.639   2.297  10.499  0.2330 -0.6108  0.1024
  127TMC2    O1 1985   0.212   2.248  10.112 -0.3344  0.1030 -0.3980
  127TMC2    O2 1986   0.729   2.376  10.518 -0.2266  0.5180  0.0261
  127TMC2    O5 1987   0.618   2.182  10.561 -0.2667 -0.4020 -0.9140
  127TMC2    H5 1988   0.547   2.127  10.522 -0.1027 -0.5089 -1.0611
  128MPD2     C 1989   0.535   2.559   9.715  0.2116  0.0334  0.1162
  128MPD2    C1 1990   0.630   2.535   9.818  1.2288  0.3304  0.3092
  128MPD2    C2 1991   0.751   2.601   9.806  0.3167  0.2286 -0.8187
  128MPD2    C3 1992   0.784   2.679   9.701  0.3208  0.3671  0.8818
  128MPD2    C4 1993   0.691   2.713   9.602  0.2109 -0.7152 -0.8038
  128MPD2    C5 1994   0.571   2.647   9.612  0.4078  0.1164 -0.8585
  128MPD2     H 1995   0.815   2.602   9.894  0.8232 -0.8300 -1.1698
  128MPD2    H1 1996   0.715   2.793   9.533 -1.7996  2.5213  2.2808
  128MPD2    H2 1997   0.440   2.507   9.718  0.7070 -0.9973 -1.8395
  128MPD2    H3 1998   0.496   2.657   9.533 -0.5345 -1.3733 -0.1535
  128MPD2     N 1999   0.914   2.741   9.714  0.7550 -0.4120  0.7044
  128MPD2    H5 2000   0.979   2.701   9.781  1.7466  0.2670  0.1452
  128MPD2    N1 2001   0.594   2.459   9.930 -0.0022  0.3240 -0.4137
  128MPD2    H7 2002   0.495   2.436   9.932  0.1073 -0.0072  1.0887
  129TMC2    C1 2003   3.774   2.986   1.352  0.1174  0.9977 -0.6744
  129TMC2    C2 2004   3.843   3.032   1.241 -0.4639  1.0724 -0.3207
  129TMC2    C3 2005   3.937   2.942   1.193  0.6312  1.2778  0.3233
  129TMC2    C4 2006   3.800   2.869   1.418 -0.6362  0.0680  0.9132
  129TMC2    C5 2007   3.911   2.796   1.377  0.5222 -0.1101 -0.1910
  129TMC2    C6 2008   3.973   2.828   1.260 -0.3177 -0.0613 -0.3529
  129TMC2     C 2009   3.657   3.061   1.401  0.9414  0.0730 -0.2212
  129TMC2     O 2010   3.577   2.998   1.471 -0.1851  0.2238  0.2815
  129TMC2     H 2011   3.831   3.130   1.197  0.8153  1.1518 -0.4918
  129TMC2    H1 2012   3.751   2.834   1.507 -0.9235  0.7087  1.0070
  129TMC2    H2 2013   4.052   2.764   1.223 -0.4687 -0.1306 -0.5623
  129TMC2    C7 2014   3.918   2.662   1.430  0.2968  0.5304  0.2966
  129TMC2    C8 2015   3.997   2.971   1.068 -0.0302 -0.3678  0.1678
  129TMC2    O1 2016   3.806   2.611   1.453  0.2860  0.7011 -0.6446
  129TMC2    O2 2017   3.960   3.063   0.995  0.7922  0.0875  0.1920
  129TMC2    O5 2018   4.117   2.911   1.057  0.5535  0.3917  0.1280
  129TMC2    H5 2019   4.142   2.848   1.127  1.9757  1.1612  0.3125
  130MPD2     C 2020   3.458   3.261   1.497  0.3554 -0.7734 -0.0836
  130MPD2    C1 2021   3.562   3.292   1.415 -0.3411 -0.6922  0.4392
  130MPD2    C2 2022   3.589   3.425   1.386 -0.2591 -0.1005  0.7051
  130MPD2    C3 2023   3.504   3.523   1.439 -0.5735 -0.5764 -0.6182
  130MPD2    C4 2024   3.401   3.483   1.516 -0.0206 -0.3872  0.3257
  130MPD2    C5 2025   3.380   3.358   1.551  0.3212  0.3976  0.4135
  130MPD2     H 2026   3.681   3.457   1.339 -1.4900  0.1715 -1.5235
  130MPD2    H1 2027   3.338   3.557   1.564  0.6846  0.5103 -0.1107
  130MPD2    H2 2028   3.431   3.157   1.508 -0.2217 -0.3861  2.2128
  130MPD2    H3 2029   3.292   3.328   1.608  0.5372 -0.8951  0.0667
  130MPD2     N 2030   3.532   3.657   1.421  0.0984  0.3553  0.2664
  130MPD2    H5 2031   3.624   3.666   1.380 -1.2463  2.4866 -2.3096
  130MPD2    N1 2032   3.655   3.195   1.361  0.3907 -0.4675 -0.6586
  130MPD2    H7 2033   3.737   3.224   1.310 -1.2316  2.3514 -1.6449
  131TMC2    C1 2034   3.201   1.834  10.062 -0.6691  0.8496 -0.2582
  131TMC2    C2 2035   3.211   1.909  10.174  0.5158 -0.7467  0.6448
  131TMC2    C3 2036   3.264   2.032  10.169  0.3236 -0.1598  0.3375
  131TMC2    C4 2037   3.247   1.879   9.942  0.1743 -0.5904 -0.0234
  131TMC2    C5 2038   3.303   2.008   9.937  0.2242 -0.0862  1.0891
  131TMC2    C6 2039   3.310   2.086  10.054 -0.3305  0.6205  0.1989
  131TMC2     C 2040   3.129   1.715  10.076  0.8655 -0.4687 -0.5725
  131TMC2     O 2041   3.133   1.659  10.186  0.2545 -0.2505  0.1462
  131TMC2     H 2042   3.151   1.877  10.259 -3.6123  3.1275 -0.8344
  131TMC2    H1 2043   3.244   1.823   9.850 -0.6098 -0.8207  0.1482
  131TMC2    H2 2044   3.346   2.188  10.055 -0.1321  0.5541 -1.4468
  131TMC2    C7 2045   3.363   2.058   9.812  0.6748 -0.1627  0.1638
  131TMC2    C8 2046   3.284   2.101  10.298 -0.3743  0.0931 -0.1898
  131TMC2    O1 2047   3.387   1.976   9.726  0.2088  0.3467  0.2562
  131TMC2    O2 2048   3.251   2.039  10.399  0.0015  0.4856  0.1010
  131TMC2    O5 2049   3.391   2.180  10.294  0.3438 -0.3636 -0.2606
  131TMC2    H5 2050   3.424   2.203  10.205 -4.0237  0.3397 -1.7290
  132MPD2     C 2051   2.968   1.515   9.807  0.0981 -0.7654  0.4705
  132MPD2    C1 2052   3.022   1.545   9.936 -0.3745 -0.2904 -0.4514
  132MPD2    C2 2053   3.017   1.441  10.025  0.3042  0.9373  0.5038
  132MPD2    C3 2054   2.969   1.321   9.994  0.2871  0.9394 -1.4310
  132MPD2    C4 2055   2.932   1.296   9.866 -0.0919  0.2884  0.1406
  132MPD2    C5 2056   2.920   1.393   9.773  0.0054 -0.5103 -0.2204
  132MPD2     H 2057   3.037   1.452  10.131 -1.7414  2.4429  0.7380
  132MPD2    H1 2058   2.889   1.199   9.840 -1.4856  0.9034  0.1478
  132MPD2    H2 2059   2.950   1.601   9.742 -0.9555 -1.3083  0.0410
  132MPD2    H3 2060   2.863   1.378   9.682 -0.1651 -0.8496 -0.0562
  132MPD2     N 2061   2.956   1.225  10.097  0.0447  0.1254  0.3435
  132MPD2    H5 2062   2.994   1.254  10.187 -0.7610  3.4100 -0.3767
  132MPD2    N1 2063   3.081   1.671   9.958 -0.1747  0.4438  0.5158
  132MPD2    H7 2064   3.061   1.740   9.886 -0.9835  0.1508  0.4558
  133TMC2    C1 2065   1.157   3.078   9.199  0.5322 -0.4847  0.6495
  133TMC2    C2 2066   1.044   3.018   9.146  0.0178  0.0115 -0.8632
  133TMC2    C3 2067   0.963   3.097   9.074 -0.0023 -0.6190  0.6133
  133TMC2    C4 2068   1.181   3.214   9.195  0.6111 -0.5251 -0.1198
  133TMC2    C5 2069   1.097   3.284   9.115 -0.3966 -0.4797  1.1499
  133TMC2    C6 2070   0.990   3.227   9.051 -0.0384  1.2185  0.8717
  133TMC2     C 2071   1.248   2.993   9.281  0.0794  0.5043  0.0364
  133TMC2     O 2072   1.353   3.045   9.320 -0.1505  0.0392  0.1685
  133TMC2     H 2073   1.029   2.911   9.152  2.8440 -0.4920 -2.8425
  133TMC2    H1 2074   1.272   3.250   9.242  1.3552  0.1994 -2.1212
  133TMC2    H2 2075   0.925   3.275   8.978  0.1454  1.3556  0.7998
  133TMC2    C7 2076   1.155   3.409   9.064  0.5526  0.1660  0.5794
  133TMC2    C8 2077   0.860   3.031   8.994  1.1418  0.3323 -0.3125
  133TMC2    O1 2078   1.277   3.415   9.073 -0.3437  0.7443  0.1281
  133TMC2    O2 2079   0.816   3.086   8.895  0.7087  0.2162 -0.8062
  133TMC2    O5 2080   0.837   2.906   9.025 -0.4417  0.2876  0.0790
  133TMC2    H5 2081   0.832   2.898   9.123  3.0413 -0.1416  0.2203
  134MPD2     C 2082   1.191   2.658   9.409  0.3901  0.7305 -0.1231
  134MPD2    C1 2083   1.260   2.775   9.392  0.7659 -0.5789 -0.0837
  134MPD2    C2 2084   1.376   2.798   9.460  0.1812  0.4803  0.5021
  134MPD2    C3 2085   1.424   2.708   9.548 -0.1455 -0.5816  0.3282
  134MPD2    C4 2086   1.349   2.597   9.569 -0.9202 -0.2152 -0.1077
  134MPD2    C5 2087   1.238   2.574   9.501  0.0219 -0.5927 -0.5735
  134MPD2     H 2088   1.426   2.894   9.453  1.4817 -0.1411  1.2463
  134MPD2    H1 2089   1.371   2.533   9.654 -0.8600  0.4139  0.3482
  134MPD2    H2 2090   1.094   2.639   9.364  0.9086 -2.6290  0.1994
  134MPD2    H3 2091   1.185   2.482   9.520 -2.7176  0.5710 -2.5590
  134MPD2     N 2092   1.541   2.721   9.632  0.1686  0.2078 -0.0092
  134MPD2    H5 2093   1.554   2.645   9.698 -0.3745 -0.5691 -0.8148
  134MPD2    N1 2094   1.194   2.869   9.308  0.3952 -0.2902 -0.3000
  134MPD2    H7 2095   1.103   2.845   9.271 -0.0187  0.5108  0.2203
  135TMC2    C1 2096   4.712   3.396  10.614  0.6463  0.8446 -0.1979
  135TMC2    C2 2097   0.102   3.447  10.636  0.0127 -1.0394 -0.3862
  135TMC2    C3 2098   0.137   3.495  10.759  0.9466  0.7718 -1.3753
  135TMC2    C4 2099   4.618   3.409  10.712  0.1913 -0.1685 -0.2584
  135TMC2    C5 2100   4.657   3.445  10.842  0.4174  0.7697 -0.0500
  135TMC2    C6 2101   0.046   3.492  10.864  0.2429  0.8155 -0.3343
  135TMC2     C 2102   4.664   3.343  10.482 -0.1603  0.0682 -0.2752
  135TMC2     O 2103   4.581   3.250  10.477 -0.1638 -0.0221 -0.0345
  135TMC2     H 2104   0.175   3.439  10.556  1.5598 -0.0893  0.9355
  135TMC2    H1 2105   4.521   3.361  10.702 -0.3468  0.4799  1.8465
  135TMC2    H2 2106   0.068   3.537  10.960 -2.9630 -0.1403  0.8345
  135TMC2    C7 2107   4.565   3.502  10.939  0.8854 -0.6911  0.1445
  135TMC2    C8 2108   0.260   3.565  10.772  0.0356 -0.3679  0.3752
  135TMC2    O1 2109   4.585   3.598  11.014  0.0101 -0.1619 -0.0562
  135TMC2    O2 2110   0.316   3.573  10.879  0.0737 -0.3171 -0.5957
  135TMC2    O5 2111   0.292   3.616  10.651  0.3652 -0.4272 -0.0578
  135TMC2    H5 2112   0.224   3.607  10.581 -1.5364  1.5002  1.5559
  136MPD2     C 2113   4.645   3.273  10.192 -0.3989 -0.1985  0.4398
  136MPD2    C1 2114   4.722   3.374  10.238  0.5459 -0.3850 -0.1797
  136MPD2    C2 2115   0.054   3.448  10.142 -0.6310 -0.2965 -0.2787
  136MPD2    C3 2116   0.039   3.413  10.003 -0.3190 -0.4152 -0.3036
  136MPD2    C4 2117   4.687   3.311   9.966  0.1576  0.0910 -0.0237
  136MPD2    C5 2118   4.620   3.239  10.059  0.1372  0.1649 -0.3536
  136MPD2     H 2119   0.123   3.524  10.175 -0.6017 -0.5645  0.2811
  136MPD2    H1 2120   4.667   3.274   9.866 -1.1414 -2.7489  1.2716
  136MPD2    H2 2121   4.597   3.205  10.261 -2.1244 -0.4465 -1.0036
  136MPD2    H3 2122   4.545   3.164  10.041  0.5172 -0.7282  1.8354
  136MPD2     N 2123   0.114   3.475   9.900  0.0314 -0.5531  0.6487
  136MPD2    H5 2124   0.107   3.435   9.807 -0.5874  2.4476 -0.6149
  136MPD2    N1 2125   4.727   3.413  10.380 -0.0457 -0.4902 -0.1292
  136MPD2    H7 2126   0.038   3.498  10.399  1.2789 -1.8393  2.3744
  137TMC2    C1 2127   4.645   2.960   9.732  0.2362 -0.6861  0.1230
  137TMC2    C2 2128   4.738   3.063   9.727  0.2305 -1.0529  0.7859
  137TMC2    C3 2129   4.731   3.144   9.619 -0.6446 -0.7530 -0.2421
  137TMC2    C4 2130   4.543   2.947   9.635 -0.2158  0.4186 -0.4299
  137TMC2    C5 2131   4.545   3.033   9.532 -0.2311  0.4313  0.0619
  137TMC2    C6 2132   4.633   3.133   9.514 -0.1432  0.0971  0.3817
  137TMC2     C 2133   4.651   2.868   9.838  0.4966  0.1938 -0.3401
  137TMC2     O 2134   4.702   2.902   9.947 -0.5077  0.7749  0.4819
  137TMC2     H 2135   0.065   3.084   9.809 -1.9300 -2.1634  2.8591
  137TMC2    H1 2136   4.474   2.863   9.646  0.8942 -0.7072 -2.1129
  137TMC2    H2 2137   4.639   3.187   9.420  0.5461  0.0448  0.3991
  137TMC2    C7 2138   4.443   3.008   9.434  0.1580 -0.0572  0.0631
  137TMC2    C8 2139   0.085   3.253   9.619  0.7917 -0.6602 -0.1189
  137TMC2    O1 2140   4.472   3.013   9.315 -0.2718  0.1413 -0.1501
  137TMC2    O2 2141   0.180   3.261   9.696 -0.3070  0.0627 -0.0277
  137TMC2    O5 2142   0.019   3.364   9.577 -0.2342  0.9814  0.4218
  137TMC2    H5 2143   4.663   3.350   9.563  0.2615  0.9422 -2.8442
  138MPD2     C 2144   4.558   2.509   9.814  0.4327  0.0221 -0.3041
  138MPD2    C1 2145   4.602   2.629   9.879 -0.3187 -0.6296 -0.0819
  138MPD2    C2 2146   4.616   2.626  10.018  0.2911  0.0812 -0.3464
  138MPD2    C3 2147   4.588   2.514  10.093  0.2485 -0.2788  0.0359
  138MPD2    C4 2148   4.560   2.395  10.025  0.4102 -0.1950  0.1220
  138MPD2    C5 2149   4.547   2.392   9.891 -0.2192 -0.1615  0.1741
  138MPD2     H 2150   4.621   2.718  10.075 -1.7532 -0.8116  1.2854
  138MPD2    H1 2151   4.538   2.298  10.070  1.5901 -0.3974  0.2794
  138MPD2    H2 2152   4.547   2.495   9.707 -1.2547  1.0111 -0.2527
  138MPD2    H3 2153   4.538   2.298   9.837 -1.2246  1.3798 -2.3524
  138MPD2     N 2154   4.593   2.527  10.235 -0.5940  0.3644 -0.0292
  138MPD2    H5 2155   4.632   2.617  10.261 -1.4170  1.1727 -1.6568
  138MPD2    N1 2156   4.617   2.741   9.795 -0.7064  0.0148  0.4391
  138MPD2    H7 2157   4.593   2.729   9.697  0.1712 -2.9241  0.5705
  139TMC2    C1 2158   0.569   1.294  13.573 -0.2317  0.3502 -0.5227
  139TMC2    C2 2159   0.581   1.308  13.436 -0.5191 -0.3126  0.2525
  139TMC2    C3 2160   0.522   1.418  13.382  0.5676  0.2401  0.6406
  139TMC2    C4 2161   0.488   1.377  13.648 -0.5199 -0.2995  0.0806
  139TMC2    C5 2162   0.438   1.491  13.582  0.5642  0.2098 -0.3928
  139TMC2    C6 2163   0.472   1.516  13.460 -0.0295  0.2050 -0.4712
  139TMC2     C 2164   0.577   1.157  13.612 -0.1140 -0.2569 -0.3571
  139TMC2     O 2165   0.665   1.094  13.559  0.6897  0.2348  0.0315
  139TMC2     H 2166   0.638   1.244  13.370 -0.1420  0.0240  0.2518
  139TMC2    H1 2167   0.495   1.372  13.756 -1.2305  1.2475  0.1959
  139TMC2    H2 2168   0.423   1.599  13.410  0.7310  0.6182 -0.5240
  139TMC2    C7 2169   0.385   1.604  13.656  1.1120  0.0122 -0.2983
  139TMC2    C8 2170   0.546   1.431  13.240  0.1510  0.8297  0.8322
  139TMC2    O1 2171   0.408   1.714  13.604 -0.2167 -0.1495  0.2789
  139TMC2    O2 2172   0.630   1.370  13.174  0.3714  0.0998  0.4887
  139TMC2    O5 2173   0.436   1.479  13.190 -0.2177 -0.7491 -0.0263
  139TMC2    H5 2174   0.372   1.509  13.258  0.9906 -0.6035  1.0437
  140MPD2     C 2175   0.324   0.970  13.792  0.0354 -0.7215 -0.6229
  140MPD2    C1 2176   0.439   0.986  13.721 -0.8673 -1.0819  0.8920
  140MPD2    C2 2177   0.507   0.873  13.670 -0.4001 -0.2366 -0.1538
  140MPD2    C3 2178   0.454   0.746  13.699 -0.3114 -0.2545 -0.5776
  140MPD2    C4 2179   0.338   0.735  13.768  0.4557 -0.5440 -0.0271
  140MPD2    C5 2180   0.272   0.843  13.812  0.0132  0.1991  0.2525
  140MPD2     H 2181   0.601   0.878  13.616 -1.8433 -0.0421 -2.6506
  140MPD2    H1 2182   0.295   0.641  13.800 -0.3205 -0.0376  0.4131
  140MPD2    H2 2183   0.270   1.052  13.836  0.8416 -0.2866 -0.4502
  140MPD2    H3 2184   0.182   0.839  13.873  0.9555  2.0011  1.7578
  140MPD2     N 2185   0.518   0.628  13.657 -0.3075  0.2780 -0.4456
  140MPD2    H5 2186   0.609   0.654  13.619 -0.7747 -0.9137 -2.3882
  140MPD2    N1 2187   0.473   1.117  13.688  0.3290  0.0643 -0.7468
  140MPD2    H7 2188   0.412   1.191  13.721  0.4947 -1.0018  1.9653
  141TMC2    C1 2189   1.964   1.984  14.319 -0.8539  0.7905 -0.5979
  141TMC2    C2 2190   2.007   1.942  14.441  0.1240  0.6878 -0.5114
  141TMC2    C3 2191   1.977   2.038  14.539  0.8765  0.1556 -0.5892
  141TMC2    C4 2192   1.914   2.116  14.298 -0.8956  0.5124 -0.2149
  141TMC2    C5 2193   1.910   2.211  14.400  0.6485  0.4972 -0.8308
  141TMC2    C6 2194   1.947   2.175  14.523 -0.6867 -0.2776  0.1549
  141TMC2     C 2195   1.939   1.887  14.213 -0.1183 -0.2042 -0.3316
  141TMC2     O 2196   1.891   1.938  14.112  0.4255  0.3831 -0.4461
  141TMC2     H 2197   2.046   1.847  14.476 -1.3941  0.4484  0.5460
  141TMC2    H1 2198   1.885   2.154  14.200  0.0526 -0.0140 -0.6967
  141TMC2    H2 2199   1.928   2.236  14.611 -0.2486 -0.2765  0.2490
  141TMC2    C7 2200   1.856   2.341  14.375 -0.3036  0.0097 -0.0288
  141TMC2    C8 2201   2.022   2.009  14.672 -0.2937  0.3839  0.3101
  141TMC2    O1 2202   1.811   2.359  14.263  0.7261  0.6957 -0.1045
  141TMC2    O2 2203   2.108   2.063  14.739 -0.3053  0.1389 -0.5472
  141TMC2    O5 2204   1.977   1.884  14.702  0.0879  0.4368  0.2768
  141TMC2    H5 2205   1.897   1.860  14.650 -0.5829  1.7029  0.7401
  142TMC2    C1 2206   3.375   1.274   9.946  0.3374  0.4309  0.2274
  142TMC2    C2 2207   3.306   1.325   9.838  0.7558  0.0571  0.4870
  142TMC2    C3 2208   3.337   1.450   9.802 -0.4891  0.3827 -0.2528
  142TMC2    C4 2209   3.482   1.339  10.005 -0.0606  0.0307  0.1502
  142TMC2    C5 2210   3.500   1.471   9.970  0.8683  0.5000  0.3073
  142TMC2    C6 2211   3.423   1.526   9.872 -0.1967  0.1421  0.0986
  142TMC2     C 2212   3.322   1.159  10.011 -0.5001  0.6220  0.0016
  142TMC2     O 2213   3.275   1.065   9.944  0.0087 -0.2426 -0.0424
  142TMC2     H 2214   3.224   1.265   9.799  0.3790  2.3603 -2.2164
  142TMC2    H1 2215   3.546   1.302  10.084  0.0171 -0.9151 -0.3551
  142TMC2    H2 2216   3.459   1.616   9.823 -2.1609  1.8398  1.7613
  142TMC2    C7 2217   3.499   1.551  10.089 -0.1767 -0.1535  0.2948
  142TMC2    C8 2218   3.284   1.492   9.681 -0.0941 -0.1071  0.1238
  142TMC2    O1 2219   3.455   1.494  10.188  0.0498 -0.2890 -0.2433
  142TMC2    O2 2220   3.268   1.613   9.665 -0.2368  0.0633  0.3526
  142TMC2    O5 2221   3.359   1.421   9.594  0.1836  0.0734  0.1937
  142TMC2    H5 2222   3.394   1.343   9.642 -4.5065 -1.3551  1.2218
  143MPD2     C 2223   3.228   0.932  10.458  0.5405  0.6486  0.2451
  143MPD2    C1 2224   3.233   0.878  10.333  0.2795 -0.1649 -0.1189
  143MPD2    C2 2225   3.258   0.963  10.224  0.3217 -0.0303  0.0619
  143MPD2    C3 2226   3.279   1.095  10.242  0.2932  0.2895  0.0315
  143MPD2    C4 2227   3.266   1.147  10.372  0.3744  0.2180  0.0931
  143MPD2    C5 2228   3.233   1.065  10.474 -0.3233  0.3895 -0.6501
  143MPD2     H 2229   3.265   0.930  10.121  0.0066 -1.1249  0.3923
  143MPD2    H1 2230   3.282   1.254  10.383  0.2175  0.2588 -0.0785
  143MPD2    H2 2231   3.215   0.872  10.547 -1.5675  0.5330 -0.1326
  143MPD2    H3 2232   3.227   1.113  10.571 -2.8233 -0.5749 -0.3189
  143MPD2     N 2233   3.318   1.187  10.144  0.0887  0.8904  0.3018
  143MPD2    H5 2234   3.337   1.285  10.164 -2.7369  0.8793  2.9699
  143MPD2    N1 2235   3.206   0.743  10.323 -0.1748 -0.1808  0.5439
  143MPD2    H7 2236   3.212   0.693  10.412 -3.4037  1.1014  1.4778
  144TMC2    C1 2237   2.080   0.047   0.608  0.1337  0.1427  0.2961
  144TMC2    C2 2238   2.186   4.714   0.560  0.9970 -0.4675 -0.0865
  144TMC2    C3 2239   2.314   0.006   0.592  0.1058 -0.0961  0.2646
  144TMC2    C4 2240   2.103   0.146   0.704 -1.2007 -0.1590 -0.2287
  144TMC2    C5 2241   2.232   0.160   0.750 -0.4699  0.0085 -0.0572
  144TMC2    C6 2242   2.339   0.096   0.698  0.0685 -0.4070 -0.2286
  144TMC2     C 2243   1.954   0.002   0.558 -0.1851 -0.5783  0.3729
  144TMC2     O 2244   1.953   4.632   0.508 -0.5068  0.1999  0.3838
  144TMC2     H 2245   2.168   4.649   0.475  1.5568 -0.7758  0.0385
  144TMC2    H1 2246   2.029   0.206   0.756 -0.1531  0.3882  0.6489
  144TMC2    H2 2247   2.441   0.103   0.733 -0.2632  0.5308  0.5358
  144TMC2    C7 2248   2.256   0.235   0.872  0.7930  0.1046 -0.6149
  144TMC2    C8 2249   2.417   4.650   0.571  0.2391 -0.2466 -0.5836
  144TMC2    O1 2250   2.346   0.186   0.938  0.6586 -0.1661 -0.1743
  144TMC2    O2 2251   2.521   4.669   0.509 -0.1911 -0.2379  0.3999
  144TMC2    O5 2252   2.348   4.534   0.584 -0.7607  0.3182 -0.2974
  144TMC2    H5 2253   2.273   4.546   0.646  1.0894 -1.4718  2.3079
  145MPD2     C 2254   1.503   0.136   0.359 -0.6031 -0.1414 -0.7290
  145MPD2    C1 2255   1.572   0.015   0.357 -1.0947 -0.1221 -0.3589
  145MPD2    C2 2256   1.689   0.005   0.428 -0.2654  0.0256  0.0156
  145MPD2    C3 2257   1.743   0.114   0.498 -0.7056 -0.9566  0.6259
  145MPD2    C4 2258   1.657   0.218   0.526 -0.1843  0.6305  0.1103
  145MPD2    C5 2259   1.542   0.231   0.448  0.0217 -0.8185 -0.1259
  145MPD2     H 2260   1.745   4.655   0.412 -3.3500 -1.1542 -4.0124
  145MPD2    H1 2261   1.690   0.303   0.583 -0.7333 -0.5627  2.1857
  145MPD2    H2 2262   1.415   0.150   0.298 -0.6820 -1.0232 -0.8107
  145MPD2    H3 2263   1.483   0.321   0.459  0.6875 -0.6425  1.9804
  145MPD2     N 2264   1.871   0.113   0.555 -0.0984  0.1811 -0.0551
  145MPD2    H5 2265   1.905   0.193   0.606  0.1879 -0.5023  0.8273
  145MPD2    N1 2266   1.545   4.658   0.264 -0.0720  0.1364 -0.6215
  145MPD2    H7 2267   1.603   4.575   0.259  0.8723  0.7843 -0.5465
  146TMC2    C1 2268   3.182   3.935  12.872 -0.5605  0.1641  0.6868
  146TMC2    C2 2269   3.113   3.941  12.758  0.4811 -0.2163  0.0324
  146TMC2    C3 2270   3.174   3.906  12.646 -0.2766 -0.2216  0.1995
  146TMC2    C4 2271   3.314   3.895  12.881 -0.5613  0.3649  0.3167
  146TMC2    C5 2272   3.373   3.865  12.759  0.4144 -0.1772 -0.6756
  146TMC2    C6 2273   3.305   3.873  12.642 -0.6755  0.0908  0.0271
  146TMC2     C 2274   3.109   3.948  12.992  0.3193 -0.6068  0.6772
  146TMC2     O 2275   2.993   3.995  12.983 -0.1022  0.9716  0.0419
  146TMC2     H 2276   3.012   3.978  12.762  0.7289  0.4743 -0.0463
  146TMC2    H1 2277   3.364   3.900  12.978  0.2968  1.0823 -0.1664
  146TMC2    H2 2278   3.343   3.829  12.551 -0.8090 -0.5744  0.2849
  146TMC2    C7 2279   3.501   3.802  12.764 -0.4083 -0.3210 -0.0169
  146TMC2    C8 2280   3.102   3.814  12.553  0.2875  0.6247  0.2580
  146TMC2    O1 2281   3.552   3.774  12.657 -0.8340 -0.4927  1.2345
  146TMC2    O2 2282   3.152   3.713  12.500 -0.5473 -0.0026  0.4257
  146TMC2    O5 2283   2.973   3.832  12.574 -0.0138 -0.1012 -0.0846
  146TMC2    H5 2284   2.956   3.925  12.601  2.4183  0.3074  0.0527
  147MPD2     C 2285   3.862   3.508  12.967  0.1448  0.1824  0.2613
  147MPD2    C1 2286   3.774   3.530  13.064 -0.2109 -0.1387 -0.2071
  147MPD2    C2 2287   3.675   3.619  13.034 -0.5439  0.3613  0.4827
  147MPD2    C3 2288   3.664   3.678  12.910  0.6619  0.1727 -0.1851
  147MPD2    C4 2289   3.759   3.656  12.817  0.2124  0.3165  0.2945
  147MPD2    C5 2290   3.864   3.572  12.847  0.3362  0.8467  0.2823
  147MPD2     H 2291   3.611   3.658  13.113 -1.7244 -1.1724  0.2883
  147MPD2    H1 2292   3.762   3.720  12.729  0.5932 -1.9994 -1.3650
  147MPD2    H2 2293   3.951   3.450  12.986  0.5829  1.4006  1.9993
  147MPD2    H3 2294   3.944   3.564  12.775  1.5501 -0.1761  1.7253
  147MPD2     N 2295   3.556   3.766  12.887 -0.1479 -0.1526  0.4437
  147MPD2    H5 2296   3.504   3.789  12.971 -0.8803  1.3556 -0.4366
  147MPD2    N1 2297   3.768   3.440  13.173  0.2795  0.1391  0.2355
  147MPD2    H7 2298   3.827   3.358  13.172  0.5166  0.3202 -0.5533
  148TMC2    C1 2299   2.669   2.533  10.668  0.6190  0.0038 -0.0977
  148TMC2    C2 2300   2.742   2.581  10.769 -0.3677 -0.0815 -0.8505
  148TMC2    C3 2301   2.870   2.528  10.792 -0.2976 -0.4628 -0.3589
  148TMC2    C4 2302   2.710   2.420  10.599 -0.7346  0.4791  0.8773
  148TMC2    C5 2303   2.833   2.362  10.629  0.8635 -0.3474 -0.0305
  148TMC2    C6 2304   2.910   2.416  10.730  0.8104 -0.0585  0.6657
  148TMC2     C 2305   2.550   2.610  10.630 -0.3152 -0.3724  0.5324
  148TMC2     O 2306   2.549   2.728  10.654  0.6882 -0.3765  0.0635
  148TMC2     H 2307   2.723   2.679  10.812  1.9112  1.1859 -2.6880
  148TMC2    H1 2308   2.648   2.388  10.516 -0.0546  1.0789  0.1334
  148TMC2    H2 2309   3.015   2.387  10.740  0.8098 -0.8277 -1.5104
  148TMC2    C7 2310   2.905   2.280  10.538 -0.3479  0.3266 -0.1709
  148TMC2    C8 2311   2.966   2.605  10.870 -0.5438 -0.2836 -0.2976
  148TMC2    O1 2312   2.991   2.207  10.578 -0.3626 -0.3061 -0.1089
  148TMC2    O2 2313   2.953   2.725  10.888 -0.2856 -0.5951  0.2496
  148TMC2    O5 2314   2.989   2.532  10.978 -0.6071  0.0321  0.0705
  148TMC2    H5 2315   2.995   2.438  10.953 -2.8249  0.2188 -1.1712
  149MPD2     C 2316   2.272   2.681  10.536 -0.1079  0.3784  0.0983
  149MPD2    C1 2317   2.334   2.557  10.515  0.1616 -0.4551 -0.1918
  149MPD2    C2 2318   2.271   2.473  10.430 -0.2247  0.0166 -0.1636
  149MPD2    C3 2319   2.153   2.502  10.358 -0.0952  0.5762 -0.2784
  149MPD2    C4 2320   2.091   2.624  10.387 -0.8490 -0.1055 -0.3173
  149MPD2    C5 2321   2.150   2.708  10.475 -0.7273 -0.2342 -0.1058
  149MPD2     H 2322   2.334   2.390  10.401 -0.2549  0.2503 -0.9037
  149MPD2    H1 2323   1.994   2.650  10.347 -0.7347 -0.5799 -0.8988
  149MPD2    H2 2324   2.314   2.756  10.602 -0.1558  0.6230 -0.1524
  149MPD2    H3 2325   2.106   2.799  10.514 -1.0657  0.8338 -3.0081
  149MPD2     N 2326   2.095   2.419  10.259 -0.1785 -0.4925  0.3269
  149MPD2    H5 2327   2.015   2.458  10.209  1.9218  1.2038 -1.7058
  149MPD2    N1 2328   2.460   2.525  10.571  0.0321  0.9980  0.7545
  149MPD2    H7 2329   2.489   2.429  10.558 -0.0173  1.2097 -0.9062
  150TMC2    C1 2330   4.619   0.988  12.787  0.4368  0.2704 -0.4965
  150TMC2    C2 2331   4.616   0.925  12.907  0.0202 -0.1815  0.5220
  150TMC2    C3 2332   4.736   0.868  12.951  0.3056  0.9741  0.1999
  150TMC2    C4 2333   4.737   1.005  12.721 -0.0029 -0.1532 -0.5337
  150TMC2    C5 2334   0.113   0.949  12.772  0.7753 -0.4714 -0.2688
  150TMC2    C6 2335   0.115   0.873  12.890  0.6149 -0.2191  0.3816
  150TMC2     C 2336   4.507   1.073  12.760 -0.3705  0.2668 -0.9268
  150TMC2     O 2337   4.444   1.112  12.859  0.6006 -0.2984 -0.4900
  150TMC2     H 2338   4.530   0.935  12.971 -1.1217  3.2100 -1.5559
  150TMC2    H1 2339   4.737   1.078  12.641 -1.1026  2.0652  1.4886
  150TMC2    H2 2340   0.200   0.811  12.918 -2.2008 -3.6738  1.2615
  150TMC2    C7 2341   0.235   0.993  12.700  0.1541  0.1943  0.0813
  150TMC2    C8 2342   0.004   0.781  13.063 -0.1331 -0.4117  0.2620
  150TMC2    O1 2343   0.225   1.094  12.634  0.4821 -0.2898 -0.0206
  150TMC2    O2 2344   0.107   0.797  13.130 -0.1351  0.3852 -0.0791
  150TMC2    O5 2345   4.624   0.756  13.114  0.2768 -0.5209 -0.1812
  150TMC2    H5 2346   4.560   0.720  13.049  0.9821 -0.7233 -0.7673
  151MPD2     C 2347   4.079   1.177  12.503  0.4119  0.2030  0.2032
  151MPD2    C1 2348   4.173   1.135  12.411 -0.4678  0.4321 -0.5731
  151MPD2    C2 2349   4.300   1.099  12.457  0.0786 -0.0441  0.1529
  151MPD2    C3 2350   4.337   1.117  12.592  0.2577  0.1237 -0.0909
  151MPD2    C4 2351   4.246   1.180  12.672 -0.2553 -0.4724 -0.7407
  151MPD2    C5 2352   4.118   1.194  12.635  0.3934 -0.3746  0.1891
  151MPD2     H 2353   4.378   1.063  12.391  1.8163  0.7640  1.7851
  151MPD2    H1 2354   4.274   1.223  12.768 -0.3896  1.6359 -1.6427
  151MPD2    H2 2355   3.976   1.197  12.478  0.7850  1.0394 -0.6577
  151MPD2    H3 2356   4.039   1.217  12.706 -0.4559 -0.0684 -0.8664
  151MPD2     N 2357   4.463   1.076  12.628 -0.4056 -0.4525  0.0302
  151MPD2    H5 2358   4.520   1.037  12.554  3.5906  0.1382  2.8011
  151MPD2    N1 2359   4.130   1.105  12.274  0.0826  0.4520  0.2151
  151MPD2    H7 2360   4.030   1.104  12.255  0.5823 -2.0284 -2.3408
  152TMC2    C1 2361   0.233   1.197  13.004  0.5727 -0.9674  0.6623
  152TMC2    C2 2362   0.296   1.094  13.059  0.2327 -0.0646  0.5293
  152TMC2    C3 2363   0.435   1.095  13.056  0.0440 -0.2151 -0.6792
  152TMC2    C4 2364   0.298   1.288  12.921  0.1975 -0.1265 -0.2508
  152TMC2    C5 2365   0.434   1.277  12.918  0.0134  0.9462 -0.3389
  152TMC2    C6 2366   0.510   1.189  12.993  0.6575 -0.1228  0.5633
  152TMC2     C 2367   0.096   1.216  13.038  0.3107  0.0504 -0.0052
  152TMC2     O 2368   0.053   1.317  12.980  0.2103  0.0505  0.3221
  152TMC2     H 2369   0.249   1.011  13.110 -1.4409  0.8283  0.4586
  152TMC2    H1 2370   0.242   1.366  12.873  2.0107  0.7102 -1.0095
  152TMC2    H2 2371   0.618   1.182  12.985  0.8150  3.4213 -0.2110
  152TMC2    C7 2372   0.507   1.378  12.842  0.8318 -0.1145 -0.1825
  152TMC2    C8 2373   0.500   0.989  13.124  0.0966 -0.0409  0.5924
  152TMC2    O1 2374   0.443   1.437  12.758  0.0173  0.4397 -0.4129
  152TMC2    O2 2375   0.438   0.897  13.172  0.2541  0.2634  0.4603
  152TMC2    O5 2376   0.593   1.055  13.191 -0.1707  0.4253  0.2398
  152TMC2    H5 2377   0.663   1.096  13.135  1.0046 -2.7382 -0.5925
  153MPD2     C 2378   4.609   1.080  13.310  0.1099 -0.2620 -0.7718
  153MPD2    C1 2379   4.649   1.158  13.197  0.9317  0.1299  0.3704
  153MPD2    C2 2380   4.555   1.247  13.154 -0.3021 -0.3038 -1.0061
  153MPD2    C3 2381   4.435   1.275  13.213 -0.5529 -0.8340 -0.3221
  153MPD2    C4 2382   4.396   1.199  13.323  0.6997  0.0003  0.1613
  153MPD2    C5 2383   4.483   1.102  13.370 -0.0253 -0.0587 -0.0424
  153MPD2     H 2384   4.585   1.309  13.070 -2.2489  0.9937 -0.7429
  153MPD2    H1 2385   4.294   1.199  13.361 -0.7322 -1.7175 -3.5767
  153MPD2    H2 2386   4.669   0.998  13.347  2.6424  2.1723  0.4778
  153MPD2    H3 2387   4.454   1.029  13.445 -1.5371  0.6714  0.0921
  153MPD2     N 2388   4.347   1.373  13.162 -0.6530 -0.1617  0.0322
  153MPD2    H5 2389   4.377   1.399  13.068 -0.0836  0.8124  0.4891
  153MPD2    N1 2390   0.037   1.136  13.137 -0.4580 -0.4914 -0.2523
  153MPD2    H7 2391   0.093   1.066  13.184  0.7743  0.4839 -0.3016
  154TMC2    C1 2392   1.805   1.372   0.570  1.0594 -0.0862 -0.5682
  154TMC2    C2 2393   1.895   1.420   0.659  0.2461  0.1427 -0.0626
  154TMC2    C3 2394   2.023   1.372   0.659  0.2785  0.1575  0.0359
  154TMC2    C4 2395   1.836   1.262   0.491  0.0171  0.2136 -0.6913
  154TMC2    C5 2396   1.969   1.225   0.487  0.1921  0.3927  0.8783
  154TMC2    C6 2397   2.061   1.265   0.580 -0.7979  0.0646 -0.4832
  154TMC2     C 2398   1.683   1.449   0.545  0.5027  0.1480 -0.0661
  154TMC2     O 2399   1.656   1.541   0.623  0.2765  0.4678  0.2704
  154TMC2     H 2400   1.863   1.500   0.724  0.0854 -0.1204  0.1806
  154TMC2    H1 2401   1.759   1.207   0.438 -0.8376  0.6987  0.0667
  154TMC2    H2 2402   2.161   1.223   0.575 -1.8284 -2.3562 -0.5192
  154TMC2    C7 2403   2.012   1.180   0.357  0.2717 -0.0164  0.9662
  154TMC2    C8 2404   2.121   1.442   0.739 -0.4295  0.3896 -0.2461
  154TMC2    O1 2405   1.924   1.136   0.285  0.8904 -0.3917  0.7560
  154TMC2    O2 2406   2.095   1.554   0.779  0.5875  0.2769  0.2538
  154TMC2    O5 2407   2.213   1.355   0.776  0.1015  0.2377  0.5375
  154TMC2    H5 2408   2.201   1.260   0.756  1.0740 -0.0022  1.0558
  155MPD2     C 2409   1.474   1.457   0.253  0.1563  0.3327  0.0799
  155MPD2    C1 2410   1.498   1.466   0.386 -0.2439  0.3337 -0.3890
  155MPD2    C2 2411   1.404   1.528   0.472  0.0817 -0.2620  0.1051
  155MPD2    C3 2412   1.284   1.581   0.415 -0.2854 -0.5286 -0.0541
  155MPD2    C4 2413   1.252   1.555   0.281 -0.0350 -0.1251  0.1925
  155MPD2    C5 2414   1.348   1.489   0.201  0.3493 -0.8811  0.1748
  155MPD2     H 2415   1.421   1.543   0.578 -0.0590  1.3169 -0.0959
  155MPD2    H1 2416   1.162   1.597   0.238  0.0060 -0.8432 -0.6020
  155MPD2    H2 2417   1.551   1.421   0.186 -0.3631 -0.3993 -0.1341
  155MPD2    H3 2418   1.337   1.473   0.094 -1.7532  0.1007  0.2492
  155MPD2     N 2419   1.192   1.648   0.497  0.2177  0.1932 -0.4905
  155MPD2    H5 2420   1.230   1.662   0.590  2.1164 -1.7024 -0.9945
  155MPD2    N1 2421   1.629   1.429   0.424  0.3840  0.0101  0.2447
  155MPD2    H7 2422   1.681   1.381   0.351  1.1449  2.6349 -0.9523
  156TMC2    C1 2423   0.682   3.193  12.386 -0.5319 -0.3485 -0.1652
  156TMC2    C2 2424   0.662   3.072  12.341  0.8697 -0.2975  0.0003
  156TMC2    C3 2425   0.660   3.037  12.207 -1.2807 -0.3259  0.1195
  156TMC2    C4 2426   0.695   3.297  12.297 -0.5333  0.2862  0.9660
  156TMC2    C5 2427   0.673   3.266  12.163 -0.0742  0.9978  0.1065
  156TMC2    C6 2428   0.660   3.137  12.116  0.1559 -0.2342  0.3003
  156TMC2     C 2429   0.616   3.230  12.510  0.3704 -0.0552  0.2141
  156TMC2     O 2430   0.564   3.341  12.526  0.0580  0.6712  0.1653
  156TMC2     H 2431   0.624   2.998  12.411  0.9063  2.5996  3.0895
  156TMC2    H1 2432   0.693   3.398  12.334  1.6110  0.9973 -0.8807
  156TMC2    H2 2433   0.653   3.106  12.012 -1.9111  1.4979 -0.0674
  156TMC2    C7 2434   0.614   3.368  12.088  0.1963 -0.2573  0.5308
  156TMC2    C8 2435   0.611   2.909  12.177  0.1264  0.2053 -0.2757
  156TMC2    O1 2436   0.669   3.475  12.091 -0.3219  0.0915 -0.7475
  156TMC2    O2 2437   0.522   2.854  12.244 -0.2606  0.1853 -0.1108
  156TMC2    O5 2438   0.717   2.841  12.116  0.4199 -0.3181 -0.8427
  156TMC2    H5 2439   0.791   2.901  12.092 -0.0059  0.2261 -0.8254
  157MPD2     C 2440   0.622   3.040  12.826 -0.3664 -0.5609 -0.6228
  157MPD2    C1 2441   0.577   3.122  12.732  0.7442 -0.0640  0.8828
  157MPD2    C2 2442   0.463   3.192  12.757  0.6441 -0.1604 -0.9022
  157MPD2    C3 2443   0.397   3.191  12.876 -0.1511 -0.5809 -0.1870
  157MPD2    C4 2444   0.435   3.103  12.979  0.4282 -0.2843 -0.2597
  157MPD2    C5 2445   0.545   3.024  12.947  0.4393  0.5615 -0.4882
  157MPD2     H 2446   0.423   3.272  12.696 -1.1321  0.2004  0.7150
  157MPD2    H1 2447   0.392   3.087  13.077 -0.0350 -0.9992 -0.5815
  157MPD2    H2 2448   0.702   2.973  12.797  1.1692 -0.0763  2.5112
  157MPD2    H3 2449   0.572   2.947  13.018 -2.3642  1.6243  1.7339
  157MPD2     N 2450   0.292   3.281  12.882  0.1807  0.5073 -0.3070
  157MPD2    H5 2451   0.274   3.340  12.802 -0.2589  2.2324  1.0652
  157MPD2    N1 2452   0.646   3.135  12.606 -0.1944 -0.2857 -0.0601
  157MPD2    H7 2453   0.725   3.074  12.586 -1.1086 -0.9305 -1.6885
  158TMC2    C1 2454   1.008   1.922  13.452 -0.6245  0.6902  0.3908
  158TMC2    C2 2455   1.045   1.866  13.330  0.7959  0.0700 -0.3742
  158TMC2    C3 2456   1.021   1.938  13.218 -0.6128 -0.6964 -0.1909
  158TMC2    C4 2457   0.961   2.053  13.469  0.7491  0.6231 -0.3642
  158TMC2    C5 2458   0.935   2.120  13.352  0.2061 -0.0116 -0.0068
  158TMC2    C6 2459   0.976   2.067  13.230 -0.3724 -0.5967  0.3295
  158TMC2     C 2460   1.042   1.841  13.569 -0.7577 -0.5640 -0.1067
  158TMC2     O 2461   1.086   1.729  13.544 -0.0764  0.5346 -0.0511
  158TMC2     H 2462   1.080   1.764  13.325  0.9059  0.0241  1.2510
  158TMC2    H1 2463   0.942   2.088  13.570  0.0117  0.1714 -0.3394
  158TMC2    H2 2464   0.954   2.133  13.146 -2.6505  2.5878  3.3962
  158TMC2    C7 2465   0.891   2.256  13.361  0.4569 -0.3420  0.2982
  158TMC2    C8 2466   1.075   1.897  13.091  0.8185  0.4995 -0.0448
  158TMC2    O1 2467   0.915   2.334  13.267  0.2623  0.0984  0.5060
  158TMC2    O2 2468   1.153   1.969  13.037 -0.1610  0.2341 -0.1542
  158TMC2    O5 2469   1.071   1.764  13.073 -0.2272 -0.5358 -0.2112
  158TMC2    H5 2470   0.981   1.728  13.087 -0.6945  0.2140 -1.3093
  159MPD2     C 2471   1.083   1.727  14.077  0.3055 -0.2958 -0.4688
  159MPD2    C1 2472   1.034   1.855  14.068  0.1677  0.2298 -0.3835
  159MPD2    C2 2473   1.028   1.909  13.941 -0.0673  0.3368  0.3855
  159MPD2    C3 2474   1.048   1.837  13.827 -0.4706 -0.5021 -1.0730
  159MPD2    C4 2475   1.096   1.707  13.838  0.3555  0.3280 -0.1380
  159MPD2    C5 2476   1.124   1.659  13.962  0.1266 -0.6069  0.3055
  159MPD2     H 2477   0.990   2.010  13.930 -1.3262 -0.1701  0.1604
  159MPD2    H1 2478   1.114   1.649  13.748  1.9596  0.8051 -0.1304
  159MPD2    H2 2479   1.103   1.680  14.172 -1.2389 -1.3729 -0.6756
  159MPD2    H3 2480   1.178   1.569  13.986  0.9592 -0.1108  0.3119
  159MPD2     N 2481   1.015   1.900  13.694  0.9902  0.1589  0.2619
  159MPD2    H5 2482   0.973   1.992  13.686  0.4974 -0.2601 -2.0628
  159MPD2    N1 2483   0.982   1.913  14.186  0.4773  0.2675  0.6472
  159MPD2    H7 2484   0.967   1.855  14.268  2.3803  0.9256  1.4465
  160TMC2    C1 2485   4.714   0.248   1.467 -0.6305 -0.2316 -0.5826
  160TMC2    C2 2486   4.655   0.145   1.392  0.7124 -0.0630  0.5590
  160TMC2    C3 2487   4.734   0.043   1.357  0.7025  0.0015 -0.0427
  160TMC2    C4 2488   0.110   0.249   1.474 -0.4376 -0.2381  0.4379
  160TMC2    C5 2489   0.185   0.153   1.420 -0.3145 -0.3406  0.0499
  160TMC2    C6 2490   0.127   0.041   1.367 -0.2115  0.2833  0.0500
  160TMC2     C 2491   4.639   0.367   1.482  1.1307 -0.3811 -0.3796
  160TMC2     O 2492   4.522   0.363   1.443  0.0063  0.0307  0.7360
  160TMC2     H 2493   4.553   0.156   1.357  1.2121 -0.7276 -1.1079
  160TMC2    H1 2494   0.163   0.333   1.517  0.6112 -0.2345 -0.8664
  160TMC2    H2 2495   0.182   4.690   1.345  0.1530  0.6726 -0.6861
  160TMC2    C7 2496   0.322   0.171   1.397  1.0298 -0.1908 -0.5528
  160TMC2    C8 2497   4.687   4.661   1.296 -1.2406 -0.3542 -0.0860
  160TMC2    O1 2498   0.387   0.068   1.384  0.7262  0.0893 -0.1534
  160TMC2    O2 2499   0.019   4.570   1.261  0.5664  0.2748 -1.1254
  160TMC2    O5 2500   4.564   4.641   1.341 -0.1076  0.1073 -0.6409
  160TMC2    H5 2501   4.518   4.724   1.366 -0.6895  0.3524 -2.4798
  161MPD2     C 2502   4.736   0.675   1.671 -0.2655  0.0068  0.2657
  161MPD2    C1 2503   4.665   0.596   1.577  0.6483 -0.4109  0.1632
  161MPD2    C2 2504   4.555   0.658   1.519  0.9796  0.2488  0.1038
  161MPD2    C3 2505   4.519   0.789   1.542  0.0292  0.3883 -0.3538
  161MPD2    C4 2506   4.580   0.859   1.640  0.4260  0.1450 -0.0253
  161MPD2    C5 2507   4.690   0.798   1.703 -0.0680  0.0232 -0.5948
  161MPD2     H 2508   4.509   0.591   1.448  2.5574  0.1162 -0.8157
  161MPD2    H1 2509   4.546   0.957   1.671 -0.7190  0.7757 -3.2650
  161MPD2    H2 2510   0.087   0.642   1.720 -0.7006 -0.0299  1.0397
  161MPD2    H3 2511   4.730   0.862   1.781 -1.0345 -0.1607  0.0514
  161MPD2     N 2512   4.420   0.854   1.473  0.3768 -0.1404  0.0447
  161MPD2    H5 2513   4.396   0.943   1.517  1.9431 -0.0106  0.6451
  161MPD2    N1 2514   4.716   0.468   1.541  0.3408  0.2307  0.1115
  161MPD2    H7 2515   0.073   0.454   1.568  0.1549  1.4850  1.4222
  162TMC2    C1 2516   2.977   2.755   1.399  0.1247  0.3911 -0.6751
  162TMC2    C2 2517   2.891   2.849   1.469 -0.5205 -0.4513  0.1116
  162TMC2    C3 2518   2.857   2.813   1.599 -1.0554  0.1283  1.4702
  162TMC2    C4 2519   3.019   2.636   1.456 -0.9199  0.2233 -0.1166
  162TMC2    C5 2520   2.986   2.618   1.586  0.0814  0.1393 -0.3275
  162TMC2    C6 2521   2.902   2.698   1.657  0.3181 -0.0606 -0.4233
  162TMC2     C 2522   3.005   2.764   1.255 -0.8991 -0.0895 -0.0434
  162TMC2     O 2523   3.066   2.680   1.197 -0.2408  0.1491  0.3265
  162TMC2     H 2524   2.869   2.948   1.429 -1.7217 -0.6549  0.2691
  162TMC2    H1 2525   3.096   2.581   1.403 -0.9401  0.8997 -0.8358
  162TMC2    H2 2526   2.883   2.670   1.760  3.2288 -0.8055 -0.0948
  162TMC2    C7 2527   2.977   2.479   1.634  0.0691  0.1866  1.1554
  162TMC2    C8 2528   2.774   2.896   1.684 -0.4756  0.2972 -1.0027
  162TMC2    O1 2529   2.875   2.435   1.685  0.7992  0.0045 -0.1880
  162TMC2    O2 2530   2.794   2.906   1.802  0.1095 -0.2054 -0.0199
  162TMC2    O5 2531   2.738   3.000   1.608  0.2912  0.1664  0.0138
  162TMC2    H5 2532   2.726   2.979   1.513 -0.4340 -0.7134  0.2940
  163MPD2     C 2533   2.920   2.968   0.798  0.2794 -0.5670 -0.2868
  163MPD2    C1 2534   2.988   2.857   0.826  0.5782  0.4192  0.4282
  163MPD2    C2 2535   2.989   2.825   0.958 -0.3164 -0.2605 -0.2473
  163MPD2    C3 2536   2.934   2.898   1.058 -0.1411  0.2896  0.1126
  163MPD2    C4 2537   2.866   3.012   1.025  0.1756  0.6792 -0.4111
  163MPD2    C5 2538   2.858   3.043   0.896 -0.0647 -0.1852 -0.0607
  163MPD2     H 2539   3.003   2.719   0.977 -1.8076 -0.4666 -0.2980
  163MPD2    H1 2540   2.822   3.085   1.093 -0.2509 -2.1034  2.2742
  163MPD2    H2 2541   2.915   2.996   0.693 -0.0036  0.3545 -0.0309
  163MPD2    H3 2542   2.806   3.133   0.863  1.3981  0.9718  0.8411
  163MPD2     N 2543   2.934   2.865   1.194  0.3868  0.1015  0.1503
  163MPD2    H5 2544   2.885   2.927   1.258  0.7042 -0.2734  0.7544
  163MPD2    N1 2545   3.044   2.785   0.721 -0.4954 -0.2626  0.3423
  163MPD2    H7 2546   3.025   2.823   0.629  1.1483 -3.3019 -1.2501
  164TMC2    C1 2547   3.564   2.067  11.344 -0.3165  0.4902  0.4479
  164TMC2    C2 2548   3.659   2.150  11.298 -0.0608  0.6776  0.5331
  164TMC2    C3 2549   3.668   2.273  11.350 -0.7187 -0.0604 -0.4502
  164TMC2    C4 2550   3.473   2.111  11.431  0.1927  0.3281 -0.4946
  164TMC2    C5 2551   3.468   2.235  11.478 -0.0242 -0.2522 -1.1090
  164TMC2    C6 2552   3.573   2.320  11.437  0.3616  0.0634  0.5167
  164TMC2     C 2553   3.564   1.929  11.283 -0.6561  0.2874 -0.2035
  164TMC2     O 2554   3.516   1.835  11.344  0.5281  0.0505  0.4615
  164TMC2     H 2555   3.738   2.136  11.225  0.2790 -0.2814  1.0919
  164TMC2    H1 2556   3.383   2.051  11.440  1.5313 -1.3035  1.9672
  164TMC2    H2 2557   3.584   2.423  11.470 -0.8818  0.1902  0.5240
  164TMC2    C7 2558   3.345   2.300  11.517 -0.4539  0.3372 -0.6977
  164TMC2    C8 2559   3.721   2.367  11.263  0.9867  0.9084 -0.3747
  164TMC2    O1 2560   3.241   2.253  11.478  0.6078  0.0071  0.1196
  164TMC2    O2 2561   3.823   2.425  11.291 -0.2534 -0.1505  0.0502
  164TMC2    O5 2562   3.617   2.436  11.218 -0.0930  0.3093 -0.0896
  164TMC2    H5 2563   3.542   2.375  11.204  0.0828 -0.4266  2.1773
  165TMC2    C1 2564   4.253   4.457   0.599  0.7916  0.0221  0.2288
  165TMC2    C2 2565   4.303   4.367   0.509  0.0319  0.3983  0.2252
  165TMC2    C3 2566   4.429   4.336   0.534  0.5742 -0.0525  0.5626
  165TMC2    C4 2567   4.312   4.510   0.716  0.1744  0.1038 -0.0964
  165TMC2    C5 2568   4.443   4.461   0.737 -0.1516  0.4963 -0.0966
  165TMC2    C6 2569   4.494   4.370   0.646  0.3411 -0.2067  0.3145
  165TMC2     C 2570   4.127   4.529   0.571  0.0445  0.3363  0.4040
  165TMC2     O 2571   4.090   4.615   0.651  0.3230 -0.1812 -0.4624
  165TMC2     H 2572   4.241   4.326   0.430  0.5326 -0.9631  0.5413
  165TMC2    H1 2573   4.259   4.575   0.786 -0.9189 -0.1595 -0.6831
  165TMC2    H2 2574   4.597   4.340   0.666  1.3826  1.4793 -2.4958
  165TMC2    C7 2575   4.544   4.537   0.811 -0.3021 -0.0768 -0.2615
  165TMC2    C8 2576   4.486   4.222   0.466 -0.9488 -0.1379  0.0269
  165TMC2    O1 2577   4.662   4.503   0.796  0.0902 -0.3535  0.2717
  165TMC2    O2 2578   4.571   4.157   0.526  0.1768  0.5394 -0.2164
  165TMC2    O5 2579   4.496   4.257   0.339 -0.3642  0.0433  0.4361
  165TMC2    H5 2580   4.439   4.329   0.304 -0.0468 -0.0349 -0.2546
  166MPD2     C 2581   3.715   4.662   0.291 -0.1814  0.3423 -0.0551
  166MPD2    C1 2582   3.748   4.683   0.422  0.1054  0.7825 -0.1015
  166MPD2    C2 2583   3.869   4.639   0.470 -0.4807 -0.0834  0.1151
  166MPD2    C3 2584   3.951   4.553   0.394  0.2761  0.3050  0.4156
  166MPD2    C4 2585   3.908   4.521   0.266  0.2368 -0.2795  0.0045
  166MPD2    C5 2586   3.791   4.570   0.225 -0.0481 -0.2849  0.5516
  166MPD2     H 2587   3.883   4.672   0.572 -0.9625 -1.0706  0.5021
  166MPD2    H1 2588   3.973   4.463   0.201  0.7618 -0.2203  0.4790
  166MPD2    H2 2589   3.621   4.691   0.245 -0.2436  0.0538 -0.1104
  166MPD2    H3 2590   3.754   4.525   0.134 -0.6729  1.4321 -0.0511
  166MPD2     N 2591   4.075   4.499   0.443 -0.4056  0.5338 -0.3724
  166MPD2    H5 2592   4.122   4.432   0.383  1.9843  0.6576  1.3663
  166MPD2    N1 2593   3.663   0.021   0.501  0.1980  0.1659 -0.0289
  166MPD2    H7 2594   3.567   0.029   0.468  0.7506  1.6142 -1.2827
  167TMC2    C1 2595   2.871   2.432  13.295  0.0317  0.1287 -0.9535
  167TMC2    C2 2596   2.853   2.436  13.432 -0.3869 -0.1979 -0.0999
  167TMC2    C3 2597   2.772   2.337  13.484  0.3065  0.5945 -0.1353
  167TMC2    C4 2598   2.807   2.347  13.207  0.5048 -0.1761 -0.1875
  167TMC2    C5 2599   2.734   2.251  13.271  0.6767 -0.4820 -0.3233
  167TMC2    C6 2600   2.711   2.248  13.402 -0.1665  0.7574 -0.0581
  167TMC2     C 2601   2.949   2.540  13.245 -0.6723  0.1932  0.2338
  167TMC2     O 2602   2.949   2.648  13.305  0.1800  0.1790  0.0712
  167TMC2     H 2603   2.895   2.510  13.498  1.4385 -1.5480  0.2474
  167TMC2    H1 2604   2.789   2.354  13.101 -0.4796  3.3140  0.2072
  167TMC2    H2 2605   2.646   2.172  13.443  1.2315 -0.1881  0.4141
  167TMC2    C7 2606   2.687   2.131  13.197 -0.3249  0.2029  0.3004
  167TMC2    C8 2607   2.748   2.324  13.626  0.7080 -0.0262 -0.4444
  167TMC2    O1 2608   2.587   2.071  13.233 -0.0695 -0.6444  0.0281
  167TMC2    O2 2609   2.766   2.225  13.694 -0.0475  0.0473  0.8252
  167TMC2    O5 2610   2.718   2.446  13.663  0.2578  0.1972 -0.6614
  167TMC2    H5 2611   2.702   2.499  13.582 -0.7528 -0.5805 -0.9731
  168MPD2     C 2612   3.091   2.735  13.065  0.0742  0.3487 -0.3962
  168MPD2    C1 2613   3.083   2.595  13.038  0.2300  0.4263 -0.9377
  168MPD2    C2 2614   3.123   2.540  12.915 -0.1380  0.3617 -0.0721
  168MPD2    C3 2615   3.165   2.627  12.819 -0.9064  0.2733  0.6471
  168MPD2    C4 2616   3.184   2.762  12.846  0.2830 -0.4620 -0.0514
  168MPD2    C5 2617   3.148   2.813  12.972  0.5247 -0.1729 -0.0379
  168MPD2     H 2618   3.116   2.432  12.901 -0.8548  0.5530 -1.2155
  168MPD2    H1 2619   3.214   2.833  12.770 -1.1071 -1.4777 -1.5307
  168MPD2    H2 2620   3.047   2.782  13.153 -0.3401  0.5350 -0.7018
  168MPD2    H3 2621   3.146   2.921  12.981 -1.5309 -0.0177 -2.3374
  168MPD2     N 2622   3.191   2.589  12.686  0.4965 -0.3279 -0.8220
  168MPD2    H5 2623   3.185   2.660  12.613 -1.4020  0.4463  0.0794
  168MPD2    N1 2624   3.012   2.511  13.124  0.3234  0.5257  0.2868
  168MPD2    H7 2625   2.997   2.415  13.095 -1.2442  0.4276  1.3887
  169MPD1     C 2626   3.979   1.961  10.022  0.1745  0.2018  0.4042
  169MPD1    C1 2627   3.999   1.825  10.024 -0.1417  0.1694 -0.5361
  169MPD1    C2 2628   4.137   1.790  10.013  0.8101  0.4685 -0.9941
  169MPD1    C3 2629   4.237   1.884  10.006  0.1517 -0.2431  0.0226
  169MPD1    C4 2630   4.214   2.017  10.005  0.6129  1.0483  0.4552
  169MPD1    C5 2631   4.082   2.049  10.016 -0.5170  0.1187 -0.3784
  169MPD1     H 2632   4.171   1.688   9.999 -1.8004 -0.4146 -0.7742
  169MPD1    H1 2633   4.299   2.084  10.003  0.1818  1.5903  0.4121
  169MPD1    H2 2634   3.881   2.007  10.031 -0.8955 -1.3409 -3.4223
  169MPD1    H3 2635   4.050   2.152  10.028  1.3448  0.6305  0.1951
  169MPD1     N 2636   4.376   1.844  10.014  0.6946 -0.6029 -0.4014
  169MPD1    H5 2637   4.383   1.743  10.016 -0.2354 -0.6937 -1.3460
  169MPD1    N1 2638   3.897   1.737  10.063 -0.8103  0.3359  0.0606
  169MPD1    H6 2639   3.805   1.778  10.070 -1.1492 -0.1594 -1.3884
  169MPD1    H7 2640   3.890   1.654  10.004 -0.7013  0.6423 -0.3859
  170MPD1     C 2641   4.356   4.252  12.862  0.1273  0.0922  0.4218
  170MPD1    C1 2642   4.222   4.235  12.841 -0.4357  0.6036 -0.7125
  170MPD1    C2 2643   4.135   4.208  12.950  0.5038  0.0411  0.4981
  170MPD1    C3 2644   4.187   4.203  13.079 -0.1071  0.3734  0.1770
  170MPD1    C4 2645   4.317   4.234  13.102 -0.0766  0.2885  0.4960
  170MPD1    C5 2646   4.397   4.258  12.995  0.0110  0.2109  0.7016
  170MPD1     H 2647   4.030   4.188  12.933  0.7875 -0.4587 -0.7160
  170MPD1    H1 2648   4.362   4.237  13.201  0.4311  0.2187  0.2713
  170MPD1    H2 2649   4.441   4.259  12.795 -0.3698 -0.0373 -0.2256
  170MPD1    H3 2650   4.503   4.270  13.016 -0.5373  0.5139  3.3052
  170MPD1     N 2651   4.089   4.174  13.178  0.3634 -0.1539  0.1801
  170MPD1    H5 2652   3.997   4.157  13.139  0.1235  0.2750  0.5609
  170MPD1    N1 2653   4.187   4.222  12.702 -0.0393  0.4936 -0.1658
  170MPD1    H6 2654   4.241   4.288  12.647 -1.8047  1.8522 -0.2763
  170MPD1    H7 2655   4.087   4.224  12.683 -0.0977 -0.3019  0.0677
  171MPD1     C 2656   2.437   0.573  15.138  0.6509  0.4343 -0.9089
  171MPD1    C1 2657   2.317   0.574  15.205 -0.2951  0.8960 -0.1025
  171MPD1    C2 2658   2.311   0.544  15.335  0.1116 -1.1132  0.5172
  171MPD1    C3 2659   2.426   0.508  15.408  0.5573  0.2371 -0.1949
  171MPD1    C4 2660   2.547   0.497  15.341  0.2938 -0.0385  0.3119
  171MPD1    C5 2661   2.545   0.532  15.204 -1.1759 -0.4949  0.5119
  171MPD1     H 2662   2.218   0.544  15.391 -0.2611  3.7077 -0.1140
  171MPD1    H1 2663   2.639   0.454  15.381 -1.5574 -0.3163  4.2954
  171MPD1    H2 2664   2.454   0.595  15.034 -0.0551 -0.8175 -1.2865
  171MPD1    H3 2665   2.637   0.522  15.147 -0.9968 -1.9542  1.0292
  171MPD1     N 2666   2.421   0.457  15.541 -0.3374  0.1055 -0.2661
  171MPD1    H5 2667   2.506   0.421  15.584  0.4931 -0.3564 -2.2868
  171MPD1    N1 2668   2.202   0.585  15.125 -0.5124 -0.3768 -0.0609
  171MPD1    H6 2669   2.224   0.633  15.039 -0.2265 -1.8271 -0.7967
  171MPD1    H7 2670   2.121   0.633  15.162 -0.2744 -1.3446  1.7291
  172MPD1     C 2671   1.749   3.988  17.726 -0.5650 -0.5120 -0.5462
  172MPD1    C1 2672   1.674   4.079   0.044  0.4896 -0.3289  0.5110
  172MPD1    C2 2673   1.742   4.196   0.076 -0.5838  0.2713  0.0317
  172MPD1    C3 2674   1.878   4.212   0.067 -0.3722  0.0922  0.3161
  172MPD1    C4 2675   1.954   4.114   0.010 -0.3516  0.0303 -0.5727
  172MPD1    C5 2676   1.885   4.010  17.719 -0.4096 -1.0892 -0.1402
  172MPD1     H 2677   1.681   4.268   0.130 -1.1077  2.0869 -3.0007
  172MPD1    H1 2678   2.062   4.118  17.759 -0.4673  1.2415 -1.2431
  172MPD1    H2 2679   1.704   3.911  17.664 -0.9339  0.4014 -1.3986
  172MPD1    H3 2680   1.948   3.947  17.658 -0.3220 -2.0835  0.9645
  172MPD1     N 2681   1.938   4.336   0.104  0.2245  0.2987  0.4810
  172MPD1    H5 2682   2.034   4.351   0.073  1.1241  0.3911  3.3023
  172MPD1    N1 2683   1.540   4.083   0.040 -0.0020  0.9576  0.1682
  172MPD1    H6 2684   1.489   4.136   0.110 -0.3323  1.5229 -0.4992
  172MPD1    H7 2685   1.501   3.989   0.033  2.4659  0.0101 -1.0434
  173MPD1     C 2686   3.049   0.714  14.143 -0.1980  0.1233  0.0142
  173MPD1    C1 2687   2.995   0.613  14.064 -0.1453 -0.0478  0.7364
  173MPD1    C2 2688   3.007   0.477  14.106  0.1371 -0.2480  0.8228
  173MPD1    C3 2689   3.070   0.448  14.231  0.5769  0.0114  0.4296
  173MPD1    C4 2690   3.106   0.558  14.310 -0.1431 -0.1623  0.0509
  173MPD1    C5 2691   3.105   0.684  14.263 -0.1406 -0.7394 -0.1735
  173MPD1     H 2692   2.961   0.401  14.044  1.5286  0.7358 -1.3937
  173MPD1    H1 2693   3.144   0.540  14.410  1.3533 -3.0196 -1.0203
  173MPD1    H2 2694   3.032   0.815  14.107 -2.2247 -0.1499  0.2030
  173MPD1    H3 2695   3.119   0.774  14.322  0.2271 -1.1663  0.3936
  173MPD1     N 2696   3.082   0.314  14.275  0.2906  0.0375 -0.2411
  173MPD1    H5 2697   3.117   0.306  14.370 -0.8475 -1.1530  0.0817
  173MPD1    N1 2698   2.968   0.636  13.931  0.3397  0.6839  0.1852
  173MPD1    H6 2699   2.935   0.729  13.902 -0.3883  0.1264 -0.7787
  173MPD1    H7 2700   2.895   0.574  13.897  1.9171 -0.5792 -0.9104
  174MPD1     C 2701   3.053   3.962  14.189  0.0217  0.1964  0.2153
  174MPD1    C1 2702   3.059   4.052  14.089 -0.4548  0.4154 -0.1632
  174MPD1    C2 2703   3.074   4.188  14.129 -0.9228  0.6394  0.3271
  174MPD1    C3 2704   3.078   4.221  14.264 -0.4981  0.1600  0.0570
  174MPD1    C4 2705   3.061   4.129  14.363  0.4017  0.7755 -0.1733
  174MPD1    C5 2706   3.049   3.999  14.324 -0.2788 -0.0626 -0.2592
  174MPD1     H 2707   3.069   4.263  14.051 -2.1528  1.8327  1.5618
  174MPD1    H1 2708   3.038   4.149  14.467 -2.1422  0.0591 -0.5928
  174MPD1    H2 2709   3.042   3.858  14.158  2.3916 -0.2505  0.8174
  174MPD1    H3 2710   3.023   3.916  14.389 -1.4430  0.6262  0.1537
  174MPD1     N 2711   3.065   4.349  14.310  0.0819  0.1303 -0.8613
  174MPD1    H5 2712   3.061   4.354  14.412 -0.9053  0.8722 -0.9331
  174MPD1    N1 2713   3.063   4.015  13.954 -0.7197 -0.0710 -0.4029
  174MPD1    H6 2714   3.096   4.096  13.902  0.9068  0.6412  1.7284
  174MPD1    H7 2715   3.113   3.930  13.928  0.0259  0.4950 -0.8206
  175MPD1     C 2716   1.206   0.745  15.501  0.4424 -0.5256  0.3115
  175MPD1    C1 2717   1.085   0.694  15.540  0.9001 -0.4890  0.1841
  175MPD1    C2 2718   1.080   0.613  15.652  0.7989  0.5929 -0.0408
  175MPD1    C3 2719   1.197   0.562  15.706 -0.1760  0.5666  0.6618
  175MPD1    C4 2720   1.311   0.608  15.657 -0.4563  0.6386 -0.9500
  175MPD1    C5 2721   1.321   0.692  15.553 -0.3266  0.0638 -0.8255
  175MPD1     H 2722   0.986   0.584  15.698  0.3129 -1.3949 -2.2850
  175MPD1    H1 2723   1.403   0.567  15.696 -0.7069  0.7837 -0.2111
  175MPD1    H2 2724   1.215   0.806  15.412  0.5919  0.3927  0.9661
  175MPD1    H3 2725   1.414   0.726  15.509 -0.4563 -0.5761 -1.5937
  175MPD1     N 2726   1.208   0.475  15.814 -0.4330  0.1557 -0.2262
  175MPD1    H5 2727   1.306   0.454  15.833 -0.2434  1.2106 -0.0087
  175MPD1    N1 2728   0.972   0.750  15.478 -0.2453 -0.2025  0.0874
  175MPD1    H6 2729   0.888   0.693  15.481  1.2304 -2.3973 -0.3068
  175MPD1    H7 2730   0.987   0.786  15.384 -1.5979  0.8236  0.2719
  176MPD1     C 2731   2.207   2.101   0.215  0.3250  0.3203 -0.6321
  176MPD1    C1 2732   2.220   2.223   0.276  0.3931  0.4189  0.0204
  176MPD1    C2 2733   2.323   2.306   0.231 -0.2306 -0.3911 -0.4748
  176MPD1    C3 2734   2.397   2.275   0.120  0.9882 -0.0720 -0.0391
  176MPD1    C4 2735   2.382   2.155   0.053 -0.2659 -0.8862 -0.0814
  176MPD1    C5 2736   2.288   2.076   0.107 -0.1679  0.5800 -0.1882
  176MPD1     H 2737   2.334   2.402   0.281 -2.7504  0.4054 -1.4321
  176MPD1    H1 2738   2.447   2.114  17.737 -1.4019 -0.8220 -1.0815
  176MPD1    H2 2739   2.130   2.029   0.242  1.0188 -0.1235  0.1470
  176MPD1    H3 2740   2.279   1.975   0.069 -1.4235 -0.1867  2.1976
  176MPD1     N 2741   2.500   2.367   0.084 -0.2669 -0.1563  0.7211
  176MPD1    H5 2742   2.513   2.444   0.148  0.9437  0.9247 -0.8269
  176MPD1    N1 2743   2.163   2.247   0.405  0.4445  0.2600 -0.2965
  176MPD1    H6 2744   2.168   2.342   0.441  0.7354  0.5573 -1.1311
  176MPD1    H7 2745   2.066   2.216   0.412  1.5351 -3.2536 -0.5918
  177MPD1     C 2746   1.222   2.484  10.370 -0.8935  0.3056 -0.7166
  177MPD1    C1 2747   1.124   2.461  10.275  0.1139 -0.0644  0.1400
  177MPD1    C2 2748   1.125   2.538  10.161 -0.1779 -0.7094  0.2215
  177MPD1    C3 2749   1.224   2.629  10.136  0.0110  0.2398 -0.2125
  177MPD1    C4 2750   1.318   2.647  10.231 -0.0396 -0.1666  0.3048
  177MPD1    C5 2751   1.321   2.575  10.345 -0.6256  0.2373 -0.1873
  177MPD1     H 2752   1.048   2.523  10.086  0.3517 -0.1093 -0.4442
  177MPD1    H1 2753   1.395   2.721  10.209  0.0771 -0.1315  0.8191
  177MPD1    H2 2754   1.221   2.426  10.461  1.3914  1.1166 -0.1688
  177MPD1    H3 2755   1.400   2.596  10.416 -0.5524  0.0565 -0.2138
  177MPD1     N 2756   1.228   2.685  10.003 -0.7108  0.7609  0.7130
  177MPD1    H5 2757   1.160   2.649   9.937 -1.8341  0.3668  2.0895
  177MPD1    N1 2758   1.016   2.373  10.302 -0.6276  0.0294  0.1651
  177MPD1    H6 2759   1.037   2.304  10.374 -2.3760  1.1724  1.7634
  177MPD1    H7 2760   0.978   2.327  10.219  0.4425 -0.3737 -0.0982
  178MPD1     C 2761   3.428   3.706   0.143 -0.7458 -0.0172  0.3284
  178MPD1    C1 2762   3.352   3.660   0.036  1.1144 -0.1452  0.2418
  178MPD1    C2 2763   3.430   3.623  17.687  0.4304  0.3923  0.1966
  178MPD1    C3 2764   3.570   3.624  17.675 -0.1000  0.6345  0.0351
  178MPD1    C4 2765   3.644   3.679   0.027 -0.5529  0.2054  0.0531
  178MPD1    C5 2766   3.567   3.706   0.143 -0.9676  0.4625 -0.1673
  178MPD1     H 2767   3.369   3.586  17.606  1.3674 -0.1546 -0.2544
  178MPD1    H1 2768   3.752   3.676   0.033 -0.2648  3.5514 -3.2976
  178MPD1    H2 2769   3.381   3.748   0.231  0.1006 -0.7865  1.1494
  178MPD1    H3 2770   3.617   3.734   0.234  0.5637 -1.1484 -0.5235
  178MPD1     N 2771   3.644   3.579  17.566  0.3350  0.4514  1.0817
  178MPD1    H5 2772   3.743   3.603  17.576 -0.1260  2.6368  0.2574
  178MPD1    N1 2773   3.213   3.678   0.024  0.7190 -0.2742  0.0959
  178MPD1    H6 2774   3.166   3.619  17.716 -0.6518 -1.0597  1.7481
  178MPD1    H7 2775   3.170   3.686   0.116  1.1163 -0.5924  0.3102
  179MPD1     C 2776   3.454   1.883  15.427 -0.1885  0.4837 -0.2170
  179MPD1    C1 2777   3.348   1.808  15.365 -0.4941  0.8331  0.1825
  179MPD1    C2 2778   3.305   1.693  15.435  0.3948 -0.6496 -0.3928
  179MPD1    C3 2779   3.349   1.663  15.565 -0.0684  0.3310 -0.7853
  179MPD1    C4 2780   3.434   1.746  15.620  0.3605  0.0665 -0.4824
  179MPD1    C5 2781   3.490   1.848  15.551  0.3965  0.1438  0.1256
  179MPD1     H 2782   3.242   1.625  15.379  1.9205 -1.6307 -0.9492
  179MPD1    H1 2783   3.468   1.743  15.723  1.2225 -2.5473 -0.8482
  179MPD1    H2 2784   3.501   1.973  15.388  1.8927  0.3174  1.8852
  179MPD1    H3 2785   3.563   1.909  15.603  1.3460  0.1207 -1.1748
  179MPD1     N 2786   3.310   1.553  15.643 -0.2168 -0.4871  0.2379
  179MPD1    H5 2787   3.353   1.545  15.734  0.0519  0.6285  0.2062
  179MPD1    N1 2788   3.307   1.830  15.229 -0.1568  0.4801  0.5449
  179MPD1    H6 2789   3.209   1.806  15.218  0.5839 -1.2201 -2.3763
  179MPD1    H7 2790   3.339   1.915  15.184  0.2106 -1.1253 -2.2185
  180MPD1     C 2791   3.683   2.636  15.765 -0.5914 -0.0345 -0.1561
  180MPD1    C1 2792   3.758   2.646  15.653 -0.5447  0.0932  0.0664
  180MPD1    C2 2793   3.699   2.636  15.530 -0.3510  0.6513  0.0535
  180MPD1    C3 2794   3.568   2.609  15.514  0.2524 -0.1426 -0.1792
  180MPD1    C4 2795   3.490   2.608  15.627  0.3776  0.2957 -0.0045
  180MPD1    C5 2796   3.551   2.625  15.748 -0.0795 -0.3636  0.0950
  180MPD1     H 2797   3.748   2.646  15.434 -1.2347  0.7251 -0.3871
  180MPD1    H1 2798   3.382   2.600  15.623  0.2817 -0.2898  3.6902
  180MPD1    H2 2799   3.718   2.650  15.866  1.9731  0.6664 -1.1623
  180MPD1    H3 2800   3.490   2.618  15.837  0.7082 -1.3951  0.5551
  180MPD1     N 2801   3.515   2.634  15.389  0.3849  0.2149 -0.1643
  180MPD1    H5 2802   3.584   2.664  15.321  2.0581  0.1449  1.5030
  180MPD1    N1 2803   3.895   2.644  15.665  0.1611  0.0597 -0.4553
  180MPD1    H6 2804   3.927   2.655  15.761 -1.2226  2.4527 -0.2767
  180MPD1    H7 2805   3.950   2.698  15.599  0.2581  2.9062  1.9481
  181MPD1     C 2806   0.182   4.530  10.314 -0.0793 -0.5901  0.0431
  181MPD1    C1 2807   0.193   4.582  10.445 -0.3654  0.5068  0.4376
  181MPD1    C2 2808   0.275   4.688  10.462 -0.1918 -0.8472  0.5644
  181MPD1    C3 2809   0.344   0.013  10.357 -0.3038 -0.3860  0.0120
  181MPD1    C4 2810   0.326   4.706  10.227  0.3695 -0.0600  0.1800
  181MPD1    C5 2811   0.246   4.594  10.210 -0.6012  0.3269  0.2647
  181MPD1     H 2812   0.282   4.732  10.561  0.9451 -0.2155  0.2017
  181MPD1    H1 2813   0.372   0.011  10.140  0.3837  1.1966  0.8560
  181MPD1    H2 2814   0.109   4.454  10.287 -0.9960 -0.0002  0.8856
  181MPD1    H3 2815   0.243   4.552  10.111 -0.3151  0.5377  0.1665
  181MPD1     N 2816   0.434   0.114  10.385  0.0849 -0.3089  0.0760
  181MPD1    H5 2817   0.489   0.143  10.305 -0.7753  0.4151 -0.2527
  181MPD1    N1 2818   0.137   4.512  10.553  0.1395  0.3833 -0.6813
  181MPD1    H6 2819   0.047   4.471  10.526  0.6393  0.7299 -2.8500
  181MPD1    H7 2820   0.136   4.572  10.635 -0.0526 -0.6965  0.1123
  182MPD1     C 2821   1.287   0.070   1.198 -0.6814 -0.2159  0.4047
  182MPD1    C1 2822   1.153   0.103   1.185 -0.2881  1.5698 -0.0446
  182MPD1    C2 2823   1.092   0.074   1.061  0.6976 -0.2170  0.4610
  182MPD1    C3 2824   1.160   0.004   0.964 -0.3866  0.0543  0.4657
  182MPD1    C4 2825   1.289   4.703   0.984 -0.1465  0.4449  0.1407
  182MPD1    C5 2826   1.349   0.001   1.094  0.0753 -0.1204  0.3338
  182MPD1     H 2827   0.988   0.102   1.055  0.6949 -0.0461  1.2383
  182MPD1    H1 2828   1.350   4.643   0.918 -1.9476 -1.5787  0.3254
  182MPD1    H2 2829   1.353   0.092   1.282  1.9891 -1.3043 -1.4134
  182MPD1    H3 2830   1.454   4.716   1.102 -0.0250 -0.4709  0.5219
  182MPD1     N 2831   1.109   4.690   0.842 -0.0225 -0.6078 -0.4729
  182MPD1    H5 2832   1.168   4.625   0.790 -0.3215  1.2373 -3.1412
  182MPD1    N1 2833   1.105   0.194   1.284  0.7295  0.1918 -0.2177
  182MPD1    H6 2834   1.004   0.192   1.297  1.0280  1.2692  2.3124
  182MPD1    H7 2835   1.155   0.186   1.372 -0.6492 -0.4965  0.5011
  183MPD1     C 2836   1.655   0.220   9.034  0.2323  1.4067 -0.5331
  183MPD1    C1 2837   1.604   0.177   9.155  0.3855  0.0822 -0.2226
  183MPD1    C2 2838   1.666   0.220   9.270 -1.5445  0.5616  0.0987
  183MPD1    C3 2839   1.775   0.303   9.269 -0.2077  0.0109 -0.0358
  183MPD1    C4 2840   1.823   0.352   9.148 -0.2213 -0.2576  0.4065
  183MPD1    C5 2841   1.761   0.304   9.035 -0.1837 -0.3836  0.4494
  183MPD1     H 2842   1.637   0.196   9.372  0.3502  3.1447  1.2474
  183MPD1    H1 2843   1.911   0.415   9.143 -2.1178  2.4531  1.5052
  183MPD1    H2 2844   1.605   0.187   8.944 -1.3725 -3.1471  2.0235
  183MPD1    H3 2845   1.794   0.343   8.939 -2.2460 -0.6161 -0.3488
  183MPD1     N 2846   1.827   0.350   9.394  0.4030  0.2880  0.2156
  183MPD1    H5 2847   1.782   0.305   9.473 -0.8846 -1.2757 -1.3950
  183MPD1    N1 2848   1.488   0.101   9.161  0.9710 -0.1744  0.1043
  183MPD1    H6 2849   1.432   0.094   9.077 -0.8153 -1.8502  1.4226
  183MPD1    H7 2850   1.424   0.116   9.239 -0.8596 -2.6713 -0.9177
  184MPD1     C 2851   0.301   2.525  10.546 -0.2551 -0.4356  0.4573
  184MPD1    C1 2852   0.256   2.486  10.421 -0.4885 -0.3664 -0.3086
  184MPD1    C2 2853   0.300   2.566  10.315  0.0191 -0.5280 -0.5147
  184MPD1    C3 2854   0.402   2.663  10.329 -0.1579 -0.4010  0.6070
  184MPD1    C4 2855   0.447   2.691  10.454  0.1942  0.0125  0.6900
  184MPD1    C5 2856   0.406   2.619  10.562 -0.1410  0.0797  0.5320
  184MPD1     H 2857   0.247   2.550  10.222 -1.2744 -2.5253  0.5592
  184MPD1    H1 2858   0.517   2.773  10.469  1.6434 -1.0011 -0.5931
  184MPD1    H2 2859   0.246   2.477  10.627 -0.1536 -1.8253 -0.3099
  184MPD1    H3 2860   0.448   2.634  10.661 -0.9706  1.1206  0.7308
  184MPD1     N 2861   0.452   2.730  10.216  0.5803 -0.2088 -0.3389
  184MPD1    H5 2862   0.527   2.798  10.227 -1.0363  1.3367  1.1148
  184MPD1    N1 2863   0.141   2.403  10.402 -0.4672 -0.2119  0.5095
  184MPD1    H6 2864   0.111   2.334  10.470 -1.5944  0.4667  0.7016
  184MPD1    H7 2865   0.126   2.365  10.309  2.4646  2.4126 -1.0240
  185MPD1     C 2866   0.084   2.837   9.267 -0.2445 -0.7265 -0.5333
  185MPD1    C1 2867   0.139   2.955   9.301 -0.5062  0.3718 -0.1883
  185MPD1    C2 2868   0.212   2.963   9.417  0.3149  0.4663 -0.2426
  185MPD1    C3 2869   0.229   2.856   9.499  0.7281 -0.4808 -0.2598
  185MPD1    C4 2870   0.171   2.732   9.459  0.0342 -0.7235  0.4886
  185MPD1    C5 2871   0.099   2.725   9.343 -0.1584  0.3929 -0.6579
  185MPD1     H 2872   0.267   3.054   9.439  1.4794 -0.6223  1.4148
  185MPD1    H1 2873   0.171   2.647   9.526  1.7785 -0.7355  0.4892
  185MPD1    H2 2874   0.025   2.828   9.176 -0.3140  1.9962 -0.7655
  185MPD1    H3 2875   0.043   2.637   9.314  2.7147 -1.0660 -1.7523
  185MPD1     N 2876   0.294   2.860   9.630  0.1748 -0.7605 -0.2451
  185MPD1    H5 2877   0.285   2.774   9.685  0.4417 -2.2694 -2.5772
  185MPD1    N1 2878   0.154   3.054   9.205  0.1507  0.1209  0.5675
  185MPD1    H6 2879   0.140   3.143   9.251  0.3441  0.1486  0.5765
  185MPD1    H7 2880   0.088   3.050   9.128  0.3714  0.1322  0.3748
  186MPD1     C 2881   3.155   2.087  16.079  0.0927  0.4431  0.6901
  186MPD1    C1 2882   3.202   2.217  16.090  1.2835  0.0126  0.9825
  186MPD1    C2 2883   3.315   2.243  16.164  0.3366 -0.1511  0.1596
  186MPD1    C3 2884   3.392   2.134  16.212 -0.6884 -1.1379  0.4421
  186MPD1    C4 2885   3.337   2.013  16.208 -0.1288 -0.1227  0.1243
  186MPD1    C5 2886   3.218   1.992  16.145 -0.4315  0.5176 -0.4808
  186MPD1     H 2887   3.363   2.340  16.178 -2.5576  1.0071  2.0147
  186MPD1    H1 2888   3.388   1.929  16.254  0.2480  0.3069  0.4793
  186MPD1    H2 2889   3.061   2.059  16.032  2.7870 -3.7878 -2.1662
  186MPD1    H3 2890   3.168   1.895  16.150  0.7107 -0.1388 -1.9988
  186MPD1     N 2891   3.516   2.145  16.284  0.2424  0.0706 -0.1733
  186MPD1    H5 2892   3.561   2.062  16.322  1.4119  0.9059  0.2659
  186MPD1    N1 2893   3.121   2.318  16.037  0.0161 -1.2354 -0.7118
  186MPD1    H6 2894   3.163   2.408  16.015 -1.1862 -0.0824  1.6979
  186MPD1    H7 2895   3.054   2.300  15.963  1.0968 -1.2623 -1.6893
  187MPD1     C 2896   3.390   4.115  17.532  0.5569 -0.6899  0.2375
  187MPD1    C1 2897   3.377   3.980  17.563  0.1943  0.2242  1.0863
  187MPD1    C2 2898   3.323   3.904  17.461  0.2185 -0.0071  0.2465
  187MPD1    C3 2899   3.259   3.964  17.352  0.2674 -0.8262  0.4218
  187MPD1    C4 2900   3.254   4.098  17.335  0.2496  0.7168  0.4177
  187MPD1    C5 2901   3.315   4.178  17.433 -1.0057 -0.2575  0.4128
  187MPD1     H 2902   3.348   3.798  17.461  1.1528  0.2075  0.9077
  187MPD1    H1 2903   3.202   4.156  17.260 -3.5853 -0.6396  2.0447
  187MPD1    H2 2904   3.442   4.187  17.595 -2.4963 -0.2519  2.2594
  187MPD1    H3 2905   3.309   4.285  17.443  1.9521 -0.0447 -0.1685
  187MPD1     N 2906   3.193   3.883  17.258  0.2171  0.6204 -1.0111
  187MPD1    H5 2907   3.158   3.939  17.182  0.0176  1.8803  0.0176
  187MPD1    N1 2908   3.457   3.920  17.664  0.5104  0.7620  0.2700
  187MPD1    H6 2909   3.472   3.995  17.732 -1.4192  0.3884  1.0942
  187MPD1    H7 2910   3.421   3.833  17.703 -0.6525  0.3238 -1.7663
  188MPD1     C 2911   2.791   4.300  10.440  0.3983 -0.6666  0.5663
  188MPD1    C1 2912   2.835   4.213  10.535 -0.0151 -0.7167 -0.1790
  188MPD1    C2 2913   2.874   4.083  10.502 -0.3071 -0.1537 -0.5839
  188MPD1    C3 2914   2.844   4.028  10.374 -0.7150  1.2403  0.2579
  188MPD1    C4 2915   2.800   4.118  10.279  0.7576 -0.1825 -0.2531
  188MPD1    C5 2916   2.764   4.247  10.318  0.2866  0.6438  0.1720
  188MPD1     H 2917   2.909   4.015  10.579  1.9721  1.6764 -0.0152
  188MPD1    H1 2918   2.768   4.087  10.180  0.5895 -0.3732 -0.1399
  188MPD1    H2 2919   2.755   4.401  10.459 -1.0226 -0.6334 -2.3733
  188MPD1    H3 2920   2.715   4.313  10.248  0.3142  1.0029  0.4910
  188MPD1     N 2921   2.857   3.888  10.343  0.8124 -0.3667  0.2405
  188MPD1    H5 2922   2.815   3.854  10.257 -0.7953  0.6094  0.6336
  188MPD1    N1 2923   2.873   4.265  10.664  0.0635  0.6511  0.2436
  188MPD1    H6 2924   2.879   4.198  10.740 -2.2872  0.8735  0.6190
  188MPD1    H7 2925   2.822   4.344  10.703  0.2227  0.4924  0.7726
  189MPD1     C 2926   0.183   0.428   0.388 -0.3250 -0.6749 -0.3296
  189MPD1    C1 2927   0.084   0.528   0.407  0.5176 -0.1138  0.6020
  189MPD1    C2 2928   4.698   0.496   0.365  0.4997 -0.7269 -0.4683
  189MPD1    C3 2929   4.662   0.373   0.310  1.0621  0.3867 -0.3167
  189MPD1    C4 2930   0.026   0.279   0.285  0.4061 -0.3246 -0.0946
  189MPD1    C5 2931   0.153   0.310   0.324 -0.0516  0.1868 -0.0262
  189MPD1     H 2932   4.621   0.564   0.399  2.4310  1.7561 -1.0160
  189MPD1    H1 2933   0.011   0.180   0.244 -2.0612  0.0814 -0.1614
  189MPD1    H2 2934   0.287   0.450   0.408 -0.3157  1.6471 -2.7623
  189MPD1    H3 2935   0.223   0.231   0.299 -1.0064  0.1166 -2.4156
  189MPD1     N 2936   4.537   0.368   0.256  0.2159 -0.0478 -0.4141
  189MPD1    H5 2937   4.484   0.453   0.273 -0.0472  0.1577 -2.2892
  189MPD1    N1 2938   0.110   0.643   0.480 -0.0866 -0.1559  0.3943
  189MPD1    H6 2939   0.203   0.673   0.453 -0.9683  1.8830 -0.4130
  189MPD1    H7 2940   0.052   0.724   0.459  0.5966  0.5537  1.2281
  190MPD1     C 2941   3.185   2.962  15.259 -0.8728  0.3171 -0.0116
  190MPD1    C1 2942   3.303   3.012  15.197 -0.6530  0.1799 -0.3634
  190MPD1    C2 2943   3.410   3.004  15.278  0.2305 -0.2066  0.8743
  190MPD1    C3 2944   3.415   2.975  15.415  0.4437  0.1286  0.1310
  190MPD1    C4 2945   3.292   2.934  15.475 -0.0231  0.2465 -0.3700
  190MPD1    C5 2946   3.181   2.926  15.392 -0.3670 -0.3547 -0.2392
  190MPD1     H 2947   3.505   3.027  15.230 -1.3171  3.7120 -0.2582
  190MPD1    H1 2948   3.280   2.912  15.580 -0.1011 -0.6199 -0.5580
  190MPD1    H2 2949   3.090   2.963  15.207 -0.7310 -0.4346 -0.2929
  190MPD1    H3 2950   3.090   2.889  15.437 -1.0284  0.1468 -1.1706
  190MPD1     N 2951   3.536   2.994  15.486 -0.4364 -0.3084 -0.4588
  190MPD1    H5 2952   3.613   3.011  15.422 -1.0792 -1.8427 -1.6257
  190MPD1    N1 2953   3.314   3.057  15.065  0.5333  0.4216 -0.2240
  190MPD1    H6 2954   3.224   3.090  15.030 -0.5270 -0.9831  1.2052
  190MPD1    H7 2955   3.379   3.135  15.051  2.5179 -1.3401 -0.7752
  191MPD1     C 2956   2.387   4.683  13.376 -0.5553  0.1697 -0.0772
  191MPD1    C1 2957   2.281   0.015  13.329  0.2711  0.0259  0.7439
  191MPD1    C2 2958   2.297   0.087  13.212  0.3953 -0.2202 -0.3367
  191MPD1    C3 2959   2.422   0.094  13.145  0.6497  0.5014 -0.7897
  191MPD1    C4 2960   2.524   0.017  13.195  1.0449 -0.2107  0.2823
  191MPD1    C5 2961   2.503   4.679  13.308 -0.3350  0.3317 -0.0096
  191MPD1     H 2962   2.210   0.130  13.164 -2.1395 -3.5516  1.2168
  191MPD1    H1 2963   2.624   0.011  13.154  0.8040 -0.7150 -0.2347
  191MPD1    H2 2964   2.383   4.625  13.468  0.2363  1.0930  0.5332
  191MPD1    H3 2965   2.588   4.621  13.342 -2.0234 -0.7743  2.2750
  191MPD1     N 2966   2.427   0.168  13.022  0.7898  0.5891 -0.5038
  191MPD1    H5 2967   2.340   0.206  12.987 -0.1101  0.1116  1.2653
  191MPD1    N1 2968   2.166   0.008  13.406  0.2104 -0.8473  0.5166
  191MPD1    H6 2969   2.111   0.091  13.385 -0.0783 -1.1598  0.0238
  191MPD1    H7 2970   2.193   0.029  13.501  2.1797  0.1693 -0.2722
  192MPD1     C 2971   2.284   1.072  12.715 -0.7933  0.8945  0.1616
  192MPD1    C1 2972   2.198   0.984  12.771  0.2785  0.7597  0.3013
  192MPD1    C2 2973   2.227   0.848  12.774 -1.0780 -0.5292  0.1642
  192MPD1    C3 2974   2.352   0.813  12.731 -0.3205  0.4538  0.0062
  192MPD1    C4 2975   2.444   0.906  12.694  0.7270  0.1867  0.0117
  192MPD1    C5 2976   2.413   1.038  12.691 -0.6079  0.0317  1.0459
  192MPD1     H 2977   2.153   0.781  12.814  0.7889 -1.6143  1.8043
  192MPD1    H1 2978   2.549   0.880  12.689  1.0727  1.8267 -1.5668
  192MPD1    H2 2979   2.259   1.176  12.698 -1.3476  0.6260 -0.6628
  192MPD1    H3 2980   2.489   1.113  12.674 -2.5889  1.8224  0.0972
  192MPD1     N 2981   2.387   0.675  12.709 -0.0244  0.1181  0.2974
  192MPD1    H5 2982   2.474   0.656  12.662 -0.2216  0.0316 -0.0312
  192MPD1    N1 2983   2.070   1.033  12.804  0.0897  0.3217 -0.5869
  192MPD1    H6 2984   2.025   1.057  12.716  0.7446 -0.5670 -1.1654
  192MPD1    H7 2985   2.077   1.125  12.846 -2.7025  0.6601 -0.8617
  193MPD1     C 2986   1.965   0.652  16.777  0.0316 -0.1733  0.1272
  193MPD1    C1 2987   1.957   0.790  16.789  0.2153 -1.3918 -0.8011
  193MPD1    C2 2988   2.076   0.860  16.768 -0.3940  0.0994  0.8146
  193MPD1    C3 2989   2.198   0.795  16.750  0.0943  0.6209  0.2326
  193MPD1    C4 2990   2.199   0.658  16.738  0.0210 -0.2925 -0.3515
  193MPD1    C5 2991   2.084   0.585  16.753  0.1168 -0.1233 -0.0922
  193MPD1     H 2992   2.068   0.968  16.774  4.2846  0.4344  0.8667
  193MPD1    H1 2993   2.279   0.592  16.706  0.5253  0.3263 -0.3633
  193MPD1    H2 2994   1.875   0.593  16.787 -0.3539  0.7425  1.9441
  193MPD1    H3 2995   2.078   0.477  16.747 -0.0068 -0.0848 -0.6605
  193MPD1     N 2996   2.316   0.863  16.738  0.4379 -0.0223  0.2797
  193MPD1    H5 2997   2.399   0.816  16.702 -0.6105 -1.4512 -0.2580
  193MPD1    N1 2998   1.834   0.855  16.809  0.1789  0.4878 -0.1867
  193MPD1    H6 2999   1.771   0.816  16.879  0.1007 -0.6899 -0.9189
  193MPD1    H7 3000   1.844   0.953  16.834  0.1759  0.2346  0.8086
  194MPD1     C 3001   4.728   2.526  16.525  0.2647  0.3245 -0.8314
  194MPD1    C1 3002   0.000   2.548  16.658  1.0304  0.7393 -0.0514
  194MPD1    C2 3003   0.030   2.447  16.745  0.0301  0.2125  0.2370
  194MPD1    C3 3004   0.038   2.313  16.707 -0.3403 -0.7314 -0.4468
  194MPD1    C4 3005   0.010   2.289  16.572 -0.0494 -0.3803  0.4540
  194MPD1    C5 3006   4.723   2.389  16.484  0.4233 -0.1485  0.3809
  194MPD1     H 3007   0.054   2.484  16.844  0.8536 -3.0983  1.2954
  194MPD1    H1 3008   0.018   2.194  16.519 -1.1707 -0.4988  0.4935
  194MPD1    H2 3009   4.717   2.607  16.455 -1.4880  1.0418  0.2868
  194MPD1    H3 3010   4.709   2.372  16.377 -2.2850  0.5875  0.6331
  194MPD1     N 3011   0.070   2.198  16.790 -0.0786  0.6018 -0.1715
  194MPD1    H5 3012   0.055   2.103  16.758  0.3185 -0.3395  2.4158
  194MPD1    N1 3013   4.738   2.678  16.705  0.6209 -0.2192  0.7341
  194MPD1    H6 3014   4.680   2.734  16.642  2.3845  1.1517  0.3325
  194MPD1    H7 3015   4.705   2.681  16.801  1.7703 -3.1009  1.2048
  195MPD1     C 3016   2.780   4.327  17.433  0.5651 -0.2241  0.1866
  195MPD1    C1 3017   2.677   4.313  17.521  0.0743  0.5580 -0.6414
  195MPD1    C2 3018   2.694   4.206  17.606  0.1028 -0.3454 -0.1580
  195MPD1    C3 3019   2.800   4.122  17.603  0.8318 -0.9635  0.6764
  195MPD1    C4 3020   2.908   4.147  17.527 -0.1952 -0.2458 -0.2270
  195MPD1    C5 3021   2.893   4.251  17.437  0.3311  0.3225  1.1690
  195MPD1     H 3022   2.609   4.181  17.669  1.0190 -0.1480  1.1529
  195MPD1    H1 3023   2.996   4.084  17.535 -1.4372 -1.8109  1.0572
  195MPD1    H2 3024   2.764   4.397  17.352 -1.7651 -0.9828 -0.0219
  195MPD1    H3 3025   2.970   4.270  17.363  0.0254 -2.2482  0.1825
  195MPD1     N 3026   2.811   4.006  17.687  0.3304  0.6055 -0.4691
  195MPD1    H5 3027   2.900   3.959  17.672  0.2571  0.6504 -1.0238
  195MPD1    N1 3028   2.555   4.379  17.491  0.0660 -0.7983 -0.3367
  195MPD1    H6 3029   2.496   4.386  17.574 -1.0942  3.2223 -1.4909
  195MPD1    H7 3030   2.568   4.476  17.461 -1.6376 -0.4202  0.0882
  196MPD1     C 3031   1.962   3.129   0.930 -0.4168 -0.3661 -0.2179
  196MPD1    C1 3032   2.029   3.242   0.892  0.2647 -0.4376 -0.0816
  196MPD1    C2 3033   2.005   3.366   0.947 -0.3860  0.3892 -0.9649
  196MPD1    C3 3034   1.906   3.375   1.038 -0.1226  0.7672  0.5075
  196MPD1    C4 3035   1.833   3.268   1.072  0.2254  0.5143 -0.4567
  196MPD1    C5 3036   1.865   3.141   1.025  0.6304  0.8287  0.6597
  196MPD1     H 3037   2.051   3.453   0.903  0.4588  0.5530  0.2606
  196MPD1    H1 3038   1.745   3.268   1.135  0.5100  1.1116 -0.0677
  196MPD1    H2 3039   1.981   3.031   0.887 -0.6893 -0.1001 -0.9260
  196MPD1    H3 3040   1.805   3.055   1.051  1.2573 -0.0196 -0.7011
  196MPD1     N 3041   1.866   3.495   1.094  0.3526  0.0377  0.2562
  196MPD1    H5 3042   1.781   3.496   1.150  0.3628  0.7385  0.2533
  196MPD1    N1 3043   2.104   3.229   0.771 -0.7889  0.0351  0.5942
  196MPD1    H6 3044   2.113   3.136   0.732  2.1916  2.5796 -4.7424
  196MPD1    H7 3045   2.072   3.280   0.689 -1.0737 -0.2712  0.5141
  197MPD1     C 3046   1.284   0.402  17.281  0.1406 -0.1017 -0.3662
  197MPD1    C1 3047   1.321   0.530  17.317  0.5434 -0.7134  0.9228
  197MPD1    C2 3048   1.285   0.641  17.237  0.1363  0.1420  0.6260
  197MPD1    C3 3049   1.185   0.622  17.139 -0.0799 -1.1408 -0.4640
  197MPD1    C4 3050   1.143   0.498  17.118  0.7110 -0.0181 -0.0325
  197MPD1    C5 3051   1.196   0.390  17.181  0.5627 -0.0626 -0.5633
  197MPD1     H 3052   1.327   0.738  17.264  1.3375 -0.3544  0.5468
  197MPD1    H1 3053   1.057   0.484  17.053 -0.7565 -0.9502  2.1319
  197MPD1    H2 3054   1.325   0.315  17.332 -1.1260 -0.2229  0.4274
  197MPD1    H3 3055   1.144   0.298  17.158  1.8750 -0.0610 -3.5050
  197MPD1     N 3056   1.134   0.719  17.051 -0.1060 -0.0905  0.0210
  197MPD1    H5 3057   1.077   0.676  16.979  0.8966 -1.7426  0.2139
  197MPD1    N1 3058   1.427   0.538  17.414  0.5280 -0.7071 -0.2186
  197MPD1    H6 3059   1.436   0.454  17.471  0.2068  1.6476  3.2719
  197MPD1    H7 3060   1.436   0.629  17.457  0.1808 -0.3456 -0.9075
  198MPD1     C 3061   2.440   4.048  15.974 -0.8495 -0.1443 -0.5963
  198MPD1    C1 3062   2.524   3.991  16.068 -0.1364 -0.4073  0.3020
  198MPD1    C2 3063   2.660   4.023  16.054 -0.3598 -0.2899 -0.4201
  198MPD1    C3 3064   2.711   4.077  15.932  0.0340  0.2585 -0.0473
  198MPD1    C4 3065   2.616   4.116  15.836 -0.4833 -0.4276 -0.1600
  198MPD1    C5 3066   2.485   4.106  15.862  0.1115  0.1183  0.4837
  198MPD1     H 3067   2.725   4.009  16.139 -2.0831 -0.2481  0.8994
  198MPD1    H1 3068   2.639   4.167  15.743 -0.2169  0.7679  0.5625
  198MPD1    H2 3069   2.334   4.045  15.996 -0.6038 -0.6039  0.5430
  198MPD1    H3 3070   2.410   4.151  15.798  1.9323  0.3402 -1.4772
  198MPD1     N 3071   2.845   4.083  15.911  0.7344  0.0878 -0.1056
  198MPD1    H5 3072   2.904   4.071  15.992  0.6215  0.8794  0.0997
  198MPD1    N1 3073   2.476   3.940  16.191 -0.1441  0.1437 -0.2232
  198MPD1    H6 3074   2.528   3.863  16.231  1.0821  0.0211 -2.0341
  198MPD1    H7 3075   2.390   3.890  16.168 -0.0624 -0.1627  0.1465
  199MPD1     C 3076   1.315   1.269  10.493 -0.4140  0.0373 -0.4725
  199MPD1    C1 3077   1.291   1.129  10.493 -0.9232 -0.0772  0.0467
  199MPD1    C2 3078   1.166   1.084  10.453  0.3623  0.3699  0.5013
  199MPD1    C3 3079   1.060   1.174  10.435  0.1538 -0.0923 -0.4402
  199MPD1    C4 3080   1.083   1.307  10.439 -0.5804  0.0478  0.4912
  199MPD1    C5 3081   1.203   1.351  10.469  0.2807 -0.2279 -0.6832
  199MPD1     H 3082   1.152   0.977  10.445 -0.4804  0.7283 -2.5960
  199MPD1    H1 3083   1.004   1.374  10.408 -1.9579 -1.8708 -0.0896
  199MPD1    H2 3084   1.405   1.327  10.507 -1.1066  0.8500  0.5953
  199MPD1    H3 3085   1.218   1.458  10.461 -0.6787  0.1430  2.8176
  199MPD1     N 3086   0.937   1.125  10.374  0.2803  0.0650  0.6014
  199MPD1    H5 3087   0.863   1.194  10.375  0.1721 -0.0634  1.1732
  199MPD1    N1 3088   1.395   1.047  10.500  0.1223 -0.0336 -0.3164
  199MPD1    H6 3089   1.363   0.958  10.539  1.8142 -0.3683  0.3081
  199MPD1    H7 3090   1.460   1.087  10.566  1.3694  0.3210 -1.7541
  200MPD1     C 3091   4.324   0.082  15.867  0.1977  0.0561  0.2886
  200MPD1    C1 3092   4.190   0.098  15.830 -0.5205  0.4242  0.4045
  200MPD1    C2 3093   4.162   0.185  15.730  0.0815  0.0066 -0.0922
  200MPD1    C3 3094   4.264   0.256  15.671  0.3302 -0.9860 -0.2176
  200MPD1    C4 3095   4.393   0.233  15.704 -0.1090  0.0878  0.6480
  200MPD1    C5 3096   4.424   0.136  15.797 -0.1263 -0.0718  0.5279
  200MPD1     H 3097   4.058   0.190  15.698  0.9945  1.1565 -2.8526
  200MPD1    H1 3098   4.478   0.286  15.665 -2.6330 -0.0341 -4.9876
  200MPD1    H2 3099   4.356   0.010  15.941 -1.8013 -1.9440 -0.7984
  200MPD1    H3 3100   4.531   0.128  15.814  0.1741  0.1117 -1.2297
  200MPD1     N 3101   4.220   0.352  15.576 -0.0834 -0.2027 -0.2132
  200MPD1    H5 3102   4.121   0.338  15.561 -0.0801  1.1585 -1.4292
  200MPD1    N1 3103   4.085   0.033  15.899  0.4128  0.1906 -0.3560
  200MPD1    H6 3104   4.001   0.012  15.845  1.4267 -1.3411 -1.3511
  200MPD1    H7 3105   4.107   4.694  15.959  0.3127 -0.3706 -1.0612
  201MPD1     C 3106   1.683   4.612  14.303  0.2183  0.1602 -0.0639
  201MPD1    C1 3107   1.630   4.493  14.341  0.1463  0.0280 -0.4142
  201MPD1    C2 3108   1.691   4.383  14.291  0.6027 -0.4073 -0.3674
  201MPD1    C3 3109   1.801   4.385  14.199  0.2340  0.0139 -0.1828
  201MPD1    C4 3110   1.848   4.510  14.172 -0.1452  0.5029  0.3335
  201MPD1    C5 3111   1.792   4.623  14.224  0.1584  0.2365 -0.2554
  201MPD1     H 3112   1.647   4.286  14.311 -0.1642 -0.3399 -1.7083
  201MPD1    H1 3113   1.928   4.532  14.101  0.6290 -1.5308  0.5696
  201MPD1    H2 3114   1.631   4.704  14.330  1.2956  0.5007  0.8433
  201MPD1    H3 3115   1.834   4.718  14.195 -1.4849  1.0827  0.1088
  201MPD1     N 3116   1.848   4.260  14.142  0.0538  0.2831 -0.7356
  201MPD1    H5 3117   1.799   4.174  14.165  0.7049  0.3201  0.8238
  201MPD1    N1 3118   1.508   4.484  14.403  0.0033 -0.0388  0.8170
  201MPD1    H6 3119   1.497   4.402  14.463 -2.8722 -0.0052  0.3215
  201MPD1    H7 3120   1.498   4.566  14.462 -1.3060 -0.5285  1.2736
  202MPD1     C 3121   2.281   3.826   9.269  0.1793 -0.1308  0.1914
  202MPD1    C1 3122   2.313   3.949   9.303 -0.2389 -0.4154 -0.0161
  202MPD1    C2 3123   2.234   4.009   9.400 -0.2023  0.0102  0.8498
  202MPD1    C3 3124   2.147   3.937   9.482 -0.3520 -0.4707 -0.6749
  202MPD1    C4 3125   2.133   3.805   9.454 -0.0251  0.3369 -0.2659
  202MPD1    C5 3126   2.194   3.749   9.344  0.4798  0.1306 -0.1820
  202MPD1     H 3127   2.248   4.114   9.424  0.4349  0.1671 -0.1858
  202MPD1    H1 3128   2.068   3.740   9.511  0.0984  0.5326  0.0941
  202MPD1    H2 3129   2.323   3.772   9.185 -0.1366  2.7654 -1.8308
  202MPD1    H3 3130   2.167   3.649   9.313 -0.9982  0.2760  0.5971
  202MPD1     N 3131   2.082   3.992   9.593  0.6935  0.4585  0.0717
  202MPD1    H5 3132   2.025   3.929   9.648  2.7497 -1.9157 -0.5118
  202MPD1    N1 3133   2.357   4.032   9.204  0.2169  0.0222 -0.3892
  202MPD1    H6 3134   2.417   3.989   9.134  0.2267 -0.7310  0.0754
  202MPD1    H7 3135   2.414   4.104   9.247  0.6752 -0.1683 -0.6742
  203MPD1     C 3136   0.559   4.645  12.585 -0.3998  0.4211 -0.6644
  203MPD1    C1 3137   0.602   4.560  12.489  0.5709 -0.2343  0.8337
  203MPD1    C2 3138   0.653   4.439  12.533 -0.0830 -0.0727 -0.1520
  203MPD1    C3 3139   0.679   4.421  12.667  0.2849 -0.2594  0.1870
  203MPD1    C4 3140   0.625   4.506  12.756 -0.7700 -0.1588 -0.3360
  203MPD1    C5 3141   0.560   4.618  12.712 -0.2362 -0.2905 -0.0688
  203MPD1     H 3142   0.693   4.376  12.455 -0.6655  1.0535 -1.3804
  203MPD1    H1 3143   0.624   4.497  12.864 -2.0341  0.1930 -0.3109
  203MPD1    H2 3144   0.518   0.002  12.558  1.8181  1.1166 -1.4966
  203MPD1    H3 3145   0.512   4.681  12.786 -2.6316 -2.1190 -0.0743
  203MPD1     N 3146   0.752   4.301  12.710 -0.5139  0.2510 -0.1937
  203MPD1    H5 3147   0.764   4.235  12.633  3.1957  1.3294 -0.5221
  203MPD1    N1 3148   0.613   4.602  12.350  0.3379 -0.2170 -0.8455
  203MPD1    H6 3149   0.616   4.519  12.292 -1.8761  0.2870 -1.6623
  203MPD1    H7 3150   0.531   4.653  12.318  0.6083  0.7999  0.0700
  204MPD1     C 3151   4.512   1.441  17.520  0.3962  0.0305  0.2027
  204MPD1    C1 3152   4.581   1.433  17.400 -0.6942  0.0882 -0.9395
  204MPD1    C2 3153   4.699   1.354  17.394  0.1267  0.4636  0.8693
  204MPD1    C3 3154   4.727   1.273  17.503  0.1576 -0.4642  0.8688
  204MPD1    C4 3155   4.647   1.276  17.619 -0.1294  0.3496 -0.7631
  204MPD1    C5 3156   4.541   1.362  17.625 -0.8304 -0.1275 -0.5223
  204MPD1     H 3157   0.015   1.370  17.303 -1.6833  3.7247  0.2907
  204MPD1    H1 3158   4.672   1.213  17.704 -3.6099 -0.4600 -0.3299
  204MPD1    H2 3159   4.441   1.522  17.530  1.9358  1.1360  2.0035
  204MPD1    H3 3160   4.481   1.362  17.716  0.0945 -1.0108  0.0805
  204MPD1     N 3161   0.109   1.198  17.505 -0.3106  0.5326 -0.3169
  204MPD1    H5 3162   0.160   1.202  17.417  0.8467  1.6280  0.4061
  204MPD1    N1 3163   4.551   1.524  17.293  0.0374  0.0564  0.7826
  204MPD1    H6 3164   4.605   1.497  17.210  1.0034 -0.8830  1.7168
  204MPD1    H7 3165   4.450   1.523  17.281  0.0955  3.1075 -0.1422
  205MPD1     C 3166   0.545   4.429  17.393  0.0772  0.8613  0.3772
  205MPD1    C1 3167   0.598   4.364  17.496  0.1037 -0.5243  0.1543
  205MPD1    C2 3168   0.648   4.438  17.605  0.4537  0.6370 -0.1433
  205MPD1    C3 3169   0.631   4.571  17.610  0.0277  0.4243  0.9100
  205MPD1    C4 3170   0.571   4.638  17.508  0.8364 -0.5039 -0.2263
  205MPD1    C5 3171   0.531   4.567  17.398 -0.7236 -0.4640 -0.7654
  205MPD1     H 3172   0.693   4.375  17.681 -0.4387 -1.4732 -1.3549
  205MPD1    H1 3173   0.571   0.006  17.504  1.2573 -0.4737  0.5203
  205MPD1    H2 3174   0.514   4.379  17.301  1.8145 -0.7611  0.6698
  205MPD1    H3 3175   0.478   4.620  17.319 -2.6597  0.1117  0.8958
  205MPD1     N 3176   0.680   4.654  17.715  0.2274 -0.0191  0.1955
  205MPD1    H5 3177   0.669   0.012  17.691 -1.9581 -0.6010 -1.1647
  205MPD1    N1 3178   0.633   4.227  17.483 -0.0935 -0.4730  0.4269
  205MPD1    H6 3179   0.641   4.189  17.577  0.3435  0.6536  0.8353
  205MPD1    H7 3180   0.572   4.174  17.421 -0.9103  0.9840  0.0116
  206MPD1     C 3181   0.827   2.717  16.753 -0.3284 -0.0410 -0.2192
  206MPD1    C1 3182   0.697   2.769  16.769 -0.1040 -0.6652  0.7100
  206MPD1    C2 3183   0.595   2.726  16.691 -0.1293 -0.6304 -0.1660
  206MPD1    C3 3184   0.614   2.626  16.596  0.7435  0.3975  0.5027
  206MPD1    C4 3185   0.743   2.586  16.580 -0.2101  0.1915 -0.0435
  206MPD1    C5 3186   0.842   2.626  16.658 -0.4639 -0.6881 -0.6321
  206MPD1     H 3187   0.494   2.766  16.698 -0.3357 -0.4951 -3.7273
  206MPD1    H1 3188   0.761   2.508  16.507 -0.7371  0.3125 -0.3047
  206MPD1    H2 3189   0.910   2.744  16.817 -0.6539  0.6800 -0.1071
  206MPD1    H3 3190   0.942   2.583  16.649  0.9019  2.7612 -1.6823
  206MPD1     N 3191   0.512   2.577  16.511 -0.4475 -0.1404 -0.1499
  206MPD1    H5 3192   0.542   2.502  16.450  0.5229 -0.4805  0.7350
  206MPD1    N1 3193   0.675   2.879  16.855 -0.3728 -0.8245 -0.4810
  206MPD1    H6 3194   0.581   2.878  16.893 -0.0367  2.8239  0.4695
  206MPD1    H7 3195   0.723   2.875  16.944 -1.8923 -0.9018  0.3201
  207MPD1     C 3196   2.552   4.686  10.051 -0.1367 -0.6335 -0.6487
  207MPD1    C1 3197   2.583   0.063   9.988  0.8272 -0.4493  0.0313
  207MPD1    C2 3198   2.699   0.132  10.010  0.2065  0.1671 -0.4319
  207MPD1    C3 3199   2.780   0.098  10.128 -0.4311 -1.0183  0.0318
  207MPD1    C4 3200   2.741   4.729  10.198  0.6363  1.2379 -0.3507
  207MPD1    C5 3201   2.628   4.660  10.163  0.0088  0.5809 -0.7922
  207MPD1     H 3202   2.727   0.215   9.946 -0.4989  0.5702 -0.2213
  207MPD1    H1 3203   2.800   4.685  10.277 -0.1927  3.6555  1.5966
  207MPD1    H2 3204   2.465   4.623  10.037 -2.0606  2.2965 -2.0729
  207MPD1    H3 3205   2.604   4.571  10.221  1.4490 -0.3881 -1.6910
  207MPD1     N 3206   2.895   0.165  10.170 -0.1172 -0.7606 -0.6253
  207MPD1    H5 3207   2.940   0.126  10.252 -1.8096 -0.6857  0.3492
  207MPD1    N1 3208   2.525   0.080   9.863  1.4279 -1.1877 -0.1163
  207MPD1    H6 3209   2.515   0.177   9.834  0.6340 -0.7691  1.5573
  207MPD1    H7 3210   2.429   0.046   9.868  0.8407  0.5016  0.1852
  208MPD1     C 3211   2.440   4.108   0.410 -0.5897  0.2771  0.3068
  208MPD1    C1 3212   2.389   4.201   0.501  0.3165  0.1591 -0.3635
  208MPD1    C2 3213   2.257   4.211   0.511 -0.3598  0.4458 -0.2372
  208MPD1    C3 3214   2.170   4.136   0.433 -0.1494 -0.2220  0.0767
  208MPD1    C4 3215   2.216   4.051   0.331 -1.0093  0.6115  0.0987
  208MPD1    C5 3216   2.347   4.045   0.324  0.3345 -0.0788  0.4831
  208MPD1     H 3217   2.219   4.277   0.588 -1.2565  0.7466 -0.9352
  208MPD1    H1 3218   2.156   3.983   0.271  0.7109 -0.6842 -0.1637
  208MPD1    H2 3219   2.547   4.093   0.407 -0.6973 -0.3371 -0.4207
  208MPD1    H3 3220   2.379   3.973   0.250  1.7862  1.3556 -0.2912
  208MPD1     N 3221   2.034   4.146   0.460  0.1016  0.0286 -0.0659
  208MPD1    H5 3222   2.006   4.228   0.512 -1.8172  0.1449 -1.2870
  208MPD1    N1 3223   2.478   4.256   0.594 -0.0636  0.3614  0.0356
  208MPD1    H6 3224   2.562   4.288   0.547 -1.3499  2.3987 -0.9074
  208MPD1    H7 3225   2.430   4.335   0.638 -0.8021  1.0851 -2.0549
  209MPD1     C 3226   4.110   4.480  11.586  0.2833  0.6638  0.0001
  209MPD1    C1 3227   4.107   4.613  11.618 -0.0560 -0.4057  0.3353
  209MPD1    C2 3228   3.994   4.689  11.579 -0.7017 -0.2996 -0.7741
  209MPD1    C3 3229   3.907   4.649  11.476  0.5162 -0.1467  0.2027
  209MPD1    C4 3230   3.917   4.519  11.440 -0.4057 -0.0608 -0.3638
  209MPD1    C5 3231   4.009   4.436  11.503  0.5516  0.0819 -0.0198
  209MPD1     H 3232   3.987   0.044  11.628 -0.0720 -0.1237 -1.0234
  209MPD1    H1 3233   3.847   4.477  11.369  1.1391 -1.3068 -1.1452
  209MPD1    H2 3234   4.186   4.413  11.623 -0.4683 -0.1847  0.0254
  209MPD1    H3 3235   3.997   4.329  11.487  0.4278  0.2876 -1.3098
  209MPD1     N 3236   3.826   0.005  11.416  0.6546 -0.1663 -0.6239
  209MPD1    H5 3237   3.826   0.098  11.456 -0.1088  0.1236 -1.3071
  209MPD1    N1 3238   4.191   4.660  11.720 -0.3437  0.5676  0.1308
  209MPD1    H6 3239   4.233   0.011  11.706 -1.8870  1.1364 -0.7878
  209MPD1    H7 3240   4.271   4.598  11.723 -0.8493 -0.1609 -1.2062
  210MPD1     C 3241   3.783   0.775  11.727  0.0927  0.0107  0.2222
  210MPD1    C1 3242   3.674   0.791  11.649  0.2719 -0.4259  0.7366
  210MPD1    C2 3243   3.644   0.690  11.557 -0.1315  0.3783  0.1535
  210MPD1    C3 3244   3.723   0.572  11.553  0.4813 -0.5419 -0.3438
  210MPD1    C4 3245   3.827   0.556  11.641 -0.2669  0.7385 -0.0513
  210MPD1    C5 3246   3.860   0.662  11.720  0.0672  0.1904  0.3721
  210MPD1     H 3247   3.564   0.703  11.485 -0.1151  1.2506  0.2906
  210MPD1    H1 3248   3.882   0.463  11.652 -0.3171  0.6485 -0.5587
  210MPD1    H2 3249   3.815   0.858  11.789 -2.9439 -0.5680  2.5765
  210MPD1    H3 3250   3.943   0.655  11.789 -0.2158  1.1101  0.8069
  210MPD1     N 3251   3.715   0.472  11.453 -0.0630 -0.5907  0.3738
  210MPD1    H5 3252   3.781   0.396  11.458  0.5112  0.0113  1.8565
  210MPD1    N1 3253   3.625   0.920  11.619  0.0533  0.5556 -0.3769
  210MPD1    H6 3254   3.532   0.918  11.578  0.1517  1.4295 -0.6240
  210MPD1    H7 3255   3.624   0.982  11.699  3.1463  0.4433 -0.2237
  211MPD1     C 3256   0.827   0.054  17.069  0.1675 -0.2533  0.3424
  211MPD1    C1 3257   0.774   0.148  16.980 -0.3115 -0.3927 -0.5740
  211MPD1    C2 3258   0.718   0.098  16.862 -0.3701 -0.6365  0.2648
  211MPD1    C3 3259   0.707   4.702  16.845 -0.1511  0.7302  0.2148
  211MPD1    C4 3260   0.755   4.614  16.937 -0.4849  0.1246  0.1765
  211MPD1    C5 3261   0.812   4.662  17.052  0.1293 -0.4105 -0.4859
  211MPD1     H 3262   0.669   0.154  16.783 -1.9648 -0.5432  1.3398
  211MPD1    H1 3263   0.750   4.506  16.925 -1.1024  0.0986  0.6259
  211MPD1    H2 3264   0.873   0.088  17.161  2.1199 -0.4137 -0.5862
  211MPD1    H3 3265   0.859   4.592  17.119  0.9728  1.0556  0.4622
  211MPD1     N 3266   0.638   4.670  16.720 -0.4571  0.0913  0.1124
  211MPD1    H5 3267   0.611   0.011  16.665 -1.0676 -0.1785  0.0203
  211MPD1    N1 3268   0.791   0.285  17.003 -0.0808  0.5467  0.1872
  211MPD1    H6 3269   0.719   0.331  16.948  0.4772 -3.4307 -3.9138
  211MPD1    H7 3270   0.771   0.311  17.099 -2.6724 -0.1909 -0.1470
  212MPD1     C 3271   4.486   3.165  16.838 -0.3371  0.3971  0.0567
  212MPD1    C1 3272   4.601   3.095  16.881 -0.2343  0.2129  1.0399
  212MPD1    C2 3273   4.578   2.958  16.914 -0.3241 -0.4569 -0.9189
  212MPD1    C3 3274   4.449   2.906  16.913  0.3391 -0.9424 -0.3993
  212MPD1    C4 3275   4.345   2.979  16.867  0.1259  0.2903 -0.0193
  212MPD1    C5 3276   4.363   3.102  16.821  0.5211 -0.0118 -0.0348
  212MPD1     H 3277   4.665   2.901  16.942  0.2799  0.9726  0.1246
  212MPD1    H1 3278   4.248   2.931  16.865  0.4121 -0.2363 -1.1685
  212MPD1    H2 3279   4.498   3.272  16.827 -1.8217  0.5998  0.4013
  212MPD1    H3 3280   4.274   3.149  16.782  0.4308 -1.3317 -1.4550
  212MPD1     N 3281   4.420   2.771  16.947 -0.0695 -0.9314 -0.2845
  212MPD1    H5 3282   4.321   2.750  16.957 -0.3976  1.3310  1.0829
  212MPD1    N1 3283   4.723   3.160  16.917 -0.3153 -0.1922 -0.0762
  212MPD1    H6 3284   0.063   3.099  16.914 -1.0458 -1.1306 -0.7391
  212MPD1    H7 3285   0.009   3.231  16.849  1.6830 -0.4958  0.3984
  213MPD1     C 3286   2.903   3.214  15.944  0.1857 -0.0378 -0.1222
  213MPD1    C1 3287   2.958   3.300  15.851 -0.0879  0.2586  0.8013
  213MPD1    C2 3288   2.866   3.355  15.768  0.7603 -0.2982 -0.0486
  213MPD1    C3 3289   2.734   3.321  15.752  0.0679 -0.1978  0.2847
  213MPD1    C4 3290   2.693   3.222  15.838  0.9416  0.3474  0.4596
  213MPD1    C5 3291   2.773   3.184  15.939 -0.1375 -0.4814 -0.1185
  213MPD1     H 3292   2.905   3.431  15.702  0.4015  0.4627  0.6123
  213MPD1    H1 3293   2.592   3.185  15.853  1.0915  0.9406  2.9350
  213MPD1    H2 3294   2.970   3.170  16.016  2.4316  1.8646 -1.0421
  213MPD1    H3 3295   2.735   3.119  16.017  0.8891 -2.6823 -1.4565
  213MPD1     N 3296   2.637   3.372  15.662 -0.0512 -0.3439  0.2765
  213MPD1    H5 3297   2.670   3.453  15.610 -2.1841  0.7715  0.6938
  213MPD1    N1 3298   3.073   3.370  15.888  0.1486  0.3926  0.5799
  213MPD1    H6 3299   3.144   3.305  15.922  0.7492  1.2554  0.9744
  213MPD1    H7 3300   3.124   3.416  15.812  0.7166 -3.1808 -1.2138
  214MPD1     C 3301   1.683   3.109  15.540  0.2600 -0.2685 -0.1707
  214MPD1    C1 3302   1.689   3.242  15.517 -0.3465 -0.3956  0.5552
  214MPD1    C2 3303   1.810   3.302  15.477 -0.4180 -0.1814  0.4487
  214MPD1    C3 3304   1.925   3.225  15.469  0.4382 -0.4118 -0.4635
  214MPD1    C4 3305   1.913   3.084  15.492 -0.1145  0.8350  0.3095
  214MPD1    C5 3306   1.793   3.033  15.523  0.0512  0.1213  0.9344
  214MPD1     H 3307   1.818   3.409  15.466 -0.6566  0.0531  2.5813
  214MPD1    H1 3308   2.002   3.026  15.474 -1.5535 -1.1074 -0.5440
  214MPD1    H2 3309   1.590   3.056  15.560 -0.2063  0.9683  0.9627
  214MPD1    H3 3310   1.781   2.928  15.549 -2.5289  0.1280 -0.2473
  214MPD1     N 3311   2.055   3.270  15.452  0.0612 -0.1127 -0.1007
  214MPD1    H5 3312   2.132   3.205  15.462 -0.3446 -0.9393 -2.2906
  214MPD1    N1 3313   1.577   3.323  15.558  0.0975 -0.1027  0.4693
  214MPD1    H6 3314   1.565   3.400  15.493  2.9736  0.3061  0.4258
  214MPD1    H7 3315   1.495   3.264  15.564 -1.8020  2.4590 -0.5053
  215MPD1     C 3316   3.128   4.144  11.048  0.3919  0.2888 -0.0331
  215MPD1    C1 3317   3.144   4.147  11.183  0.1404  0.0214  0.1787
  215MPD1    C2 3318   3.205   4.252  11.246 -0.5352  0.6336  0.0051
  215MPD1    C3 3319   3.269   4.356  11.169  0.6871 -0.3508 -0.1941
  215MPD1    C4 3320   3.265   4.346  11.033  0.1105 -0.9576 -0.8912
  215MPD1    C5 3321   3.187   4.248  10.976 -0.5883  0.0803 -0.4115
  215MPD1     H 3322   3.208   4.267  11.353  0.2269 -1.2425  0.2341
  215MPD1    H1 3323   3.311   4.413  10.961  1.2613 -1.2129 -0.3991
  215MPD1    H2 3324   3.071   4.060  11.009  1.8292 -0.5292 -0.3569
  215MPD1    H3 3325   3.168   4.254  10.870  1.5966 -3.2073 -0.9971
  215MPD1     N 3326   3.305   4.475  11.237  0.0490  0.0645 -0.1470
  215MPD1    H5 3327   3.296   4.477  11.338 -1.3895  0.6057 -0.2827
  215MPD1    N1 3328   3.075   4.055  11.261 -0.6267 -0.1846 -0.1630
  215MPD1    H6 3329   3.021   3.977  11.225 -4.0139  0.8965  2.6540
  215MPD1    H7 3330   3.112   4.029  11.352 -0.6884  0.6694  0.1009
  216MPD1     C 3331   4.188   2.647   0.088 -0.7136  0.1386 -0.1591
  216MPD1    C1 3332   4.164   2.604  17.720 -0.1981 -0.4435 -0.6270
  216MPD1    C2 3333   4.173   2.470  17.702  0.1476 -0.0088 -0.0352
  216MPD1    C3 3334   4.166   2.382   0.051 -0.0200 -0.1355  0.3787
  216MPD1    C4 3335   4.161   2.428   0.177 -0.6447 -0.3966  0.5634
  216MPD1    C5 3336   4.164   2.559   0.193  0.0104 -0.3185  0.3680
  216MPD1     H 3337   4.178   2.432  17.600 -1.2990 -3.4638  1.2175
  216MPD1    H1 3338   4.176   2.359   0.259  3.4405 -0.2537 -0.0428
  216MPD1    H2 3339   4.207   2.750   0.116 -0.4815 -0.0615  0.4052
  216MPD1    H3 3340   4.165   2.608   0.290  1.4688 -0.2975  0.3436
  216MPD1     N 3341   4.182   2.240   0.022  0.0417  0.4785 -0.6514
  216MPD1    H5 3342   4.203   2.220  17.684  0.6620 -0.4900 -0.3184
  216MPD1    N1 3343   4.173   2.697  17.615  0.1836 -0.0128 -0.3177
  216MPD1    H6 3344   4.133   2.786  17.643  0.5084  0.3054 -0.8832
  216MPD1    H7 3345   4.127   2.675  17.527 -2.0642 -2.3187  1.4344
  217MPD1     C 3346   4.366   3.834   9.313 -0.0982 -0.0665 -0.0847
  217MPD1    C1 3347   4.483   3.863   9.246 -0.1880  0.5488 -0.0227
  217MPD1    C2 3348   4.608   3.842   9.303 -0.5785 -0.3022  0.0572
  217MPD1    C3 3349   4.619   3.763   9.415 -0.0685  0.4640 -0.2241
  217MPD1    C4 3350   4.497   3.725   9.478  0.1008  0.1532  0.1595
  217MPD1    C5 3351   4.379   3.767   9.429 -0.0885  1.4465 -0.1554
  217MPD1     H 3352   4.698   3.866   9.248 -0.6137 -0.1406  0.0711
  217MPD1    H1 3353   4.495   3.660   9.565  1.2341  0.7004  0.6043
  217MPD1    H2 3354   4.267   3.858   9.275 -0.7412 -0.8282  1.0881
  217MPD1    H3 3355   4.294   3.729   9.485 -0.0803  1.3866 -0.1837
  217MPD1     N 3356   4.735   3.732   9.481  0.1533 -0.2085  0.0907
  217MPD1    H5 3357   4.723   3.685   9.570  0.1761  0.6884  0.5733
  217MPD1    N1 3358   4.478   3.949   9.130 -0.1279 -0.2756 -0.1822
  217MPD1    H6 3359   4.554   3.957   9.062  0.8929 -1.6531  0.8040
  217MPD1    H7 3360   4.402   3.938   9.063  0.2224 -1.1797 -0.4278
  218MPD1     C 3361   1.427   4.341  13.411 -0.2350  0.7580  0.0134
  218MPD1    C1 3362   1.486   4.317  13.290  0.2786  0.3541 -0.5325
  218MPD1    C2 3363   1.611   4.253  13.286  0.1662 -0.2049  0.9034
  218MPD1    C3 3364   1.663   4.183  13.396 -0.1725 -0.0950  0.3379
  218MPD1    C4 3365   1.597   4.199  13.514 -0.2061 -0.5213  0.3963
  218MPD1    C5 3366   1.480   4.273  13.520 -0.3690 -0.1295  0.0494
  218MPD1     H 3367   1.670   4.240  13.196 -1.3653  1.5945 -0.3525
  218MPD1    H1 3368   1.624   4.150  13.608 -0.3440 -0.0300  0.6917
  218MPD1    H2 3369   1.336   4.396  13.432  0.3163  1.2391  1.1319
  218MPD1    H3 3370   1.433   4.293  13.615 -1.0536 -1.7112  0.0608
  218MPD1     N 3371   1.785   4.106  13.396 -0.5401 -0.2933 -1.0281
  218MPD1    H5 3372   1.804   4.068  13.487 -1.5384  1.5538 -0.0415
  218MPD1    N1 3373   1.444   4.388  13.172 -0.0588  0.0736 -0.3833
  218MPD1    H6 3374   1.346   4.412  13.185  0.8610  3.1943  0.6503
  218MPD1    H7 3375   1.451   4.330  13.089 -1.9497  0.2490 -0.6611
  219MPD1     C 3376   1.803   3.310  13.419  0.2059  0.3148 -0.1015
  219MPD1    C1 3377   1.908   3.355  13.331 -0.3712  0.0924 -0.3642
  219MPD1    C2 3378   1.979   3.472  13.361  0.0547  0.7962  0.5917
  219MPD1    C3 3379   1.945   3.548  13.474 -0.7151 -0.0427  0.4299
  219MPD1    C4 3380   1.849   3.507  13.553 -0.0325 -0.4249  0.7151
  219MPD1    C5 3381   1.783   3.388  13.531  0.0701 -0.5608 -0.1939
  219MPD1     H 3382   2.063   3.501  13.300 -0.3787  0.9612  0.0809
  219MPD1    H1 3383   1.824   3.555  13.647 -0.6854 -0.9767  0.8284
  219MPD1    H2 3384   1.750   3.216  13.409  1.7889 -0.6524  0.7414
  219MPD1    H3 3385   1.709   3.352  13.603  0.5767 -0.1742  0.5229
  219MPD1     N 3386   2.003   3.673  13.503 -0.5544  0.4767  0.5119
  219MPD1    H5 3387   1.958   3.744  13.560 -0.6301 -0.6956  1.8990
  219MPD1    N1 3388   1.933   3.282  13.213 -0.6456  0.4389 -0.3183
  219MPD1    H6 3389   1.925   3.181  13.228  0.6588  0.4629  0.5572
  219MPD1    H7 3390   2.027   3.290  13.175 -1.1118  0.7115 -1.3966
  220MPD1     C 3391   2.575   0.992  10.104  1.0838 -0.4138  0.5060
  220MPD1    C1 3392   2.552   1.028  10.243 -0.0853  0.1554  0.0458
  220MPD1    C2 3393   2.518   0.929  10.335 -0.1392  0.7942 -0.0142
  220MPD1    C3 3394   2.521   0.796  10.303 -0.2822 -0.1836  0.1456
  220MPD1    C4 3395   2.541   0.766  10.173  0.4824 -0.2016 -0.1969
  220MPD1    C5 3396   2.567   0.862  10.081  0.1329  0.0384  0.0853
  220MPD1     H 3397   2.497   0.958  10.438 -0.0867  0.2975  0.1362
  220MPD1    H1 3398   2.528   0.666  10.133 -3.3074  0.3474 -0.4038
  220MPD1    H2 3399   2.599   1.059  10.022 -3.2843  1.4603  0.7687
  220MPD1    H3 3400   2.592   0.823   9.983  0.4366  3.8029 -1.3278
  220MPD1     N 3401   2.490   0.697  10.406 -0.7685 -0.3371  0.0714
  220MPD1    H5 3402   2.496   0.732  10.501  1.0383 -0.2933 -0.0657
  220MPD1    N1 3403   2.527   1.155  10.297  0.5786  0.3841  0.3209
  220MPD1    H6 3404   2.561   1.171  10.392  0.1507 -0.5169  0.6236
  220MPD1    H7 3405   2.563   1.224  10.232 -2.0537  1.9609  0.5411
  221MPD1     C 3406   0.231   4.426  16.842  0.2465 -0.3472 -0.4685
  221MPD1    C1 3407   0.201   4.321  16.757 -0.4139  0.0305  0.2279
  221MPD1    C2 3408   0.243   4.192  16.776 -0.1800 -0.3072  0.2141
  221MPD1    C3 3409   0.349   4.171  16.867 -0.1572 -0.5877 -0.1471
  221MPD1    C4 3410   0.383   4.274  16.944 -0.5078 -0.1402 -0.3956
  221MPD1    C5 3411   0.324   4.397  16.940  0.2848 -0.5648 -0.2373
  221MPD1     H 3412   0.199   4.107  16.726 -1.1444  0.7171 -0.6752
  221MPD1    H1 3413   0.465   4.261  17.014 -0.4955 -0.5542 -0.4834
  221MPD1    H2 3414   0.185   4.524  16.845  1.5278  0.2883 -1.9673
  221MPD1    H3 3415   0.362   4.476  17.005  0.1125 -0.9636  0.3508
  221MPD1     N 3416   0.411   4.045  16.878  0.1146  0.3713 -0.0676
  221MPD1    H5 3417   0.499   4.052  16.929 -1.3152  0.9320  2.3231
  221MPD1    N1 3418   0.105   4.339  16.656 -0.3628 -0.1181  0.5296
  221MPD1    H6 3419   0.136   4.298  16.569  0.9559  0.3299  0.7981
  221MPD1    H7 3420   0.126   4.436  16.637  1.4345 -0.7558 -0.6385
  222MPD1     C 3421   3.819   2.120  17.651  0.2633  0.2507  0.8705
  222MPD1    C1 3422   3.849   2.243  17.605  0.3884 -0.1133  0.4117
  222MPD1    C2 3423   3.843   2.348  17.695 -0.3408 -0.2889  0.1031
  222MPD1    C3 3424   3.805   2.319   0.071 -0.2996  0.1448 -0.7592
  222MPD1    C4 3425   3.784   2.186   0.114 -0.6085  0.3537  0.3936
  222MPD1    C5 3426   3.787   2.082   0.022  0.1075  0.2035  0.8856
  222MPD1     H 3427   3.857   2.448  17.657 -0.2025  0.3047  1.7345
  222MPD1    H1 3428   3.761   2.167   0.218 -2.4719  1.1267  0.1184
  222MPD1    H2 3429   3.811   2.043  17.575  4.1242 -1.8934  2.6612
  222MPD1    H3 3430   3.757   1.984   0.059 -1.8685  0.8935  1.1387
  222MPD1     N 3431   3.813   2.413   0.170  0.6187  0.1060  0.0515
  222MPD1    H5 3432   3.819   2.385   0.268 -0.3517  0.1656  0.1261
  222MPD1    N1 3433   3.861   2.277  17.470 -0.1717  0.1840  0.2593
  222MPD1    H6 3434   3.894   2.198  17.415 -0.8383  0.2311 -0.2101
  222MPD1    H7 3435   3.946   2.332  17.457  0.2031 -0.4309  0.1317
  223MPD1     C 3436   3.501   2.205   0.910 -0.5830  0.1082 -0.6145
  223MPD1    C1 3437   3.631   2.200   0.880 -0.5665 -0.3623  0.3153
  223MPD1    C2 3438   3.685   2.306   0.808 -0.2617 -0.0317 -0.2563
  223MPD1    C3 3439   3.606   2.413   0.757 -0.2878 -0.8649 -0.4846
  223MPD1    C4 3440   3.474   2.420   0.802  0.8665  0.3645 -0.2517
  223MPD1    C5 3441   3.426   2.312   0.866  0.7216  0.1426 -0.2831
  223MPD1     H 3442   3.792   2.317   0.806  0.1344 -4.1917 -1.6030
  223MPD1    H1 3443   3.409   2.505   0.783  1.6207  0.7170 -1.2316
  223MPD1    H2 3444   3.448   2.131   0.969 -0.2049 -1.0213 -1.6798
  223MPD1    H3 3445   3.323   2.307   0.900  0.9684  0.2423  0.4843
  223MPD1     N 3446   3.670   2.496   0.668 -0.3318  0.1931  0.7772
  223MPD1    H5 3447   3.760   2.461   0.634 -0.1659  2.8244 -1.4389
  223MPD1    N1 3448   3.709   2.112   0.949  0.2461  0.1228 -0.2499
  223MPD1    H6 3449   3.663   2.021   0.952  1.1849 -0.2859  1.6533
  223MPD1    H7 3450   3.803   2.104   0.910 -0.2486 -1.6455 -1.1083
  224MPD1     C 3451   1.627   0.792   9.547  0.6562 -0.8346  0.6520
  224MPD1    C1 3452   1.630   0.670   9.480  0.4161  0.1636 -0.4166
  224MPD1    C2 3453   1.583   0.553   9.547  0.0855  0.6089  1.2328
  224MPD1    C3 3454   1.554   0.549   9.682  0.1173  0.1137 -0.3436
  224MPD1    C4 3455   1.569   0.674   9.749  0.4981 -0.2552 -0.3575
  224MPD1    C5 3456   1.594   0.797   9.678 -0.0850  0.2294  0.8802
  224MPD1     H 3457   1.554   0.466   9.489  0.8877  0.6227  0.8161
  224MPD1    H1 3458   1.544   0.685   9.854 -0.7786 -0.5184 -0.6320
  224MPD1    H2 3459   1.658   0.882   9.495  0.9509 -1.4682 -0.2883
  224MPD1    H3 3460   1.592   0.893   9.727  2.0098  1.2440 -1.0559
  224MPD1     N 3461   1.515   0.439   9.756 -0.5168  0.5001 -0.1688
  224MPD1    H5 3462   1.491   0.457   9.853 -1.0696 -0.6914 -0.0921
  224MPD1    N1 3463   1.644   0.668   9.340  0.6948 -0.5520 -0.2558
  224MPD1    H6 3464   1.698   0.747   9.307 -0.2580 -0.6615 -2.0893
  224MPD1    H7 3465   1.678   0.581   9.300  2.2183  0.7030 -1.6608
  225MPD1     C 3466   2.688   0.973  12.361  0.3681  0.4759 -0.5366
  225MPD1    C1 3467   2.660   0.837  12.370  0.5272  0.0255 -0.1951
  225MPD1    C2 3468   2.529   0.804  12.368 -0.1999  0.6535 -0.2972
  225MPD1    C3 3469   2.427   0.898  12.385  0.8684  0.2684  0.2316
  225MPD1    C4 3470   2.455   1.033  12.394 -0.9805  0.1038 -0.4961
  225MPD1    C5 3471   2.591   1.067  12.376 -0.1701 -0.3670  0.3423
  225MPD1     H 3472   2.506   0.698  12.367  1.0806  0.3982 -1.6819
  225MPD1    H1 3473   2.378   1.105  12.420 -0.3308  0.3037  0.8808
  225MPD1    H2 3474   2.789   1.004  12.337  0.9626 -1.1359 -0.1278
  225MPD1    H3 3475   2.614   1.173  12.377 -1.3279 -0.1086 -0.8455
  225MPD1     N 3476   2.291   0.858  12.400 -0.1517 -0.5941  0.4751
  225MPD1    H5 3477   2.220   0.918  12.442 -0.5720 -0.2440 -0.7521
  225MPD1    N1 3478   2.751   0.734  12.341 -0.4322 -0.4027 -0.2649
  225MPD1    H6 3479   2.832   0.748  12.400  0.5268  0.9668 -1.9089
  225MPD1    H7 3480   2.712   0.642  12.360 -1.4569  0.6738  2.7148
  226MPD1     C 3481   1.604   1.345  10.788  0.0126 -0.3530  0.4072
  226MPD1    C1 3482   1.626   1.481  10.772 -0.1166 -0.7450  0.0519
  226MPD1    C2 3483   1.655   1.519  10.647 -0.0367 -0.9347 -0.5587
  226MPD1    C3 3484   1.674   1.437  10.539 -0.1900  0.0257  0.8193
  226MPD1    C4 3485   1.654   1.303  10.554 -0.5588  0.5967 -0.1757
  226MPD1    C5 3486   1.617   1.263  10.683 -0.8413  0.2771 -0.4475
  226MPD1     H 3487   1.669   1.625  10.631  0.6641 -0.9701 -0.1739
  226MPD1    H1 3488   1.661   1.231  10.474  1.7895 -0.4773  1.0015
  226MPD1    H2 3489   1.579   1.300  10.884 -4.3474  1.2246  0.0005
  226MPD1    H3 3490   1.598   1.159  10.706  2.1967 -0.4501 -1.1815
  226MPD1     N 3491   1.713   1.501  10.415  0.1709 -0.6688 -0.0437
  226MPD1    H5 3492   1.724   1.602  10.421 -0.6363 -0.6959  1.9446
  226MPD1    N1 3493   1.590   1.568  10.876  0.0259 -0.1054 -0.9223
  226MPD1    H6 3494   1.640   1.655  10.861  1.8974 -0.7531  1.4848
  226MPD1    H7 3495   1.607   1.535  10.971  0.2378 -0.1502 -0.9764
  227MPD1     C 3496   1.466   2.266  10.114 -0.1776  0.5858  0.0850
  227MPD1    C1 3497   1.389   2.159  10.149  0.1173 -0.3719  0.9263
  227MPD1    C2 3498   1.442   2.033  10.139  0.3376  0.2861  0.9079
  227MPD1    C3 3499   1.574   2.004  10.106  0.6217 -0.7883 -0.3007
  227MPD1    C4 3500   1.655   2.113  10.075 -0.7240  0.0293  0.5043
  227MPD1    C5 3501   1.596   2.234  10.072 -0.1340 -0.2507 -0.5490
  227MPD1     H 3502   1.384   1.946  10.167  1.2759 -0.0784  1.7214
  227MPD1    H1 3503   1.759   2.103  10.045 -1.4182 -2.4189 -1.0428
  227MPD1    H2 3504   1.424   2.363  10.089 -1.4395  0.5541  2.0976
  227MPD1    H3 3505   1.656   2.312  10.026 -0.8715  0.4090 -0.3841
  227MPD1     N 3506   1.628   1.873  10.104 -0.0486  0.0116 -0.7123
  227MPD1    H5 3507   1.581   1.797  10.152 -0.9079  0.6739 -0.5128
  227MPD1    N1 3508   1.258   2.171  10.183 -0.4045 -0.1845  0.3283
  227MPD1    H6 3509   1.223   2.265  10.203  0.8550  0.5208 -0.7842
  227MPD1    H7 3510   1.222   2.093  10.236 -1.0118 -0.0830  0.0707
  228MPD1     C 3511   4.489   3.281  13.456 -0.1862 -0.3918 -0.4317
  228MPD1    C1 3512   4.429   3.301  13.329 -0.2822 -0.1635 -0.4685
  228MPD1    C2 3513   4.290   3.278  13.330  0.1731 -0.3334 -0.1013
  228MPD1    C3 3514   4.218   3.228  13.439 -0.0502 -0.3506  0.0280
  228MPD1    C4 3515   4.289   3.213  13.556 -0.0078  0.2018 -0.6730
  228MPD1    C5 3516   4.425   3.239  13.566 -0.4776 -0.2402  0.3197
  228MPD1     H 3517   4.236   3.302  13.240  1.0431  0.6560 -0.3688
  228MPD1    H1 3518   4.238   3.185  13.648  0.6809  0.7756 -0.1257
  228MPD1    H2 3519   4.594   3.301  13.471  0.5272 -1.7100 -3.5855
  228MPD1    H3 3520   4.482   3.230  13.657 -1.0164  1.7109  0.8617
  228MPD1     N 3521   4.080   3.205  13.424  0.0363  0.5369  0.0138
  228MPD1    H5 3522   4.037   3.217  13.332  2.8862 -2.1974 -1.6960
  228MPD1    N1 3523   4.505   3.346  13.223  0.3293 -0.0483 -0.2191
  228MPD1    H6 3524   4.604   3.321  13.228 -0.3120 -2.7128 -1.0126
  228MPD1    H7 3525   4.465   3.322  13.133 -1.3588 -1.8418  1.0258
  229MPD1     C 3526   3.642   1.811  14.768  0.0644  0.3518 -0.1570
  229MPD1    C1 3527   3.591   1.872  14.876  0.7996  0.1346  0.2010
  229MPD1    C2 3528   3.634   1.828  14.997  0.9608 -0.3425  0.2170
  229MPD1    C3 3529   3.709   1.709  15.010 -0.1372 -0.2748  0.0263
  229MPD1    C4 3530   3.748   1.643  14.901 -0.9156  0.0841  0.4805
  229MPD1    C5 3531   3.713   1.694  14.778 -0.6148 -0.3141 -0.7913
  229MPD1     H 3532   3.603   1.889  15.082  1.6263 -0.7082  0.7176
  229MPD1    H1 3533   3.806   1.551  14.899  0.0393  0.7408 -1.8099
  229MPD1    H2 3534   3.606   1.836  14.669 -1.5457  0.7256  0.5328
  229MPD1    H3 3535   3.736   1.636  14.689  2.3743  1.1019 -0.9688
  229MPD1     N 3536   3.746   1.663  15.135 -1.3144  0.5369 -0.1226
  229MPD1    H5 3537   3.800   1.577  15.147 -1.9654 -0.0301 -1.2658
  229MPD1    N1 3538   3.529   2.000  14.864  0.0417  0.5855 -0.6618
  229MPD1    H6 3539   3.466   2.028  14.940  0.3201  1.6711 -0.8311
  229MPD1    H7 3540   3.477   2.014  14.778 -0.8755 -1.1221 -0.3749
  230MPD1     C 3541   3.869   1.917  16.197  0.0183 -0.5065 -0.0731
  230MPD1    C1 3542   3.872   1.778  16.190  0.5076  1.1456 -0.0113
  230MPD1    C2 3543   3.882   1.724  16.063  0.1271 -0.2476  0.3493
  230MPD1    C3 3544   3.898   1.804  15.952  0.0517  0.7437 -0.5560
  230MPD1    C4 3545   3.924   1.941  15.966 -1.1149 -0.3961 -0.4868
  230MPD1    C5 3546   3.901   1.999  16.089  0.2369  0.4561 -0.3034
  230MPD1     H 3547   3.853   1.620  16.053  1.5179 -0.7583  1.7741
  230MPD1    H1 3548   3.953   2.005  15.883  0.7610 -0.3149  0.2403
  230MPD1    H2 3549   3.858   1.952  16.299 -0.2848  1.6699 -0.8409
  230MPD1    H3 3550   3.916   2.107  16.092 -1.3541  0.7090 -1.2792
  230MPD1     N 3551   3.888   1.741  15.830  0.0798  0.0282 -0.0066
  230MPD1    H5 3552   3.877   1.640  15.831 -0.7926  0.1213 -0.2611
  230MPD1    N1 3553   3.828   1.704  16.302  0.4695  0.2172 -1.1599
  230MPD1    H6 3554   3.852   1.605  16.298  0.0138  0.1078 -1.1683
  230MPD1    H7 3555   3.867   1.730  16.392  0.9556 -0.5472 -1.1495
  231MPD1     C 3556   2.119   3.770  15.735 -0.1978 -0.5821  0.3576
  231MPD1    C1 3557   2.065   3.725  15.622  0.0329  0.7067 -0.7109
  231MPD1    C2 3558   2.119   3.768  15.503  0.5013 -0.3182 -0.2670
  231MPD1    C3 3559   2.229   3.851  15.501 -0.6395 -0.1865 -0.1155
  231MPD1    C4 3560   2.273   3.904  15.619  0.0006 -0.0098  0.4305
  231MPD1    C5 3561   2.220   3.862  15.734  0.0539 -0.2613 -0.5403
  231MPD1     H 3562   2.065   3.736  15.415  1.3815  1.9888 -1.6722
  231MPD1    H1 3563   2.355   3.975  15.623 -1.6476  2.0292 -2.0104
  231MPD1    H2 3564   2.079   3.734  15.830 -0.9108 -1.4180 -0.2630
  231MPD1    H3 3565   2.258   3.898  15.828 -0.2601 -1.0047 -0.1299
  231MPD1     N 3566   2.289   3.885  15.373 -0.4332 -0.1902  0.2023
  231MPD1    H5 3567   2.231   3.876  15.290 -0.2592  0.8197 -0.0194
  231MPD1    N1 3568   1.957   3.635  15.622  0.6822  0.3049 -0.3420
  231MPD1    H6 3569   1.940   3.603  15.527  1.4122  0.4086 -0.5069
  231MPD1    H7 3570   1.870   3.684  15.643 -1.4143 -4.2816  1.9079
  232MPD1     C 3571   3.784   1.124   0.261 -0.7368  0.0192 -0.3180
  232MPD1    C1 3572   3.813   1.042   0.377 -0.3252 -0.4224  0.0215
  232MPD1    C2 3573   3.812   0.904   0.356 -0.0316  0.2856 -0.1623
  232MPD1    C3 3574   3.756   0.852   0.238 -0.3120 -0.8940  0.8583
  232MPD1    C4 3575   3.712   0.936   0.144 -0.4383 -0.2048  0.3773
  232MPD1    C5 3576   3.728   1.069   0.151 -0.8628 -0.3264  0.2616
  232MPD1     H 3577   3.857   0.838   0.428 -1.4269 -1.2152 -0.6480
  232MPD1    H1 3578   3.644   0.899   0.067 -0.2368 -0.1095  0.1549
  232MPD1    H2 3579   3.808   1.229   0.258  3.6570 -0.9842  0.2030
  232MPD1    H3 3580   3.692   1.125   0.065 -0.6091  1.2819  1.2041
  232MPD1     N 3581   3.725   0.715   0.233 -0.2902 -0.1004 -0.7558
  232MPD1    H5 3582   3.736   0.669   0.322 -0.5012  1.9988  0.3603
  232MPD1    N1 3583   3.873   1.096   0.494  0.8404  0.3416  0.2345
  232MPD1    H6 3584   3.854   1.196   0.503  2.0480  0.6243 -0.3379
  232MPD1    H7 3585   3.845   1.060   0.585 -0.1097 -0.0367 -0.2082
  233MPD1     C 3586   4.715   0.110  16.940  0.5266  0.2217 -0.6417
  233MPD1    C1 3587   4.701   4.713  16.938 -0.3317 -0.3119  0.1412
  233MPD1    C2 3588   0.004   4.636  17.046 -0.1968  0.1673 -0.9490
  233MPD1    C3 3589   0.048   4.702  17.162 -0.0500  0.5960  0.4707
  233MPD1    C4 3590   0.065   0.104  17.156  0.4649  0.1990 -0.2930
  233MPD1    C5 3591   0.021   0.174  17.048 -0.3668  0.0423  0.2198
  233MPD1     H 3592   4.730   4.529  17.046  0.8342  0.0180  1.2438
  233MPD1    H1 3593   0.104   0.157  17.242 -1.9753  0.9882  0.3270
  233MPD1    H2 3594   4.688   0.172  16.855  0.8746 -2.4409 -2.7112
  233MPD1    H3 3595   0.038   0.281  17.051 -1.6271  0.2298  0.7809
  233MPD1     N 3596   0.081   4.640  17.288 -0.0956 -0.1939  0.5891
  233MPD1    H5 3597   0.134   4.694  17.356 -1.7244 -0.6907  2.2564
  233MPD1    N1 3598   4.660   4.648  16.817  0.0990  0.6470  0.2749
  233MPD1    H6 3599   4.589   4.707  16.775 -3.1235 -1.6263  2.5955
  233MPD1    H7 3600   4.633   4.553  16.838 -0.0589  0.3994 -1.1223
  234MPD1     C 3601   1.748   3.292  10.144  0.3836  0.1870  0.1947
  234MPD1    C1 3602   1.814   3.361  10.047 -0.7290  0.1080  0.3651
  234MPD1    C2 3603   1.746   3.424   9.945 -0.1118 -0.5355 -0.1612
  234MPD1    C3 3604   1.607   3.426   9.945 -0.0988 -0.4276  0.7341
  234MPD1    C4 3605   1.541   3.366  10.050  0.7577  0.2182 -0.4230
  234MPD1    C5 3606   1.609   3.301  10.145  0.9508  0.4400  0.2341
  234MPD1     H 3607   1.803   3.474   9.868  1.9852  0.0968  1.7757
  234MPD1    H1 3608   1.433   3.367  10.059  0.5136 -1.8137 -3.2659
  234MPD1    H2 3609   1.800   3.237  10.221  0.9136 -0.4646 -0.6236
  234MPD1    H3 3610   1.552   3.267  10.230  0.1654  1.0575 -0.0532
  234MPD1     N 3611   1.543   3.499   9.845 -0.0127  0.1583  0.5321
  234MPD1    H5 3612   1.592   3.518   9.758 -0.0124  0.5629  0.6181
  234MPD1    N1 3613   1.956   3.365  10.055 -0.0276  0.2809  0.0556
  234MPD1    H6 3614   1.984   3.362  10.152 -1.1719 -0.1841  0.3608
  234MPD1    H7 3615   1.988   3.457  10.023  2.9924 -0.5740  0.6062
  235MPD1     C 3616   2.812   0.219  10.530 -0.0814  0.1708 -0.5724
  235MPD1    C1 3617   2.899   0.287  10.611  0.9595  0.2874 -0.2566
  235MPD1    C2 3618   2.918   0.422  10.592 -0.1854  0.1888 -0.8669
  235MPD1    C3 3619   2.862   0.489  10.487 -0.2243  0.0316 -1.0035
  235MPD1    C4 3620   2.785   0.412  10.400  0.1443  0.1258 -0.7794
  235MPD1    C5 3621   2.760   0.285  10.427 -0.0860 -0.1564 -0.3457
  235MPD1     H 3622   2.982   0.477  10.660 -0.3707 -0.9540  0.2429
  235MPD1    H1 3623   2.723   0.455  10.322  1.8761  4.8739  0.4532
  235MPD1    H2 3624   2.766   0.126  10.561 -0.9191  1.9809  3.5404
  235MPD1    H3 3625   2.673   0.243  10.379 -0.1583  0.8003 -1.0279
  235MPD1     N 3626   2.896   0.627  10.466  0.3898 -0.2029  0.2063
  235MPD1    H5 3627   2.936   0.680  10.543  0.3027 -0.1922  0.2437
  235MPD1    N1 3628   2.948   0.229  10.725 -0.3868  0.5031 -0.0876
  235MPD1    H6 3629   3.028   0.278  10.766  0.5344 -1.2496  0.1924
  235MPD1    H7 3630   2.966   0.129  10.717 -1.4288  0.1712  1.6780
  236MPD1     C 3631   1.820   2.501   9.308  0.0682 -0.1892  0.7272
  236MPD1    C1 3632   1.905   2.565   9.402 -0.6199 -0.1745 -1.0777
  236MPD1    C2 3633   1.943   2.505   9.523  0.0553  0.7121 -0.6483
  236MPD1    C3 3634   1.892   2.382   9.554 -0.1414 -1.0006 -0.4129
  236MPD1    C4 3635   1.816   2.316   9.461 -0.7250  0.6221 -0.0690
  236MPD1    C5 3636   1.782   2.376   9.343  0.2653  0.3650  0.0674
  236MPD1     H 3637   2.016   2.546   9.591  1.2481  0.6623 -1.9020
  236MPD1    H1 3638   1.772   2.219   9.482 -1.2233  0.8399 -0.0929
  236MPD1    H2 3639   1.804   2.537   9.208 -0.3917 -1.2855  0.4053
  236MPD1    H3 3640   1.720   2.317   9.277 -0.0663  1.4089 -0.5537
  236MPD1     N 3641   1.910   2.324   9.682  0.2090  0.2876  0.1631
  236MPD1    H5 3642   1.866   2.233   9.696  1.2866 -0.2255  0.2192
  236MPD1    N1 3643   1.978   2.677   9.358  0.2927  0.7986 -0.0848
  236MPD1    H6 3644   2.018   2.733   9.434  3.2813 -2.2847  0.5916
  236MPD1    H7 3645   1.937   2.742   9.291 -0.6612  1.6083  1.2688
  237MPD1     C 3646   1.999   0.608  16.063  0.5342  0.2680 -0.5581
  237MPD1    C1 3647   2.027   0.582  15.930  0.3942 -0.6162 -0.2521
  237MPD1    C2 3648   1.966   0.470  15.872  0.2967 -0.0177  0.0406
  237MPD1    C3 3649   1.894   0.378  15.942  0.2400  0.5185 -0.4273
  237MPD1    C4 3650   1.868   0.400  16.074  0.0480 -0.0019 -0.1066
  237MPD1    C5 3651   1.919   0.515  16.125 -0.5602  0.0808 -0.0166
  237MPD1     H 3652   1.968   0.461  15.764 -0.2536 -0.1308  0.0401
  237MPD1    H1 3653   1.805   0.335  16.134 -1.2311  0.4909 -0.9354
  237MPD1    H2 3654   2.020   0.704  16.110  1.3370 -0.1018 -0.1724
  237MPD1    H3 3655   1.887   0.539  16.226  1.0952  1.9698  0.0624
  237MPD1     N 3656   1.829   0.267  15.875 -0.3078 -0.4085 -0.2878
  237MPD1    H5 3657   1.796   0.189  15.931  1.3944 -1.7961 -1.2351
  237MPD1    N1 3658   2.073   0.685  15.847  0.4320 -0.7306  0.1585
  237MPD1    H6 3659   2.148   0.738  15.889  1.9821 -2.0395 -0.9516
  237MPD1    H7 3660   2.107   0.643  15.760 -2.5091  0.1627 -1.4327
  238MPD1     C 3661   3.866   3.397  15.855  0.5339  0.0750  0.0884
  238MPD1    C1 3662   3.742   3.401  15.915  0.3473  0.0078 -0.4109
  238MPD1    C2 3663   3.638   3.353  15.834  0.3660 -0.1425  0.2101
  238MPD1    C3 3664   3.647   3.350  15.699 -0.1045  0.1938  0.8580
  238MPD1    C4 3665   3.774   3.364  15.642  0.3498  0.0615 -0.2577
  238MPD1    C5 3666   3.883   3.382  15.723  0.0091 -0.4199  0.7670
  238MPD1     H 3667   3.540   3.353  15.879  1.1792  0.4388  1.9803
  238MPD1    H1 3668   3.789   3.364  15.535  0.2602  3.6614 -0.2861
  238MPD1    H2 3669   3.956   3.412  15.913 -0.2043 -0.2651  1.3334
  238MPD1    H3 3670   3.981   3.382  15.676 -0.1756 -1.0625  0.3687
  238MPD1     N 3671   3.538   3.328  15.605  0.2146 -0.1333 -0.4370
  238MPD1    H5 3672   3.573   3.318  15.511  0.5812 -0.7662 -0.2281
  238MPD1    N1 3673   3.722   3.404  16.054 -0.4876  0.1350  0.0194
  238MPD1    H6 3674   3.626   3.430  16.074 -0.9501 -1.4318 -0.1525
  238MPD1    H7 3675   3.790   3.465  16.099  0.0688  0.3555 -1.1367
  239MPD1     C 3676   4.148   4.502  15.225 -1.3691  0.6790  0.5885
  239MPD1    C1 3677   4.009   4.511  15.234 -0.2120 -0.2053 -0.4561
  239MPD1    C2 3678   3.935   4.561  15.126  0.3061  0.4006 -0.4363
  239MPD1    C3 3679   4.008   4.579  15.004  0.0317 -0.3869 -0.8771
  239MPD1    C4 3680   4.145   4.545  14.986 -0.2860  0.4243  0.0843
  239MPD1    C5 3681   4.207   4.507  15.099 -0.2561 -0.2921 -0.2334
  239MPD1     H 3682   3.829   4.580  15.139  0.5005  1.1714  0.0389
  239MPD1    H1 3683   4.204   4.562  14.897 -0.0477 -0.0107  0.1596
  239MPD1    H2 3684   4.206   4.482  15.314 -1.3765 -1.1197  0.2003
  239MPD1    H3 3685   4.313   4.487  15.093 -0.3213 -0.2661 -1.4840
  239MPD1     N 3686   3.952   4.647  14.893  0.2328  0.1432 -0.6579
  239MPD1    H5 3687   4.002   4.634  14.805 -0.1023 -2.6754 -0.4245
  239MPD1    N1 3688   3.945   4.511  15.358 -0.1379 -0.3497  0.1675
  239MPD1    H6 3689   3.988   4.453  15.430  1.3723  2.9721  1.9170
  239MPD1    H7 3690   3.854   4.472  15.333  0.3999  0.1089 -2.4946
  240MPD1     C 3691   3.563   4.385  14.580 -0.5667  0.5833  0.4869
  240MPD1    C1 3692   3.635   4.293  14.662 -0.3014  0.3165 -0.2508
  240MPD1    C2 3693   3.563   4.196  14.725  0.5688  0.0008 -0.9415
  240MPD1    C3 3694   3.422   4.190  14.710 -0.5586 -0.6116  0.1682
  240MPD1    C4 3695   3.355   4.275  14.625 -0.4309  0.6868  0.3421
  240MPD1    C5 3696   3.429   4.373  14.564 -0.2193 -0.1841  1.4012
  240MPD1     H 3697   3.616   4.135  14.798 -0.7515  0.7164  0.6295
  240MPD1    H1 3698   3.250   4.270  14.600 -0.3336 -1.7043  0.4249
  240MPD1    H2 3699   3.615   4.464  14.526 -0.1903  0.2412  0.3509
  240MPD1    H3 3700   3.379   4.448  14.504 -0.1253 -0.6478  0.7470
  240MPD1     N 3701   3.345   4.096  14.789  0.0200 -0.0930 -0.2760
  240MPD1    H5 3702   3.401   4.039  14.851 -0.0510 -1.3679 -1.3624
  240MPD1    N1 3703   3.769   4.327  14.691  0.0426  0.0075  0.4072
  240MPD1    H6 3704   3.829   4.343  14.611 -0.2931  0.6047  0.2751
  240MPD1    H7 3705   3.826   4.257  14.739  0.0049 -0.3363 -0.0593
  241MPD1     C 3706   3.588   3.694  15.505  0.0960 -0.2757 -0.3215
  241MPD1    C1 3707   3.451   3.691  15.516 -0.1521 -0.1021  0.1841
  241MPD1    C2 3708   3.386   3.750  15.409  0.3903 -0.6498  0.4809
  241MPD1    C3 3709   3.446   3.777  15.286 -0.1038 -0.7080 -0.1671
  241MPD1    C4 3710   3.581   3.772  15.276  0.1560  0.1554 -0.2008
  241MPD1    C5 3711   3.651   3.745  15.395  0.1055  0.1984  0.0920
  241MPD1     H 3712   3.279   3.743  15.418  0.4196 -1.4932  0.1586
  241MPD1    H1 3713   3.636   3.786  15.184 -0.1871  1.5676 -0.1802
  241MPD1    H2 3714   3.644   3.659  15.591 -1.0773  0.1209  0.6010
  241MPD1    H3 3715   3.759   3.746  15.380 -0.3642  2.3791 -3.1556
  241MPD1     N 3716   3.376   3.791  15.166  0.8635 -0.9723  0.2061
  241MPD1    H5 3717   3.437   3.812  15.088 -0.2093 -1.0959 -0.6607
  241MPD1    N1 3718   3.387   3.658  15.637  0.9864 -0.5067 -1.1391
  241MPD1    H6 3719   3.439   3.586  15.687  2.0279 -0.4812 -2.2034
  241MPD1    H7 3720   3.291   3.627  15.621 -0.1455  0.6616  3.3283
  242MPD1     C 3721   3.103   1.597  15.946  0.0824  0.2977  0.9445
  242MPD1    C1 3722   3.002   1.624  15.849  0.0730  0.4433 -0.1321
  242MPD1    C2 3723   3.005   1.745  15.780  1.1096  0.6330 -1.1317
  242MPD1    C3 3724   3.110   1.829  15.804 -0.2164 -0.5872  0.5791
  242MPD1    C4 3725   3.211   1.797  15.887  0.7962  0.2518  0.2495
  242MPD1    C5 3726   3.203   1.684  15.960 -0.1432 -0.1452  0.5685
  242MPD1     H 3727   2.926   1.762  15.707 -1.4272  0.5679  1.6038
  242MPD1    H1 3728   3.295   1.864  15.901  0.7335  0.2824  0.4738
  242MPD1    H2 3729   3.110   1.508  16.008  3.7744  0.2127  0.3802
  242MPD1    H3 3730   3.293   1.661  16.017 -0.0332  0.2329  0.5460
  242MPD1     N 3731   3.128   1.949  15.727 -0.2207  0.5540  0.0329
  242MPD1    H5 3732   3.212   2.005  15.738 -0.5330  1.0194  0.0067
  242MPD1    N1 3733   2.900   1.529  15.827  0.2986  0.4227 -0.2413
  242MPD1    H6 3734   2.919   1.440  15.873  1.9162  0.1299 -1.4863
  242MPD1    H7 3735   2.806   1.567  15.835  0.2602  0.6560 -1.8875
  243MPD1     C 3736   3.746   1.143  17.545  0.0133 -0.6410 -0.2850
  243MPD1    C1 3737   3.786   1.014  17.514  0.0968  0.0458 -0.6092
  243MPD1    C2 3738   3.913   0.995  17.470  0.0345  0.8162  0.6480
  243MPD1    C3 3739   4.006   1.094  17.468 -0.3389  0.1697 -0.5059
  243MPD1    C4 3740   3.967   1.213  17.520 -0.1230 -0.2113 -0.1993
  243MPD1    C5 3741   3.836   1.239  17.559  0.1602 -0.2687 -0.8607
  243MPD1     H 3742   3.936   0.894  17.437 -0.8673 -0.3482  3.5730
  243MPD1    H1 3743   4.035   1.297  17.523  0.0643 -0.4408  1.7116
  243MPD1    H2 3744   3.642   1.162  17.569  0.7881  1.6340  1.2530
  243MPD1    H3 3745   3.812   1.340  17.591 -2.3674 -0.5264 -1.9354
  243MPD1     N 3746   4.136   1.072  17.417 -0.0921  0.4827  0.2909
  243MPD1    H5 3747   4.143   0.981  17.372  0.1501  1.5654 -1.8382
  243MPD1    N1 3748   3.696   0.906  17.493 -0.6515 -0.0787  0.0951
  243MPD1    H6 3749   3.739   0.814  17.500  1.1822  0.6447 -1.5678
  243MPD1    H7 3750   3.614   0.918  17.552 -0.7191  3.7068 -0.7402
  244MPD1     C 3751   0.281   0.678   0.053  0.7291  0.0554  0.0080
  244MPD1    C1 3752   0.297   0.664  17.673 -0.1389 -0.1064 -0.2135
  244MPD1    C2 3753   0.191   0.706  17.596  0.0542 -0.1923  0.1867
  244MPD1    C3 3754   0.074   0.762  17.646 -0.3636  0.8775  0.2858
  244MPD1    C4 3755   0.062   0.782   0.021 -0.7241  0.4116  0.4738
  244MPD1    C5 3756   0.160   0.737   0.105  0.3965  0.0896 -0.2733
  244MPD1     H 3757   0.205   0.699  17.488 -0.3931 -0.6863  0.1547
  244MPD1    H1 3758   4.731   0.842   0.076 -2.0389 -0.1140 -0.6822
  244MPD1    H2 3759   0.365   0.648   0.115 -0.2980 -1.6273  0.5907
  244MPD1    H3 3760   0.145   0.749   0.211 -1.8712 -1.4541 -0.4063
  244MPD1     N 3761   4.710   0.810  17.550 -0.1714 -0.4316  0.0459
  244MPD1    H5 3762   4.719   0.771  17.457  1.3046  1.5193 -0.6115
  244MPD1    N1 3763   0.420   0.614  17.612  0.1547 -0.2560 -0.3630
  244MPD1    H6 3764   0.437   0.520  17.646 -0.5847 -0.5007 -0.6756
  244MPD1    H7 3765   0.407   0.595  17.513  1.8227 -0.8035 -0.4819
  245MPD1     C 3766   1.765   1.064  13.128 -0.3910 -0.1695 -0.0711
  245MPD1    C1 3767   1.774   1.092  13.262 -0.0851  0.4233 -1.1408
  245MPD1    C2 3768   1.832   1.210  13.292 -0.3228 -0.3504 -0.2670
  245MPD1    C3 3769   1.857   1.310  13.197  0.5869 -0.8458 -0.2177
  245MPD1    C4 3770   1.846   1.278  13.066 -0.1603  0.2251  0.4074
  245MPD1    C5 3771   1.799   1.156  13.031 -0.2194 -0.5740 -0.2819
  245MPD1     H 3772   1.857   1.234  13.395  0.5925 -1.3760 -0.2585
  245MPD1    H1 3773   1.886   1.347  12.992 -3.3180  1.4530 -0.1624
  245MPD1    H2 3774   1.739   0.963  13.097  1.3461 -0.6347 -0.0128
  245MPD1    H3 3775   1.798   1.131  12.926 -0.2117  0.7553 -0.6014
  245MPD1     N 3776   1.930   1.428  13.245  0.3628  0.1862  0.0557
  245MPD1    H5 3777   1.957   1.432  13.342 -0.6307  2.0325  0.2519
  245MPD1    N1 3778   1.757   0.994  13.360  0.0130  0.4180  0.2228
  245MPD1    H6 3779   1.745   1.032  13.454  3.7601 -0.3577  1.0324
  245MPD1    H7 3780   1.696   0.916  13.337  0.8721  0.2444 -1.4447
  246MPD1     C 3781   1.090   3.886   8.871 -1.0217 -0.6402  0.6383
  246MPD1    C1 3782   0.965   3.821   8.881 -0.3978  0.0102 -0.4602
  246MPD1    C2 3783   0.960   3.699   8.938 -0.9427 -0.1435 -0.5204
  246MPD1    C3 3784   1.078   3.632   8.980 -0.0071 -0.3214  0.0091
  246MPD1    C4 3785   1.196   3.699   8.974  0.0288  0.3862 -0.6909
  246MPD1    C5 3786   1.205   3.820   8.908  0.0126  0.4515 -0.6204
  246MPD1     H 3787   0.862   3.653   8.948 -2.0188  2.0869 -0.7643
  246MPD1    H1 3788   1.287   3.647   9.002  1.1137  2.7894  0.2606
  246MPD1    H2 3789   1.089   3.990   8.840  1.7097 -1.2458 -1.4774
  246MPD1    H3 3790   1.296   3.879   8.903 -0.5556  1.4854  1.4154
  246MPD1     N 3791   1.054   3.498   9.024  0.0295  1.0088 -0.4225
  246MPD1    H5 3792   0.960   3.463   9.016  0.3120  0.4359 -1.1924
  246MPD1    N1 3793   0.851   3.885   8.842 -0.6916  0.6505 -0.3170
  246MPD1    H6 3794   0.866   3.947   8.762 -3.0794  1.4836 -0.1212
  246MPD1    H7 3795   0.773   3.820   8.837  0.1838 -0.3386 -0.9686
  247MPD1     C 3796   1.130   2.347  15.622  0.3777  0.2284  0.7637
  247MPD1    C1 3797   1.074   2.290  15.740 -0.2514 -0.2780  0.5215
  247MPD1    C2 3798   1.054   2.158  15.752  0.6139 -0.4323 -0.2262
  247MPD1    C3 3799   1.074   2.075  15.642 -0.2176  0.3197  1.2992
  247MPD1    C4 3800   1.124   2.128  15.527  0.2537 -0.0058 -0.0888
  247MPD1    C5 3801   1.149   2.262  15.517 -0.3793  0.2315 -0.0704
  247MPD1     H 3802   1.015   2.114  15.844 -1.1815  1.5143 -0.0602
  247MPD1    H1 3803   1.148   2.064  15.443 -0.4439  1.0303 -1.0727
  247MPD1    H2 3804   1.144   2.453  15.604 -0.6200  0.2619  0.1790
  247MPD1    H3 3805   1.188   2.306  15.426 -1.3650  1.4682  0.0988
  247MPD1     N 3806   1.054   1.939  15.640  0.0572  0.0196 -0.4433
  247MPD1    H5 3807   1.083   1.882  15.561  1.6408  1.2086 -0.7284
  247MPD1    N1 3808   1.057   2.370  15.846  0.4693 -0.3679  0.3031
  247MPD1    H6 3809   0.995   2.338  15.920 -0.9009  1.4305 -0.0665
  247MPD1    H7 3810   1.028   2.465  15.822  0.9327 -0.3880 -0.3467
  248MPD1     C 3811   2.335   1.153  17.731  0.1578 -0.6631  0.1272
  248MPD1    C1 3812   2.394   1.234   0.061 -0.0025  0.7944 -0.2085
  248MPD1    C2 3813   2.323   1.259   0.181 -0.4307 -0.1667  0.4175
  248MPD1    C3 3814   2.203   1.202   0.202  0.5671 -0.5662 -0.3852
  248MPD1    C4 3815   2.148   1.116   0.113  0.3696  0.3878  0.0050
  248MPD1    C5 3816   2.216   1.099  17.748  0.5040  0.3684 -0.9233
  248MPD1     H 3817   2.365   1.317   0.262  0.8896 -0.1517 -0.2766
  248MPD1    H1 3818   2.066   1.047   0.131  0.5871 -0.4690 -2.3443
  248MPD1    H2 3819   2.375   1.134  17.632 -1.8584 -0.0602 -0.8091
  248MPD1    H3 3820   2.179   1.038  17.666 -2.0154  2.1335 -1.1010
  248MPD1     N 3821   2.138   1.225   0.324 -0.3546  0.4488 -0.1357
  248MPD1    H5 3822   2.177   1.282   0.398 -0.1325  0.4487 -0.2529
  248MPD1    N1 3823   2.515   1.290   0.033 -0.3971  0.4298  0.1286
  248MPD1    H6 3824   2.522   1.287  17.691  1.0711  1.6119  0.2048
  248MPD1    H7 3825   2.524   1.387   0.062 -0.5694 -0.0935  1.8832
  249MPD1     C 3826   3.907   0.528  11.173  0.3155 -0.3645 -0.2919
  249MPD1    C1 3827   3.853   0.583  11.061 -0.2493 -0.3211 -0.2584
  249MPD1    C2 3828   3.851   0.503  10.945  0.2551  0.0611  0.2383
  249MPD1    C3 3829   3.887   0.375  10.942  0.5014 -0.4410  0.2277
  249MPD1    C4 3830   3.944   0.317  11.055  0.0724  0.8001 -1.0337
  249MPD1    C5 3831   3.959   0.400  11.170 -0.2099 -0.4154  0.0058
  249MPD1     H 3832   3.809   0.546  10.855  0.9261 -0.6311 -0.4056
  249MPD1    H1 3833   3.996   0.221  11.053  0.8492  1.2329 -1.5821
  249MPD1    H2 3834   3.926   0.582  11.265 -0.8408 -0.3983 -0.0369
  249MPD1    H3 3835   4.008   0.373  11.262  0.6133 -0.0172 -0.3150
  249MPD1     N 3836   3.857   0.300  10.829  0.6626 -0.0901 -0.7336
  249MPD1    H5 3837   3.819   0.348  10.749  0.7608 -0.3486 -0.9337
  249MPD1    N1 3838   3.794   0.712  11.056  0.3838  0.7999 -0.2424
  249MPD1    H6 3839   3.813   0.777  11.133  1.9500 -0.5175  0.4737
  249MPD1    H7 3840   3.804   0.773  10.975  1.0357 -0.2065 -0.9146
  250MPD2     C 3841   0.071   0.525  12.731  0.0607 -0.5187  0.0871
  250MPD2    C1 3842   0.059   0.445  12.835  0.1847 -0.0118  0.0078
  250MPD2    C2 3843   4.733   0.321  12.816  0.7993  0.3202 -0.3921
  250MPD2    C3 3844   4.693   0.281  12.687  0.4658  0.1662 -0.1981
  250MPD2    C4 3845   4.723   0.364  12.580  0.1105  0.0607  0.3082
  250MPD2    C5 3846   0.035   0.490  12.606  0.1044  0.0397  1.3656
  250MPD2     H 3847   4.709   0.251  12.895  2.6877 -0.2783 -0.3426
  250MPD2    H1 3848   4.699   0.327  12.481 -0.4321 -0.7987  0.7660
  250MPD2    H2 3849   0.123   0.620  12.733 -2.4757  0.8781 -0.3864
  250MPD2    H3 3850   0.061   0.543  12.515 -2.3226 -1.8569 -0.4470
  250MPD2     N 3851   4.652   0.149  12.645 -0.1422  0.0618  0.9902
  250MPD2    H5 3852   4.675   0.125  12.549  2.0855  2.3824  0.9319
  250MPD2    N1 3853   0.123   0.478  12.960  1.2241 -0.1610 -0.0173
  250MPD2    H7 3854   0.196   0.549  12.959  0.1528  0.9338 -0.3442
  251TMC3    C1 3855   0.185   0.498  13.180 -0.3645  0.4195  0.0993
  251TMC3    C2 3856   0.137   0.547  13.300 -0.1074  0.0809 -0.0430
  251TMC3    C3 3857   0.215   0.634  13.360  0.2048  0.2511 -0.0795
  251TMC3    C4 3858   0.310   0.525  13.131 -0.4592  0.1790  0.4811
  251TMC3    C5 3859   0.388   0.607  13.206  0.6375  0.5857 -0.3328
  251TMC3    C6 3860   0.344   0.652  13.322 -0.0352  0.1542 -0.0016
  251TMC3     C 3861   0.097   0.434  13.084 -0.0207  0.7818  0.1321
  251TMC3     O 3862   4.740   0.370  13.118  0.1402 -0.1455 -0.3572
  251TMC3     H 3863   0.031   0.554  13.321 -0.0681 -1.6248  0.6993
  251TMC3    H1 3864   0.357   0.477  13.047  0.4967  0.1065  1.0573
  251TMC3    H2 3865   0.412   0.716  13.377  1.9395 -0.7887 -1.3923
  251TMC3    C7 3866   0.528   0.569  13.209  0.2664  0.3113 -0.2172
  251TMC3    C8 3867   0.152   0.743  13.437 -1.0047  0.7090  0.2432
  251TMC3    O1 3868   0.547   0.450  13.208  0.0352  0.2356 -0.3564
  251TMC3    O2 3869   0.059   0.716  13.510  0.1605  0.0796  0.2491
  252TMC3    C1 3870   4.603   1.840  10.037  0.2405 -0.0505 -0.2641
  252TMC3    C2 3871   4.726   1.875   9.982  0.0640  0.0042  0.6381
  252TMC3    C3 3872   0.097   1.802  10.009 -0.1045  0.6800 -0.6854
  252TMC3    C4 3873   4.594   1.722  10.115 -0.3035 -0.5974  0.5900
  252TMC3    C5 3874   4.712   1.655  10.141 -0.5100  0.3406  0.1371
  252TMC3    C6 3875   0.093   1.686  10.083 -0.0114  0.2575  0.1631
  252TMC3     C 3876   4.487   1.919  10.005  0.2802  0.2477  0.2024
  252TMC3     O 3877   4.506   2.026   9.953  0.0113 -0.0957  0.4016
  252TMC3     H 3878   4.737   1.971   9.933  1.0463  0.4737  1.7857
  252TMC3    H1 3879   4.502   1.703  10.171 -2.4754  0.2445 -2.6820
  252TMC3    H2 3880   0.179   1.620  10.078  0.6275  1.1854 -1.2959
  252TMC3    C7 3881   4.689   1.522  10.195  0.6979 -1.6182 -0.0748
  252TMC3    C8 3882   0.225   1.861   9.981 -0.6981 -0.4463  0.4860
  252TMC3    O1 3883   4.578   1.477  10.166 -0.4495 -0.4955  0.3832
  252TMC3    O2 3884   0.239   1.934   9.886 -0.2232  0.2278 -0.0067
  253MPD2     C 3885   1.461   0.175  15.905 -0.1318 -0.2858  0.0667
  253MPD2    C1 3886   1.342   0.119  15.845 -0.2955  0.2398  0.2975
  253MPD2    C2 3887   1.266   0.020  15.899 -0.2306  0.8001 -0.0409
  253MPD2    C3 3888   1.305   4.716  16.025 -0.0988 -0.0485 -0.1335
  253MPD2    C4 3889   1.411   0.040  16.093 -0.9885  0.1642 -0.3900
  253MPD2    C5 3890   1.495   0.126  16.028 -0.3872  0.3908 -0.7210
  253MPD2     H 3891   1.175   4.730  15.849 -1.2330 -2.1339  3.5194
  253MPD2    H1 3892   1.445   0.007  16.190  0.4189  0.8090 -0.6641
  253MPD2    H2 3893   1.530   0.237  15.848 -2.0945  1.9890  0.1548
  253MPD2    H3 3894   1.592   0.153  16.069 -0.4762 -2.1727  1.1789
  253MPD2     N 3895   1.243   4.610  16.093 -0.2997  0.0827  0.0302
  253MPD2    H5 3896   1.273   4.593  16.188  0.8424  0.7847 -0.2113
  253MPD2    N1 3897   1.285   0.171  15.722  0.1878  0.1958 -0.3009
  253MPD2    H7 3898   1.187   0.156  15.700  0.6923 -0.1980 -2.2739
  254TMC3    C1 3899   1.088   4.441  16.127 -0.6295 -0.7925  0.9649
  254TMC3    C2 3900   0.958   4.416  16.112  0.0633 -0.3908 -0.3919
  254TMC3    C3 3901   0.885   4.384  16.217 -0.4584  0.5674 -0.1121
  254TMC3    C4 3902   1.160   4.411  16.242  0.8516 -0.2644 -0.0575
  254TMC3    C5 3903   1.079   4.362  16.344 -0.0822  0.4678  0.2062
  254TMC3    C6 3904   0.942   4.347  16.335 -0.3107  0.3796 -0.1084
  254TMC3     C 3905   1.140   4.538  16.032 -0.4355  1.3395 -0.1343
  254TMC3     O 3906   1.072   4.556  15.928 -0.4423  0.0613  0.2586
  254TMC3     H 3907   0.911   4.411  16.015  0.0155 -1.8200 -0.2902
  254TMC3    H1 3908   1.267   4.426  16.247  0.8952 -0.8147  0.7805
  254TMC3    H2 3909   0.878   4.335  16.423  0.5919 -0.1204  0.4790
  254TMC3    C7 3910   1.136   4.318  16.473 -0.3027  0.1167 -0.2234
  254TMC3    C8 3911   0.785   4.486  16.245 -0.6852 -0.1571 -0.5176
  254TMC3    O1 3912   1.260   4.299  16.468 -0.1340 -0.8608  0.8586
  254TMC3    O2 3913   0.755   4.487  16.362  0.2162  0.0981  0.4776
  255MPD2     C 3914   3.929   2.542  10.949 -0.3576  0.4818  0.0954
  255MPD2    C1 3915   4.000   2.651  10.904  1.2692  0.5067  0.0530
  255MPD2    C2 3916   4.130   2.639  10.871 -0.1969 -0.5292 -0.1211
  255MPD2    C3 3917   4.193   2.516  10.890 -0.0028  0.6418 -0.5415
  255MPD2    C4 3918   4.121   2.405  10.946  0.9651  0.3161 -0.1506
  255MPD2    C5 3919   3.990   2.424  10.973 -0.7731 -0.5001  0.2283
  255MPD2     H 3920   4.191   2.718  10.828 -1.8273  0.1946 -1.1044
  255MPD2    H1 3921   4.161   2.306  10.964  1.5472  0.0983 -2.6765
  255MPD2    H2 3922   3.827   2.546  10.985 -0.8939 -2.9025 -1.0778
  255MPD2    H3 3923   3.938   2.341  11.020 -0.2711 -0.2324  1.2725
  255MPD2     N 3924   4.320   2.498  10.842  0.0057 -0.3189  0.0100
  255MPD2    H5 3925   4.380   2.580  10.833  0.1160 -0.1770  2.0396
  255MPD2    N1 3926   3.924   2.774  10.882  0.1541 -0.4262 -0.0116
  255MPD2    H7 3927   3.822   2.776  10.881  0.1671  0.2291  0.1088
  256TMC3    C1 3928   3.873   2.994  10.831  0.1948  1.3357  1.1772
  256TMC3    C2 3929   3.881   3.103  10.909  0.5276 -0.8396 -0.1984
  256TMC3    C3 3930   3.802   3.208  10.883  0.1660  0.2009  0.8687
  256TMC3    C4 3931   3.799   2.986  10.719 -0.2227  0.5426  0.8723
  256TMC3    C5 3932   3.729   3.105  10.691 -0.8507  0.1542 -0.3908
  256TMC3    C6 3933   3.729   3.218  10.770 -0.1177  0.3602 -0.2099
  256TMC3     C 3934   3.980   2.897  10.859  0.3299 -0.1155  0.6675
  256TMC3     O 3935   4.093   2.938  10.866 -0.8326  0.6719  0.2041
  256TMC3     H 3936   3.949   3.106  10.993 -0.0290 -2.0578  0.2935
  256TMC3    H1 3937   3.811   2.904  10.649 -2.6404 -2.2010  3.6138
  256TMC3    H2 3938   3.662   3.303  10.761 -2.7837 -1.5778  1.3161
  256TMC3    C7 3939   3.712   3.125  10.552 -0.5433  0.4849  0.4876
  256TMC3    C8 3940   3.861   3.336  10.940  0.4126  0.1586  0.6465
  256TMC3    O1 3941   3.697   3.027  10.482 -0.2009 -0.3069  0.2586
  256TMC3    O2 3942   3.802   3.441  10.923 -0.5318 -0.4631  0.3018
  257MPD2     C 3943   3.349   4.674  13.269  1.1477  0.4576  0.0040
  257MPD2    C1 3944   3.467   4.678  13.197  0.3722 -0.5053 -0.2916
  257MPD2    C2 3945   3.566   4.584  13.205 -0.6193 -0.4128 -0.4190
  257MPD2    C3 3946   3.544   4.477  13.297  0.5964  0.1636  0.1223
  257MPD2    C4 3947   3.427   4.479  13.376  0.4734  1.1198  0.2580
  257MPD2    C5 3948   3.328   4.576  13.363 -0.0875  0.0693  0.1340
  257MPD2     H 3949   3.661   4.586  13.153 -0.2789 -0.5783  0.1884
  257MPD2    H1 3950   3.412   4.407  13.456  1.2178 -0.9263 -1.4436
  257MPD2    H2 3951   3.278   0.015  13.267 -0.2433 -0.8070 -1.5132
  257MPD2    H3 3952   3.240   4.594  13.424 -1.2031 -0.6409 -1.2583
  257MPD2     N 3953   3.640   4.367  13.297 -0.0244  0.5098 -0.1086
  257MPD2    H5 3954   3.715   4.382  13.229  2.3667 -1.8813  2.0033
  257MPD2    N1 3955   3.488   0.053  13.115  0.3741 -0.3419 -0.0531
  257MPD2    H7 3956   3.415   0.124  13.108  2.0216  1.3543 -0.0308
  258TMC3    C1 3957   3.755   4.166  13.395  0.1703 -0.2141  0.0250
  258TMC3    C2 3958   3.870   4.202  13.329  0.6131  0.0263  0.5011
  258TMC3    C3 3959   3.988   4.163  13.383  0.1487 -0.7217  0.6523
  258TMC3    C4 3960   3.763   4.090  13.511 -0.0306  0.0639  0.5280
  258TMC3    C5 3961   3.881   4.056  13.556  0.2335 -0.6213 -0.3019
  258TMC3    C6 3962   4.003   4.086  13.497 -0.6602 -0.3439 -0.6570
  258TMC3     C 3963   3.644   4.268  13.396 -0.2446  0.2036  0.2560
  258TMC3     O 3964   3.569   4.256  13.493 -0.0445  0.1119  0.3173
  258TMC3     H 3965   3.872   4.267  13.242 -2.5481  1.3562  1.4290
  258TMC3    H1 3966   3.671   4.067  13.565 -1.2099  2.3928 -0.4881
  258TMC3    H2 3967   4.096   4.036  13.522 -0.0831  1.6926  1.2289
  258TMC3    C7 3968   3.880   4.026  13.699 -0.4680 -1.2285  0.1367
  258TMC3    C8 3969   4.111   4.178  13.308  0.0768  0.2463  0.1047
  258TMC3    O1 3970   3.783   3.963  13.736  0.6872  0.6626  0.4190
  258TMC3    O2 3971   4.213   4.187  13.380  0.2040  0.5070  0.3537
  259MPD2     C 3972   2.861   1.651   0.490 -0.5546  0.4430  0.2932
  259MPD2    C1 3973   2.885   1.545   0.573  0.6954 -0.4227 -0.0355
  259MPD2    C2 3974   2.922   1.425   0.515 -0.3927 -0.7044  0.0224
  259MPD2    C3 3975   2.947   1.410   0.378  0.6380 -0.3471  0.2192
  259MPD2    C4 3976   2.920   1.516   0.296 -0.4699  0.5550 -0.1729
  259MPD2    C5 3977   2.876   1.633   0.356 -0.2775 -0.3318  0.6196
  259MPD2     H 3978   2.927   1.336   0.576  0.9718 -0.0655  0.8326
  259MPD2    H1 3979   2.937   1.511   0.189 -1.8240  0.1088 -0.3624
  259MPD2    H2 3980   2.828   1.748   0.523 -0.7807  0.5298 -0.1802
  259MPD2    H3 3981   2.855   1.713   0.286 -1.3355 -1.9849 -0.9429
  259MPD2     N 3982   2.993   1.283   0.333 -0.2085 -0.2148  0.2514
  259MPD2    H5 3983   2.999   1.210   0.403  0.8308 -0.3512  0.0214
  259MPD2    N1 3984   2.883   1.560   0.714 -0.3583  0.0690 -0.3017
  259MPD2    H7 3985   2.868   1.654   0.751 -2.3257 -0.9547  1.4916
  260TMC3    C1 3986   3.119   1.132   0.212 -0.5641 -0.2659  0.6614
  260TMC3    C2 3987   3.229   1.108   0.129  0.2155  0.8274 -0.9391
  260TMC3    C3 3988   3.293   0.991   0.147 -0.5299 -0.1523  0.7898
  260TMC3    C4 3989   3.052   1.035   0.288  0.0302 -0.1833 -0.1989
  260TMC3    C5 3990   3.122   0.915   0.295 -0.4204  0.1611 -0.4081
  260TMC3    C6 3991   3.245   0.894   0.230 -0.0303  0.0637  0.1201
  260TMC3     C 3992   3.058   1.262   0.215 -0.2145 -0.5428  0.0190
  260TMC3     O 3993   3.063   1.331   0.116 -0.2982  0.2759  0.0031
  260TMC3     H 3994   3.282   1.195   0.093  2.0780  0.7085  1.4516
  260TMC3    H1 3995   2.951   1.044   0.327  0.6818  3.0343  0.7660
  260TMC3    H2 3996   3.299   0.801   0.240  0.4072  0.5628  2.3526
  260TMC3    C7 3997   3.043   0.800   0.269 -0.3504  0.6134  0.4297
  260TMC3    C8 3998   3.346   0.944   0.018 -0.7848  0.0476  0.0492
  260TMC3    O1 3999   3.090   0.708   0.202  0.1884 -0.3935 -1.0557
  260TMC3    O2 4000   3.383   1.024  17.691 -0.0022  0.2257 -0.0480
  261MPD2     C 4001   4.724   4.446  12.069  0.2264 -0.0536 -0.5912
  261MPD2    C1 4002   4.735   4.564  12.135 -0.3542 -0.0782 -0.4409
  261MPD2    C2 4003   0.011   4.675  12.055  0.3265 -0.3567  0.0008
  261MPD2    C3 4004   0.014   4.669  11.916 -0.0044 -0.4604 -0.1094
  261MPD2    C4 4005   0.013   4.546  11.853 -0.0056 -0.2849 -0.1237
  261MPD2    C5 4006   4.739   4.434  11.933 -0.3924 -0.5967  0.3181
  261MPD2     H 4007   0.002   0.030  12.104 -1.3972 -1.2424  1.3877
  261MPD2    H1 4008   0.023   4.531  11.746 -2.3940  0.1186 -0.4044
  261MPD2    H2 4009   4.706   4.351  12.116 -1.2565 -0.6031 -2.2347
  261MPD2    H3 4010   4.731   4.333  11.896  0.0333 -0.0728 -1.1850
  261MPD2     N 4011   0.018   0.048  11.839 -1.0177  0.4990 -0.5642
  261MPD2    H5 4012   0.010   0.136  11.888 -0.5248  0.7998 -1.0226
  261MPD2    N1 4013   4.713   4.588  12.274 -0.8023 -0.0186 -1.2404
  261MPD2    H7 4014   4.726   4.684  12.305 -0.4454 -1.3562  2.8301
  262TMC3    C1 4015   0.018   0.190  11.651  0.6044  0.6671 -0.0393
  262TMC3    C2 4016   4.644   0.264  11.672  0.9513  0.4627  0.2604
  262TMC3    C3 4017   4.636   0.379  11.600  0.2115 -0.3982  0.0756
  262TMC3    C4 4018   0.129   0.228  11.577 -0.6686  0.0700  0.2931
  262TMC3    C5 4019   0.114   0.350  11.511  0.6521  0.1825  0.5793
  262TMC3    C6 4020   4.739   0.424  11.514  0.3697  0.3232  0.4629
  262TMC3     C 4021   0.029   0.060  11.704  0.4892  0.4650 -0.4610
  262TMC3     O 4022   0.089   4.719  11.628 -0.3290  0.3271 -0.7967
  262TMC3     H 4023   4.549   0.227  11.710  0.6793  0.3608 -0.5197
  262TMC3    H1 4024   0.227   0.183  11.564 -1.2005 -0.6800 -1.0942
  262TMC3    H2 4025   4.725   0.519  11.464 -1.0862  1.2805  2.6592
  262TMC3    C7 4026   0.237   0.413  11.454 -0.0435  0.5504  0.3957
  262TMC3    C8 4027   4.521   0.467  11.607  0.1808 -0.2475 -0.1159
  262TMC3    O1 4028   0.339   0.352  11.437  0.1653 -0.0781  0.3329
  262TMC3    O2 4029   4.445   0.449  11.706  0.5569 -0.2924 -0.2277
  263MPD2     C 4030   0.892   4.290  11.950 -0.1139 -0.0481  0.3139
  263MPD2    C1 4031   0.952   4.220  11.846  0.4129 -0.0743 -1.0259
  263MPD2    C2 4032   0.904   4.248  11.716  0.6560 -0.2443 -0.5456
  263MPD2    C3 4033   0.804   4.347  11.699 -0.4178  0.0247  0.3537
  263MPD2    C4 4034   0.749   4.412  11.810  0.4777  0.1227  0.1423
  263MPD2    C5 4035   0.802   4.388  11.932 -0.3972  0.0543 -0.0957
  263MPD2     H 4036   0.946   4.208  11.624  1.0794 -0.4589 -0.2532
  263MPD2    H1 4037   0.669   4.485  11.804  0.5090  0.2190  0.9014
  263MPD2    H2 4038   0.922   4.272  12.053  0.0550 -2.8156 -0.2217
  263MPD2    H3 4039   0.757   4.440  12.015 -1.5702 -0.8146 -0.1966
  263MPD2     N 4040   0.762   4.365  11.568  0.2162 -0.6712  0.4795
  263MPD2    H5 4041   0.813   4.308  11.502 -1.1004  0.3306 -1.3734
  263MPD2    N1 4042   1.055   4.131  11.874  0.8687  0.0245  0.2251
  263MPD2    H7 4043   1.103   4.153  11.961  0.9898 -0.6538  0.3322
  264TMC3    C1 4044   0.663   4.472  11.379 -0.2857 -0.1418  0.9263
  264TMC3    C2 4045   0.578   4.567  11.340 -0.1247 -0.1542 -0.6472
  264TMC3    C3 4046   0.591   4.620  11.216 -0.5780 -1.2557  0.2268
  264TMC3    C4 4047   0.772   4.445  11.298  0.5990  0.2535  0.2115
  264TMC3    C5 4048   0.777   4.488  11.166  0.1278 -0.2002  0.3324
  264TMC3    C6 4049   0.682   4.578  11.125  0.3518  0.2818  0.1839
  264TMC3     C 4050   0.681   4.468  11.525  0.1558  0.2615 -0.2127
  264TMC3     O 4051   0.627   4.549  11.592 -0.0404  0.1982 -0.3710
  264TMC3     H 4052   0.505   4.604  11.411 -0.4818 -0.4600 -0.8547
  264TMC3    H1 4053   0.853   4.392  11.347  0.1760 -0.4028  0.1982
  264TMC3    H2 4054   0.673   4.606  11.021  1.5982 -1.3117 -0.3501
  264TMC3    C7 4055   0.897   4.474  11.090  0.7274 -0.3070 -0.0480
  264TMC3    C8 4056   0.585   0.025  11.209 -0.7303  0.2164  0.1791
  264TMC3    O1 4057   0.906   4.547  10.990  0.3919  0.1083  0.2776
  264TMC3    O2 4058   0.605   0.078  11.100  0.1371 -0.4476 -0.7677
  265MPD2     C 4059   2.626   4.611  15.866  0.3987  0.5918 -0.1138
  265MPD2    C1 4060   2.623   4.705  15.766 -0.3439  0.6030  0.1510
  265MPD2    C2 4061   2.675   4.677  15.639 -0.0340  0.4851 -0.7043
  265MPD2    C3 4062   2.730   4.546  15.611 -0.2234 -0.3000  0.5101
  265MPD2    C4 4063   2.729   4.462  15.719 -0.8770 -0.1243  0.4862
  265MPD2    C5 4064   2.674   4.492  15.838  0.2072  0.3582  0.8106
  265MPD2     H 4065   2.672   0.014  15.563  0.9963  0.1352 -1.0981
  265MPD2    H1 4066   2.766   4.362  15.700 -0.8194  0.0957 -0.5931
  265MPD2    H2 4067   2.600   4.630  15.970  1.1759 -0.8638  0.3324
  265MPD2    H3 4068   2.676   4.429  15.927  1.1311 -1.3147 -0.3972
  265MPD2     N 4069   2.789   4.500  15.491  0.6741 -0.0835  0.3639
  265MPD2    H5 4070   2.821   4.404  15.483  0.9791 -0.1220  2.0294
  265MPD2    N1 4071   2.561   0.090  15.791 -0.3278  0.9164  0.7358
  265MPD2    H7 4072   2.571   0.159  15.718 -2.5569  0.7516  0.2758
  266TMC3    C1 4073   2.456   0.279  15.899  0.4811 -0.3256  0.6231
  266TMC3    C2 4074   2.433   0.350  16.013 -0.8148  0.7441 -0.2785
  266TMC3    C3 4075   2.390   0.478  16.001  0.3976 -0.5662  0.0761
  266TMC3    C4 4076   2.425   0.331  15.778 -0.9128  0.4652  0.2255
  266TMC3    C5 4077   2.372   0.449  15.768  0.1143 -0.3313 -0.4028
  266TMC3    C6 4078   2.351   0.525  15.876 -0.1760 -0.1083  0.2329
  266TMC3     C 4079   2.487   0.131  15.906 -0.6423 -0.4518 -0.4040
  266TMC3     O 4080   2.465   0.076  16.012  0.0122  0.3380 -0.1717
  266TMC3     H 4081   2.468   0.315  16.110 -2.0689 -1.1339 -0.5137
  266TMC3    H1 4082   2.425   0.272  15.687 -1.3468  0.7852  0.0211
  266TMC3    H2 4083   2.313   0.624  15.856  2.8100  1.0942  0.4325
  266TMC3    C7 4084   2.326   0.493  15.633 -0.7730  0.1397 -0.0777
  266TMC3    C8 4085   2.334   0.544  16.121  0.2740  0.1858  0.1250
  266TMC3    O1 4086   2.238   0.575  15.623  0.6573 -0.1700 -0.2273
  266TMC3    O2 4087   2.283   0.480  16.212  0.8186 -0.7945  0.5944
  267MPD2     C 4088   4.644   1.698   0.620  0.0656 -0.2003  0.3269
  267MPD2    C1 4089   4.674   1.742   0.492  0.2945 -0.3466 -0.4379
  267MPD2    C2 4090   4.580   1.763   0.392  0.9480 -0.4250  0.0457
  267MPD2    C3 4091   4.446   1.735   0.422 -0.2685  0.6741  0.0108
  267MPD2    C4 4092   4.416   1.713   0.556 -0.5110  1.0400  0.3652
  267MPD2    C5 4093   4.512   1.687   0.652 -0.1009  0.0774  0.1016
  267MPD2     H 4094   4.596   1.820   0.300  3.6033 -0.5768  0.4315
  267MPD2    H1 4095   4.311   1.700   0.582 -0.7465  0.7074 -0.7626
  267MPD2    H2 4096   4.724   1.684   0.691 -0.0640 -0.1036  0.4900
  267MPD2    H3 4097   4.473   1.653   0.747  1.3635  1.8452  1.3414
  267MPD2     N 4098   4.343   1.762   0.333 -0.2659  0.5518 -0.1736
  267MPD2    H5 4099   4.246   1.762   0.363  0.2578  2.0508  1.4758
  267MPD2    N1 4100   0.070   1.743   0.459  0.0924 -0.5972  0.0383
  267MPD2    H7 4101   0.128   1.715   0.538  1.3104 -1.6813 -1.2539
  268TMC3    C1 4102   0.264   1.727   0.331  0.3514  0.0504 -0.3677
  268TMC3    C2 4103   0.346   1.779   0.235 -0.1966 -0.2552 -0.7275
  268TMC3    C3 4104   0.474   1.732   0.226  0.1338  0.5929  0.5943
  268TMC3    C4 4105   0.306   1.634   0.421 -0.4437  0.1555 -0.0574
  268TMC3    C5 4106   0.429   1.588   0.404  0.4527 -0.2568  0.2428
  268TMC3    C6 4107   0.522   1.645   0.319 -0.1636 -0.0399  0.0623
  268TMC3     C 4108   0.126   1.775   0.338 -0.6050 -0.8862  0.6698
  268TMC3     O 4109   0.083   1.839   0.239  0.2240 -0.2832 -0.1257
  268TMC3     H 4110   0.314   1.865   0.178 -2.4906 -0.3969  0.3271
  268TMC3    H1 4111   0.236   1.581   0.484 -0.1910 -0.3206 -0.1672
  268TMC3    H2 4112   0.616   1.593   0.305 -1.2482 -2.7069  2.7178
  268TMC3    C7 4113   0.468   1.464   0.465 -0.0645  0.3356 -0.5612
  268TMC3    C8 4114   0.552   1.738   0.105 -0.1412  0.7923 -0.3125
  268TMC3    O1 4115   0.587   1.457   0.489 -0.0569 -0.3013 -0.0971
  268TMC3    O2 4116   0.659   1.684   0.104  0.9100  0.6172  0.6808
  269MPD2     C 4117   0.618   0.346  15.703  0.3873 -0.0611  0.0957
  269MPD2    C1 4118   0.488   0.371  15.731 -0.9642  0.1214  0.3968
  269MPD2    C2 4119   0.435   0.496  15.736 -0.1117 -0.0572 -0.5241
  269MPD2    C3 4120   0.521   0.603  15.714 -0.4896  0.0849  0.0178
  269MPD2    C4 4121   0.648   0.576  15.676 -0.1270 -0.6694 -0.1176
  269MPD2    C5 4122   0.696   0.447  15.664  0.2282 -0.3761 -0.3270
  269MPD2     H 4123   0.339   0.514  15.784  0.3324 -0.5900  0.5634
  269MPD2    H1 4124   0.713   0.656  15.642 -1.5953  1.2783  1.6296
  269MPD2    H2 4125   0.658   0.246  15.688 -0.4244 -0.2883 -0.5867
  269MPD2    H3 4126   0.797   0.432  15.628  0.5187 -1.9339  1.1183
  269MPD2     N 4127   0.478   0.735  15.731 -0.1588  0.0015 -0.5010
  269MPD2    H5 4128   0.382   0.751  15.761 -0.7386 -1.4657 -1.6259
  269MPD2    N1 4129   0.408   0.260  15.761  0.0386  0.1936 -0.1144
  269MPD2    H7 4130   0.450   0.168  15.750 -1.0041 -0.2945 -0.0080
  270TMC3    C1 4131   0.218   0.116  15.812  0.2832 -0.0382  0.7412
  270TMC3    C2 4132   0.090   0.089  15.765 -0.1320  0.4105  0.4534
  270TMC3    C3 4133   0.040   4.702  15.779 -0.9091 -0.5261  0.0771
  270TMC3    C4 4134   0.296   0.022  15.879 -0.1851  0.1660 -0.0144
  270TMC3    C5 4135   0.230   4.640  15.894  0.0339 -0.2097 -0.3457
  270TMC3    C6 4136   0.107   4.606  15.849  0.0708 -0.5008  0.3223
  270TMC3     C 4137   0.268   0.255  15.791  0.4891 -0.0068 -0.1773
  270TMC3     O 4138   0.178   0.344  15.776 -0.5340  0.4613 -0.4904
  270TMC3     H 4139   0.040   0.164  15.705  1.8774  0.9527 -0.5515
  270TMC3    H1 4140   0.391   0.035  15.930  0.7436 -0.8433 -1.4961
  270TMC3    H2 4141   0.064   4.509  15.870  0.9493 -0.4142  2.5544
  270TMC3    C7 4142   0.322   4.524  15.909  0.0039 -0.1303 -0.5160
  270TMC3    C8 4143   4.684   4.663  15.687  0.4590 -0.4126  0.4219
  270TMC3    O1 4144   0.440   4.535  15.877  0.0902  0.2172  0.1536
  270TMC3    O2 4145   4.579   4.608  15.720 -0.3643 -0.3707  0.6505
  271MPD2     C 4146   4.131   0.180  13.962  0.1994 -0.2016 -1.1601
  271MPD2    C1 4147   4.103   0.237  14.081  0.0332 -0.1509  1.2159
  271MPD2    C2 4148   3.978   0.264  14.119 -0.3383 -0.5935  0.0093
  271MPD2    C3 4149   3.874   0.227  14.036  0.1123 -0.3812  0.9797
  271MPD2    C4 4150   3.900   0.175  13.915  0.0136 -0.9181 -0.4357
  271MPD2    C5 4151   4.026   0.144  13.879 -0.1460  0.0291 -0.1675
  271MPD2     H 4152   3.968   0.307  14.218 -3.2095 -3.1634  0.8194
  271MPD2    H1 4153   3.821   0.132  13.853  1.3086  0.6110 -3.1424
  271MPD2    H2 4154   4.231   0.153  13.929 -0.4138  0.5665 -3.6639
  271MPD2    H3 4155   4.049   0.091  13.787 -0.3358  0.0976 -0.2551
  271MPD2     N 4156   3.743   0.226  14.085 -0.7586 -0.2087 -0.0227
  271MPD2    H5 4157   3.671   0.213  14.015  1.0194 -1.4698 -1.6078
  271MPD2    N1 4158   4.196   0.256  14.183 -0.1916  0.8106 -0.0019
  271MPD2    H7 4159   4.178   0.300  14.273 -0.3813 -0.2514  0.4808
  272TMC3    C1 4160   4.380   0.220  14.324 -0.3034  0.2767 -0.2143
  272TMC3    C2 4161   4.515   0.192  14.326 -0.3888  0.3305  1.4113
  272TMC3    C3 4162   4.568   0.143  14.445 -0.4621 -0.5776  0.7153
  272TMC3    C4 4163   4.299   0.229  14.435 -0.0198  0.4978 -0.2570
  272TMC3    C5 4164   4.361   0.180  14.552 -0.6877  0.4772  0.0645
  272TMC3    C6 4165   4.492   0.134  14.561  0.6352  0.2608 -0.2299
  272TMC3     C 4166   4.317   0.201  14.190 -0.2513  0.0062 -0.2138
  272TMC3     O 4167   4.380   0.139  14.106 -0.3473  0.2799 -0.3227
  272TMC3     H 4168   4.573   0.190  14.235 -3.1535 -2.5819 -0.2955
  272TMC3    H1 4169   4.195   0.262  14.439 -0.4965 -1.1612  0.9378
  272TMC3    H2 4170   4.543   0.094  14.648 -1.3198  0.0894  0.8499
  272TMC3    C7 4171   4.285   0.205  14.673 -0.2559 -0.0281  0.1923
  272TMC3    C8 4172   4.716   0.134  14.446  0.9618  0.2892  0.1137
  272TMC3    O1 4173   4.163   0.196  14.654 -0.0098  0.3809 -0.2372
  272TMC3    O2 4174   0.030   0.202  14.361  0.0559  0.6088 -0.2334
  273MPD2     C 4175   1.311   2.860  11.755  0.6369  0.0205  0.5514
  273MPD2    C1 4176   1.395   2.973  11.753 -0.1035 -0.3056  0.6447
  273MPD2    C2 4177   1.446   3.023  11.638  0.8431  0.3923 -0.4866
  273MPD2    C3 4178   1.413   2.973  11.514  0.0887  0.4599  0.2170
  273MPD2    C4 4179   1.317   2.866  11.511  0.2733  0.0823  0.8237
  273MPD2    C5 4180   1.273   2.816  11.633 -0.1916 -0.1703  0.4005
  273MPD2     H 4181   1.506   3.111  11.654 -0.0443  0.8398  0.3642
  273MPD2    H1 4182   1.277   2.833  11.416  1.3784  3.4590 -0.7986
  273MPD2    H2 4183   1.266   2.812  11.841  0.9377 -0.6708  0.3143
  273MPD2    H3 4184   1.198   2.737  11.633  0.1884 -0.5210 -0.6639
  273MPD2     N 4185   1.469   3.026  11.391 -0.2091 -0.4302  0.4552
  273MPD2    H5 4186   1.422   3.021  11.302  3.1144  0.6366 -1.3639
  273MPD2    N1 4187   1.425   3.032  11.880  0.1483 -0.3156 -0.2152
  273MPD2    H7 4188   1.362   2.996  11.951  0.4961  0.3086  0.4124
  274TMC3    C1 4189   1.608   3.196  11.281 -0.3717 -0.4070 -0.5734
  274TMC3    C2 4190   1.520   3.213  11.179 -0.5070  0.2127  0.8060
  274TMC3    C3 4191   1.535   3.310  11.081  0.2623  0.2238  0.8639
  274TMC3    C4 4192   1.705   3.287  11.297 -0.6833 -0.3832 -0.2427
  274TMC3    C5 4193   1.715   3.387  11.208 -0.3473  0.6238  1.0125
  274TMC3    C6 4194   1.647   3.388  11.087 -0.3546 -0.1091  0.6270
  274TMC3     C 4195   1.574   3.122  11.403 -0.1976  0.0499  0.3704
  274TMC3     O 4196   1.654   3.138  11.494  0.6113 -0.2517  0.3427
  274TMC3     H 4197   1.446   3.134  11.171 -0.7440  0.5202 -0.0860
  274TMC3    H1 4198   1.759   3.290  11.391 -0.4227 -2.8406 -0.3221
  274TMC3    H2 4199   1.658   3.482  11.034 -0.0967  0.4006  1.5697
  274TMC3    C7 4200   1.779   3.508  11.247 -0.1780  0.0359  0.0550
  274TMC3    C8 4201   1.426   3.316  10.981  0.3173  0.2280  0.1232
  274TMC3    O1 4202   1.840   3.573  11.164  0.8037 -0.1723 -0.2134
  274TMC3    O2 4203   1.328   3.246  11.010  0.2327  0.0200  0.3323
  275MPD2     C 4204   0.993   1.399  14.636 -0.0931 -0.1215 -0.4654
  275MPD2    C1 4205   0.962   1.266  14.613 -0.4556  0.1321 -0.2271
  275MPD2    C2 4206   0.831   1.224  14.622 -1.2492  0.0153  0.5771
  275MPD2    C3 4207   0.734   1.316  14.647  0.0533  0.3714  0.4956
  275MPD2    C4 4208   0.769   1.446  14.676  1.1400 -0.3499 -0.0012
  275MPD2    C5 4209   0.898   1.484  14.665 -0.7053  0.2118  0.2511
  275MPD2     H 4210   0.811   1.118  14.606  1.2844 -0.3653 -0.1509
  275MPD2    H1 4211   0.693   1.515  14.712  0.0518 -1.2455 -0.5651
  275MPD2    H2 4212   1.096   1.435  14.633 -0.3875  0.7452 -0.2469
  275MPD2    H3 4213   0.930   1.587  14.680 -0.7272  0.1336  0.8264
  275MPD2     N 4214   0.593   1.285  14.646  0.4516  0.2304 -0.2124
  275MPD2    H5 4215   0.524   1.359  14.652  1.2513  0.8424  1.4867
  275MPD2    N1 4216   1.063   1.170  14.585  0.0049  0.1535  0.0693
  275MPD2    H7 4217   1.042   1.075  14.558  0.7115  0.0425 -0.0998
  276TMC3    C1 4218   1.292   1.087  14.539  0.1333 -0.3035 -0.0562
  276TMC3    C2 4219   1.256   0.967  14.597  0.5145  0.5513  0.4151
  276TMC3    C3 4220   1.350   0.877  14.619 -0.4794  0.3919  0.0168
  276TMC3    C4 4221   1.417   1.113  14.492  0.4566 -0.4573  1.1136
  276TMC3    C5 4222   1.514   1.033  14.538 -0.7561  0.2175  0.0697
  276TMC3    C6 4223   1.482   0.914  14.589  0.3032 -0.0131 -0.2366
  276TMC3     C 4224   1.195   1.200  14.555  0.1238 -0.1658  0.1351
  276TMC3     O 4225   1.241   1.316  14.554 -0.2767 -0.4615  0.2021
  276TMC3     H 4226   1.158   0.956  14.641  0.3765  1.2999  0.2929
  276TMC3    H1 4227   1.435   1.214  14.457  0.5102 -1.8875 -3.0324
  276TMC3    H2 4228   1.567   0.852  14.617  0.5597  0.7968  0.7309
  276TMC3    C7 4229   1.604   1.113  14.630  0.2822  0.2197  0.3304
  276TMC3    C8 4230   1.341   0.807  14.751  0.5154  0.6290 -0.0368
  276TMC3    O1 4231   1.616   1.073  14.744 -0.6834 -0.6944  0.0296
  276TMC3    O2 4232   1.235   0.763  14.788 -0.8611 -0.0373  0.0171
  277MPD2     C 4233   2.894   0.096  13.197 -0.5019  0.2723  0.3860
  277MPD2    C1 4234   2.818   0.172  13.287  0.4020 -0.6410 -0.0584
  277MPD2    C2 4235   2.822   0.144  13.426  0.4557  1.0058  0.1754
  277MPD2    C3 4236   2.907   0.045  13.469 -0.1925  0.3536 -0.1875
  277MPD2    C4 4237   2.980   4.710  13.383 -0.1174  0.1866  0.6710
  277MPD2    C5 4238   2.974   4.737  13.250  0.2050 -0.0770 -0.6543
  277MPD2     H 4239   2.758   0.203  13.491 -0.7618 -0.0523 -0.0720
  277MPD2    H1 4240   3.048   4.630  13.412 -0.4755 -1.3661 -2.8288
  277MPD2    H2 4241   2.876   0.114  13.091  0.4209 -0.1152  0.1649
  277MPD2    H3 4242   3.024   4.672  13.179 -1.3616 -0.2557 -1.5919
  277MPD2     N 4243   2.913   0.031  13.611 -0.9657  0.4171  0.6436
  277MPD2    H5 4244   2.855   0.092  13.667 -1.6014  0.4572 -0.0596
  277MPD2    N1 4245   2.726   0.271  13.229 -0.2674 -0.2554 -0.5446
  277MPD2    H7 4246   2.723   0.285  13.128  0.1220 -1.0588 -0.6680
  278TMC3    C1 4247   2.970   4.680  13.813  1.1668  0.4404  1.0793
  278TMC3    C2 4248   2.930   4.562  13.867 -0.0717  0.3184  0.6140
  278TMC3    C3 4249   2.824   4.562  13.954 -0.6748  0.4862  0.3381
  278TMC3    C4 4250   2.904   0.056  13.853 -1.1268  0.2626  0.2699
  278TMC3    C5 4251   2.793   0.052  13.931 -0.1726  0.1933  0.0558
  278TMC3    C6 4252   2.755   4.674  13.981 -0.5366 -0.0736 -0.6767
  278TMC3     C 4253   2.985   4.675  13.673  0.1371  0.2692  0.1295
  278TMC3     O 4254   3.020   4.565  13.629 -0.0003  0.1381  0.8948
  278TMC3     H 4255   2.960   4.472  13.813 -3.5058  0.5487 -1.6876
  278TMC3    H1 4256   2.950   0.153  13.839 -1.7073  0.4644 -0.2728
  278TMC3    H2 4257   2.659   4.664  14.029 -0.1916  2.1512  0.4980
  278TMC3    C7 4258   2.696   0.135  13.862 -0.5257 -0.2296  0.6306
  278TMC3    C8 4259   2.742   4.437  13.969 -0.4077 -0.0019 -0.0984
  278TMC3    O1 4260   2.742   0.197  13.768 -0.1086  0.1863  0.2115
  278TMC3    O2 4261   2.638   4.444  14.038  0.5933 -0.4430  0.0100
  279MPD2     C 4262   2.393   4.285   0.096 -0.8847 -0.4634  0.1608
  279MPD2    C1 4263   2.338   4.413   0.091 -0.0661 -0.8691 -0.6874
  279MPD2    C2 4264   2.264   4.448  17.736 -0.8618 -0.2966 -0.0417
  279MPD2    C3 4265   2.230   4.357  17.637 -0.4452 -0.4040  0.0448
  279MPD2    C4 4266   2.277   4.227  17.650  0.3295 -0.6268  0.0051
  279MPD2    C5 4267   2.362   4.196  17.753  0.5246 -0.4442 -0.6272
  279MPD2     H 4268   2.246   4.554  17.721  2.1039 -0.0633 -1.9943
  279MPD2    H1 4269   2.246   4.149  17.581 -0.6026  0.2228 -0.5281
  279MPD2    H2 4270   2.465   4.268   0.175 -0.1480 -0.7764 -0.5702
  279MPD2    H3 4271   2.398   4.094   0.002 -0.7173 -0.7910  0.5475
  279MPD2     N 4272   2.145   4.388  17.521  0.4348 -0.2546  0.3746
  279MPD2    H5 4273   2.123   4.314  17.456  0.3910 -0.2729  0.4098
  279MPD2    N1 4274   2.376   4.500   0.193  0.6340  0.0364  0.6610
  279MPD2    H7 4275   2.463   4.470   0.235  0.6460  1.5220  1.6598
  280TMC3    C1 4276   2.176   4.639   0.201  0.0701 -0.2225  0.5534
  280TMC3    C2 4277   2.083   4.534   0.213 -0.1220  0.0467 -0.6836
  280TMC3    C3 4278   1.954   4.554   0.168 -0.1345 -0.2611 -0.0966
  280TMC3    C4 4279   2.135   0.028   0.178  0.2414  0.1025 -0.9440
  280TMC3    C5 4280   1.998   0.042   0.141  1.2514  0.1279  0.0957
  280TMC3    C6 4281   1.912   4.681   0.137  0.3799 -0.4788  0.3195
  280TMC3     C 4282   2.320   4.620   0.213  0.0322 -0.1844  0.2099
  280TMC3     O 4283   2.369   4.720   0.256 -0.1177  0.5731  0.1705
  280TMC3     H 4284   2.118   4.436   0.244 -0.4775 -0.3862 -1.6426
  280TMC3    H1 4285   2.199   0.115   0.169  1.0358 -0.2936  0.8686
  280TMC3    H2 4286   1.804   4.688   0.127  0.2926 -1.0498  0.8715
  280TMC3    C7 4287   1.941   0.173   0.183 -0.0965  0.4953  0.7189
  280TMC3    C8 4288   1.871   4.439   0.159 -0.2834 -0.2381  0.4709
  280TMC3    O1 4289   2.024   0.232   0.251  0.1263 -0.8024  0.1409
  280TMC3    O2 4290   1.759   4.451   0.210 -0.5953 -0.0784  0.2446
  281TMC3    C1 4291   0.554   0.402  13.602 -0.1584  0.3972  0.1010
  281TMC3    C2 4292   0.687   0.419  13.616 -0.1951  0.0161 -0.6580
  281TMC3    C3 4293   0.759   0.310  13.568  0.3181  0.2663 -0.4764
  281TMC3    C4 4294   0.492   0.286  13.558  0.4615 -0.2204 -0.6242
  281TMC3    C5 4295   0.572   0.185  13.521 -0.2224  0.4696  0.2728
  281TMC3    C6 4296   0.707   0.190  13.531  0.9643  0.2860 -0.0570
  281TMC3     C 4297   0.464   0.502  13.653 -0.1004  0.3993 -0.0079
  281TMC3     O 4298   0.344   0.470  13.665  0.0356  0.2506 -0.5529
  281TMC3     H 4299   0.731   0.511  13.653 -1.3022  0.1852  0.2277
  281TMC3    H1 4300   0.386   0.293  13.537  0.2973 -0.2403  0.1965
  281TMC3    H2 4301   0.773   0.105  13.520 -0.0286 -0.6815  1.4405
  281TMC3    C7 4302   0.506   0.060  13.504 -0.1431 -0.0942  0.1608
  281TMC3    C8 4303   0.901   0.324  13.562 -0.4960  0.1125 -0.1583
  281TMC3    O1 4304   0.383   0.058  13.494 -0.2881  0.3629 -0.1758
  281TMC3    O2 4305   0.964   0.224  13.603  0.3912 -0.3818 -0.2630
  282MPD2     C 4306   2.712   1.388  14.959  1.1782 -0.3459 -0.0500
  282MPD2    C1 4307   2.683   1.515  15.012 -0.3832  0.3239 -0.0570
  282MPD2    C2 4308   2.694   1.618  14.918 -0.2684 -0.2290  0.4885
  282MPD2    C3 4309   2.724   1.596  14.783  0.1394 -0.4931 -0.1343
  282MPD2    C4 4310   2.741   1.469  14.736  0.4194  0.9556 -0.0662
  282MPD2    C5 4311   2.745   1.373  14.829 -0.3266 -0.4802 -0.3935
  282MPD2     H 4312   2.671   1.721  14.943 -3.9784 -0.6496 -1.2440
  282MPD2    H1 4313   2.759   1.440  14.633 -2.0167 -0.4464 -0.0989
  282MPD2    H2 4314   2.708   1.296  15.016 -0.1709 -0.4961 -0.3835
  282MPD2    H3 4315   2.753   1.273  14.789 -1.6353 -0.3959 -0.8861
  282MPD2     N 4316   2.735   1.710  14.695  0.3226  0.3902 -0.5063
  282MPD2    H5 4317   2.739   1.808  14.723  0.7400 -0.0525  0.9823
  282MPD2    N1 4318   2.631   1.534  15.142  0.0246 -0.0621  0.2279
  282MPD2    H7 4319   2.612   1.630  15.167 -0.6466  0.0354 -0.6357
  283TMC3    C1 4320   2.516   1.479  15.351  0.2672 -0.0341 -0.0015
  283TMC3    C2 4321   2.545   1.599  15.406 -0.2657  0.3626  0.4533
  283TMC3    C3 4322   2.474   1.638  15.523  0.2068  0.0121  0.0614
  283TMC3    C4 4323   2.424   1.394  15.401 -0.2439  0.1244 -0.2818
  283TMC3    C5 4324   2.354   1.436  15.516  0.4172  0.9804 -0.7199
  283TMC3    C6 4325   2.380   1.560  15.576 -0.4959 -0.3478  0.1672
  283TMC3     C 4326   2.591   1.432  15.229  0.1470  0.4989  0.2212
  283TMC3     O 4327   2.580   1.309  15.213 -0.1225  0.1016  0.2202
  283TMC3     H 4328   2.624   1.658  15.361 -1.2775  1.0295 -0.4329
  283TMC3    H1 4329   2.404   1.305  15.343  2.2541 -1.3202  1.1241
  283TMC3    H2 4330   2.327   1.598  15.662  0.2855 -1.8028  1.2976
  283TMC3    C7 4331   2.256   1.355  15.581 -0.2777 -0.4555  0.4022
  283TMC3    C8 4332   2.490   1.767  15.594  0.2360 -0.0315  0.3475
  283TMC3    O1 4333   2.170   1.419  15.640 -0.1737 -0.3116  0.4508
  283TMC3    O2 4334   2.451   1.770  15.709  0.5028  0.1293  0.7354
  284MPD2     C 4335   0.756   1.042  12.211 -0.9857  0.4213 -0.0338
  284MPD2    C1 4336   0.876   1.109  12.237  0.4766  0.0625 -0.0560
  284MPD2    C2 4337   0.952   1.078  12.349 -0.2474  0.1415  0.0183
  284MPD2    C3 4338   0.924   0.974  12.422 -0.3833  0.8729  0.0581
  284MPD2    C4 4339   0.809   0.906  12.402 -0.2315 -0.3026 -0.6881
  284MPD2    C5 4340   0.717   0.952  12.308  0.6865  0.3317  0.4447
  284MPD2     H 4341   1.043   1.135  12.365  1.3531 -2.7500  1.2316
  284MPD2    H1 4342   0.779   0.821  12.464 -0.4914 -0.2512 -0.7422
  284MPD2    H2 4343   0.687   1.069  12.132 -0.8191 -2.0020 -1.0211
  284MPD2    H3 4344   0.630   0.889  12.297  0.0361  1.3322 -0.0838
  284MPD2     N 4345   1.023   0.905  12.497  0.0613 -0.0621 -0.2202
  284MPD2    H5 4346   1.015   0.806  12.515  1.0956  0.0639  0.9113
  284MPD2    N1 4347   0.944   1.196  12.144  0.7486  0.0933  0.3967
  284MPD2    H7 4348   1.033   1.238  12.170  0.9189 -0.6184  0.9437
  285TMC3    C1 4349   1.042   1.244  11.959  0.3993 -0.2386 -0.3460
  285TMC3    C2 4350   1.095   1.175  11.853  0.5963  0.0361 -0.2902
  285TMC3    C3 4351   1.192   1.235  11.770  0.1776 -0.6891 -0.3307
  285TMC3    C4 4352   1.090   1.367  11.997 -0.1850  0.0269  0.4187
  285TMC3    C5 4353   1.192   1.415  11.924 -0.8188  1.1021  0.5851
  285TMC3    C6 4354   1.240   1.351  11.815  0.3179 -0.4625  0.3171
  285TMC3     C 4355   0.919   1.199  12.009 -0.7819 -0.5327  0.0818
  285TMC3     O 4356   0.843   1.133  11.944  0.0703 -0.2668  0.2572
  285TMC3     H 4357   1.068   1.070  11.842  3.0949 -0.5958 -0.3260
  285TMC3    H1 4358   1.034   1.425  12.069 -1.1454  1.7157 -1.6904
  285TMC3    H2 4359   1.314   1.411  11.763  0.3895 -0.6440  0.2066
  285TMC3    C7 4360   1.234   1.558  11.937  0.7197  1.0956  0.7480
  285TMC3    C8 4361   1.276   1.140  11.699 -0.7065 -0.0342  0.6122
  285TMC3    O1 4362   1.240   1.615  11.830 -0.2130  0.0069  0.2745
  285TMC3    O2 4363   1.270   1.023  11.733 -0.2213  0.1916  0.6509
  286MPD2     C 4364   0.711   4.370   0.948 -0.3325 -0.2893 -0.3030
  286MPD2    C1 4365   0.766   4.467   1.026 -0.1547 -0.1511  0.2068
  286MPD2    C2 4366   0.895   4.452   1.068 -0.1308 -0.3800  0.0101
  286MPD2    C3 4367   0.972   4.343   1.027 -0.5459 -0.3035 -0.5336
  286MPD2    C4 4368   0.916   4.241   0.951  0.6025  0.3459  0.1198
  286MPD2    C5 4369   0.788   4.259   0.909 -0.1586  0.0656  0.1479
  286MPD2     H 4370   0.942   4.521   1.137  0.8927 -1.9136  0.8454
  286MPD2    H1 4371   0.981   4.166   0.906  0.8453  0.9485 -0.5523
  286MPD2    H2 4372   0.610   4.385   0.911 -0.3495  0.6467  0.0990
  286MPD2    H3 4373   0.737   4.179   0.856 -1.4105  1.3513 -0.6007
  286MPD2     N 4374   1.112   4.323   1.057  0.4006  0.2798 -0.1618
  286MPD2    H5 4375   1.146   4.232   1.026  1.6639  0.7402 -0.1351
  286MPD2    N1 4376   0.700   4.587   1.064  0.5459 -0.0636  0.7620
  286MPD2    H7 4377   0.738   4.639   1.142 -0.0398  0.0930  0.9472
  287TMC3    C1 4378   1.340   4.383   1.123  0.3666  0.0409  0.7052
  287TMC3    C2 4379   1.388   4.345   0.999 -0.1362  0.1006 -0.6286
  287TMC3    C3 4380   1.525   4.334   0.991 -0.4347  0.1597  0.6530
  287TMC3    C4 4381   1.415   4.439   1.219  0.1853  0.4125  0.6587
  287TMC3    C5 4382   1.551   4.445   1.196  0.7465 -0.2518  1.4098
  287TMC3    C6 4383   1.607   4.380   1.088 -0.4230  0.0350 -0.1460
  287TMC3     C 4384   1.196   4.393   1.147  0.2544 -0.0682 -0.1505
  287TMC3     O 4385   1.157   4.469   1.234 -0.5644  0.1512 -0.0782
  287TMC3     H 4386   1.327   4.311   0.917 -1.0919 -1.1612  0.6129
  287TMC3    H1 4387   1.366   4.491   1.300 -3.1554  1.4528 -2.0230
  287TMC3    H2 4388   1.713   4.370   1.066 -0.5739  1.1681 -1.3919
  287TMC3    C7 4389   1.631   4.512   1.299 -0.3126  0.0100  0.0341
  287TMC3    C8 4390   1.575   4.229   0.891  0.1569  0.4538 -0.1917
  287TMC3    O1 4391   1.579   4.599   1.362 -0.1631  1.0682  0.7028
  287TMC3    O2 4392   1.486   4.164   0.833  0.7219  0.2485 -0.1471
  288TMC3    C1 4393   3.054   4.591  14.308 -0.2399  0.2270  0.1901
  288TMC3    C2 4394   2.982   4.590  14.420  0.5735  0.3234 -0.0507
  288TMC3    C3 4395   2.957   4.714  14.478 -0.0838 -0.3952 -0.6183
  288TMC3    C4 4396   3.092   4.710  14.242  0.3884  0.1558 -0.5686
  288TMC3    C5 4397   3.072   0.093  14.306 -0.3711 -0.4157  0.0026
  288TMC3    C6 4398   3.011   0.091  14.427 -0.3301 -0.1095 -0.6460
  288TMC3     C 4399   3.074   4.466  14.239 -0.2090  0.2627 -0.2885
  288TMC3     O 4400   3.098   4.478  14.122  0.0126  0.0156  0.0359
  288TMC3     H 4401   2.946   4.493  14.453  1.4556  0.0478  0.1282
  288TMC3    H1 4402   3.125   4.708  14.139  2.5719 -0.0266  0.1388
  288TMC3    H2 4403   2.973   0.185  14.467  2.7947  1.0544 -0.4404
  288TMC3    C7 4404   3.048   0.200  14.217 -0.4374  0.8274  0.0904
  288TMC3    C8 4405   2.846   4.738  14.574  0.0276  0.0191 -0.6128
  288TMC3    O1 4406   3.022   0.167  14.104  0.7484  0.1134  0.4797
  288TMC3    O2 4407   2.804   0.111  14.599  0.1584  0.3543 -0.1901
  289MPD2     C 4408   2.920   3.287  14.720  0.6109  0.1697 -0.3071
  289MPD2    C1 4409   2.929   3.414  14.671  0.4063 -0.5063 -0.9962
  289MPD2    C2 4410   2.860   3.448  14.557 -0.2608 -0.2743 -0.2509
  289MPD2    C3 4411   2.790   3.357  14.488  0.4424 -0.0871 -0.4952
  289MPD2    C4 4412   2.785   3.222  14.530 -0.2264 -0.7483  0.2721
  289MPD2    C5 4413   2.849   3.191  14.650 -0.1924  0.4364  0.3473
  289MPD2     H 4414   2.876   3.547  14.515  0.8390 -0.6734 -0.7813
  289MPD2    H1 4415   2.723   3.148  14.480 -1.7621  0.1738  0.8601
  289MPD2    H2 4416   2.961   3.264  14.817 -0.5465  0.7563  0.3108
  289MPD2    H3 4417   2.843   3.089  14.686 -0.4939  0.0904 -0.6890
  289MPD2     N 4418   2.713   3.385  14.370 -0.0171 -0.2662  0.7925
  289MPD2    H5 4419   2.673   3.301  14.329 -1.7895  0.1709  1.6622
  289MPD2    N1 4420   2.976   3.516  14.756  1.3031  0.4917 -0.4966
  289MPD2    H7 4421   2.997   3.488  14.851 -0.7389 -1.0429 -0.5039
  290TMC3    C1 4422   2.580   3.511  14.214 -0.0564 -0.6295  1.1012
  290TMC3    C2 4423   2.520   3.630  14.176  0.5013 -0.2924 -0.1396
  290TMC3    C3 4424   2.435   3.637  14.068  0.5811  0.5286  0.7703
  290TMC3    C4 4425   2.532   3.394  14.168  0.2692 -0.2906  0.1514
  290TMC3    C5 4426   2.453   3.405  14.052  0.0462  0.2117 -0.0099
  290TMC3    C6 4427   2.403   3.522  13.997  0.1071 -0.2657 -0.5418
  290TMC3     C 4428   2.673   3.511  14.326  0.3567  0.2541 -0.8483
  290TMC3     O 4429   2.692   3.624  14.376  0.2298  0.7617  0.1516
  290TMC3     H 4430   2.554   3.727  14.210 -4.6093  1.4556 -0.0532
  290TMC3    H1 4431   2.579   3.300  14.197  3.1123  0.9762 -0.3380
  290TMC3    H2 4432   2.332   3.536  13.915 -2.2017 -0.2165  1.4637
  290TMC3    C7 4433   2.397   3.290  13.987 -0.0260  0.0405  0.3405
  290TMC3    C8 4434   2.322   3.715  14.096  0.1702 -0.1620 -0.1484
  290TMC3    O1 4435   2.325   3.307  13.894  0.4271  0.0511  0.4461
  290TMC3    O2 4436   2.214   3.664  14.059 -0.1769  0.1554 -0.2553
  291MPD2     C 4437   2.272   3.617   0.671 -0.3986  0.5837 -0.5393
  291MPD2    C1 4438   2.381   3.523   0.653 -0.3320 -0.1188  0.2103
  291MPD2    C2 4439   2.470   3.543   0.543  0.3606  0.1715 -0.1941
  291MPD2    C3 4440   2.456   3.650   0.458 -0.2609  0.3404  0.6819
  291MPD2    C4 4441   2.355   3.741   0.490 -0.6976  0.2822 -0.4419
  291MPD2    C5 4442   2.264   3.722   0.584  0.6290 -0.0396  0.2566
  291MPD2     H 4443   2.552   3.473   0.530  0.7355  0.5199  0.2806
  291MPD2    H1 4444   2.351   3.830   0.428  0.2074  0.8590  0.3299
  291MPD2    H2 4445   2.203   3.601   0.753 -1.9874  0.6677 -1.8571
  291MPD2    H3 4446   2.193   3.801   0.602 -0.1597 -0.2930 -1.7614
  291MPD2     N 4447   2.556   3.683   0.366 -0.1483  0.1291  0.0414
  291MPD2    H5 4448   2.544   3.759   0.300  0.2714  0.2919  0.1549
  291MPD2    N1 4449   2.396   3.419   0.751  0.0271  0.7600 -0.3737
  291MPD2    H7 4450   2.331   3.409   0.828  0.0027 -0.4298 -0.5408
  292TMC3    C1 4451   2.440   3.192   0.816 -0.0904  0.9284  0.0168
  292TMC3    C2 4452   2.370   3.211   0.933 -0.5264 -0.0590  0.2877
  292TMC3    C3 4453   2.351   3.099   1.018  0.4791 -0.2782  0.1068
  292TMC3    C4 4454   2.486   3.064   0.781 -0.5998 -0.0101  0.6759
  292TMC3    C5 4455   2.452   2.963   0.871 -0.7344  0.2677  0.4363
  292TMC3    C6 4456   2.395   2.972   0.994 -0.0252 -0.1616 -0.3350
  292TMC3     C 4457   2.476   3.309   0.737 -0.5003 -0.3026 -0.3171
  292TMC3     O 4458   2.564   3.283   0.657 -0.2446 -0.2937 -0.0182
  292TMC3     H 4459   2.326   3.309   0.949  1.5783  0.8456  0.4959
  292TMC3    H1 4460   2.546   3.045   0.692  0.1593  1.2161  0.9196
  292TMC3    H2 4461   2.378   2.890   1.063  1.6377 -1.1090 -1.0525
  292TMC3    C7 4462   2.486   2.836   0.819  0.1562 -0.3000 -0.2226
  292TMC3    C8 4463   2.244   3.120   1.115 -0.3862  0.0426 -0.3670
  292TMC3    O1 4464   2.479   2.828   0.699  0.1842  0.0921 -0.0529
  292TMC3    O2 4465   2.221   3.235   1.144  0.0839 -0.0492 -0.6850
  293MPD2     C 4466   4.174   4.651  12.801 -0.9743  0.6579  0.2358
  293MPD2    C1 4467   4.051   4.715  12.800  0.4522 -0.4587 -0.2098
  293MPD2    C2 4468   3.976   4.710  12.910 -0.3079 -0.5054 -0.2513
  293MPD2    C3 4469   4.031   4.660  13.025 -0.0095 -0.4950 -0.1186
  293MPD2    C4 4470   4.150   4.595  13.026 -0.3001 -0.2704 -0.3063
  293MPD2    C5 4471   4.227   4.585  12.917  0.0047 -0.2738 -1.1292
  293MPD2     H 4472   3.876   0.012  12.914 -0.4693 -0.7953 -1.0859
  293MPD2    H1 4473   4.197   4.558  13.117  0.1437  1.6031  0.2190
  293MPD2    H2 4474   4.237   4.653  12.713  0.9386 -1.8610  1.5580
  293MPD2    H3 4475   4.326   4.540  12.916 -0.3326 -1.0180 -0.9580
  293MPD2     N 4476   3.958   4.679  13.146 -0.0216 -0.1450 -0.1973
  293MPD2    H5 4477   3.884   0.008  13.141 -0.3513 -0.6981 -3.2058
  293MPD2    N1 4478   4.011   0.028  12.668  0.1798 -0.7101  0.3061
  293MPD2    H7 4479   4.083   0.038  12.597  1.2530 -1.2239  1.3314
  294TMC3    C1 4480   3.876   0.176  12.534  0.2222 -0.8231 -0.2997
  294TMC3    C2 4481   3.753   0.227  12.513 -0.2552 -0.1763 -0.1067
  294TMC3    C3 4482   3.742   0.335  12.420  0.1068 -0.4202  0.0195
  294TMC3    C4 4483   3.988   0.232  12.477  0.3962 -0.2016  0.2553
  294TMC3    C5 4484   3.974   0.333  12.381 -0.1577 -0.5396 -0.2647
  294TMC3    C6 4485   3.853   0.393  12.358 -0.2506  0.3959 -0.3549
  294TMC3     C 4486   3.887   0.076  12.637 -0.0613 -0.1437  0.9876
  294TMC3     O 4487   3.784   0.048  12.698 -0.3743  0.2342  0.4609
  294TMC3     H 4488   3.670   0.204  12.578 -0.3221  0.5352  0.0652
  294TMC3    H1 4489   4.090   0.201  12.498  0.4327  1.4741  2.4696
  294TMC3    H2 4490   3.857   0.473  12.286  1.2859  1.4331  0.8822
  294TMC3    C7 4491   4.062   0.325  12.261 -0.1799 -0.0036 -1.1271
  294TMC3    C8 4492   3.617   0.357  12.347  0.1156 -0.4807 -0.3793
  294TMC3    O1 4493   4.068   0.415  12.177 -0.4575  0.6216 -0.1268
  294TMC3    O2 4494   3.621   0.444  12.262  0.3413  0.6321 -0.2452
  295MPD2     C 4495   4.133   4.078   0.782 -0.2491 -0.1558 -0.0232
  295MPD2    C1 4496   4.065   3.959   0.805  0.1488  0.0540 -0.0552
  295MPD2    C2 4497   3.969   3.953   0.899 -0.1038 -0.0057  0.1870
  295MPD2    C3 4498   3.935   4.066   0.970 -0.6268 -0.6530  0.4066
  295MPD2    C4 4499   4.004   4.185   0.945 -0.0729  0.0226  0.0901
  295MPD2    C5 4500   4.095   4.186   0.850  0.9849 -0.2370  0.3496
  295MPD2     H 4501   3.909   3.863   0.902 -0.3052  0.0866 -1.0534
  295MPD2    H1 4502   3.993   4.276   1.003 -1.9234  0.4132 -0.8671
  295MPD2    H2 4503   4.193   4.079   0.692  0.3400  1.1634  0.3802
  295MPD2    H3 4504   4.139   4.279   0.815 -1.3127  0.8014  0.2468
  295MPD2     N 4505   3.831   4.059   1.072 -0.0988 -0.6011  0.2238
  295MPD2    H5 4506   3.804   4.149   1.111 -0.1340 -0.0045 -1.1824
  295MPD2    N1 4507   4.112   3.840   0.742  1.0046  0.3122  0.1814
  295MPD2    H7 4508   4.071   3.754   0.778  1.5194  1.3573  3.2491
  296TMC3    C1 4509   3.674   3.987   1.235  0.5410 -0.0922  0.0777
  296TMC3    C2 4510   3.624   4.113   1.266 -0.3010 -0.1951 -0.4469
  296TMC3    C3 4511   3.525   4.116   1.363 -0.4781  0.0240  0.0323
  296TMC3    C4 4512   3.621   3.876   1.302  0.4920 -0.0127  0.2272
  296TMC3    C5 4513   3.520   3.885   1.400 -0.1299  0.5558  0.3034
  296TMC3    C6 4514   3.470   4.008   1.427  0.0246  0.7844  0.1393
  296TMC3     C 4515   3.768   3.953   1.126  0.5176 -0.1752  0.7201
  296TMC3     O 4516   3.778   3.837   1.097  0.6801 -0.0694 -0.2957
  296TMC3     H 4517   3.659   4.200   1.212  1.4490 -1.1048 -0.7897
  296TMC3    H1 4518   3.667   3.780   1.283 -0.2617 -0.1334 -1.0667
  296TMC3    H2 4519   3.391   4.022   1.500 -0.5197  1.6237 -0.6079
  296TMC3    C7 4520   3.464   3.768   1.468 -0.1673  0.8263  0.6122
  296TMC3    C8 4521   3.464   4.242   1.397 -0.5141  0.3006  0.6643
  296TMC3    O1 4522   3.376   3.789   1.551  0.6651  0.6922 -0.2974
  296TMC3    O2 4523   3.396   4.246   1.501 -0.0678 -0.1923 -0.4562
  297MPD2     C 4524   1.636   0.513  16.421  0.2071 -0.2740 -0.4664
  297MPD2    C1 4525   1.580   0.555  16.304 -0.1809 -0.1283 -0.5350
  297MPD2    C2 4526   1.635   0.671  16.249 -0.1288  1.1673 -0.2640
  297MPD2    C3 4527   1.733   0.741  16.318 -0.0959  0.4617  0.3026
  297MPD2    C4 4528   1.779   0.700  16.440 -0.7374  0.4165  0.2754
  297MPD2    C5 4529   1.734   0.582  16.489 -0.1846  0.2052  0.3088
  297MPD2     H 4530   1.597   0.715  16.158  1.9085  0.8039 -1.2787
  297MPD2    H1 4531   1.847   0.760  16.500 -3.2805  1.5768  2.0186
  297MPD2    H2 4532   1.618   0.412  16.458 -3.8590 -0.0378 -1.8108
  297MPD2    H3 4533   1.769   0.550  16.586 -1.3942 -3.4981 -0.4796
  297MPD2     N 4534   1.798   0.852  16.260 -0.0701 -0.0472  0.4645
  297MPD2    H5 4535   1.865   0.903  16.317 -1.5509  1.2685  1.0467
  297MPD2    N1 4536   1.488   0.481  16.227 -0.3869 -0.2002  0.3665
  297MPD2    H7 4537   1.465   0.521  16.136  0.3606 -0.8363 -0.1042
  298TMC3    C1 4538   1.283   0.344  16.213 -0.1795 -0.9020  0.2640
  298TMC3    C2 4539   1.263   0.390  16.084 -0.0990 -0.2280 -0.4518
  298TMC3    C3 4540   1.146   0.366  16.022 -1.1702  0.4873  0.4638
  298TMC3    C4 4541   1.176   0.285  16.280 -1.0479  0.4512  0.0544
  298TMC3    C5 4542   1.058   0.281  16.216 -0.1432  1.3897  0.4356
  298TMC3    C6 4543   1.047   0.293  16.080  0.4858 -0.6691  0.1808
  298TMC3     C 4544   1.408   0.374  16.273 -0.0883  0.0391  0.1188
  298TMC3     O 4545   1.435   0.296  16.361 -0.3264  0.1915 -0.2671
  298TMC3     H 4546   1.345   0.436  16.030 -0.3074  0.0062 -0.5696
  298TMC3    H1 4547   1.187   0.283  16.388  0.5163  1.4604 -0.0718
  298TMC3    H2 4548   0.967   0.263  16.014  0.9894  0.5743 -0.9836
  298TMC3    C7 4549   0.966   0.376  16.278  0.1095  0.0620 -0.5290
  298TMC3    C8 4550   1.104   0.424  15.888 -0.2650 -0.1379 -0.3717
  298TMC3    O1 4551   0.973   0.397  16.399  0.0133 -0.3309 -0.2340
  298TMC3    O2 4552   0.986   0.416  15.854 -0.1075 -0.0100 -0.1621
  299MPD2     C 4553   2.344   0.375  11.152 -0.2518  0.0372 -1.0710
  299MPD2    C1 4554   2.325   0.484  11.079  0.3794 -0.3256 -0.0181
  299MPD2    C2 4555   2.266   0.469  10.957 -0.2093 -0.5406  0.7664
  299MPD2    C3 4556   2.213   0.346  10.912 -0.0183  0.1725 -0.0596
  299MPD2    C4 4557   2.229   0.239  10.992  0.1687 -0.0315  1.1746
  299MPD2    C5 4558   2.298   0.253  11.109  0.0913  0.4356  0.0461
  299MPD2     H 4559   2.262   0.553  10.889 -2.1761 -0.8169  0.5244
  299MPD2    H1 4560   2.182   0.143  10.969 -1.6598  1.7685 -2.5593
  299MPD2    H2 4561   2.388   0.384  11.250  0.2669  0.4446 -1.3411
  299MPD2    H3 4562   2.314   0.162  11.165  1.3692 -0.2129 -1.3597
  299MPD2     N 4563   2.147   0.325  10.781 -0.5293  0.3070  0.0619
  299MPD2    H5 4564   2.111   0.231  10.768  1.3033 -0.4276  0.2223
  299MPD2    N1 4565   2.363   0.608  11.137 -0.1805  0.0191  0.0252
  299MPD2    H7 4566   2.403   0.602  11.230 -1.6001 -1.7515  0.5311
  300TMC3    C1 4567   2.062   0.378  10.568 -0.5470 -0.5466  0.3679
  300TMC3    C2 4568   2.089   0.449  10.454  0.4506  0.8707 -0.9793
  300TMC3    C3 4569   2.004   0.434  10.346 -0.2575 -0.6269 -0.1324
  300TMC3    C4 4570   1.960   0.284  10.577 -0.0093 -0.3721  0.5874
  300TMC3    C5 4571   1.883   0.278  10.465 -0.5400  0.1241  1.0276
  300TMC3    C6 4572   1.898   0.347  10.348  0.0707 -0.0958  0.6258
  300TMC3     C 4573   2.141   0.417  10.684  0.3539  0.1243  0.2758
  300TMC3     O 4574   2.205   0.521  10.680  0.0173  0.3207  0.0292
  300TMC3     H 4575   2.178   0.511  10.451  1.5094 -0.6275 -0.6900
  300TMC3    H1 4576   1.939   0.222  10.663  0.7215 -2.0348 -0.4355
  300TMC3    H2 4577   1.825   0.329  10.269  0.4334  2.0004 -0.1809
  300TMC3    C7 4578   1.751   0.223  10.478  0.3482  0.7886  0.4064
  300TMC3    C8 4579   1.992   0.561  10.283 -0.0803  0.8457  0.3962
  300TMC3    O1 4580   1.697   0.169  10.384 -0.2723  0.0168 -0.0535
  300TMC3    O2 4581   2.089   0.637  10.297 -0.6345  0.2712 -0.2889
  301MPD2     C 4582   4.473   1.717   1.409 -0.3734  0.1916 -0.6721
  301MPD2    C1 4583   4.374   1.699   1.312  0.3010  0.6715  0.3024
  301MPD2    C2 4584   4.334   1.566   1.290 -0.6763 -0.5578  0.5968
  301MPD2    C3 4585   4.403   1.453   1.344  0.4331 -0.0903 -0.4146
  301MPD2    C4 4586   4.503   1.477   1.436 -0.7359  0.4925 -0.1905
  301MPD2    C5 4587   4.538   1.609   1.465 -0.2306  1.1393 -0.2412
  301MPD2     H 4588   4.255   1.554   1.217  2.1678 -0.6986 -2.4394
  301MPD2    H1 4589   4.533   1.394   1.500  1.1622  1.9405  0.7912
  301MPD2    H2 4590   4.504   1.815   1.444 -1.3144  0.7080 -1.2608
  301MPD2    H3 4591   4.618   1.625   1.537 -1.7763  1.8267  1.3239
  301MPD2     N 4592   4.371   1.320   1.322  0.2099  0.1730 -0.1422
  301MPD2    H5 4593   4.428   1.247   1.362 -1.0383 -0.9452 -0.4307
  301MPD2    N1 4594   4.301   1.799   1.255 -0.9753  0.2480 -0.1766
  301MPD2    H7 4595   4.227   1.763   1.195 -1.9998  0.0272  1.2401
  302TMC3    C1 4596   4.241   1.140   1.236 -0.4030  0.1437  0.3417
  302TMC3    C2 4597   4.286   1.049   1.329 -0.3248 -0.5966  0.5327
  302TMC3    C3 4598   4.265   0.914   1.308  0.9248  0.4178  0.3615
  302TMC3    C4 4599   4.158   1.105   1.133 -0.4953  0.2131  0.1371
  302TMC3    C5 4600   4.132   0.970   1.113  0.6270  0.7824 -0.4188
  302TMC3    C6 4601   4.194   0.877   1.196  0.6922 -0.1136 -0.3856
  302TMC3     C 4602   4.258   1.282   1.251 -0.3217  0.0023  0.0379
  302TMC3     O 4603   4.166   1.354   1.207 -0.0019  0.2686  0.3753
  302TMC3     H 4604   4.332   1.093   1.417 -0.7287  0.7131  0.0943
  302TMC3    H1 4605   4.119   1.175   1.060  0.0229  0.1633 -0.1927
  302TMC3    H2 4606   4.170   0.774   1.174 -0.8326  0.0683  0.4451
  302TMC3    C7 4607   4.048   0.932   1.000 -0.3284  0.1153  1.1192
  302TMC3    C8 4608   4.339   0.806   1.373 -0.0958  0.3147 -0.3640
  302TMC3    O1 4609   4.082   0.833   0.937  0.0236  0.2345 -0.5951
  302TMC3    O2 4610   4.343   0.692   1.320  0.3084 -0.0364 -0.0539
  303MPD2     C 4611   0.262   4.557  10.991 -0.5875 -0.1410 -0.4480
  303MPD2    C1 4612   0.158   4.496  10.926  0.3237  0.3540  0.0567
  303MPD2    C2 4613   0.088   4.577  10.838  0.7402 -0.2180 -0.9239
  303MPD2    C3 4614   0.114   4.711  10.816  0.2632 -0.4823  0.0886
  303MPD2    C4 4615   0.220   0.025  10.877  0.0948  0.0754 -0.6613
  303MPD2    C5 4616   0.293   4.686  10.957  0.5179 -0.5011  0.3596
  303MPD2     H 4617   0.006   4.530  10.783 -0.2029  2.0488 -1.4794
  303MPD2    H1 4618   0.251   0.127  10.861 -1.4080  0.5927 -0.2996
  303MPD2    H2 4619   0.338   4.506  11.049 -1.1364  1.8643  2.0647
  303MPD2    H3 4620   0.379   4.735  11.000 -0.2974  2.2460 -1.1831
  303MPD2     N 4621   0.035   0.050  10.728 -0.7211 -0.1720 -0.6131
  303MPD2    H5 4622   0.059   0.148  10.714 -0.2314 -0.1030  0.7065
  303MPD2    N1 4623   0.144   4.355  10.939  0.1913  0.1990 -0.3264
  303MPD2    H7 4624   0.200   4.310  11.011  3.1920  2.5113 -1.2423
  304TMC3    C1 4625   0.050   4.150  10.926  0.4261 -0.0360 -0.4665
  304TMC3    C2 4626   4.709   4.155  11.034 -0.0768 -0.9462  0.3902
  304TMC3    C3 4627   4.655   4.045  11.087  0.6252 -0.2469 -0.9227
  304TMC3    C4 4628   0.090   4.033  10.869 -0.6754 -0.3213 -0.0779
  304TMC3    C5 4629   0.042   3.915  10.922  0.3718  0.7317 -0.6611
  304TMC3    C6 4630   4.697   3.921  11.032  0.2962  0.8931  0.1400
  304TMC3     C 4631   0.066   4.274  10.860  0.5065 -0.1360  0.3739
  304TMC3     O 4632   0.021   4.283  10.747  0.1297  0.3221 -0.4610
  304TMC3     H 4633   4.671   4.251  11.067 -0.6866 -0.7158 -0.9909
  304TMC3    H1 4634   0.127   4.039  10.767 -0.3522  0.6563  0.1000
  304TMC3    H2 4635   4.670   3.824  11.073  0.2378 -0.2012 -2.5068
  304TMC3    C7 4636   4.729   3.835  10.811  0.1214  0.6369 -0.1873
  304TMC3    C8 4637   4.512   4.037  11.089  0.7317  0.6561 -0.2193
  304TMC3    O1 4638   0.061   3.805  10.717 -0.0014 -0.1528 -0.9897
  304TMC3    O2 4639   4.466   3.926  11.064 -0.5979  0.1780  0.6199
  305MPD2     C 4640   3.259   2.210  14.294 -0.2857  0.1648  0.6617
  305MPD2    C1 4641   3.279   2.077  14.271 -0.2308  0.2194 -0.3252
  305MPD2    C2 4642   3.255   2.027  14.143  0.6127 -0.5605  0.1236
  305MPD2    C3 4643   3.231   2.120  14.040  0.2848 -0.1289 -0.1360
  305MPD2    C4 4644   3.208   2.252  14.065 -0.0023 -0.2656 -0.4175
  305MPD2    C5 4645   3.221   2.296  14.197 -0.2576  0.1747 -0.7148
  305MPD2     H 4646   3.276   1.922  14.128 -0.0028 -0.7199  0.3567
  305MPD2    H1 4647   3.168   2.317  13.988 -1.3864  0.2652  0.7463
  305MPD2    H2 4648   3.276   2.247  14.394  0.5445  0.4690  0.4142
  305MPD2    H3 4649   3.194   2.397  14.226 -0.1725 -1.0185  3.5635
  305MPD2     N 4650   3.210   2.077  13.905 -0.1683 -0.3284 -0.3485
  305MPD2    H5 4651   3.195   2.143  13.830  1.7522  0.5751  0.0744
  305MPD2    N1 4652   3.315   2.000  14.387 -0.2856  0.3988 -0.4547
  305MPD2    H7 4653   3.333   2.045  14.477 -1.3164 -1.2452  0.5737
  306TMC3    C1 4654   3.340   1.812  14.526 -0.4432 -0.3652 -0.1252
  306TMC3    C2 4655   3.391   1.684  14.525 -0.0395  0.0865 -0.5553
  306TMC3    C3 4656   3.368   1.607  14.635  0.5200  0.8378 -0.0420
  306TMC3    C4 4657   3.270   1.861  14.628 -0.5318  0.2264  0.2848
  306TMC3    C5 4658   3.254   1.791  14.741  0.0902 -0.3153 -0.3845
  306TMC3    C6 4659   3.302   1.663  14.749 -0.8107 -0.5698 -0.6772
  306TMC3     C 4660   3.318   1.867  14.397  0.1303  0.0937 -0.0368
  306TMC3     O 4661   3.305   1.783  14.303  0.5668 -0.2961 -0.2597
  306TMC3     H 4662   3.443   1.644  14.438 -0.4961  0.4138 -0.9809
  306TMC3    H1 4663   3.225   1.959  14.617  0.1669  0.4643 -0.3860
  306TMC3    H2 4664   3.307   1.602  14.838  0.2309  0.1899 -0.2131
  306TMC3    C7 4665   3.148   1.834  14.832 -0.0643  0.2333 -0.5632
  306TMC3    C8 4666   3.435   1.481  14.638  0.1556  0.3933  0.0152
  306TMC3    O1 4667   3.117   1.954  14.846  0.0879 -0.0891  0.2389
  306TMC3    O2 4668   3.465   1.443  14.530  0.2042 -0.0996  0.7763
  307MPD2     C 4669   0.916   0.825   0.439  0.9564  0.1413  0.1810
  307MPD2    C1 4670   0.793   0.890   0.438  0.2210  0.0228  0.2534
  307MPD2    C2 4671   0.688   0.812   0.482 -0.1077  0.1456  0.4375
  307MPD2    C3 4672   0.696   0.683   0.529 -0.6195 -0.9747  0.2846
  307MPD2    C4 4673   0.820   0.624   0.524  0.1142  0.3362  0.3604
  307MPD2    C5 4674   0.930   0.696   0.479  0.3275 -0.1596 -0.0870
  307MPD2     H 4675   0.586   0.850   0.479 -0.1551 -0.0664 -0.4371
  307MPD2    H1 4676   0.835   0.524   0.561 -1.2318  0.0309  0.1093
  307MPD2    H2 4677   1.005   0.873   0.399  0.2234  0.8434 -0.6147
  307MPD2    H3 4678   1.024   0.644   0.468  0.8126  0.3583  1.5211
  307MPD2     N 4679   0.579   0.619   0.576  0.0276  0.2502  0.0233
  307MPD2    H5 4680   0.493   0.670   0.562 -1.4341 -1.9164  1.1190
  307MPD2    N1 4681   0.768   1.018   0.388 -0.1252  0.2997 -0.0331
  307MPD2    H7 4682   0.670   1.043   0.380 -0.2103 -0.4238 -1.3288
  308TMC3    C1 4683   0.277   0.292   0.707 -0.0371  0.7219  0.3144
  308TMC3    C2 4684   0.190   0.379   0.766 -0.2700  1.2317  0.1916
  308TMC3    C3 4685   0.227   0.513   0.762 -0.6892 -0.3232 -0.7828
  308TMC3    C4 4686   0.395   0.326   0.656  0.0486 -0.5224 -0.7363
  308TMC3    C5 4687   0.434   0.458   0.669  0.2392 -0.1511 -0.2325
  308TMC3    C6 4688   0.348   0.552   0.721  0.3982  0.2309 -1.1698
  308TMC3     C 4689   0.223   0.171   0.662 -0.1997  0.0982  0.0534
  308TMC3     O 4690   0.290   0.070   0.658  0.1798 -0.2818  0.0407
  308TMC3     H 4691   0.100   0.350   0.819  1.2343 -2.2816  0.7794
  308TMC3    H1 4692   0.460   0.251   0.613 -0.7982  0.8943 -4.4992
  308TMC3    H2 4693   0.376   0.657   0.722  0.8893  0.1027 -1.3284
  308TMC3    C7 4694   0.566   0.486   0.619  0.2105 -0.4965 -0.5204
  308TMC3    C8 4695   0.159   0.606   0.842 -0.1472 -0.1347  0.4784
  308TMC3    O1 4696   0.650   0.398   0.605  0.2860  0.0535  0.0630
  308TMC3    O2 4697   0.184   0.588   0.961  0.0984 -0.4740 -0.1837
  309MPD2     C 4698   4.485   0.642  17.249 -0.3443  0.1412 -0.0052
  309MPD2    C1 4699   4.422   0.703  17.138  0.5862  0.5155  0.7306
  309MPD2    C2 4700   4.284   0.741  17.149 -0.8720  0.0433  0.7831
  309MPD2    C3 4701   4.222   0.712  17.268  0.2946  0.0704  0.1341
  309MPD2    C4 4702   4.281   0.655  17.372 -0.3804 -0.6257  0.1235
  309MPD2    C5 4703   4.413   0.625  17.362  0.0765 -0.2158  0.5064
  309MPD2     H 4704   4.236   0.788  17.065 -0.3012  0.0390  0.4542
  309MPD2    H1 4705   4.221   0.627  17.458  1.2330 -1.6973  0.9016
  309MPD2    H2 4706   4.589   0.610  17.250 -0.1960  0.6446  0.6726
  309MPD2    H3 4707   4.457   0.568  17.443 -0.2098 -0.4357  0.5096
  309MPD2     N 4708   4.084   0.728  17.283  0.1267 -0.6238  0.4150
  309MPD2    H5 4709   4.050   0.681  17.366  1.9288 -1.1108  0.8687
  309MPD2    N1 4710   4.484   0.726  17.011 -0.0210 -0.1469 -0.3463
  309MPD2    H7 4711   4.428   0.757  16.933 -0.3075  1.7011  0.5943
  310TMC3    C1 4712   4.653   0.722  16.847  0.1924 -0.2891 -0.0553
  310TMC3    C2 4713   4.566   0.799  16.774  1.1330 -0.3626 -0.4079
  310TMC3    C3 4714   4.591   0.794  16.636 -0.6804  0.5534 -0.1696
  310TMC3    C4 4715   0.008   0.644  16.801 -0.3687 -0.5265 -0.3774
  310TMC3    C5 4716   0.015   0.637  16.661  0.3364 -0.1574 -0.3455
  310TMC3    C6 4717   4.679   0.709  16.575  0.6660  0.5927  0.8625
  310TMC3     C 4718   4.613   0.688  16.983  0.2936 -0.4287 -0.0058
  310TMC3     O 4719   4.704   0.654  17.057 -0.2510  0.0782 -0.8414
  310TMC3     H 4720   4.489   0.867  16.809  2.0696  0.8860 -0.7608
  310TMC3    H1 4721   0.077   0.589  16.864  0.2785 -0.4007 -0.9795
  310TMC3    H2 4722   4.678   0.691  16.468 -1.2971 -1.1035  1.1739
  310TMC3    C7 4723   0.085   0.523  16.597 -0.3376  0.0457 -0.3582
  310TMC3    C8 4724   4.505   0.860  16.542 -0.0745  0.5731  0.7139
  310TMC3    O1 4725   0.127   0.434  16.674  0.0943 -0.0216  0.0246
  310TMC3    O2 4726   4.387   0.874  16.574  0.0002 -0.5804 -0.1214
  311MPD2     C 4727   1.777   1.988  12.671  0.1833 -0.2241 -0.1350
  311MPD2    C1 4728   1.863   1.928  12.759  0.7954  0.4875 -0.0938
  311MPD2    C2 4729   1.836   1.799  12.801  0.1631  0.2157 -0.1994
  311MPD2    C3 4730   1.710   1.742  12.761 -0.9942 -1.1677 -0.3573
  311MPD2    C4 4731   1.625   1.810  12.679 -0.3136 -0.2219  0.7570
  311MPD2    C5 4732   1.664   1.930  12.630 -0.3921 -0.4046  0.0918
  311MPD2     H 4733   1.905   1.738  12.859 -0.0472  0.2801  0.1200
  311MPD2    H1 4734   1.523   1.787  12.651  0.3817 -1.1145 -1.0102
  311MPD2    H2 4735   1.797   2.093  12.652  1.1635 -0.5670 -0.9924
  311MPD2    H3 4736   1.593   1.976  12.563  2.2920 -0.1198 -2.5840
  311MPD2     N 4737   1.670   1.626  12.819  0.6658  0.6307 -0.3320
  311MPD2    H5 4738   1.720   1.600  12.904  0.1587  1.1874  0.1407
  311MPD2    N1 4739   1.983   2.002  12.789  0.2448 -0.1172  1.0774
  311MPD2    H7 4740   1.984   2.099  12.761 -0.7145  0.2625  2.3375
  312TMC3    C1 4741   1.512   1.466  12.875  0.4950  0.7399  0.0898
  312TMC3    C2 4742   1.384   1.438  12.848  0.7214  0.4273 -0.1221
  312TMC3    C3 4743   1.308   1.387  12.952 -0.1236  0.1574  0.7200
  312TMC3    C4 4744   1.565   1.466  12.997 -0.4139  0.0088  0.6807
  312TMC3    C5 4745   1.485   1.419  13.103  1.2103 -0.5557  0.3946
  312TMC3    C6 4746   1.362   1.363  13.079 -0.4032  0.3147  0.1826
  312TMC3     C 4747   1.566   1.552  12.775 -0.3729  0.5421 -0.4571
  312TMC3     O 4748   1.528   1.541  12.661  0.4171 -0.2100 -0.3848
  312TMC3     H 4749   1.352   1.431  12.745 -1.7834 -2.4562  0.8257
  312TMC3    H1 4750   1.666   1.498  13.020 -1.4177  1.7184  2.7046
  312TMC3    H2 4751   1.308   1.348  13.172  0.2644 -0.0967  0.5052
  312TMC3    C7 4752   1.536   1.424  13.237  0.3687 -0.5239  0.3253
  312TMC3    C8 4753   1.167   1.405  12.949 -0.3669 -0.0162  0.2416
  312TMC3    O1 4754   1.504   1.337  13.317 -0.5351 -0.1275  0.0213
  312TMC3    O2 4755   1.102   1.338  13.025  0.2361  0.0986  0.4740
  313MPD2     C 4756   0.868   1.303  11.646  0.3769  0.8425  0.2319
  313MPD2    C1 4757   0.932   1.403  11.581 -0.3414 -0.3526 -0.1803
  313MPD2    C2 4758   1.004   1.373  11.465  0.0854  0.8863  0.2423
  313MPD2    C3 4759   1.009   1.241  11.417  0.1665 -0.5440 -0.0528
  313MPD2    C4 4760   0.940   1.139  11.489 -0.1444 -0.6985  0.3408
  313MPD2    C5 4761   0.866   1.176  11.602 -0.4409  0.7990  0.6927
  313MPD2     H 4762   1.064   1.453  11.422  0.1830  0.6948  0.0194
  313MPD2    H1 4763   0.957   1.035  11.463  0.9198 -0.3915 -0.2232
  313MPD2    H2 4764   0.807   1.318  11.734  1.5065  1.0065  0.9833
  313MPD2    H3 4765   0.820   1.097  11.660 -1.6667  0.3676 -0.8710
  313MPD2     N 4766   1.079   1.198  11.305 -0.2588 -0.3128  0.5170
  313MPD2    H5 4767   1.088   1.098  11.289 -0.3746  0.0319 -1.6473
  313MPD2    N1 4768   0.926   1.538  11.633  0.1270  0.2755 -0.0316
  313MPD2    H7 4769   0.971   1.598  11.565 -0.1619  1.5697  0.9142
  314TMC3    C1 4770   0.853   1.730  11.734  0.6547 -0.7107 -0.1223
  314TMC3    C2 4771   0.973   1.789  11.714 -0.7149 -0.2489 -0.5488
  314TMC3    C3 4772   0.977   1.918  11.672 -0.4198 -0.0626  0.3535
  314TMC3    C4 4773   0.731   1.791  11.714  0.1865  0.0737 -0.6204
  314TMC3    C5 4774   0.735   1.920  11.669 -0.0441  0.0939 -0.3096
  314TMC3    C6 4775   0.860   1.986  11.658  0.8019 -0.2058  0.4998
  314TMC3     C 4776   0.844   1.585  11.729  1.0200 -0.2392  0.1587
  314TMC3     O 4777   0.762   1.530  11.797  0.0026 -0.2430 -0.0560
  314TMC3     H 4778   1.058   1.723  11.714 -0.0408  0.6273 -3.7967
  314TMC3    H1 4779   0.636   1.739  11.707  0.5304 -0.5236 -0.7882
  314TMC3    H2 4780   0.867   2.092  11.640  0.7016 -0.3576 -0.4830
  314TMC3    C7 4781   0.626   1.957  11.582 -0.2439 -0.3588  0.4254
  314TMC3    C8 4782   1.100   1.975  11.613 -0.1919 -0.3274  0.2025
  314TMC3    O1 4783   0.513   1.919  11.611  0.2558 -0.4959 -0.5882
  314TMC3    O2 4784   1.083   2.074  11.543 -0.1286  0.3046 -0.3105
  315MPD2     C 4785   0.986   4.640  17.524 -0.3710  0.7283 -0.5689
  315MPD2    C1 4786   1.058   4.677  17.633  0.8350 -0.0575  0.0356
  315MPD2    C2 4787   1.070   0.071  17.660  0.7383  0.7095  0.5578
  315MPD2    C3 4788   1.009   0.170  17.580 -1.0418  1.1651 -0.2481
  315MPD2    C4 4789   0.941   0.131  17.469 -0.0755 -0.0889 -0.4141
  315MPD2    C5 4790   0.922   4.738  17.442  0.0950 -0.4444  0.3937
  315MPD2     H 4791   1.134   0.103  17.742  1.9105 -0.1958 -0.0184
  315MPD2    H1 4792   0.883   0.203  17.413  1.3004  0.2727 -1.4034
  315MPD2    H2 4793   0.970   4.534  17.505  2.5073 -0.0884  1.6465
  315MPD2    H3 4794   0.867   4.698  17.357  1.6992  0.5495 -1.1376
  315MPD2     N 4795   1.053   0.302  17.606  0.0757  0.0395 -1.2703
  315MPD2    H5 4796   1.111   0.324  17.686  1.4745  0.5356 -2.4261
  315MPD2    N1 4797   1.145   4.590  17.692 -0.0601 -0.4772  0.2221
  315MPD2    H7 4798   1.210   4.619   0.005  0.8906 -1.2788 -0.3089
  316TMC3    C1 4799   1.097   0.525  17.562 -0.3914  0.0228  0.3921
  316TMC3    C2 4800   1.213   0.519  17.638 -0.1363 -0.0834  0.0452
  316TMC3    C3 4801   1.278   0.639  17.662  0.4676 -0.0431 -0.9886
  316TMC3    C4 4802   1.040   0.642  17.519 -0.3083 -0.2757  0.0229
  316TMC3    C5 4803   1.112   0.754  17.549 -0.5288  0.3553 -0.6479
  316TMC3    C6 4804   1.226   0.761  17.627 -0.1288 -0.1245  0.4372
  316TMC3     C 4805   1.027   0.409  17.519  0.9510 -0.3096 -0.5249
  316TMC3     O 4806   0.945   0.420  17.431 -0.1301  0.6438 -0.4304
  316TMC3     H 4807   1.251   0.425  17.676  0.8004  0.1639 -0.2817
  316TMC3    H1 4808   0.947   0.642  17.464 -0.7652 -1.6226  0.7920
  316TMC3    H2 4809   1.267   0.856  17.660  3.5561 -1.2523 -0.9098
  316TMC3    C7 4810   1.058   0.879  17.522 -0.1232  0.1657 -0.8218
  316TMC3    C8 4811   1.389   0.643   0.002 -0.7507 -0.6372  0.8682
  316TMC3    O1 4812   1.100   0.982  17.568  0.0146  0.2631  0.0355
  316TMC3    O2 4813   1.397   0.751   0.063 -0.2102  0.6653 -0.6364
  317MPD2     C 4814   2.979   3.946  13.271  0.2844 -0.4536  0.0797
  317MPD2    C1 4815   3.098   3.883  13.238 -0.6324 -0.2169 -0.3965
  317MPD2    C2 4816   3.156   3.795  13.328 -0.0151  0.0457 -0.4235
  317MPD2    C3 4817   3.096   3.778  13.451  0.1468  0.5092  0.1782
  317MPD2    C4 4818   2.989   3.853  13.494 -0.0742 -0.5294  0.2517
  317MPD2    C5 4819   2.925   3.931  13.401 -0.5309 -0.6552 -0.6413
  317MPD2     H 4820   3.246   3.749  13.289 -1.8363 -0.7551 -3.6523
  317MPD2    H1 4821   2.964   3.851  13.599  2.3275  0.5301  0.8624
  317MPD2    H2 4822   2.935   4.031  13.222 -0.6328 -1.4645 -0.8398
  317MPD2    H3 4823   2.843   3.993  13.437 -2.2053 -2.6052 -1.0786
  317MPD2     N 4824   3.141   3.667  13.526 -0.2599 -0.4701  0.9482
  317MPD2    H5 4825   3.231   3.628  13.499 -0.1664  1.2047 -1.1390
  317MPD2    N1 4826   3.163   3.893  13.108  0.2314  0.1095  0.7756
  317MPD2    H7 4827   3.246   3.835  13.096 -0.1303 -0.2733  0.1350
  318TMC3    C1 4828   3.129   3.484  13.677  0.8814 -0.2151  0.3096
  318TMC3    C2 4829   3.052   3.371  13.694 -1.1205  0.0895 -0.3970
  318TMC3    C3 4830   3.106   3.277  13.780 -0.5081  1.0237 -0.3561
  318TMC3    C4 4831   3.251   3.511  13.730 -0.0414  0.3936 -0.1726
  318TMC3    C5 4832   3.304   3.411  13.806 -0.7958 -0.1835  0.1919
  318TMC3    C6 4833   3.232   3.293  13.828 -0.6226 -0.2146 -0.1964
  318TMC3     C 4834   3.061   3.601  13.621 -0.3171  0.0817 -0.2072
  318TMC3     O 4835   2.943   3.620  13.654  0.0069  0.0862  0.0002
  318TMC3     H 4836   2.955   3.361  13.647 -1.3046  0.4982 -0.1047
  318TMC3    H1 4837   3.311   3.601  13.724 -0.5425  0.6970 -0.6859
  318TMC3    H2 4838   3.273   3.215  13.890  1.3261  0.5740 -0.5016
  318TMC3    C7 4839   3.423   3.429  13.890  0.1080  0.6258  0.2949
  318TMC3    C8 4840   3.038   3.147  13.783 -0.7494 -0.5394  0.1939
  318TMC3    O1 4841   3.430   3.532  13.963 -0.2060  0.4298  0.1683
  318TMC3    O2 4842   3.109   3.052  13.819 -0.8035 -0.7224  0.0722
  319MPD2     C 4843   3.553   0.283  16.974  0.5810 -0.1254 -0.1590
  319MPD2    C1 4844   3.586   0.193  16.879 -0.7700 -0.4067  0.1349
  319MPD2    C2 4845   3.487   0.108  16.836  0.1386  0.0510 -0.8961
  319MPD2    C3 4846   3.355   0.126  16.878  0.9165 -0.3786  0.2288
  319MPD2    C4 4847   3.327   0.234  16.961  0.1388 -0.0564  0.0252
  319MPD2    C5 4848   3.427   0.310  17.013 -0.3945  0.1818  0.2803
  319MPD2     H 4849   3.511   0.034  16.760  2.7731 -0.1290  0.0911
  319MPD2    H1 4850   3.228   0.256  16.999 -0.9386 -2.9831 -1.1401
  319MPD2    H2 4851   3.624   0.344  17.030 -0.1482  1.3084 -0.8137
  319MPD2    H3 4852   3.416   0.397  17.075  0.6120  1.1539 -0.9114
  319MPD2     N 4853   3.251   0.042  16.843 -0.0799  0.5453  0.7537
  319MPD2    H5 4854   3.157   0.061  16.877 -0.9818 -1.0946 -0.7965
  319MPD2    N1 4855   3.714   0.172  16.824  0.2343 -0.1395 -0.1455
  319MPD2    H7 4856   3.714   0.113  16.742  0.9407 -0.9749  0.4584
  320TMC3    C1 4857   3.150   4.592  16.720 -0.0504 -0.1222  0.1842
  320TMC3    C2 4858   3.056   4.675  16.669  0.0109  0.0116 -0.4212
  320TMC3    C3 4859   2.969   4.618  16.583 -0.5856 -0.4554  0.2825
  320TMC3    C4 4860   3.156   4.457  16.700  0.4763  0.5870  0.1171
  320TMC3    C5 4861   3.061   4.406  16.608  0.6578  0.2110  0.0907
  320TMC3    C6 4862   2.962   4.483  16.556  0.0649 -0.3652 -0.3275
  320TMC3     C 4863   3.272   4.661  16.774 -0.2035  0.7807 -0.6023
  320TMC3     O 4864   3.377   4.601  16.765  0.0617  0.1893 -0.7747
  320TMC3     H 4865   3.053   0.042  16.685  1.9195  0.0148 -0.0897
  320TMC3    H1 4866   3.239   4.398  16.738 -2.3077 -1.8753  2.4314
  320TMC3    H2 4867   2.879   4.438  16.503  0.4473 -1.8748  0.3597
  320TMC3    C7 4868   3.065   4.271  16.560  0.3909 -0.3154  0.0814
  320TMC3    C8 4869   2.920   4.705  16.480 -0.0995  0.8283 -0.2653
  320TMC3    O1 4870   3.005   4.244  16.457  0.1213 -0.0788  0.7853
  320TMC3    O2 4871   2.903   0.083  16.507  0.3694  0.0951 -0.6445
  321TMC3    C1 4872   3.948   0.134  16.814  0.9042  0.0031 -0.2713
  321TMC3    C2 4873   3.921   0.015  16.755 -0.9915  0.5434 -0.4551
  321TMC3    C3 4874   4.008   4.656  16.768  0.0802  0.5032 -0.2129
  321TMC3    C4 4875   4.071   0.165  16.862 -0.2012 -0.1580 -0.4631
  321TMC3    C5 4876   4.167   0.066  16.847  0.1962  0.9370  0.1060
  321TMC3    C6 4877   4.141   4.685  16.792 -0.1667  0.1431  0.6529
  321TMC3     C 4878   3.835   0.203  16.876 -0.0695  0.1832  0.1466
  321TMC3     O 4879   3.859   0.282  16.966  0.8741  0.2636 -0.0093
  321TMC3     H 4880   3.819   4.721  16.741 -1.2222  1.1391 -0.2451
  321TMC3    H1 4881   4.091   0.251  16.925  0.7626 -0.1993 -0.7152
  321TMC3    H2 4882   4.215   4.606  16.788 -0.9073 -0.6057  1.9837
  321TMC3    C7 4883   4.258   0.050  16.959  0.1662  0.6095 -0.2128
  321TMC3    C8 4884   3.959   4.534  16.831 -1.2312 -0.4977  0.3927
  321TMC3    O1 4885   4.262   4.677  17.002 -0.2361 -0.3269 -0.3460
  321TMC3    O2 4886   3.844   4.496  16.806 -0.6139  0.4770 -0.0619
  322MPD2     C 4887   3.038   1.372  13.307 -0.3557  0.4421 -0.3616
  322MPD2    C1 4888   2.954   1.337  13.412  0.5270  0.1672 -0.0656
  322MPD2    C2 4889   2.889   1.214  13.412 -0.0257  0.5321  0.3083
  322MPD2    C3 4890   2.904   1.135  13.295  0.5625  0.2931 -0.5152
  322MPD2    C4 4891   2.979   1.176  13.184 -0.3645  0.2131 -0.1377
  322MPD2    C5 4892   3.047   1.293  13.193  0.1467 -0.4779  0.2728
  322MPD2     H 4893   2.831   1.179  13.497 -1.1465 -0.6419 -0.9328
  322MPD2    H1 4894   3.002   1.123  13.092 -1.3145 -1.8794  0.8105
  322MPD2    H2 4895   3.104   1.458  13.307 -0.3295  0.4219 -0.1012
  322MPD2    H3 4896   3.110   1.317  13.108 -0.2652  1.7220  0.5679
  322MPD2     N 4897   2.848   1.010  13.308 -0.5509  0.1193 -0.2227
  322MPD2    H5 4898   2.788   0.994  13.388  1.5572 -0.1528  1.2830
  322MPD2    N1 4899   2.962   1.417  13.533 -0.0893 -0.2187  0.5832
  322MPD2    H7 4900   3.037   1.484  13.533 -1.0672  0.8834  1.7659
  323TMC3    C1 4901   2.931   1.472  13.767 -0.8011 -0.3483  0.6992
  323TMC3    C2 4902   3.061   1.523  13.763  0.2953  0.0156 -0.2846
  323TMC3    C3 4903   3.131   1.530  13.883  0.2358  0.1660 -0.1935
  323TMC3    C4 4904   2.878   1.436  13.889 -0.1816 -0.0404  0.7693
  323TMC3    C5 4905   2.948   1.446  14.003  1.0126  0.0156 -0.4562
  323TMC3    C6 4906   3.076   1.490  14.002  0.2340  0.3605 -0.2096
  323TMC3     C 4907   2.874   1.413  13.645  0.3573 -0.5889 -0.6543
  323TMC3     O 4908   2.771   1.350  13.663  0.0399 -0.0772  0.1536
  323TMC3     H 4909   3.119   1.548  13.675 -0.4944 -2.9288 -1.6488
  323TMC3    H1 4910   2.774   1.411  13.899 -0.7089  2.1060  0.7241
  323TMC3    H2 4911   3.143   1.477  14.087 -0.5470  0.0448  0.3614
  323TMC3    C7 4912   2.894   1.399  14.123 -0.5566  0.7861  0.4236
  323TMC3    C8 4913   3.272   1.571  13.891 -0.3047  0.1624  1.1745
  323TMC3    O1 4914   2.839   1.292  14.126  0.1296 -0.3083  0.7064
  323TMC3    O2 4915   3.326   1.556  13.997  0.0170  0.0700 -0.1471
  324MPD2     C 4916   0.051   3.023  14.359  0.3613 -0.1655  0.0892
  324MPD2    C1 4917   4.721   2.909  14.369 -0.3844  0.8296 -0.3294
  324MPD2    C2 4918   4.589   2.898  14.327  0.2823 -0.3053 -0.3358
  324MPD2    C3 4919   4.530   3.014  14.287 -0.0304 -0.0864 -0.5690
  324MPD2    C4 4920   4.600   3.131  14.289  0.3461  0.6119  0.4523
  324MPD2    C5 4921   4.733   3.138  14.319 -0.6153 -0.6491  0.2271
  324MPD2     H 4922   4.538   2.804  14.340 -2.4585  1.6192  2.7384
  324MPD2    H1 4923   4.544   3.222  14.270  0.5456  0.3264 -1.5270
  324MPD2    H2 4924   0.152   3.024  14.399 -0.5128 -1.3828  2.3194
  324MPD2    H3 4925   0.056   3.226  14.315 -0.3943 -0.8405 -0.4848
  324MPD2     N 4926   4.392   3.012  14.263  0.1006 -0.7273  0.2530
  324MPD2    H5 4927   4.335   3.096  14.258  0.2212 -0.7503 -1.2660
  324MPD2    N1 4928   0.029   2.793  14.437 -0.3517 -0.0475 -0.3397
  324MPD2    H7 4929   4.706   2.715  14.445 -0.3343  0.0327  0.5656
  325TMC3    C1 4930   4.179   2.910  14.249  0.3580 -0.3856 -0.3701
  325TMC3    C2 4931   4.112   2.806  14.196 -0.1855  0.2110  0.0361
  325TMC3    C3 4932   3.977   2.802  14.214 -0.0947 -0.0107  0.1628
  325TMC3    C4 4933   4.124   3.007  14.331 -0.0595 -0.1908  0.1144
  325TMC3    C5 4934   3.989   2.992  14.354 -0.2321 -0.9674  0.4508
  325TMC3    C6 4935   3.914   2.889  14.304  0.3057 -0.1338 -0.2521
  325TMC3     C 4936   4.321   2.894  14.238 -0.7758  0.4774 -0.3119
  325TMC3     O 4937   4.361   2.789  14.186 -0.5735 -0.5134  0.3246
  325TMC3     H 4938   4.158   2.737  14.127 -0.2340  1.1968 -0.9705
  325TMC3    H1 4939   4.195   3.066  14.389  1.5115 -0.5480 -1.4285
  325TMC3    H2 4940   3.808   2.878  14.327  1.0083 -0.4878  2.7627
  325TMC3    C7 4941   3.929   3.063  14.471  0.3448 -0.1342  0.7121
  325TMC3    C8 4942   3.907   2.705  14.127  0.2576 -0.1635 -0.0221
  325TMC3    O1 4943   3.980   3.170  14.489 -0.7476  0.8383 -0.0785
  325TMC3    O2 4944   3.963   2.655  14.029  0.2284 -0.2478 -0.2674
  326MPD2     C 4945   0.889   3.646  11.454  0.2892 -0.2583  0.2233
  326MPD2    C1 4946   0.935   3.665  11.330 -0.1011 -0.1056 -0.2577
  326MPD2    C2 4947   1.071   3.679  11.307 -0.0647  0.0002  0.6422
  326MPD2    C3 4948   1.160   3.694  11.410 -0.1761  0.5023  0.0096
  326MPD2    C4 4949   1.113   3.677  11.541 -0.0605 -0.7141  0.2251
  326MPD2    C5 4950   0.978   3.652  11.558 -0.3428 -0.2549  0.6120
  326MPD2     H 4951   1.093   3.680  11.201  2.3956 -1.2779  1.1513
  326MPD2    H1 4952   1.173   3.679  11.632  0.2246 -0.8980  0.0422
  326MPD2    H2 4953   0.787   3.623  11.483  0.3818 -1.2141 -0.2182
  326MPD2    H3 4954   0.931   3.646  11.655  1.9320  0.5297  1.7492
  326MPD2     N 4955   1.294   3.721  11.381 -0.6605  0.4460 -0.2471
  326MPD2    H5 4956   1.357   3.696  11.456 -0.9149  2.9582  0.8008
  326MPD2    N1 4957   0.858   3.661  11.211  0.2361 -0.2065 -0.1614
  326MPD2    H7 4958   0.902   3.669  11.120  2.0434  1.0121  0.8153
  327TMC3    C1 4959   0.689   3.642  11.061 -0.0074  0.4108 -0.4626
  327TMC3    C2 4960   0.588   3.724  11.011 -0.7289  0.3467 -0.4918
  327TMC3    C3 4961   0.572   3.745  10.878 -0.3114 -0.3348  0.5960
  327TMC3    C4 4962   0.779   3.589  10.973 -0.1419  0.1988 -0.1096
  327TMC3    C5 4963   0.759   3.608  10.837 -0.1882 -0.2722  1.2319
  327TMC3    C6 4964   0.657   3.688  10.786 -0.4691 -0.0138 -0.4097
  327TMC3     C 4965   0.718   3.653  11.198 -0.2521  1.0200 -0.3662
  327TMC3     O 4966   0.634   3.644  11.287 -0.3191 -0.0565 -0.0162
  327TMC3     H 4967   0.528   3.783  11.080  1.4751  1.6289  0.3125
  327TMC3    H1 4968   0.837   3.502  11.004  0.5290  1.0348  0.9748
  327TMC3    H2 4969   0.650   3.706  10.680 -1.1463  0.2157 -0.3261
  327TMC3    C7 4970   0.875   3.594  10.751 -0.5194 -0.1008 -0.4154
  327TMC3    C8 4971   0.515   3.878  10.839  0.8232 -0.1798  0.4776
  327TMC3    O1 4972   0.869   3.652  10.643 -0.5786  0.3693  0.1861
  327TMC3    O2 4973   0.522   3.967  10.916  0.6236 -0.6690  0.1039
  328MPD2     C 4974   3.016   2.955  17.318  0.1894 -0.7289 -0.6846
  328MPD2    C1 4975   2.908   2.874  17.307  0.0778  0.6971 -0.4140
  328MPD2    C2 4976   2.827   2.876  17.194 -0.4719  0.0964  0.9629
  328MPD2    C3 4977   2.861   2.965  17.094 -1.2250 -0.0257 -0.4718
  328MPD2    C4 4978   2.968   3.055  17.098 -0.3563  0.1581  0.3401
  328MPD2    C5 4979   3.041   3.044  17.218  0.4908 -0.1216  0.0701
  328MPD2     H 4980   2.733   2.824  17.190  1.4398 -3.1845 -0.9172
  328MPD2    H1 4981   3.012   3.121  17.024 -1.7444  1.6116  0.8002
  328MPD2    H2 4982   3.083   2.962  17.402 -0.1674  2.8612 -0.7176
  328MPD2    H3 4983   3.127   3.110  17.230 -0.0972  0.4899  0.9421
  328MPD2     N 4984   2.775   2.989  16.987 -0.4137  0.2913 -0.0358
  328MPD2    H5 4985   2.802   3.065  16.926  0.8146  0.8963  1.2768
  328MPD2    N1 4986   2.883   2.791  17.418 -0.0135 -0.1089  0.0891
  328MPD2    H7 4987   2.954   2.790  17.490  0.3315  1.6814 -0.2306
  329TMC3    C1 4988   2.790   2.627  17.557  0.9321 -0.2624 -0.8232
  329TMC3    C2 4989   2.807   2.715  17.665 -0.2793 -0.3877 -0.0634
  329TMC3    C3 4990   2.755   2.690   0.028  0.1257 -0.5623 -0.1046
  329TMC3    C4 4991   2.718   2.504  17.570  0.3564  0.5421  0.2037
  329TMC3    C5 4992   2.669   2.482  17.701 -0.3938  0.3556  0.3133
  329TMC3    C6 4993   2.685   2.575   0.042 -0.0533 -0.6808 -0.0914
  329TMC3     C 4994   2.799   2.688  17.426 -0.1883  0.0718 -0.8165
  329TMC3     O 4995   2.718   2.647  17.342 -0.0333  0.0243 -0.3482
  329TMC3     H 4996   2.854   2.811  17.646 -2.5244  0.2637 -2.2723
  329TMC3    H1 4997   2.680   2.444  17.488 -0.8987  1.3161  0.2143
  329TMC3    H2 4998   2.644   2.546   0.138  1.5300  1.3352  1.2057
  329TMC3    C7 4999   2.576   2.371  17.723 -0.2533  0.1424  0.1480
  329TMC3    C8 5000   2.692   2.810   0.086  0.2226 -0.1904 -0.9531
  329TMC3    O1 5001   2.564   2.294  17.630  1.2100  0.1116  0.3965
  329TMC3    O2 5002   2.578   2.801   0.131 -0.1709 -0.7517  0.0315
  330TMC3    C1 5003   1.270   3.039   9.697  0.2528  0.6203 -0.2617
  330TMC3    C2 5004   1.161   2.994   9.632 -0.0597  0.8698  0.0943
  330TMC3    C3 5005   1.100   2.884   9.683  0.5947  0.2857  0.3957
  330TMC3    C4 5006   1.325   2.976   9.810 -0.5634  1.0175 -0.0866
  330TMC3    C5 5007   1.260   2.858   9.855  0.2797  0.2943 -0.4271
  330TMC3    C6 5008   1.153   2.809   9.789 -0.1829  0.1692  0.1572
  330TMC3     C 5009   1.337   3.157   9.651 -0.2126 -0.9946 -0.0772
  330TMC3     O 5010   1.452   3.179   9.689 -0.2536  0.3388 -0.5136
  330TMC3     H 5011   1.108   3.052   9.557 -0.2968  0.1641 -0.2903
  330TMC3    H1 5012   1.402   3.017   9.873  0.6788  0.8906 -1.5223
  330TMC3    H2 5013   1.104   2.717   9.819 -1.4537  1.4116  1.8377
  330TMC3    C7 5014   1.299   2.800   9.973  0.4030 -0.7284 -0.3911
  330TMC3    C8 5015   0.970   2.841   9.641 -0.3137 -0.4192  0.0386
  330TMC3    O1 5016   1.390   2.854  10.028 -0.4745  0.0597  0.1702
  330TMC3    O2 5017   0.921   2.901   9.547  0.5081 -0.5051 -0.2611
  331MPD2     C 5018   4.115   2.358  13.091 -0.1054  0.4651 -0.8606
  331MPD2    C1 5019   4.050   2.314  12.980 -0.1818 -0.3539 -0.0126
  331MPD2    C2 5020   4.016   2.183  12.982  0.2773 -0.2062 -0.0265
  331MPD2    C3 5021   4.048   2.094  13.089  0.0330  0.2218 -0.9896
  331MPD2    C4 5022   4.106   2.151  13.198 -0.1427 -0.4470 -0.6956
  331MPD2    C5 5023   4.143   2.282  13.197  0.3629  0.2774  0.4210
  331MPD2     H 5024   3.951   2.151  12.901  1.9921 -2.3531 -0.5412
  331MPD2    H1 5025   4.142   2.099  13.287 -2.5921  0.6828  0.9300
  331MPD2    H2 5026   4.137   2.464  13.094 -1.9334  0.8803 -1.6632
  331MPD2    H3 5027   4.185   2.320  13.290 -1.8296 -0.2668  1.6550
  331MPD2     N 5028   4.035   1.953  13.061 -0.7335  0.4575 -0.0875
  331MPD2    H5 5029   4.005   1.932  12.966  0.2881 -0.2404 -0.2615
  331MPD2    N1 5030   4.021   2.412  12.879 -0.1589 -0.0202 -0.0428
  331MPD2    H7 5031   4.070   2.501  12.886 -0.7028  0.1229  1.9569
  332TMC3    C1 5032   4.089   1.727  13.093 -0.1409  0.2222 -0.3138
  332TMC3    C2 5033   4.085   1.707  12.953 -0.3871  0.0095  0.6687
  332TMC3    C3 5034   4.131   1.580  12.912 -0.3883 -0.0441  0.0870
  332TMC3    C4 5035   4.117   1.634  13.186  0.4974  0.7748 -0.4874
  332TMC3    C5 5036   4.167   1.511  13.133 -0.2522  0.2211  0.1790
  332TMC3    C6 5037   4.168   1.479  12.997 -0.1649 -0.1145  0.3991
  332TMC3     C 5038   4.074   1.860  13.159 -0.0232  0.5803  0.9347
  332TMC3     O 5039   4.068   1.873  13.278 -0.4079 -0.1258 -0.1506
  332TMC3     H 5040   4.068   1.792  12.888  0.8200 -1.7476 -1.9165
  332TMC3    H1 5041   4.116   1.650  13.294 -0.6212 -2.2105 -0.0540
  332TMC3    H2 5042   4.202   1.382  12.963 -1.7814 -0.3800 -0.4705
  332TMC3    C7 5043   4.236   1.425  13.225  0.4286 -0.4755  0.0163
  332TMC3    C8 5044   4.081   1.537  12.787  0.1871 -0.0450  0.0092
  332TMC3    O1 5045   4.195   1.402  13.340  0.0124  0.1099 -0.0605
  332TMC3    O2 5046   4.006   1.437  12.796  0.0215 -0.4275  0.1174
  333MPD2     C 5047   3.805   2.154  11.634 -0.3975 -0.1112  0.2274
  333MPD2    C1 5048   3.872   2.087  11.542  0.1718  0.0662  0.1566
  333MPD2    C2 5049   3.853   1.955  11.523  0.0736  0.8376 -0.4137
  333MPD2    C3 5050   3.760   1.886  11.594  0.0460  0.6011  0.4859
  333MPD2    C4 5051   3.703   1.953  11.698  0.0697  0.0477 -1.0125
  333MPD2    C5 5052   3.716   2.088  11.709 -0.6458  0.3520  0.1253
  333MPD2     H 5053   3.914   1.894  11.457 -2.1954  0.4388 -2.1640
  333MPD2    H1 5054   3.628   1.897  11.754 -0.5235  3.6503  1.7782
  333MPD2    H2 5055   3.828   2.257  11.658  0.4581 -0.0056 -1.0284
  333MPD2    H3 5056   3.668   2.140  11.791  1.1233  0.4129  1.1470
  333MPD2     N 5057   3.735   1.750  11.566  0.3534  0.4454 -0.6072
  333MPD2    H5 5058   3.799   1.693  11.513  2.4233  1.7482  0.5159
  333MPD2    N1 5059   3.959   2.168  11.469  0.4192  0.0835  0.2982
  333MPD2    H7 5060   3.981   2.259  11.509 -0.3652  0.9074 -1.1699
  334TMC3    C1 5061   4.118   2.215  11.304  0.9290  0.0206 -0.2171
  334TMC3    C2 5062   4.203   2.162  11.209  0.3741  0.6761 -0.1477
  334TMC3    C3 5063   4.310   2.236  11.175  0.1235 -0.0740  0.2450
  334TMC3    C4 5064   4.119   2.343  11.350 -0.1947  0.5083 -0.5713
  334TMC3    C5 5065   4.231   2.411  11.310  0.5911  0.5836 -0.4993
  334TMC3    C6 5066   4.331   2.360  11.225 -0.4603  0.6003  0.3824
  334TMC3     C 5067   4.006   2.136  11.344  0.9073  0.8000  0.2448
  334TMC3     O 5068   3.978   2.042  11.272 -0.5501  0.0526  0.1006
  334TMC3     H 5069   4.186   2.058  11.183 -0.5362  0.0177  3.0564
  334TMC3    H1 5070   4.044   2.378  11.420  0.4613 -1.7053  1.2365
  334TMC3    H2 5071   4.391   2.432  11.170 -0.1326 -0.7658 -1.0424
  334TMC3    C7 5072   4.204   2.552  11.289  0.3153  0.3614  0.0131
  334TMC3    C8 5073   4.397   2.187  11.070 -0.0043  0.7029 -0.5833
  334TMC3    O1 5074   4.306   2.617  11.280 -0.3619 -0.3454  0.2637
  334TMC3    O2 5075   4.351   2.090  11.012  0.2190 -0.1129  0.2428
  335TMC3    C1 5076   3.685   3.498  17.339 -0.2298 -0.7894  0.2282
  335TMC3    C2 5077   3.659   3.414  17.230 -0.3377  0.8971 -0.8899
  335TMC3    C3 5078   3.750   3.400  17.130  0.0535  0.6830  0.0763
  335TMC3    C4 5079   3.809   3.562  17.337  0.3394  0.2298  0.2219
  335TMC3    C5 5080   3.890   3.550  17.228 -0.1496 -0.0016  0.1832
  335TMC3    C6 5081   3.864   3.467  17.118 -0.4212 -0.0622  0.2134
  335TMC3     C 5082   3.594   3.516  17.453 -0.7509 -0.3962 -0.3858
  335TMC3     O 5083   3.490   3.454  17.440  0.7388  0.2479  0.0782
  335TMC3     H 5084   3.565   3.361  17.219 -1.3632  2.5878 -0.1309
  335TMC3    H1 5085   3.831   3.637  17.413  1.9416 -1.5006  1.4890
  335TMC3    H2 5086   3.939   3.453  17.041  1.3294 -0.1621  1.9249
  335TMC3    C7 5087   4.035   3.562  17.254  0.7419  0.7699 -0.9096
  335TMC3    C8 5088   3.729   3.313  17.020  0.0095 -0.7804 -0.1217
  335TMC3    O1 5089   4.113   3.520  17.172 -0.0937 -0.0512  0.0849
  335TMC3    O2 5090   3.784   3.320  16.912  0.0371 -0.1958 -0.3720
  336MPD2     C 5091   3.554   1.034  16.115  0.0662  0.5103 -0.3188
  336MPD2    C1 5092   3.487   0.961  16.023  0.3540 -0.0847 -0.3623
  336MPD2    C2 5093   3.474   0.825  16.035 -0.4442 -0.4475  0.0912
  336MPD2    C3 5094   3.522   0.767  16.150 -0.2150  0.3283  1.3152
  336MPD2    C4 5095   3.596   0.837  16.239  0.2240  0.4566 -0.6855
  336MPD2    C5 5096   3.611   0.970  16.220  0.2435  0.5108  0.6080
  336MPD2     H 5097   3.417   0.772  15.960 -0.5965  0.1553 -0.2205
  336MPD2    H1 5098   3.649   0.800  16.326 -1.2027  0.8110  0.3314
  336MPD2    H2 5099   3.579   1.139  16.106  3.8483 -0.3609  0.0282
  336MPD2    H3 5100   3.664   1.021  16.300  0.9580  0.6611  0.0380
  336MPD2     N 5101   3.482   0.638  16.187  0.4163 -0.4388  0.2815
  336MPD2    H5 5102   3.497   0.601  16.280  1.7584 -1.3110 -0.2798
  336MPD2    N1 5103   3.409   1.019  15.920  0.1098 -0.1745 -0.0265
  336MPD2    H7 5104   3.374   0.947  15.857 -3.4779 -0.1268  1.9027
  337TMC3    C1 5105   3.273   1.190  15.809 -0.3515 -0.4710 -0.6716
  337TMC3    C2 5106   3.179   1.092  15.773  0.2230 -0.1244 -1.0093
  337TMC3    C3 5107   3.084   1.142  15.695  0.5727  0.8362  0.0824
  337TMC3    C4 5108   3.273   1.322  15.780 -0.3818  0.0819 -0.5220
  337TMC3    C5 5109   3.175   1.364  15.696 -0.3823  0.5215 -0.1115
  337TMC3    C6 5110   3.087   1.270  15.646 -0.0629  0.1067  1.1880
  337TMC3     C 5111   3.378   1.149  15.907  0.4748  0.3455  0.1964
  337TMC3     O 5112   3.419   1.244  15.972  0.6425  0.0061  0.1684
  337TMC3     H 5113   3.195   0.986  15.791  1.5354  0.4531  1.1837
  337TMC3    H1 5114   3.357   1.386  15.804 -1.0437  0.2887  1.2627
  337TMC3    H2 5115   3.003   1.300  15.585  0.0650  1.9755  1.9525
  337TMC3    C7 5116   3.200   1.471  15.601  0.1875 -0.3313  0.3380
  337TMC3    C8 5117   2.973   1.053  15.667 -0.8374 -0.7103  0.5879
  337TMC3    O1 5118   3.150   1.456  15.489  0.1434  0.3909  0.0497
  337TMC3    O2 5119   2.971   0.965  15.753 -0.1850 -0.1637  0.1093
  338MPD2     C 5120   4.200   0.411   0.975  0.1580  0.1310 -0.0609
  338MPD2    C1 5121   4.096   0.420   0.887  0.6844  0.0206 -0.7658
  338MPD2    C2 5122   3.984   0.485   0.932 -0.4295  0.5672 -0.1898
  338MPD2    C3 5123   3.969   0.552   1.054  0.4176 -0.6449 -0.8567
  338MPD2    C4 5124   4.077   0.544   1.138  0.3383  0.1511  0.0900
  338MPD2    C5 5125   4.188   0.474   1.099  0.0183 -0.8709  0.5889
  338MPD2     H 5126   3.896   0.488   0.868  0.8156  3.3874 -1.7514
  338MPD2    H1 5127   4.069   0.572   1.243 -0.9037 -0.1351  0.0730
  338MPD2    H2 5128   4.296   0.366   0.955 -0.1063 -0.7097  0.5308
  338MPD2    H3 5129   4.262   0.464   1.178  0.8795  0.2430 -0.0686
  338MPD2     N 5130   3.852   0.632   1.075  0.4012  0.3197 -0.4147
  338MPD2    H5 5131   3.777   0.626   1.007 -1.1305 -2.1265  1.4766
  338MPD2    N1 5132   4.103   0.358   0.764  0.3950 -0.1990 -0.0571
  338MPD2    H7 5133   4.190   0.312   0.739  0.5703 -1.5561  3.0432
  339TMC3    C1 5134   3.728   0.807   1.175  0.3812 -0.7930 -0.6956
  339TMC3    C2 5135   3.698   0.872   1.288  0.6004 -0.0927  0.2313
  339TMC3    C3 5136   3.576   0.927   1.315 -0.6373  0.3820  0.3561
  339TMC3    C4 5137   3.645   0.811   1.067  0.1445  0.4240 -0.2767
  339TMC3    C5 5138   3.525   0.877   1.086 -0.3844 -0.1007 -0.0917
  339TMC3    C6 5139   3.492   0.941   1.207  0.0470  0.5735 -0.2161
  339TMC3     C 5140   3.853   0.730   1.169 -0.1372 -0.3281  0.1564
  339TMC3     O 5141   3.932   0.759   1.257 -0.1159  0.0044 -0.3158
  339TMC3     H 5142   3.771   0.870   1.368  0.3015 -1.7094  0.4717
  339TMC3    H1 5143   3.676   0.770   0.971  1.1820 -0.7074  0.5482
  339TMC3    H2 5144   3.396   0.987   1.224  0.8323  1.8494  0.8104
  339TMC3    C7 5145   3.427   0.870   0.987  0.8339  0.0421  0.7055
  339TMC3    C8 5146   3.575   1.026   1.418 -0.0798  0.2286 -0.4041
  339TMC3    O1 5147   3.339   0.955   0.999 -0.0090  0.3610 -0.1572
  339TMC3    O2 5148   3.686   1.069   1.454  0.1081  0.0678 -0.0546
  340MPD2     C 5149   3.720   3.408  10.132  0.2735  0.0486 -0.9004
  340MPD2    C1 5150   3.674   3.281  10.149  0.1981  0.1163 -0.9671
  340MPD2    C2 5151   3.688   3.219  10.272 -0.1849  0.7066  0.4040
  340MPD2    C3 5152   3.723   3.304  10.382 -0.4370  0.1530  0.5974
  340MPD2    C4 5153   3.741   3.440  10.359  0.2588 -0.3897 -0.0605
  340MPD2    C5 5154   3.743   3.496  10.237  0.2560 -0.0877 -0.0667
  340MPD2     H 5155   3.667   3.114  10.282  0.1939  0.4439 -1.6030
  340MPD2    H1 5156   3.763   3.507  10.442 -1.3036  1.1219 -0.8688
  340MPD2    H2 5157   3.719   3.453  10.034 -0.9458 -0.7341 -1.2513
  340MPD2    H3 5158   3.770   3.601  10.228 -0.4286 -0.0429 -1.6002
  340MPD2     N 5159   3.731   3.256  10.513 -0.0941 -0.1882 -0.4846
  340MPD2    H5 5160   3.742   3.327  10.585 -1.9700  2.5787 -2.9077
  340MPD2    N1 5161   3.636   3.211  10.033  0.2291  0.1336 -0.9823
  340MPD2    H7 5162   3.627   3.267   9.950 -1.4728  0.4009 -0.6243
  341TMC3    C1 5163   3.584   3.030   9.900 -0.1938  0.5539  0.0957
  341TMC3    C2 5164   3.518   2.917   9.878  0.3541  0.1820  0.0306
  341TMC3    C3 5165   3.554   2.833   9.777 -0.4981  0.1123 -0.1347
  341TMC3    C4 5166   3.676   3.075   9.809  0.2108 -0.3876 -0.1528
  341TMC3    C5 5167   3.718   2.986   9.711  0.9068 -0.2984 -0.1689
  341TMC3    C6 5168   3.662   2.858   9.699 -0.2476  0.4142 -0.0246
  341TMC3     C 5169   3.589   3.083  10.031  0.5493 -0.1623  0.0788
  341TMC3     O 5170   3.541   3.022  10.124  0.0335 -0.0132 -0.7366
  341TMC3     H 5171   3.442   2.881   9.945  0.8687  1.0817  1.1074
  341TMC3    H1 5172   3.740   3.161   9.826  0.0904  0.1126 -2.2183
  341TMC3    H2 5173   3.712   2.783   9.639  0.6919 -0.4031  1.7819
  341TMC3    C7 5174   3.835   3.022   9.643 -0.4545  0.2493  0.1589
  341TMC3    C8 5175   3.491   2.703   9.776  0.0810  0.4504  0.6309
  341TMC3    O1 5176   3.909   3.105   9.697  0.0363  0.0031  0.4036
  341TMC3    O2 5177   3.439   2.661   9.875 -0.2607 -0.1738 -0.0733
  342MPD2     C 5178   1.974   1.694   0.430 -0.3997  0.2757 -0.4082
  342MPD2    C1 5179   2.076   1.665   0.345 -0.1477 -0.3761 -0.0511
  342MPD2    C2 5180   2.202   1.717   0.360 -0.0991 -0.6890  1.0123
  342MPD2    C3 5181   2.219   1.826   0.443  0.3005 -0.0785  0.3748
  342MPD2    C4 5182   2.118   1.862   0.517  0.5852 -0.5818 -0.0960
  342MPD2    C5 5183   2.000   1.792   0.521 -0.0350 -0.8240  0.1587
  342MPD2     H 5184   2.276   1.703   0.282 -1.2567 -3.1516  0.3740
  342MPD2    H1 5185   2.129   1.943   0.588 -1.5962  1.0830 -1.6381
  342MPD2    H2 5186   1.873   1.655   0.427  0.3259 -1.6967  1.0507
  342MPD2    H3 5187   1.930   1.820   0.599 -2.4077  0.3181 -2.3481
  342MPD2     N 5188   2.335   1.899   0.456  0.4371  0.0093  0.1595
  342MPD2    H5 5189   2.320   1.986   0.505  2.2705 -0.0366  0.7972
  342MPD2    N1 5190   2.056   1.587   0.232  0.2658  0.1226 -0.0323
  342MPD2    H7 5191   2.145   1.566   0.187  1.1258  0.4410  1.5116
  343TMC3    C1 5192   1.973   1.449   0.067 -0.9056 -0.4979  0.2510
  343TMC3    C2 5193   2.069   1.502  17.745 -0.2469 -0.0600  0.5013
  343TMC3    C3 5194   2.086   1.436  17.629  0.1768  0.3240 -0.2345
  343TMC3    C4 5195   1.902   1.335   0.033  0.6242 -0.8251 -0.0637
  343TMC3    C5 5196   1.907   1.291  17.665  0.0649  0.1493 -0.5542
  343TMC3    C6 5197   1.999   1.340  17.582  0.2808  0.0897  0.4417
  343TMC3     C 5198   1.943   1.523   0.190  0.1641  0.4352  0.6886
  343TMC3     O 5199   1.832   1.520   0.235  0.2403 -0.2109  0.3361
  343TMC3     H 5200   2.124   1.594   0.006 -1.3285  0.1819  2.3346
  343TMC3    H1 5201   1.817   1.304   0.094  2.2917 -4.3449  0.4788
  343TMC3    H2 5202   1.989   1.311  17.478 -0.7074  2.2633 -0.0602
  343TMC3    C7 5203   1.850   1.160  17.618  0.6845  0.1796 -1.0498
  343TMC3    C8 5204   2.227   1.442  17.582  0.2558 -0.3097  0.1901
  343TMC3    O1 5205   1.856   1.130  17.497 -0.4904 -0.0474  0.6255
  343TMC3    O2 5206   2.293   1.531  17.633 -0.2294  0.2813  0.3869
  344MPD2     C 5207   2.785   1.334  11.057  0.1964 -0.5501 -0.1401
  344MPD2    C1 5208   2.680   1.291  10.987 -0.4752  0.2854  0.0822
  344MPD2    C2 5209   2.657   1.340  10.861 -0.7884 -0.0984 -0.7547
  344MPD2    C3 5210   2.732   1.449  10.820  0.6721 -1.0912 -0.4044
  344MPD2    C4 5211   2.823   1.507  10.894 -0.0752 -0.5105  0.5714
  344MPD2    C5 5212   2.855   1.443  11.013 -0.2947  0.2687 -0.4173
  344MPD2     H 5213   2.588   1.290  10.794  0.2658 -2.8962  0.2094
  344MPD2    H1 5214   2.885   1.587  10.854 -0.8499 -0.9747 -1.5216
  344MPD2    H2 5215   2.813   1.286  11.150 -1.0326 -1.2777 -0.1410
  344MPD2    H3 5216   2.937   1.476  11.076  1.4854  0.0474 -2.6071
  344MPD2     N 5217   2.707   1.516  10.701  0.2645 -0.4571 -0.1240
  344MPD2    H5 5218   2.775   1.587  10.679 -0.0702 -0.5920 -1.5756
  344MPD2    N1 5219   2.593   1.188  11.041 -0.0969 -0.0989  0.3597
  344MPD2    H7 5220   2.526   1.145  10.978  0.5150 -0.4967 -0.0038
  345TMC3    C1 5221   2.634   1.578  10.488  0.0870 -0.6124  0.4221
  345TMC3    C2 5222   2.767   1.599  10.455 -0.1794  0.7493  0.0305
  345TMC3    C3 5223   2.788   1.643  10.327 -0.5787  0.3950 -0.9628
  345TMC3    C4 5224   2.527   1.597  10.403  0.1240 -0.5771 -0.1743
  345TMC3    C5 5225   2.556   1.637  10.277  0.3463  0.5165  0.1495
  345TMC3    C6 5226   2.693   1.637  10.230 -0.9341 -0.1062 -0.2834
  345TMC3     C 5227   2.611   1.503  10.607  0.0082 -0.9281 -0.5511
  345TMC3     O 5228   2.516   1.422  10.599  0.1379  0.0576  0.3989
  345TMC3     H 5229   2.850   1.580  10.522  0.1870  0.1145 -0.6090
  345TMC3    H1 5230   2.426   1.597  10.443 -0.7123 -0.5867 -2.2820
  345TMC3    H2 5231   2.715   1.663  10.127 -2.4989  1.4079 -0.2406
  345TMC3    C7 5232   2.486   1.752  10.230  0.1327 -0.4653 -0.2277
  345TMC3    C8 5233   2.852   1.777  10.333  0.3311 -0.2382 -0.4670
  345TMC3    O1 5234   2.424   1.816  10.313  0.4742  0.3416 -0.2967
  345TMC3    O2 5235   2.901   1.815  10.441  0.3522  0.3406 -0.7202
  346MPD2     C 5236   2.705   2.710  14.627 -0.1536 -0.3624 -0.7026
  346MPD2    C1 5237   2.828   2.684  14.560  0.3436 -0.4011  0.0808
  346MPD2    C2 5238   2.942   2.666  14.640  0.6391 -0.6264 -0.1615
  346MPD2    C3 5239   2.928   2.654  14.779 -0.7627 -0.9233  0.7587
  346MPD2    C4 5240   2.799   2.679  14.841  0.8810  0.4252 -0.7691
  346MPD2    C5 5241   2.691   2.707  14.764 -0.5702  0.0037  0.5108
  346MPD2     H 5242   3.040   2.652  14.596  1.9496  1.4154  2.1300
  346MPD2    H1 5243   2.792   2.683  14.949 -0.1333 -1.4331 -0.7582
  346MPD2    H2 5244   2.616   2.723  14.565 -0.6547  0.6026  0.2212
  346MPD2    H3 5245   2.595   2.724  14.811 -1.4663  0.0837 -1.3551
  346MPD2     N 5246   3.045   2.624  14.851 -0.4214 -0.1313  0.2243
  346MPD2    H5 5247   3.129   2.606  14.796  0.5463  2.9146  0.7186
  346MPD2    N1 5248   2.845   2.690  14.421  0.1935  0.0126 -0.5067
  346MPD2    H7 5249   2.936   2.666  14.383  1.3224  1.2089  1.4484
  347TMC3    C1 5250   3.204   2.621  15.030 -0.8643  0.5646 -0.2223
  347TMC3    C2 5251   3.298   2.675  14.951 -0.8863 -0.3775  0.0128
  347TMC3    C3 5252   3.413   2.722  15.001  0.1226 -0.1256 -0.5088
  347TMC3    C4 5253   3.233   2.601  15.158 -0.5040  0.5712 -0.1207
  347TMC3    C5 5254   3.354   2.635  15.213 -0.5282  0.0886  0.4597
  347TMC3    C6 5255   3.447   2.698  15.132 -0.2529 -0.4988  0.3946
  347TMC3     C 5256   3.062   2.620  14.989 -0.1478 -1.7025  0.3089
  347TMC3     O 5257   2.982   2.608  15.080 -0.3855  0.7201 -0.0320
  347TMC3     H 5258   3.286   2.699  14.846  0.5408 -1.0305 -0.2953
  347TMC3    H1 5259   3.162   2.540  15.213 -0.3230 -0.0302 -0.5584
  347TMC3    H2 5260   3.549   2.725  15.155  0.1067 -0.3139 -1.4160
  347TMC3    C7 5261   3.387   2.601  15.347  0.7614 -0.5489 -0.0390
  347TMC3    C8 5262   3.517   2.763  14.908  1.2302 -0.4509  0.7881
  347TMC3    O1 5263   3.303   2.536  15.411 -0.3201 -0.1728 -0.3377
  347TMC3    O2 5264   3.562   2.689  14.819 -0.3210 -0.4286  0.1911
  348MPD2     C 5265   1.841   2.536  12.261  0.3036 -0.0607  0.7616
  348MPD2    C1 5266   1.950   2.569  12.186  0.3350  0.0771  0.1956
  348MPD2    C2 5267   1.934   2.656  12.078 -0.2520  0.4133  0.3985
  348MPD2    C3 5268   1.808   2.688  12.026 -0.3393  0.2724 -0.3618
  348MPD2    C4 5269   1.705   2.653  12.105 -0.3704 -0.3112  0.4976
  348MPD2    C5 5270   1.719   2.584  12.221  0.1749  0.6468  0.4408
  348MPD2     H 5271   2.013   2.673  12.005  0.4183 -2.3531  0.4847
  348MPD2    H1 5272   1.605   2.693  12.094 -0.6889 -0.7217  1.9462
  348MPD2    H2 5273   1.851   2.468  12.345 -0.0293  0.3288  1.1215
  348MPD2    H3 5274   1.637   2.541  12.277  1.2034 -0.5162  1.0628
  348MPD2     N 5275   1.792   2.764  11.905  0.6075 -0.0437 -0.3110
  348MPD2    H5 5276   1.878   2.809  11.873 -0.6615  1.2582 -1.9048
  348MPD2    N1 5277   2.071   2.509  12.210 -1.0793 -0.3368 -0.5090
  348MPD2    H7 5278   2.147   2.529  12.145 -1.1505  1.5678  0.0018
  349TMC3    C1 5279   2.209   2.331  12.304 -0.0292  0.0203 -0.1710
  349TMC3    C2 5280   2.180   2.233  12.399 -0.8290 -0.0810 -0.0902
  349TMC3    C3 5281   2.127   2.115  12.354 -0.2982  0.0412 -0.6328
  349TMC3    C4 5282   2.223   2.296  12.175  0.2461  0.8820 -0.7145
  349TMC3    C5 5283   2.171   2.176  12.138  0.0882  0.3288  0.4213
  349TMC3    C6 5284   2.128   2.077  12.219 -0.2408  0.5661  0.2669
  349TMC3     C 5285   2.111   2.442  12.325 -0.5544 -0.4132 -0.5019
  349TMC3     O 5286   2.052   2.438  12.430  0.6602  0.5112 -0.0677
  349TMC3     H 5287   2.179   2.256  12.505 -1.1556 -0.0626 -0.0985
  349TMC3    H1 5288   2.245   2.377  12.106  1.6919  1.1765  0.1007
  349TMC3    H2 5289   2.092   1.981  12.184  1.0957  0.9900 -2.2076
  349TMC3    C7 5290   2.078   2.181  12.026  0.5553  0.0910  0.1738
  349TMC3    C8 5291   2.132   2.002  12.444 -0.5234  0.3717  0.6352
  349TMC3    O1 5292   1.988   2.103  12.023  0.0057  0.0863  1.0385
  349TMC3    O2 5293   2.220   1.993  12.532  0.6178  0.0748 -0.2512
  350MPD2     C 5294   0.630   0.927  10.635 -0.1103  0.3413  0.2140
  350MPD2    C1 5295   0.737   0.838  10.651 -0.0032  0.1534 -0.5209
  350MPD2    C2 5296   0.863   0.875  10.687  0.2658  0.0556 -0.2052
  350MPD2    C3 5297   0.888   1.006  10.702 -0.3999 -0.0925 -0.5232
  350MPD2    C4 5298   0.780   1.095  10.691  0.0544 -0.5149 -0.2662
  350MPD2    C5 5299   0.652   1.057  10.664  0.1753 -0.5834  0.4105
  350MPD2     H 5300   0.946   0.806  10.696  2.1942  2.5426  0.8844
  350MPD2    H1 5301   0.785   1.201  10.713  0.6591 -0.2715 -1.5350
  350MPD2    H2 5302   0.528   0.894  10.621  0.7430 -2.0128 -0.4112
  350MPD2    H3 5303   0.570   1.128  10.659  2.1343  1.6723  0.1516
  350MPD2     N 5304   1.017   1.048  10.743 -0.1986  0.1194  0.2052
  350MPD2    H5 5305   1.091   0.979  10.736  1.3361  1.7874 -0.1141
  350MPD2    N1 5306   0.721   0.700  10.627 -0.2605  0.0797  0.1157
  350MPD2    H7 5307   0.802   0.640  10.642 -1.0942 -0.3191  3.0210
  351TMC3    C1 5308   0.630   0.500  10.555  0.0510  0.4748 -0.1077
  351TMC3    C2 5309   0.752   0.466  10.503  0.2491  0.0022 -0.5151
  351TMC3    C3 5310   0.766   0.336  10.464 -0.5121  0.5360 -0.0233
  351TMC3    C4 5311   0.525   0.420  10.539  0.3398 -0.2252  0.0653
  351TMC3    C5 5312   0.540   0.298  10.482  0.5546 -0.1856  0.2069
  351TMC3    C6 5313   0.666   0.247  10.453  0.2206  0.1899 -0.3940
  351TMC3     C 5314   0.609   0.636  10.599  0.0672  0.3615  0.2461
  351TMC3     O 5315   0.491   0.676  10.597  0.0626 -0.9126 -0.3607
  351TMC3     H 5316   0.830   0.537  10.478  0.7064 -0.2196  0.3032
  351TMC3    H1 5317   0.426   0.462  10.550  0.1401 -1.0757  1.5152
  351TMC3    H2 5318   0.671   0.145  10.414 -1.4251  0.7091 -1.9639
  351TMC3    C7 5319   0.429   0.203  10.490 -0.0718 -0.3167 -0.1391
  351TMC3    C8 5320   0.899   0.291  10.453 -0.1474  0.1591  0.2993
  351TMC3    O1 5321   0.329   0.229  10.555 -0.0888  0.1245 -0.7468
  351TMC3    O2 5322   0.992   0.363  10.419  0.3294  0.5138 -0.5165
  352MPD2     C 5323   3.909   2.701   0.837 -0.1215 -0.2052 -0.2065
  352MPD2    C1 5324   3.819   2.671   0.933  0.2274 -0.2810  0.0111
  352MPD2    C2 5325   3.842   2.567   1.016 -0.0778  0.7751 -0.2515
  352MPD2    C3 5326   3.965   2.496   1.007 -1.0218 -0.1732 -0.0152
  352MPD2    C4 5327   4.060   2.536   0.919  0.3231 -0.1640  0.2559
  352MPD2    C5 5328   4.030   2.632   0.831  0.5093  0.6893  0.2020
  352MPD2     H 5329   3.764   2.535   1.085  0.8322 -0.7112  0.0906
  352MPD2    H1 5330   4.151   2.479   0.900 -0.6793 -1.4731 -0.6410
  352MPD2    H2 5331   3.902   2.783   0.767  0.9750 -0.3996 -0.5445
  352MPD2    H3 5332   4.102   2.663   0.756 -0.6325  4.1613  0.5398
  352MPD2     N 5333   3.985   2.391   1.099 -0.4255  0.0579 -0.3472
  352MPD2    H5 5334   3.908   2.364   1.160 -1.5283 -2.3378 -2.8311
  352MPD2    N1 5335   3.698   2.749   0.943 -0.3349  0.1307  0.1948
  352MPD2    H7 5336   3.679   2.821   0.875  2.0972  1.3237  0.7764
  353TMC3    C1 5337   4.087   2.205   1.204 -0.4918 -0.0244 -0.2384
  353TMC3    C2 5338   4.205   2.130   1.224 -0.0936 -0.4058  0.8168
  353TMC3    C3 5339   4.189   2.004   1.265 -0.0040  0.4021 -0.0105
  353TMC3    C4 5340   3.963   2.150   1.227  0.1219  0.8445  0.1943
  353TMC3    C5 5341   3.956   2.017   1.275  0.1585 -0.1915 -0.0561
  353TMC3    C6 5342   4.067   1.946   1.293 -0.8654 -0.2274  0.7805
  353TMC3     C 5343   4.102   2.315   1.111  0.3423 -1.2275  0.2758
  353TMC3     O 5344   4.217   2.331   1.071 -0.3577 -0.2907  0.6413
  353TMC3     H 5345   4.305   2.164   1.201  0.5084 -0.2098  3.6930
  353TMC3    H1 5346   3.869   2.198   1.200 -1.0507 -0.6037  1.7563
  353TMC3    H2 5347   4.050   1.845   1.330  1.6230  0.4166  3.7399
  353TMC3    C7 5348   3.840   1.941   1.242 -0.3417  0.6082 -0.8544
  353TMC3    C8 5349   4.312   1.932   1.288  0.0894  0.5751  0.2230
  353TMC3    O1 5350   3.860   1.842   1.174  0.1303 -0.3370 -0.7944
  353TMC3    O2 5351   4.403   1.992   1.344 -0.3107  0.6143 -0.5901
  354TMC3    C1 5352   0.863   3.542  13.955  0.5626 -0.3355  0.9555
  354TMC3    C2 5353   0.927   3.661  13.938 -0.2635  0.7181 -0.0895
  354TMC3    C3 5354   0.897   3.721  13.815 -0.3444 -1.2059 -0.2255
  354TMC3    C4 5355   0.773   3.480  13.872 -0.0249 -0.3056  0.4291
  354TMC3    C5 5356   0.740   3.554  13.760  0.6754  0.8696 -0.7397
  354TMC3    C6 5357   0.805   3.669  13.730 -0.9799 -0.1090  0.5169
  354TMC3     C 5358   0.881   3.476  14.082  0.3709 -0.0927  1.0514
  354TMC3     O 5359   0.855   3.355  14.097  0.2371  0.2417 -0.1166
  354TMC3     H 5360   1.010   3.694  14.000  0.6726  0.3444 -1.1562
  354TMC3    H1 5361   0.709   3.396  13.897 -1.2211 -0.0684 -1.8497
  354TMC3    H2 5362   0.768   3.727  13.646 -1.3126 -1.7692 -0.4895
  354TMC3    C7 5363   0.708   3.476  13.647  0.1532 -0.2572  0.6055
  354TMC3    C8 5364   1.006   3.784  13.749 -0.0175 -0.1829 -0.1663
  354TMC3    O1 5365   0.595   3.506  13.612 -0.2789  0.4768  0.2361
  354TMC3    O2 5366   1.094   3.837  13.823  0.2642 -0.0353 -0.4726
  355MPD2     C 5367   0.928   0.011  11.418 -0.5529  0.4892 -0.3953
  355MPD2    C1 5368   1.041   4.716  11.348 -0.1043  0.3056  0.1692
  355MPD2    C2 5369   1.143   4.644  11.414 -0.4154 -0.1629 -0.3251
  355MPD2    C3 5370   1.146   4.628  11.548 -0.0564  0.1167  0.0768
  355MPD2    C4 5371   1.036   4.670  11.621  0.0914 -0.0256 -0.1438
  355MPD2    C5 5372   0.927   4.713  11.556  0.0300  0.1873  0.0035
  355MPD2     H 5373   1.224   4.603  11.356 -1.2509 -1.3892 -0.6107
  355MPD2    H1 5374   1.042   4.663  11.729 -0.7663  0.5758 -0.0546
  355MPD2    H2 5375   0.848   0.064  11.368  0.2385  0.5707 -1.5652
  355MPD2    H3 5376   0.845   0.004  11.619  0.5097  2.4681 -0.4889
  355MPD2     N 5377   1.262   4.591  11.620 -0.1249 -0.2431  0.6231
  355MPD2    H5 5378   1.261   4.599  11.721 -0.2779 -1.1824  0.6946
  355MPD2    N1 5379   1.059   0.031  11.214 -0.4158 -0.1742  0.1654
  355MPD2    H7 5380   0.977   0.074  11.173 -0.3965 -1.1043 -0.8592
  356TMC3    C1 5381   1.494   4.608  11.655  0.0526  0.1023 -0.3870
  356TMC3    C2 5382   1.615   4.645  11.595  0.0841  0.9397 -0.1626
  356TMC3    C3 5383   1.702   4.730  11.657 -0.1880  0.5940 -0.0125
  356TMC3    C4 5384   1.471   4.635  11.791  0.1291 -0.7467 -0.5186
  356TMC3    C5 5385   1.573   4.707  11.848  0.4349 -0.2027  0.4717
  356TMC3    C6 5386   1.685   0.021  11.786 -0.6088  0.0256 -0.1215
  356TMC3     C 5387   1.390   4.576  11.567 -0.0391  0.3813  0.3945
  356TMC3     O 5388   1.426   4.552  11.454 -0.2312 -0.8353  0.3481
  356TMC3     H 5389   1.643   4.614  11.495  0.5538  1.4368 -0.1835
  356TMC3    H1 5390   1.386   4.592  11.842 -0.4928 -1.3267 -2.0573
  356TMC3    H2 5391   1.763   0.070  11.843 -1.4711  0.5939  0.5656
  356TMC3    C7 5392   1.564   4.710  11.992 -0.5534  0.1412 -0.2449
  356TMC3    C8 5393   1.788   0.066  11.573 -0.1593 -0.0778  0.2068
  356TMC3    O1 5394   1.506   4.613  12.046  0.2822  0.2977  0.1948
  356TMC3    O2 5395   1.813   0.017  11.468 -0.2272 -0.2250  0.0312
  357MPD2     C 5396   0.556   0.124   0.328 -0.3324 -0.8722 -0.2511
  357MPD2    C1 5397   0.556   4.730   0.359  0.3039  0.0888  0.1047
  357MPD2    C2 5398   0.468   4.656   0.279 -0.2326  0.4049 -0.4697
  357MPD2    C3 5399   0.390   4.711   0.179  0.0108  0.8718 -0.0347
  357MPD2    C4 5400   0.397   0.103   0.158  0.1984 -0.1434 -0.2106
  357MPD2    C5 5401   0.480   0.177   0.234 -0.0071  0.5231 -0.3360
  357MPD2     H 5402   0.458   4.552   0.308  0.1541  0.0745 -1.5217
  357MPD2    H1 5403   0.334   0.163   0.093  1.3864  0.3757 -0.8794
  357MPD2    H2 5404   0.612   0.196   0.387  0.9325 -2.1825  0.1587
  357MPD2    H3 5405   0.482   0.283   0.212  1.5348  0.4609 -0.4585
  357MPD2     N 5406   0.315   4.615   0.109 -0.9943 -0.4311  0.4054
  357MPD2    H5 5407   0.311   4.520   0.144 -2.5252  0.0825  1.6138
  357MPD2    N1 5408   0.641   4.681   0.463 -0.2212  0.7606 -0.0794
  357MPD2    H7 5409   0.687   0.005   0.526  0.0044 -0.1905  0.7299
  358TMC3    C1 5410   0.746   4.510   0.595 -0.5386  0.4632  0.2736
  358TMC3    C2 5411   0.825   4.396   0.582  0.2154 -0.2591  0.2041
  358TMC3    C3 5412   0.942   4.381   0.656 -0.4001 -0.2884 -0.5613
  358TMC3    C4 5413   0.815   4.613   0.657 -0.1274 -0.0299 -0.4648
  358TMC3    C5 5414   0.938   4.605   0.711  0.1436  0.2322 -0.3515
  358TMC3    C6 5415   1.004   4.490   0.714  0.0241 -0.2425  1.2778
  358TMC3     C 5416   0.667   4.544   0.480  0.0635 -0.9820  0.4923
  358TMC3     O 5417   0.628   4.454   0.409  0.6911  0.0512  0.4559
  358TMC3     H 5418   0.780   4.315   0.526  2.3298 -0.3505 -1.3930
  358TMC3    H1 5419   0.764   4.707   0.674  3.7353  1.7438  1.2460
  358TMC3    H2 5420   1.097   4.475   0.769  2.0760  2.3074 -1.4387
  358TMC3    C7 5421   0.979   4.707   0.803  0.2158 -0.3860 -0.1729
  358TMC3    C8 5422   1.035   4.272   0.625 -0.2806  0.5482 -0.9778
  358TMC3    O1 5423   0.888   0.036   0.845 -0.2783 -0.0069  0.3210
  358TMC3    O2 5424   1.151   4.307   0.646  0.3469 -0.4870  0.2165
  359MPD2     C 5425   1.072   3.088  12.518 -0.7149  0.8263 -0.4797
  359MPD2    C1 5426   1.110   3.035  12.393  0.2256 -0.8848 -0.1780
  359MPD2    C2 5427   1.052   2.917  12.351 -0.5024 -0.2294  0.0414
  359MPD2    C3 5428   0.957   2.847  12.422  0.3636  0.1818 -0.1564
  359MPD2    C4 5429   0.909   2.909  12.544  0.6507 -0.0157 -0.3805
  359MPD2    C5 5430   0.971   3.020  12.588  0.5494  0.2525  0.4300
  359MPD2     H 5431   1.092   2.873  12.261 -0.9477  0.0607 -0.2997
  359MPD2    H1 5432   0.827   2.865  12.600  0.8406  0.2176  0.0723
  359MPD2    H2 5433   1.112   3.176  12.568  0.1311 -0.0518  0.3983
  359MPD2    H3 5434   0.939   3.057  12.685 -0.9065  0.5324 -0.1566
  359MPD2     N 5435   0.890   2.727  12.377 -0.4914 -0.2081  0.3908
  359MPD2    H5 5436   0.826   2.686  12.444  0.6494  2.0380  2.8373
  359MPD2    N1 5437   1.223   3.086  12.314  1.0992  0.4632  0.7817
  359MPD2    H7 5438   1.251   3.023  12.240  0.0030  0.8875 -0.0014
  360TMC3    C1 5439   1.412   3.208  12.256 -0.4429  0.2717 -0.2254
  360TMC3    C2 5440   1.526   3.240  12.318  0.3165 -0.9277 -0.2087
  360TMC3    C3 5441   1.642   3.235  12.247 -0.0539  0.4953 -0.4571
  360TMC3    C4 5442   1.414   3.152  12.126  0.1376  0.1807  0.2060
  360TMC3    C5 5443   1.532   3.147  12.061  0.3690 -0.5433  0.0330
  360TMC3    C6 5444   1.651   3.181  12.122  0.0361 -0.4507  0.6638
  360TMC3     C 5445   1.302   3.196  12.344  0.0413  0.4114  0.4082
  360TMC3     O 5446   1.309   3.257  12.452  0.0500 -0.3282 -0.0313
  360TMC3     H 5447   1.517   3.295  12.411  1.4942 -1.4095  0.1915
  360TMC3    H1 5448   1.321   3.129  12.075  0.6388 -0.3378 -0.4660
  360TMC3    H2 5449   1.742   3.169  12.064 -0.2951  2.3959 -0.4007
  360TMC3    C7 5450   1.532   3.116  11.918 -0.1658 -0.0691 -0.1181
  360TMC3    C8 5451   1.763   3.281  12.322 -0.2511 -0.3897 -0.6918
  360TMC3    O1 5452   1.631   3.130  11.846  0.2331 -0.6200  0.5238
  360TMC3    O2 5453   1.753   3.304  12.439  0.5924  0.3044  0.4126
  361MPD2     C 5454   2.660   1.776  16.528  0.4143  0.1131 -0.2321
  361MPD2    C1 5455   2.662   1.794  16.662  0.3658  0.5652  0.1555
  361MPD2    C2 5456   2.788   1.793  16.731 -0.9659 -0.4738 -0.5877
  361MPD2    C3 5457   2.896   1.766  16.660  0.2445 -0.3530  0.0175
  361MPD2    C4 5458   2.891   1.738  16.524  0.5990 -0.1558  0.9637
  361MPD2    C5 5459   2.773   1.748  16.457 -0.3808 -0.0286 -0.0491
  361MPD2     H 5460   2.791   1.811  16.838  0.5198 -1.2012 -0.5130
  361MPD2    H1 5461   2.973   1.699  16.465 -1.9693 -2.2177 -1.2379
  361MPD2    H2 5462   2.566   1.787  16.476  0.8356 -1.2229 -1.2756
  361MPD2    H3 5463   2.776   1.728  16.351 -0.1267 -0.1701 -0.0166
  361MPD2     N 5464   3.027   1.752  16.719 -0.2581 -0.2343 -0.0106
  361MPD2    H5 5465   3.104   1.717  16.664  0.0028  2.4497 -1.3185
  361MPD2    N1 5466   2.552   1.825  16.740  0.4195 -0.2020 -0.4738
  361MPD2    H7 5467   2.573   1.864  16.832  0.1746  1.7624 -1.2520
  362TMC3    C1 5468   2.318   1.843  16.800 -0.4610 -0.5865  0.1767
  362TMC3    C2 5469   2.341   1.839  16.935  0.3512  0.0274  0.3726
  362TMC3    C3 5470   2.226   1.861  17.015 -0.1290 -0.1407 -0.4142
  362TMC3    C4 5471   2.196   1.861  16.745 -0.3530  0.5416  0.0429
  362TMC3    C5 5472   2.089   1.880  16.824  0.0141 -0.6375 -0.2548
  362TMC3    C6 5473   2.105   1.890  16.960  0.4921 -0.3198  0.0434
  362TMC3     C 5474   2.424   1.812  16.701  0.3084 -0.4791 -0.4696
  362TMC3     O 5475   2.376   1.785  16.589  0.3515  0.5367 -0.4311
  362TMC3     H 5476   2.436   1.808  16.979  1.0191  1.7659  0.1521
  362TMC3    H1 5477   2.183   1.866  16.638 -2.3053  0.5333  0.2825
  362TMC3    H2 5478   2.015   1.902  17.019  0.1254 -2.1092 -0.1612
  362TMC3    C7 5479   1.985   1.955  16.760  0.1718  0.5890 -0.2151
  362TMC3    C8 5480   2.238   1.852  17.160 -0.2677 -0.4266  0.1340
  362TMC3    O1 5481   2.004   1.994  16.648 -0.0341 -0.3632 -0.2494
  362TMC3    O2 5482   2.343   1.790  17.195 -0.5694  0.0456 -0.7811
  363TMC3    C1 5483   1.945   0.480   9.541 -0.0564 -0.5744  0.4332
  363TMC3    C2 5484   1.884   0.405   9.637 -0.3892 -0.2414  0.7202
  363TMC3    C3 5485   1.872   0.454   9.771  0.4521 -0.0235  0.1167
  363TMC3    C4 5486   1.997   0.604   9.569 -0.9929 -0.0682 -0.1292
  363TMC3    C5 5487   1.975   0.650   9.696 -0.3325  0.0631 -0.2586
  363TMC3    C6 5488   1.927   0.581   9.802  0.3279  0.3620  0.2393
  363TMC3     C 5489   1.920   0.451   9.404  0.1679 -0.6198 -0.4282
  363TMC3     O 5490   1.979   0.513   9.320  0.1684  0.3390  0.1449
  363TMC3     H 5491   1.861   0.300   9.621  2.3185 -0.7652  0.3621
  363TMC3    H1 5492   2.038   0.670   9.493 -1.6009  1.3006  0.7428
  363TMC3    H2 5493   1.912   0.616   9.903  2.1785 -1.0892  1.0109
  363TMC3    C7 5494   1.979   0.789   9.723 -0.3974 -0.1918 -0.0643
  363TMC3    C8 5495   1.817   0.369   9.877 -0.0990  0.0831  0.5893
  363TMC3    O1 5496   2.030   0.828   9.828 -0.3356 -0.5733 -0.0560
  363TMC3    O2 5497   1.777   0.421   9.978  0.0831 -0.5094 -0.3900
  364MPD2     C 5498   0.251   4.181  10.532  0.1811  0.0592 -0.1451
  364MPD2    C1 5499   0.340   4.210  10.630 -0.3130 -0.3009  0.1980
  364MPD2    C2 5500   0.413   4.112  10.692  0.1563 -0.9634 -0.2922
  364MPD2    C3 5501   0.387   3.976  10.656 -0.6358 -0.3678 -0.1259
  364MPD2    C4 5502   0.305   3.949  10.551 -0.6109  0.5406  0.1014
  364MPD2    C5 5503   0.237   4.051  10.489 -0.5270 -0.0033  0.9358
  364MPD2     H 5504   0.487   4.132  10.768 -2.1813 -1.6366  2.1514
  364MPD2    H1 5505   0.283   3.844  10.531 -3.5618  1.1003  0.3372
  364MPD2    H2 5506   0.202   4.262  10.479 -0.4668  0.2370  0.7185
  364MPD2    H3 5507   0.168   4.027  10.408 -0.3389  1.1651  0.4422
  364MPD2     N 5508   0.454   3.866  10.716  0.6991  0.1208 -0.1516
  364MPD2    H5 5509   0.434   3.772  10.684  1.7260 -0.1838  0.1017
  364MPD2    N1 5510   0.356   4.342  10.659 -0.0579 -0.3639 -0.1083
  364MPD2    H7 5511   0.311   4.409  10.599 -1.0704 -0.5227  0.4761
  365TMC3    C1 5512   0.556   4.458  10.667 -0.4139  0.0828  0.1537
  365TMC3    C2 5513   0.550   4.430  10.532  0.3715 -0.0477  0.7325
  365TMC3    C3 5514   0.643   4.342  10.477 -0.5378  0.2500 -0.2793
  365TMC3    C4 5515   0.684   4.436  10.724 -0.3064  0.0469  0.8051
  365TMC3    C5 5516   0.783   4.370  10.660  0.3165  0.0279 -0.2078
  365TMC3    C6 5517   0.763   4.322  10.535  0.5053  0.3203 -0.4310
  365TMC3     C 5518   0.453   4.384  10.741 -0.3660 -0.6675  0.2015
  365TMC3     O 5519   0.489   4.345  10.853 -0.6617 -0.3783 -0.2174
  365TMC3     H 5520   0.462   4.465  10.480  1.2339  1.4510  0.2753
  365TMC3    H1 5521   0.690   4.475  10.825  1.2535  2.0429 -0.0363
  365TMC3    H2 5522   0.839   4.263  10.484 -0.0957 -0.5306 -0.3399
  365TMC3    C7 5523   0.863   4.282  10.739 -0.5770  0.0788  0.1627
  365TMC3    C8 5524   0.611   4.288  10.342 -0.3554 -0.1678 -0.1490
  365TMC3    O1 5525   0.971   4.231  10.699  0.2507 -0.6447 -0.7558
  365TMC3    O2 5526   0.562   4.367  10.261 -0.6539 -0.5776  0.0128
  366MPD2     C 5527   3.041   0.165  15.620  0.2140  0.0577 -0.4517
  366MPD2    C1 5528   3.053   0.224  15.498  0.2190 -0.3149 -0.1807
  366MPD2    C2 5529   3.093   0.144  15.394 -0.2002 -0.3772 -0.1148
  366MPD2    C3 5530   3.128   0.015  15.407  0.4241  0.1762 -0.1279
  366MPD2    C4 5531   3.118   4.694  15.529  0.2014  0.0563 -0.0172
  366MPD2    C5 5532   3.073   0.034  15.633  0.3397 -0.0118 -0.2603
  366MPD2     H 5533   3.100   0.202  15.302  2.7797 -2.4823 -1.2199
  366MPD2    H1 5534   3.159   4.596  15.546  0.5342  0.0017 -1.1572
  366MPD2    H2 5535   3.022   0.231  15.705 -1.2889  1.4217 -1.8452
  366MPD2    H3 5536   3.076   4.728  15.731  3.4628  0.7664  0.0122
  366MPD2     N 5537   3.196   4.706  15.290  0.6550  0.3462 -0.0485
  366MPD2    H5 5538   3.202   0.041  15.223 -1.2047  1.4667  1.0558
  366MPD2    N1 5539   3.046   0.366  15.474  0.1340  0.0550  0.2745
  366MPD2    H7 5540   3.057   0.392  15.376 -3.9423  0.2668 -0.1302
  367TMC3    C1 5541   3.043   0.591  15.512 -0.0405  0.3997 -0.1989
  367TMC3    C2 5542   3.126   0.676  15.577  0.6369  0.1962 -0.7401
  367TMC3    C3 5543   3.179   0.781  15.503 -0.4891 -0.4610 -0.2288
  367TMC3    C4 5544   3.005   0.610  15.381  0.1048  0.1289 -0.2285
  367TMC3    C5 5545   3.054   0.722  15.322 -0.3079  0.3894 -1.1898
  367TMC3    C6 5546   3.141   0.807  15.372 -0.3078  0.0394 -0.2469
  367TMC3     C 5547   3.029   0.460  15.572  0.3034  0.4168 -0.3046
  367TMC3     O 5548   3.027   0.454  15.690  0.0207 -0.2576  0.1357
  367TMC3     H 5549   3.166   0.644  15.673  0.4911  3.1416  0.3003
  367TMC3    H1 5550   2.920   0.555  15.341 -1.5267  0.9435  2.1119
  367TMC3    H2 5551   3.179   0.888  15.312 -1.0854 -0.5095 -1.4878
  367TMC3    C7 5552   3.001   0.757  15.189 -0.2789  0.0512 -0.1011
  367TMC3    C8 5553   3.294   0.845  15.560 -0.2317  0.3890  0.5446
  367TMC3    O1 5554   3.009   0.868  15.150 -0.1157 -0.0893  0.2455
  367TMC3    O2 5555   3.331   0.809  15.669  0.0004  0.2499  0.2896
  368MPD2     C 5556   4.460   2.485  13.498  0.4575  0.2921  0.1451
  368MPD2    C1 5557   4.528   2.608  13.506 -0.7183 -0.1022 -0.4623
  368MPD2    C2 5558   4.663   2.609  13.486 -0.4368 -0.3585 -0.0840
  368MPD2    C3 5559   4.733   2.496  13.461  0.0006 -0.3822  0.6232
  368MPD2    C4 5560   4.667   2.380  13.467  0.0317  0.0873  0.4587
  368MPD2    C5 5561   4.528   2.373  13.484  0.7373 -0.8330  0.2727
  368MPD2     H 5562   4.719   2.699  13.461  0.6080 -0.5953  1.4338
  368MPD2    H1 5563   4.714   2.282  13.462  0.1002  0.0013  2.6921
  368MPD2    H2 5564   4.352   2.476  13.495  0.6778 -2.6583  1.6196
  368MPD2    H3 5565   4.474   2.279  13.485  0.9577 -0.9430  1.4189
  368MPD2     N 5566   0.118   2.508  13.409  0.0965  0.0152 -0.0260
  368MPD2    H5 5567   0.160   2.599  13.398  1.1418 -0.4822 -0.1574
  368MPD2    N1 5568   4.441   2.722  13.504 -0.4679  0.0251 -0.6949
  368MPD2    H7 5569   4.345   2.690  13.509 -0.6354  0.3561 -1.9826
  369TMC3    C1 5570   4.362   2.925  13.429 -0.1118 -0.3722 -0.2356
  369TMC3    C2 5571   4.407   2.972  13.313 -0.0169 -0.2437  0.2383
  369TMC3    C3 5572   4.344   2.943  13.197 -0.0739 -0.4533  0.4421
  369TMC3    C4 5573   4.251   2.846  13.431 -0.1119  0.9421 -0.5092
  369TMC3    C5 5574   4.189   2.823  13.315  0.2848  0.2889 -0.3722
  369TMC3    C6 5575   4.229   2.868  13.194 -0.6836  0.5311  0.4467
  369TMC3     C 5576   4.471   2.854  13.496 -0.1897 -0.4244 -0.4439
  369TMC3     O 5577   4.578   2.913  13.514  0.2810  0.0329  0.1588
  369TMC3     H 5578   4.494   3.035  13.318  1.2554 -1.9073 -1.0597
  369TMC3    H1 5579   4.200   2.830  13.525  1.1890 -1.1511 -0.1646
  369TMC3    H2 5580   4.177   2.848  13.101  1.2734  0.0456 -0.5407
  369TMC3    C7 5581   4.112   2.696  13.317 -0.6554 -0.3812 -0.2581
  369TMC3    C8 5582   4.386   2.993  13.062  0.1517 -0.5447  0.4853
  369TMC3    O1 5583   4.169   2.608  13.381 -0.6985 -0.2354  0.1827
  369TMC3    O2 5584   4.308   2.988  12.968  0.2890  0.2485  0.0642
  370TMC3    C1 5585   4.016   2.888  16.299  0.0681 -0.1653  0.1011
  370TMC3    C2 5586   3.924   2.844  16.387 -0.4190 -0.0751  0.3651
  370TMC3    C3 5587   3.841   2.750  16.335  0.6092 -0.0150 -0.1032
  370TMC3    C4 5588   4.040   2.844  16.173 -0.2785  0.1334 -0.2668
  370TMC3    C5 5589   3.959   2.742  16.134  0.4324 -0.1862 -0.3909
  370TMC3    C6 5590   3.864   2.689  16.215  0.2642 -0.3410  0.0700
  370TMC3     C 5591   4.124   2.958  16.364  0.2858  0.6015 -0.0977
  370TMC3     O 5592   4.151   2.918  16.473  0.1491 -0.2572  0.1686
  370TMC3     H 5593   3.917   2.890  16.485  0.1968 -2.0615  1.3410
  370TMC3    H1 5594   4.120   2.877  16.109  0.4853 -1.4153 -0.1258
  370TMC3    H2 5595   3.816   2.592  16.205 -0.3074 -0.0297 -0.1765
  370TMC3    C7 5596   4.009   2.660  16.022  0.3473  0.0302 -0.2243
  370TMC3    C8 5597   3.747   2.693  16.429  0.8560 -0.2513  0.3567
  370TMC3    O1 5598   4.035   2.715  15.915 -0.0981 -0.3052  0.2059
  370TMC3    O2 5599   3.647   2.629  16.388  0.3119 -0.2633  0.1705
  371TMC3    C1 5600   0.477   0.966  15.724  0.5150  0.0881  0.2262
  371TMC3    C2 5601   0.344   0.976  15.764 -0.3763  0.2935 -0.1778
  371TMC3    C3 5602   0.296   1.102  15.759  0.3038 -0.1415 -0.1459
  371TMC3    C4 5603   0.557   1.074  15.688 -0.2988 -0.1426 -0.3543
  371TMC3    C5 5604   0.494   1.192  15.672 -0.2195 -0.4765  0.6649
  371TMC3    C6 5605   0.367   1.213  15.711  0.4695 -0.2062 -0.1065
  371TMC3     C 5606   0.550   0.843  15.720 -0.5423 -0.2952 -0.8769
  371TMC3     O 5607   0.672   0.862  15.718  0.0359 -0.1065 -0.8140
  371TMC3     H 5608   0.283   0.887  15.778  1.4639 -0.8390  0.7406
  371TMC3    H1 5609   0.664   1.070  15.668 -0.6025 -2.3168 -1.6085
  371TMC3    H2 5610   0.323   1.305  15.672  2.2609 -0.2063 -2.1077
  371TMC3    C7 5611   0.548   1.304  15.591 -0.4146  0.1119  0.1537
  371TMC3    C8 5612   0.153   1.124  15.765 -0.5787  0.3013  0.1556
  371TMC3    O1 5613   0.506   1.420  15.609 -0.5852  0.1872  0.4532
  371TMC3    O2 5614   0.088   1.020  15.771 -0.2369 -0.6714  0.1310
  372MPD2     C 5615   0.726   2.508  13.431  1.1957  0.7566 -0.6105
  372MPD2    C1 5616   0.701   2.380  13.472  0.4183 -0.7228  0.6714
  372MPD2    C2 5617   0.596   2.361  13.558  0.3884 -0.1464 -0.0787
  372MPD2    C3 5618   0.503   2.458  13.593  1.2354  1.2283  0.2186
  372MPD2    C4 5619   0.524   2.577  13.534 -0.2019 -0.4473 -0.0888
  372MPD2    C5 5620   0.632   2.603  13.453  0.0312 -0.4871  0.1479
  372MPD2     H 5621   0.586   2.257  13.587  0.7002 -0.6215 -1.6698
  372MPD2    H1 5622   0.465   2.663  13.564  0.3267 -0.6307  1.4434
  372MPD2    H2 5623   0.814   2.534  13.374  1.7104  1.8187  0.6871
  372MPD2    H3 5624   0.651   2.703  13.416  0.4949 -0.0240  1.6393
  372MPD2     N 5625   0.390   2.415  13.662 -0.0458  0.2976  0.1114
  372MPD2    H5 5626   0.383   2.319  13.696  1.8481  0.5086  1.0629
  372MPD2    N1 5627   0.793   2.275  13.458  0.1145  0.1813  0.2843
  372MPD2    H7 5628   0.770   2.187  13.504 -0.6333  0.1350 -0.1687
  373TMC3    C1 5629   0.170   2.416  13.762  0.0068 -0.3546 -0.0713
  373TMC3    C2 5630   0.123   2.463  13.884 -0.1343 -0.2831 -0.4678
  373TMC3    C3 5631   0.060   2.374  13.967  0.1097 -0.0051 -0.6171
  373TMC3    C4 5632   0.145   2.291  13.714  0.7672  0.3801 -0.0418
  373TMC3    C5 5633   0.090   2.204  13.806 -0.0890 -0.2894  0.3988
  373TMC3    C6 5634   0.045   2.240  13.930 -0.3660  0.4238  0.2107
  373TMC3     C 5635   0.272   2.493  13.696 -0.9215 -0.6221  0.1051
  373TMC3     O 5636   0.278   2.612  13.713  0.1507 -0.0952  0.8477
  373TMC3     H 5637   0.149   2.560  13.926  1.1999 -0.5563 -0.6851
  373TMC3    H1 5638   0.177   2.255  13.617  0.6600 -1.9250  0.7716
  373TMC3    H2 5639   4.732   2.170  13.994 -1.0579  0.0096 -0.8315
  373TMC3    C7 5640   0.141   2.066  13.793  0.2681  0.0084 -0.4297
  373TMC3    C8 5641   0.045   2.417  14.095 -0.6428  0.4070  0.3468
  373TMC3    O1 5642   0.162   2.032  13.678 -0.3386  0.2805  0.6006
  373TMC3    O2 5643   4.678   2.447  14.137  0.2485 -0.2105  0.4232
  374TMC3    C1 5644   0.454   2.820   9.996  0.6630 -0.1617  0.3015
  374TMC3    C2 5645   0.586   2.860  10.015 -1.3390 -0.3374 -0.0074
  374TMC3    C3 5646   0.637   2.942   9.918  0.1480  0.1270 -0.5729
  374TMC3    C4 5647   0.375   2.848   9.888 -0.3539 -0.9997 -0.3371
  374TMC3    C5 5648   0.432   2.934   9.800 -0.5307 -0.0414 -0.2171
  374TMC3    C6 5649   0.560   2.984   9.809 -0.7186  0.7393  0.2374
  374TMC3     C 5650   0.399   2.725  10.088  0.3322  0.5106 -0.2688
  374TMC3     O 5651   0.308   2.661  10.039 -0.0779  0.1884 -0.0076
  374TMC3     H 5652   0.649   2.815  10.091 -1.5467  0.2973  0.5423
  374TMC3    H1 5653   0.269   2.827   9.880 -0.7396  0.5669  0.5318
  374TMC3    H2 5654   0.613   3.033   9.728 -3.2521  2.6418 -0.2806
  374TMC3    C7 5655   0.372   2.965   9.674  0.5765  0.0696  0.0319
  374TMC3    C8 5656   0.772   3.000   9.927 -0.0470 -0.2187 -0.0802
  374TMC3    O1 5657   0.406   3.066   9.613 -0.2373  0.1140 -0.0252
  374TMC3    O2 5658   0.787   3.079   9.831 -0.4040  0.6391 -0.5522
  375MPD2     C 5659   0.570   3.342  17.190 -0.9983 -0.5346 -0.4475
  375MPD2    C1 5660   0.476   3.401  17.101  0.1980  0.2769 -0.1703
  375MPD2    C2 5661   0.479   3.356  16.965  0.0285  0.2749  0.7854
  375MPD2    C3 5662   0.569   3.259  16.919 -0.1018  0.0997  0.1661
  375MPD2    C4 5663   0.662   3.210  17.013 -0.2688 -0.1641 -0.3086
  375MPD2    C5 5664   0.657   3.245  17.146 -0.6433 -0.2162 -0.3624
  375MPD2     H 5665   0.399   3.396  16.903 -0.3989 -1.8284 -0.0482
  375MPD2    H1 5666   0.738   3.137  16.990 -1.1055 -0.9264 -0.6707
  375MPD2    H2 5667   0.571   3.362  17.296  2.1444 -0.1416 -0.5376
  375MPD2    H3 5668   0.741   3.207  17.203 -1.8423  0.8366  2.0982
  375MPD2     N 5669   0.571   3.201  16.788 -0.3638  0.6109  0.2568
  375MPD2    H5 5670   0.641   3.129  16.774  0.3640  1.2014  0.8427
  375MPD2    N1 5671   0.373   3.488  17.134  0.0155  0.1266  0.3399
  375MPD2    H7 5672   0.314   3.527  17.061 -0.8003 -3.5748 -0.9695
  376TMC3    C1 5673   0.496   3.131  16.581 -0.7090 -0.1503  0.0042
  376TMC3    C2 5674   0.611   3.057  16.560 -0.1705  0.6881 -0.8840
  376TMC3    C3 5675   0.614   2.965  16.459  0.8332 -0.0942 -0.4639
  376TMC3    C4 5676   0.396   3.121  16.491  0.3873 -1.0841 -0.0937
  376TMC3    C5 5677   0.413   3.034  16.385 -0.1832  0.2553  0.3017
  376TMC3    C6 5678   0.515   2.949  16.365 -0.6712 -0.1891 -0.1133
  376TMC3     C 5679   0.479   3.223  16.697  0.0360 -0.5399  0.1321
  376TMC3     O 5680   0.390   3.305  16.690 -0.6614  0.1436 -0.9822
  376TMC3     H 5681   0.699   3.072  16.622  0.3892 -0.1430 -1.4801
  376TMC3    H1 5682   0.320   3.198  16.489 -0.6299 -2.0064  2.6815
  376TMC3    H2 5683   0.523   2.893  16.273 -0.9700 -2.7891  1.4511
  376TMC3    C7 5684   0.325   3.050  16.269 -0.1141  0.3104 -0.3690
  376TMC3    C8 5685   0.741   2.923  16.414 -0.0538  0.2046 -0.5333
  376TMC3    O1 5686   0.358   2.993  16.168  0.4108  0.2891 -0.6530
  376TMC3    O2 5687   0.830   2.997  16.433  0.2668 -0.3517  0.3605
  377MPD2     C 5688   3.293   3.518  12.956  0.5152 -0.2213 -0.1318
  377MPD2    C1 5689   3.370   3.404  12.972 -0.3534 -0.5267 -0.5595
  377MPD2    C2 5690   3.352   3.324  13.079  0.0771  0.2728  0.0350
  377MPD2    C3 5691   3.237   3.344  13.160  0.7474 -0.1368  0.5749
  377MPD2    C4 5692   3.148   3.455  13.142  0.5582  0.5809 -0.1832
  377MPD2    C5 5693   3.180   3.534  13.036 -0.1057  1.2031  0.2201
  377MPD2     H 5694   3.408   3.232  13.092 -0.7778 -0.3459 -0.6317
  377MPD2    H1 5695   3.072   3.482  13.214 -0.6406 -0.4394 -1.0802
  377MPD2    H2 5696   3.318   3.571  12.864  0.7955 -2.1131 -1.1532
  377MPD2    H3 5697   3.122   3.622  13.011 -1.1185  0.5133  0.1244
  377MPD2     N 5698   3.193   3.252  13.255 -0.1923 -0.3192 -0.3296
  377MPD2    H5 5699   3.101   3.265  13.296 -0.4223 -1.9245 -0.3071
  377MPD2    N1 5700   3.475   3.386  12.878  0.0040 -0.0507  0.1590
  377MPD2    H7 5701   3.479   3.452  12.801 -0.0026  0.3663  0.5175
  378TMC3    C1 5702   3.709   3.396  12.542 -0.7054  0.3690  0.2266
  378TMC3    C2 5703   3.639   3.401  12.659 -0.1013 -0.1414  0.1322
  378TMC3    C3 5704   3.665   3.302  12.759 -0.0720  0.2092  0.0001
  378TMC3    C4 5705   3.804   3.299  12.528  0.0400  0.6841 -0.1248
  378TMC3    C5 5706   3.832   3.209  12.628 -0.9220 -0.0828  0.1944
  378TMC3    C6 5707   3.765   3.211  12.748 -0.4706  0.3413 -0.6594
  378TMC3     C 5708   3.659   3.477  12.434  0.1519 -0.0670  0.1255
  378TMC3     O 5709   3.546   3.514  12.446  0.2351  0.4349  0.8009
  378TMC3     H 5710   3.570   3.481  12.682 -0.4612 -0.2758 -0.5047
  378TMC3    H1 5711   3.870   3.291  12.442  0.8631 -1.9833  0.7450
  378TMC3    H2 5712   3.789   3.145  12.831 -1.8319  0.3632 -0.2484
  378TMC3    C7 5713   3.956   3.124  12.620  0.1673  0.1158  0.7449
  378TMC3    C8 5714   3.571   3.290  12.873 -0.3249  0.7993  0.0828
  378TMC3    O1 5715   3.992   3.072  12.726  0.2113  0.2192  0.1476
  378TMC3    O2 5716   3.588   3.191  12.947 -0.4624 -0.1991 -0.3282
  379MPD2     C 5717   4.442   1.017  16.050 -0.5814 -0.4499  0.0668
  379MPD2    C1 5718   4.347   0.968  16.143  0.5046 -0.8308  0.1544
  379MPD2    C2 5719   4.395   0.943  16.272 -0.2470 -0.3791  0.4342
  379MPD2    C3 5720   4.525   0.955  16.308  0.4941  0.3361  0.4032
  379MPD2    C4 5721   4.620   0.994  16.221  0.7267  0.1902 -0.5714
  379MPD2    C5 5722   4.571   1.023  16.094 -0.0254 -0.3660 -0.6912
  379MPD2     H 5723   4.323   0.915  16.348  0.5291 -0.0933  1.2577
  379MPD2    H1 5724   4.726   1.000  16.246  0.1949 -1.2706  2.0534
  379MPD2    H2 5725   4.409   1.043  15.950 -1.1854 -1.1226  0.0943
  379MPD2    H3 5726   4.648   1.055  16.025  1.6613  0.0195  1.3610
  379MPD2     N 5727   4.577   0.913  16.437 -0.4531 -0.1780  0.1288
  379MPD2    H5 5728   4.678   0.909  16.441 -0.3705  0.1244 -1.6934
  379MPD2    N1 5729   4.215   0.941  16.101  0.1120  0.1894 -0.1373
  379MPD2    H7 5730   4.193   0.941  16.002 -0.7968  0.0302  0.0646
  380TMC3    C1 5731   4.019   0.817  16.086  0.0090 -0.1488  0.3535
  380TMC3    C2 5732   4.091   0.729  16.013 -0.3509  0.7978 -0.1464
  380TMC3    C3 5733   4.053   0.709  15.882  0.1742  0.5913 -0.5536
  380TMC3    C4 5734   3.923   0.892  16.038 -0.4521  0.5205 -0.2773
  380TMC3    C5 5735   3.896   0.879  15.905  0.6071 -0.6608  0.4607
  380TMC3    C6 5736   3.955   0.783  15.828  0.1027 -0.1827  0.7440
  380TMC3     C 5737   4.117   0.882  16.171 -0.1669  0.0669  0.0330
  380TMC3     O 5738   4.100   0.857  16.292 -0.1391 -0.1137 -0.2213
  380TMC3     H 5739   4.170   0.684  16.073  0.8826  0.8556 -1.7319
  380TMC3    H1 5740   3.880   0.969  16.101  1.0837  0.0592  1.3342
  380TMC3    H2 5741   3.922   0.763  15.727  1.9871  0.9893 -0.0989
  380TMC3    C7 5742   3.836   0.990  15.830  0.4336 -0.4666 -0.1913
  380TMC3    C8 5743   4.162   0.681  15.794  0.1751 -0.3559 -0.3274
  380TMC3    O1 5744   3.836   1.102  15.876  0.1221 -0.2446  0.2771
  380TMC3    O2 5745   4.146   0.694  15.671 -0.0646  0.2718  0.5682
  381TMC3    C1 5746   3.689   2.253  16.393 -0.6638 -0.0714  0.2035
  381TMC3    C2 5747   3.796   2.330  16.360 -0.0675  0.4608 -0.3453
  381TMC3    C3 5748   3.892   2.345  16.457 -0.3314 -1.0634  0.7250
  381TMC3    C4 5749   3.689   2.168  16.501 -0.4863  0.5913  0.4699
  381TMC3    C5 5750   3.792   2.187  16.593  0.1942  0.3231 -0.6995
  381TMC3    C6 5751   3.900   2.267  16.565  0.2854 -0.0218  1.1530
  381TMC3     C 5752   3.581   2.267  16.303  0.5081  0.1572 -0.3541
  381TMC3     O 5753   3.556   2.368  16.245 -0.3950  0.2817  0.2420
  381TMC3     H 5754   3.785   2.389  16.270 -3.1231  1.3716  0.6381
  381TMC3    H1 5755   3.604   2.105  16.522 -0.5312  0.1009 -1.2387
  381TMC3    H2 5756   3.976   2.274  16.641  1.4737  3.6534 -0.4057
  381TMC3    C7 5757   3.784   2.127  16.722  0.7704  0.5711 -0.1260
  381TMC3    C8 5758   4.004   2.420  16.416  0.3099  0.2806  0.1911
  381TMC3    O1 5759   3.890   2.093  16.769  0.6496  0.4276  0.2807
  381TMC3    O2 5760   4.013   2.429  16.294  0.0417 -0.1390 -0.5134
  382MPD2     C 5761   2.708   4.110  16.515  0.3667 -0.5265 -0.5260
  382MPD2    C1 5762   2.704   4.110  16.656  0.2727 -0.7778 -0.6938
  382MPD2    C2 5763   2.754   4.013  16.740  0.2708 -0.3696  0.4103
  382MPD2    C3 5764   2.820   3.905  16.681  0.3284  0.7650  0.2397
  382MPD2    C4 5765   2.821   3.892  16.542  0.3140 -0.0195  0.2211
  382MPD2    C5 5766   2.764   3.990  16.471 -0.7017  0.0133  0.5888
  382MPD2     H 5767   2.751   4.032  16.847  1.5851 -0.3635  0.4405
  382MPD2    H1 5768   2.876   3.811  16.495 -0.5601 -0.6340  0.2588
  382MPD2    H2 5769   2.671   4.188  16.450 -0.7432 -0.6278 -0.0165
  382MPD2    H3 5770   2.790   3.992  16.365 -0.5934 -2.3340  0.5543
  382MPD2     N 5771   2.899   3.810  16.753 -0.2372 -0.0783  0.5979
  382MPD2    H5 5772   2.943   3.733  16.704 -2.2241 -1.7720  1.4910
  382MPD2    N1 5773   2.659   4.226  16.725  0.9731 -0.0000  0.0193
  382MPD2    H7 5774   2.651   4.220  16.826  0.1305  0.9513  0.0078
  383TMC3    C1 5775   3.025   3.708  16.935 -0.1490 -0.2956 -0.1119
  383TMC3    C2 5776   2.960   3.585  16.959  0.2680 -0.0418  0.8929
  383TMC3    C3 5777   2.962   3.523  17.085 -0.8299 -0.1293 -0.6055
  383TMC3    C4 5778   3.107   3.754  17.032  0.1206  0.7917 -0.2459
  383TMC3    C5 5779   3.100   3.695  17.153 -0.3527 -0.2745 -0.1439
  383TMC3    C6 5780   3.034   3.580  17.188  0.3641 -0.1973 -0.1992
  383TMC3     C 5781   2.924   3.809  16.888 -0.6480  0.7606 -0.3384
  383TMC3     O 5782   2.899   3.902  16.964  0.8426  0.1846 -0.7049
  383TMC3     H 5783   2.893   3.533  16.892  0.9909 -0.7993  0.7646
  383TMC3    H1 5784   3.167   3.843  17.015  1.2567  0.1620  0.5023
  383TMC3    H2 5785   3.031   3.538  17.288  0.7686 -0.8180 -0.4436
  383TMC3    C7 5786   3.178   3.743  17.263 -0.4354 -0.4831  0.1352
  383TMC3    C8 5787   2.884   3.399  17.098 -0.4173  0.4669  0.2832
  383TMC3    O1 5788   3.209   3.661  17.351 -0.2675 -0.6097 -0.0856
  383TMC3    O2 5789   2.824   3.355  16.996  0.0505 -0.4016  0.2924
  384MPD2     C 5790   4.723   0.788  11.745 -0.9123 -0.5103 -0.4103
  384MPD2    C1 5791   4.694   0.689  11.838  0.4787  0.4354  0.1778
  384MPD2    C2 5792   0.038   0.584  11.857  0.0760  0.5271  0.5662
  384MPD2    C3 5793   0.164   0.587  11.785  0.8902 -0.2567 -0.4969
  384MPD2    C4 5794   0.196   0.694  11.702  0.4303  0.1380  0.4239
  384MPD2    C5 5795   0.102   0.792  11.676  0.5391 -0.4997 -0.8121
  384MPD2     H 5796   0.014   0.501  11.923  3.6482 -1.2268 -0.3713
  384MPD2    H1 5797   0.289   0.689  11.647  0.0422 -0.4630 -0.1761
  384MPD2    H2 5798   4.653   0.869  11.730 -0.0869  0.2924  0.1177
  384MPD2    H3 5799   0.111   0.868  11.600 -1.9683  0.6509  0.0321
  384MPD2     N 5800   0.269   0.489  11.812  0.2000  0.2319 -0.0111
  384MPD2    H5 5801   0.358   0.528  11.784  1.9254 -2.8578  1.1265
  384MPD2    N1 5802   4.567   0.707  11.908 -0.4240 -0.1723 -0.8704
  384MPD2    H7 5803   4.505   0.783  11.883 -1.9124 -1.3791 -0.8336
  385TMC3    C1 5804   0.372   0.298  11.915 -0.2738 -0.3689 -0.9640
  385TMC3    C2 5805   0.347   0.168  11.951 -1.2285 -0.4866 -0.0323
  385TMC3    C3 5806   0.395   0.122  12.076  0.5669  0.0827  0.2333
  385TMC3    C4 5807   0.436   0.379  12.008  0.5363 -0.3060 -0.0549
  385TMC3    C5 5808   0.468   0.330  12.130  0.1954 -0.0056  0.1459
  385TMC3    C6 5809   0.453   0.200  12.166 -0.4740  0.1176 -0.5638
  385TMC3     C 5810   0.253   0.365  11.874 -0.1083 -0.1950  0.0510
  385TMC3     O 5811   0.150   0.307  11.910 -0.1796 -0.2416  0.2141
  385TMC3     H 5812   0.284   0.106  11.890  0.2297 -0.2357 -1.7970
  385TMC3    H1 5813   0.455   0.484  11.988 -1.6767 -0.0722 -0.9457
  385TMC3    H2 5814   0.462   0.183  12.273  0.7631 -1.1951 -0.8659
  385TMC3    C7 5815   0.433   0.424  12.230 -0.0585  0.0182  0.5262
  385TMC3    C8 5816   0.379   4.727  12.125 -1.0737  0.2147 -0.0085
  385TMC3    O1 5817   0.476   0.397  12.341 -0.1415  0.3352 -0.4134
  385TMC3    O2 5818   0.375   4.710  12.246 -0.5814 -0.8716  0.7203
  386TMC3    C1 5819   0.228   2.630  11.709  0.7168 -0.4830 -0.8565
  386TMC3    C2 5820   0.212   2.683  11.584  0.2842  0.0619  0.1939
  386TMC3    C3 5821   0.090   2.657  11.523 -0.3471  0.3240 -0.8952
  386TMC3    C4 5822   0.121   2.577  11.780 -0.6601  0.4592 -0.0203
  386TMC3    C5 5823   4.736   2.571  11.726 -0.1080  0.4518 -0.7260
  386TMC3    C6 5824   4.731   2.591  11.595  0.2912  0.2414 -0.8809
  386TMC3     C 5825   0.367   2.620  11.764  0.2564  0.0436  0.6037
  386TMC3     O 5826   0.453   2.674  11.699  0.4314  0.0681  0.5476
  386TMC3     H 5827   0.297   2.740  11.548  2.0442 -1.6318  1.7141
  386TMC3    H1 5828   0.127   2.560  11.887 -0.4598 -0.5649 -0.1882
  386TMC3    H2 5829   4.642   2.577  11.535 -1.3651  2.4599  1.0714
  386TMC3    C7 5830   4.641   2.648  11.798 -0.4060  0.2566  0.1025
  386TMC3    C8 5831   0.032   2.760  11.435 -0.3907  0.4380  0.1438
  386TMC3    O1 5832   4.653   2.662  11.918 -0.0352 -0.4094 -0.3270
  386TMC3    O2 5833   4.649   2.770  11.442 -0.1585 -0.4400  0.0831
  387MPD2     C 5834   2.328   3.360  10.139  0.2900  0.1254  0.1743
  387MPD2    C1 5835   2.395   3.308  10.245  0.4273  0.1597 -0.3405
  387MPD2    C2 5836   2.385   3.176  10.271  0.3716  0.1046 -0.5469
  387MPD2    C3 5837   2.304   3.086  10.202 -0.2364  0.4623  0.3274
  387MPD2    C4 5838   2.236   3.139  10.095 -0.1560  0.6313 -0.2084
  387MPD2    C5 5839   2.250   3.271  10.069  0.4477 -0.0839  1.0500
  387MPD2     H 5840   2.443   3.134  10.353  1.9908  1.6631 -0.8982
  387MPD2    H1 5841   2.162   3.086  10.035  1.9991 -0.2161 -2.1470
  387MPD2    H2 5842   2.331   3.465  10.114 -0.4480  0.2795  0.7374
  387MPD2    H3 5843   2.192   3.312   9.987  0.3193 -0.1209  1.1211
  387MPD2     N 5844   2.316   2.953  10.236  0.4748  0.1185 -0.3236
  387MPD2    H5 5845   2.373   2.935  10.318  0.8887  0.3723 -0.5586
  387MPD2    N1 5846   2.497   3.379  10.309  0.4996 -0.0758 -0.1222
  387MPD2    H7 5847   2.540   3.340  10.392 -0.9840 -0.5444  0.4300
  388TMC3    C1 5848   2.682   3.519  10.332 -0.3446 -0.4120 -0.3670
  388TMC3    C2 5849   2.732   3.647  10.330 -0.1144  0.3470  0.2861
  388TMC3    C3 5850   2.864   3.654  10.369  0.6759  0.1101  0.0120
  388TMC3    C4 5851   2.765   3.410  10.349 -0.0751 -0.6002 -0.7808
  388TMC3    C5 5852   2.895   3.424  10.395  0.8649  0.1681  0.0951
  388TMC3    C6 5853   2.939   3.552  10.415 -0.6663 -0.4390 -0.2160
  388TMC3     C 5854   2.561   3.494  10.261  0.0199  0.0868  0.5000
  388TMC3     O 5855   2.534   3.567  10.166 -0.0391  0.0771 -0.2048
  388TMC3     H 5856   2.669   3.734  10.319 -1.1138 -0.0760  2.6448
  388TMC3    H1 5857   2.727   3.310  10.333  0.5519 -1.0734  0.6475
  388TMC3    H2 5858   3.042   3.566  10.445 -1.0873  2.1864 -0.0155
  388TMC3    C7 5859   2.988   3.310  10.414 -0.2974 -0.2938 -0.1012
  388TMC3    C8 5860   2.912   3.787  10.417 -0.2809 -0.2556 -0.0247
  388TMC3    O1 5861   3.059   3.320  10.515  0.1258  0.3654 -0.0487
  388TMC3    O2 5862   2.974   3.789  10.522  0.1407  1.0604 -0.1571
  389MPD2     C 5863   2.056   1.588  11.095 -0.2910 -0.3879  0.0726
  389MPD2    C1 5864   1.991   1.472  11.053  0.1395 -0.1692  0.4985
  389MPD2    C2 5865   1.926   1.406  11.150  0.3230 -0.1488 -0.1066
  389MPD2    C3 5866   1.938   1.430  11.283 -0.0661  0.4355  0.0843
  389MPD2    C4 5867   2.002   1.548  11.321 -0.2334 -0.3767 -0.0553
  389MPD2    C5 5868   2.059   1.627  11.227 -0.4044 -0.9361  0.1896
  389MPD2     H 5869   1.873   1.315  11.127  0.0365 -0.5894  2.3173
  389MPD2    H1 5870   2.002   1.578  11.426  1.2248 -2.5230  0.5489
  389MPD2    H2 5871   2.104   1.642  11.015 -1.3695  1.4854  0.6892
  389MPD2    H3 5872   2.102   1.721  11.258 -0.7298 -0.9793  0.7809
  389MPD2     N 5873   1.875   1.353  11.384  0.2657 -0.1573  0.0911
  389MPD2    H5 5874   1.899   1.381  11.479  0.4624  0.0047 -0.0066
  389MPD2    N1 5875   1.997   1.438  10.915 -0.8171  0.5182 -0.4237
  389MPD2    H7 5876   2.051   1.493  10.849  2.5083  0.0807  1.9752
  390TMC3    C1 5877   1.806   1.159  11.505 -1.0643  0.3157 -0.1669
  390TMC3    C2 5878   1.769   1.021  11.488  0.5583 -0.8597 -0.5348
  390TMC3    C3 5879   1.744   0.947  11.602 -0.2666  0.0774  0.4219
  390TMC3    C4 5880   1.819   1.216  11.625 -0.5625 -0.7818 -0.2212
  390TMC3    C5 5881   1.795   1.131  11.735  0.1484 -0.2887 -0.4834
  390TMC3    C6 5882   1.765   0.998  11.725  0.0298 -0.4588  0.2115
  390TMC3     C 5883   1.824   1.231  11.376  0.3639  0.2084  0.1660
  390TMC3     O 5884   1.797   1.165  11.280 -0.6755 -0.4823  0.1622
  390TMC3     H 5885   1.759   0.984  11.387  2.7791  0.9962 -1.4416
  390TMC3    H1 5886   1.840   1.321  11.644  1.7786 -1.0709 -1.2824
  390TMC3    H2 5887   1.754   0.931  11.810 -4.1163  2.3317  1.8716
  390TMC3    C7 5888   1.823   1.172  11.870 -0.2261  0.2617  0.2635
  390TMC3    C8 5889   1.708   0.806  11.585  0.4676  0.4338  0.5778
  390TMC3    O1 5890   1.890   1.273  11.881  0.1885 -0.0456  0.6145
  390TMC3    O2 5891   1.736   0.755  11.475 -0.3870  0.1809 -0.0308
  391MPD2     C 5892   1.331   2.552  11.293 -0.1473  0.0957 -1.0437
  391MPD2    C1 5893   1.451   2.618  11.270 -0.2143 -0.8129  0.1229
  391MPD2    C2 5894   1.463   2.671  11.145  0.0555 -0.5296  0.5757
  391MPD2    C3 5895   1.361   2.661  11.051  0.3218  0.5342  0.1890
  391MPD2    C4 5896   1.252   2.587  11.079 -0.8327  0.0254 -0.6977
  391MPD2    C5 5897   1.229   2.538  11.198 -0.0769  0.4477 -0.2743
  391MPD2     H 5898   1.553   2.717  11.106  1.3181 -3.2779  0.2822
  391MPD2    H1 5899   1.174   2.580  11.005 -1.7562 -1.3516  0.4052
  391MPD2    H2 5900   1.309   2.511  11.391  2.7632  0.2438 -0.3295
  391MPD2    H3 5901   1.142   2.477  11.219 -0.7646  1.9713  1.2787
  391MPD2     N 5902   1.376   2.735  10.928 -0.5157  0.5226 -0.6999
  391MPD2    H5 5903   1.468   2.777  10.922  0.0395 -0.6761 -0.6121
  391MPD2    N1 5904   1.546   2.647  11.370  0.2546 -0.0259 -0.1925
  391MPD2    H7 5905   1.530   2.592  11.454  1.3832 -0.0376  0.0108
  392TMC3    C1 5906   1.338   2.837  10.721 -0.9099 -0.2816 -0.3152
  392TMC3    C2 5907   1.285   2.816  10.599 -0.2494 -0.1607  0.5241
  392TMC3    C3 5908   1.317   2.905  10.502  0.1692  0.1768 -0.1615
  392TMC3    C4 5909   1.418   2.943  10.756  0.5358 -0.4137  0.0065
  392TMC3    C5 5910   1.449   3.033  10.648 -0.3081  0.1704  0.1077
  392TMC3    C6 5911   1.398   3.014  10.523 -0.2331 -0.1814  0.6219
  392TMC3     C 5912   1.297   2.740  10.817  0.4934 -0.4080 -0.7216
  392TMC3     O 5913   1.195   2.671  10.785 -0.3079  0.0782 -0.4812
  392TMC3     H 5914   1.208   2.741  10.583 -2.0853  1.5355  1.3675
  392TMC3    H1 5915   1.460   2.950  10.856  1.3381 -0.7603 -0.3077
  392TMC3    H2 5916   1.424   3.080  10.441  0.9636  2.3029  3.0239
  392TMC3    C7 5917   1.547   3.136  10.685  0.4955 -0.2014  0.1586
  392TMC3    C8 5918   1.205   2.924  10.408  0.3414  0.3437 -0.0716
  392TMC3    O1 5919   1.612   3.126  10.790 -0.2936  0.1765  0.1562
  392TMC3    O2 5920   1.092   2.896  10.442 -0.1096 -0.3368  0.6955
  393TMC3    C1 5921   0.363   0.668  10.954 -0.5002  0.1269  0.1350
  393TMC3    C2 5922   0.265   0.585  11.000 -0.8782 -0.5608 -0.3173
  393TMC3    C3 5923   0.307   0.468  11.054 -0.7891 -0.5066 -0.1548
  393TMC3    C4 5924   0.492   0.631  10.941  0.6729  0.5186 -0.0485
  393TMC3    C5 5925   0.528   0.506  10.985 -0.7014  0.3743  0.1602
  393TMC3    C6 5926   0.435   0.423  11.039  0.2466  0.3781  0.0092
  393TMC3     C 5927   0.319   0.800  10.917 -0.1758  0.2477  0.6042
  393TMC3     O 5928   0.202   0.800  10.887 -0.1165 -0.9530 -0.2435
  393TMC3     H 5929   0.164   0.624  11.006 -1.2834 -1.5174 -0.8134
  393TMC3    H1 5930   0.561   0.696  10.889 -1.6875  2.7054 -0.4309
  393TMC3    H2 5931   0.461   0.321  11.065  0.5938  0.7608  1.1553
  393TMC3    C7 5932   0.661   0.467  10.956  0.9960  0.3685 -0.4269
  393TMC3    C8 5933   0.200   0.371  11.074  0.1310  0.2291  0.0168
  393TMC3    O1 5934   0.667   0.350  10.936 -0.0947  0.5560 -0.2855
  393TMC3    O2 5935   0.088   0.408  11.041  0.3479  0.2133 -0.3846
  394TMC3    C1 5936   1.990   1.301  10.721 -0.4478 -0.4223 -0.3196
  394TMC3    C2 5937   1.937   1.182  10.666 -0.2175 -0.2854  0.1115
  394TMC3    C3 5938   1.928   1.174  10.530  0.2758  0.0834  0.4984
  394TMC3    C4 5939   2.044   1.404  10.651 -0.4340  0.0170  0.4923
  394TMC3    C5 5940   2.049   1.380  10.512 -0.3179 -0.5296 -0.0582
  394TMC3    C6 5941   1.988   1.272  10.453  0.7206 -0.5047  0.3988
  394TMC3     C 5942   1.946   1.323  10.856 -0.3169  0.0473 -0.2368
  394TMC3     O 5943   1.898   1.230  10.918  0.5817 -0.0152  0.0929
  394TMC3     H 5944   1.912   1.098  10.730 -0.1034 -0.0603  0.4508
  394TMC3    H1 5945   2.092   1.494  10.687  1.0844 -0.4094 -0.4879
  394TMC3    H2 5946   2.002   1.253  10.348  0.0206  0.9357  0.0455
  394TMC3    C7 5947   2.091   1.489  10.428 -0.3857 -0.1937 -0.4753
  394TMC3    C8 5948   1.899   1.042  10.473  1.1141  0.7012 -0.3503
  394TMC3    O1 5949   2.082   1.602  10.468 -0.4034  0.3355  0.5364
  394TMC3    O2 5950   1.912   0.940  10.541  0.5017  0.5780  0.0202
  395TMC3    C1 5951   2.058   2.960  15.082  0.1847  1.1528 -0.2142
  395TMC3    C2 5952   1.991   2.925  14.971 -0.5353 -0.1129 -0.2259
  395TMC3    C3 5953   2.017   3.003  14.867  0.4334  0.3417 -1.0204
  395TMC3    C4 5954   2.149   3.058  15.089 -0.5736 -0.1634  0.4740
  395TMC3    C5 5955   2.167   3.137  14.981 -0.5386 -0.6520 -0.1311
  395TMC3    C6 5956   2.094   3.113  14.868 -0.0445 -0.7772  0.2207
  395TMC3     C 5957   2.037   2.877  15.195  0.2695 -0.2469  0.2213
  395TMC3     O 5958   2.124   2.863  15.280  0.0560 -0.0223 -0.3766
  395TMC3     H 5959   1.919   2.843  14.974 -1.7677  1.0019  0.3415
  395TMC3    H1 5960   2.185   3.079  15.189  2.1633  2.0857 -0.9851
  395TMC3    H2 5961   2.107   3.171  14.778 -0.4822 -1.8372 -0.5232
  395TMC3    C7 5962   2.247   3.252  14.989  0.2348 -0.7332 -0.5181
  395TMC3    C8 5963   1.970   2.967  14.736  0.9428 -0.4317 -1.0336
  395TMC3    O1 5964   2.253   3.315  15.096 -0.4578  0.7220  0.0886
  395TMC3    O2 5965   1.960   3.051  14.646 -0.8439 -0.4151 -0.4894
  396MPD2     C 5966   1.706   3.601  17.711 -0.8778 -0.8560 -1.4486
  396MPD2    C1 5967   1.811   3.597  17.623  0.7125  0.0941 -0.1070
  396MPD2    C2 5968   1.792   3.634  17.490  0.1568 -0.6521  0.3005
  396MPD2    C3 5969   1.670   3.676  17.443  0.4832 -0.9807  0.4035
  396MPD2    C4 5970   1.565   3.684  17.531  0.7923 -0.0845 -0.3306
  396MPD2    C5 5971   1.576   3.639  17.664 -0.2026  0.6024  0.2863
  396MPD2     H 5972   1.872   3.617  17.419 -0.2637 -0.2015 -0.2805
  396MPD2    H1 5973   1.471   3.727  17.498  0.9066  1.5590  1.4677
  396MPD2    H2 5974   1.710   3.564   0.053 -0.6633  1.8557 -0.4857
  396MPD2    H3 5975   1.485   3.636  17.723 -1.3613  1.2823 -1.4815
  396MPD2     N 5976   1.654   3.711  17.304  0.0915 -0.4685  0.0221
  396MPD2    H5 5977   1.730   3.695  17.239  1.2925  0.3366  1.2485
  396MPD2    N1 5978   1.937   3.538  17.665 -0.7091  0.9302 -0.4350
  396MPD2    H7 5979   1.942   3.498  17.759  0.8198  0.2717 -0.8084
  397TMC3    C1 5980   2.168   3.471  17.651  0.6560  0.1429  0.2292
  397TMC3    C2 5981   2.240   3.431  17.542  0.1629 -0.4668  0.2191
  397TMC3    C3 5982   2.228   3.301  17.501  0.3720 -0.1984 -0.4440
  397TMC3    C4 5983   2.124   3.373  17.731 -0.8696  0.9202  0.1762
  397TMC3    C5 5984   2.131   3.241  17.693  0.4188  0.3744 -0.2650
  397TMC3    C6 5985   2.170   3.205  17.568 -0.0102  0.2429 -0.1507
  397TMC3     C 5986   2.053   3.548  17.599 -0.2635 -0.0540 -0.4536
  397TMC3     O 5987   2.088   3.620  17.507 -0.4909 -0.1191  0.0271
  397TMC3     H 5988   2.263   3.511  17.473 -1.0054  0.2180  0.6094
  397TMC3    H1 5989   2.089   3.400   0.070 -0.5637 -0.8482  0.7655
  397TMC3    H2 5990   2.143   3.112  17.520  1.0581  0.0718 -0.4328
  397TMC3    C7 5991   2.056   3.138   0.009 -0.1606 -0.2754  0.5743
  397TMC3    C8 5992   2.179   3.305  17.366  0.7157 -0.2962 -0.7743
  397TMC3    O1 5993   2.062   3.024  17.727  0.4908 -0.3474  0.1979
  397TMC3    O2 5994   2.080   3.238  17.348 -0.3527 -0.5724 -0.2955
  398MPD2     C 5995   4.078   0.863   0.027  0.6146  0.3589  0.3184
  398MPD2    C1 5996   4.203   0.819   0.066  0.2731  0.9470  0.1096
  398MPD2    C2 5997   4.294   0.909   0.125  0.4300 -0.4055  0.4974
  398MPD2    C3 5998   4.257   1.043   0.142 -0.2396 -0.2078 -0.3580
  398MPD2    C4 5999   4.136   1.092   0.102 -0.1967  0.3058 -0.0152
  398MPD2    C5 6000   4.051   0.997   0.046  0.3847 -0.0524 -0.4792
  398MPD2     H 6001   4.389   0.866   0.154  1.4923  1.9309  0.4721
  398MPD2    H1 6002   4.100   1.192   0.123 -1.5844 -0.0102 -0.8664
  398MPD2    H2 6003   4.007   0.796  17.740  0.6761 -0.3051  1.1898
  398MPD2    H3 6004   3.949   1.025   0.024 -0.0531 -1.5583 -0.3559
  398MPD2     N 6005   4.348   1.122   0.222  0.2854  0.1681  0.3132
  398MPD2    H5 6006   4.431   1.087   0.268 -0.7967 -0.1815  1.9804
  398MPD2    N1 6007   4.250   0.688   0.043 -0.2403 -0.0433 -0.0220
  398MPD2    H7 6008   4.344   0.665   0.074 -0.0064  1.5550  0.4425
  399TMC3    C1 6009   4.235   0.453   0.001  0.2662  0.2848 -1.0142
  399TMC3    C2 6010   4.333   0.432   0.096 -0.0898 -0.0625  0.0666
  399TMC3    C3 6011   4.370   0.300   0.110  0.7022 -0.5519  0.1577
  399TMC3    C4 6012   4.198   0.360  17.661  0.1872  0.4769  0.1423
  399TMC3    C5 6013   4.241   0.232  17.685 -0.3842 -0.0920 -0.3814
  399TMC3    C6 6014   4.329   0.201   0.024  0.3320  0.7707  0.1999
  399TMC3     C 6015   4.168   0.586  17.755  0.4915 -0.0210  0.4189
  399TMC3     O 6016   4.062   0.595  17.694 -0.0610 -0.4702  0.5282
  399TMC3     H 6017   4.349   0.506   0.174 -1.3732 -1.0085  1.2314
  399TMC3    H1 6018   4.104   0.378  17.611  0.9812  0.8228 -1.2055
  399TMC3    H2 6019   4.367   0.100   0.034  0.8290  1.0544  1.1861
  399TMC3    C7 6020   4.181   0.115  17.621 -0.4000  0.6698 -0.3058
  399TMC3    C8 6021   4.493   0.265   0.177 -0.0785 -0.1448  0.2136
  399TMC3    O1 6022   4.198   0.011  17.680  0.1655  0.0306  0.0654
  399TMC3    O2 6023   4.546   0.160   0.150 -0.1602 -0.0938  0.4027
  400TMC3    C1 6024   2.590   2.967  16.833  0.3165  0.4968 -0.6297
  400TMC3    C2 6025   2.507   2.881  16.774 -0.3987 -0.3653 -0.0383
  400TMC3    C3 6026   2.424   2.939  16.676 -0.3896 -0.0660  0.3219
  400TMC3    C4 6027   2.589   3.106  16.810 -0.3042 -0.0919  0.0145
  400TMC3    C5 6028   2.497   3.148  16.716  0.1368  0.7250 -0.4443
  400TMC3    C6 6029   2.419   3.073  16.641  0.1755  0.0930 -0.5304
  400TMC3     C 6030   2.669   2.913  16.944 -0.1800 -0.7461 -0.6449
  400TMC3     O 6031   2.624   2.809  16.993  0.2647  0.3541 -0.0122
  400TMC3     H 6032   2.514   2.775  16.790 -0.1398 -0.0722  1.7796
  400TMC3    H1 6033   2.660   3.169  16.861 -0.4154 -1.2295  1.5725
  400TMC3    H2 6034   2.361   3.106  16.555  0.1546  0.2168 -0.4677
  400TMC3    C7 6035   2.497   3.294  16.695  0.3361  0.0753 -0.7911
  400TMC3    C8 6036   2.344   2.851  16.598  0.4799  0.5676 -0.2985
  400TMC3    O1 6037   2.454   3.328  16.587 -0.0414 -0.3577 -0.2459
  400TMC3    O2 6038   2.267   2.900  16.524  0.3183  0.0447 -0.2020
  401MPD2     C 6039   1.227   2.526   0.864 -0.1469  0.2164 -0.7381
  401MPD2    C1 6040   1.279   2.414   0.931 -0.0349 -0.2429 -0.0870
  401MPD2    C2 6041   1.220   2.290   0.902  0.5055  0.2201 -0.1467
  401MPD2    C3 6042   1.107   2.277   0.815  0.3065 -0.5235 -0.3913
  401MPD2    C4 6043   1.052   2.390   0.761 -0.6302  0.2989 -0.0799
  401MPD2    C5 6044   1.108   2.511   0.787 -0.4611 -0.1769 -0.3736
  401MPD2     H 6045   1.256   2.211   0.967  0.4489  1.6495  1.6474
  401MPD2    H1 6046   0.964   2.391   0.697  0.8442 -2.4041 -2.1277
  401MPD2    H2 6047   1.278   2.621   0.856  0.9065 -0.0364  2.7724
  401MPD2    H3 6048   1.085   2.603   0.734  0.2264 -0.2617 -0.8201
  401MPD2     N 6049   1.055   2.146   0.791 -0.8379 -0.0523 -0.2224
  401MPD2    H5 6050   1.101   2.065   0.832 -0.4358  0.2063 -0.1634
  401MPD2    N1 6051   1.377   2.407   1.030 -0.5087 -0.1330 -0.2404
  401MPD2    H7 6052   1.401   2.310   1.046  4.2214  1.1726  0.5898
  402TMC3    C1 6053   0.953   1.974   0.692 -0.2489  0.2969 -0.0017
  402TMC3    C2 6054   0.969   1.907   0.817  0.3015  0.2713  0.0845
  402TMC3    C3 6055   1.016   1.785   0.821 -0.1927 -0.8924 -0.7093
  402TMC3    C4 6056   0.984   1.912   0.579 -0.5276  0.3668  0.3274
  402TMC3    C5 6057   1.030   1.783   0.593 -0.7881 -0.0060 -0.1873
  402TMC3    C6 6058   1.041   1.721   0.708 -0.3645  0.4957 -0.2053
  402TMC3     C 6059   0.968   2.112   0.693  0.0573  0.6972  0.5106
  402TMC3     O 6060   0.937   2.171   0.590  0.3446  0.0017  0.5228
  402TMC3     H 6061   0.934   1.959   0.905  0.3144  0.4742 -0.0295
  402TMC3    H1 6062   0.960   1.966   0.488 -0.5514  0.3453  0.3212
  402TMC3    H2 6063   1.067   1.617   0.719  0.5473  0.6386 -1.0660
  402TMC3    C7 6064   1.070   1.710   0.475  0.3471 -0.2724  0.1388
  402TMC3    C8 6065   1.116   1.751   0.923  0.0408 -0.1782 -0.1654
  402TMC3    O1 6066   1.005   1.734   0.369  0.2592  0.1274 -0.1202
  402TMC3    O2 6067   1.217   1.690   0.883  0.3078  0.6260  0.0954
  403MPD2     C 6068   3.568   0.394  13.720  0.0489 -0.4706  0.2507
  403MPD2    C1 6069   3.691   0.351  13.677  0.3898 -0.0835 -0.3977
  403MPD2    C2 6070   3.806   0.410  13.718  0.6417 -0.6286 -0.1597
  403MPD2    C3 6071   3.807   0.525  13.792 -0.2837 -0.7845 -0.0386
  403MPD2    C4 6072   3.681   0.572  13.828 -0.2092  0.3947 -0.1297
  403MPD2    C5 6073   3.564   0.511  13.792  0.0296 -0.6010 -0.7135
  403MPD2     H 6074   3.895   0.360  13.680  0.2596  0.2055 -2.1765
  403MPD2    H1 6075   3.668   0.665  13.882 -0.3788 -0.9190  2.0726
  403MPD2    H2 6076   3.479   0.353  13.676  1.0395 -0.7916 -1.4648
  403MPD2    H3 6077   3.469   0.538  13.836  1.3304  1.6466  0.7338
  403MPD2     N 6078   3.931   0.578  13.839 -0.5404  0.1736  0.9239
  403MPD2    H5 6079   4.016   0.530  13.812 -1.3267 -1.0147  0.5552
  403MPD2    N1 6080   3.679   0.235  13.594  0.7149  0.6560 -0.4014
  403MPD2    H7 6081   3.589   0.187  13.595  1.6383 -1.0946 -0.9229
  404TMC3    C1 6082   3.761   0.052  13.481 -0.0109 -0.0580  0.2340
  404TMC3    C2 6083   3.759   4.711  13.594 -0.2737 -0.2670 -0.4435
  404TMC3    C3 6084   3.803   4.581  13.585 -0.2214 -0.2021 -0.7395
  404TMC3    C4 6085   3.821   0.013  13.368 -0.3484 -0.4141  0.0724
  404TMC3    C5 6086   3.880   4.630  13.364  0.0820  0.2514 -0.3014
  404TMC3    C6 6087   3.871   4.547  13.471 -0.1419 -0.3056 -0.0476
  404TMC3     C 6088   3.782   0.190  13.517 -0.5308 -0.4670 -0.9768
  404TMC3     O 6089   3.884   0.243  13.471  0.0542 -0.5955  0.0803
  404TMC3     H 6090   3.721   4.737  13.693  0.3847 -2.3866  0.3822
  404TMC3    H1 6091   3.845   0.083  13.289 -1.4769 -0.3050 -0.1739
  404TMC3    H2 6092   3.915   4.448  13.459  0.0931 -0.3786  1.4914
  404TMC3    C7 6093   3.969   4.598  13.256  0.2555 -0.0117  0.0392
  404TMC3    C8 6094   3.871   4.516  13.699  0.5204 -0.2446 -0.3552
  404TMC3    O1 6095   4.035   4.491  13.267 -0.2461  0.2058  0.1361
  404TMC3    O2 6096   3.951   4.430  13.668  0.4434  0.3693  0.5188
  405MPD2     C 6097   4.537   0.700  14.914 -0.1493 -1.0200  0.9107
  405MPD2    C1 6098   4.412   0.715  14.965  0.0322 -0.1059  0.2283
  405MPD2    C2 6099   4.339   0.827  14.935  0.1979  0.7333  0.1555
  405MPD2    C3 6100   4.398   0.926  14.860  0.4387 -0.5785 -0.5075
  405MPD2    C4 6101   4.525   0.914  14.811 -1.0614  0.0066 -0.3554
  405MPD2    C5 6102   4.595   0.800  14.841 -0.1398  0.3272  0.3217
  405MPD2     H 6103   4.241   0.859  14.969 -1.4339 -2.3727 -1.6552
  405MPD2    H1 6104   4.575   0.994  14.757  0.3387  0.8620  2.1935
  405MPD2    H2 6105   4.591   0.607  14.928  0.4859 -0.5197  1.8015
  405MPD2    H3 6106   4.694   0.791  14.798 -1.4104 -1.1077 -2.2968
  405MPD2     N 6107   4.327   1.044  14.837 -0.1751 -0.5063  0.2967
  405MPD2    H5 6108   4.235   1.053  14.878  0.2034  0.4655  0.9543
  405MPD2    N1 6109   4.350   0.612  15.041  0.4730 -0.4325 -0.7064
  405MPD2    H7 6110   4.409   0.534  15.069  0.2147  0.6284  2.8240
  406TMC3    C1 6111   4.130   1.427  14.740 -0.4869  0.1075  0.1225
  406TMC3    C2 6112   4.075   1.440  14.864  0.0637  0.6051 -0.3767
  406TMC3    C3 6113   4.099   1.338  14.955  0.2035 -0.2819  1.4337
  406TMC3    C4 6114   4.220   1.330  14.708 -0.1978 -0.5123  0.3844
  406TMC3    C5 6115   4.271   1.262  14.816 -0.3439 -0.1837 -0.3337
  406TMC3    C6 6116   4.204   1.251  14.941  0.3260 -0.7798  0.4807
  406TMC3     C 6117   4.038   1.446  14.626 -0.3236  0.0865 -0.0726
  406TMC3     O 6118   3.977   1.551  14.634 -0.1555  0.2913 -0.1013
  406TMC3     H 6119   3.975   1.482  14.863 -0.1286  0.1755  3.8002
  406TMC3    H1 6120   4.277   1.333  14.615  0.3282 -0.2214  0.7137
  406TMC3    H2 6121   4.244   1.191  15.022  1.9393 -1.5227 -0.8727
  406TMC3    C7 6122   4.375   1.165  14.798 -0.1726 -0.2305 -0.2141
  406TMC3    C8 6123   3.991   1.297  15.047 -0.0002  0.2388  0.1984
  406TMC3    O1 6124   4.479   1.204  14.747  0.1758  0.0574 -0.8107
  406TMC3    O2 6125   3.916   1.380  15.096  0.3438  0.3569  0.0526
  407MPD2     C 6126   1.790   2.834  10.335  0.6719  0.7961  0.5568
  407MPD2    C1 6127   1.858   2.907  10.242  0.0389 -0.5393  0.4433
  407MPD2    C2 6128   1.931   3.010  10.295 -0.7854  0.1127 -0.0518
  407MPD2    C3 6129   1.935   3.038  10.435 -0.3057  0.6141 -0.5227
  407MPD2    C4 6130   1.871   2.953  10.519 -0.1344 -0.0846  0.5021
  407MPD2    C5 6131   1.789   2.859  10.469  0.2231 -0.1032 -0.8967
  407MPD2     H 6132   1.983   3.078  10.228  0.7470  2.3050  3.3856
  407MPD2    H1 6133   1.856   2.967  10.626  3.0248  0.5258  0.8682
  407MPD2    H2 6134   1.741   2.743  10.301  1.3002  1.2605 -1.6479
  407MPD2    H3 6135   1.738   2.797  10.543  1.0917 -0.0210 -0.2326
  407MPD2     N 6136   2.002   3.143  10.492 -0.0034  0.1549  0.4597
  407MPD2    H5 6137   2.013   3.148  10.593  1.5468  1.5970  0.2121
  407MPD2    N1 6138   1.855   2.879  10.103 -0.1383  0.1960 -0.2139
  407MPD2    H7 6139   1.914   2.940  10.048  0.2923  0.3587  0.4254
  408TMC3    C1 6140   1.833   2.751   9.911 -0.2323  0.2235  0.0059
  408TMC3    C2 6141   1.959   2.790   9.873  0.6730 -0.1766 -0.1600
  408TMC3    C3 6142   1.967   2.838   9.741  0.6184 -0.6349  0.1670
  408TMC3    C4 6143   1.726   2.745   9.825 -0.3525 -0.2684  0.3865
  408TMC3    C5 6144   1.748   2.799   9.702  0.0356 -0.0100  0.4021
  408TMC3    C6 6145   1.863   2.856   9.660  0.5341  0.0751  0.3624
  408TMC3     C 6146   1.792   2.774  10.049 -0.0708 -0.3257  0.3712
  408TMC3     O 6147   1.699   2.707  10.092  0.8477 -0.0039  0.0410
  408TMC3     H 6148   2.031   2.786   9.954 -2.9890  2.3946  3.2122
  408TMC3    H1 6149   1.624   2.724   9.855 -0.8560  0.2652 -0.9662
  408TMC3    H2 6150   1.872   2.893   9.558  1.0685 -0.4531  0.2142
  408TMC3    C7 6151   1.637   2.819   9.616  0.6393 -0.6198 -0.3018
  408TMC3    C8 6152   2.094   2.832   9.680 -0.6162  0.3502 -0.6412
  408TMC3    O1 6153   1.637   2.911   9.532 -0.0654 -0.0371 -0.8687
  408TMC3    O2 6154   2.091   2.875   9.563  0.0365 -0.5023  0.1178
  409MPD2     C 6155   1.574   2.632  17.276 -0.4302  1.0032 -0.2178
  409MPD2    C1 6156   1.674   2.679  17.358  0.4593 -0.2389  0.1276
  409MPD2    C2 6157   1.762   2.776  17.308 -0.1869  0.3613  0.0952
  409MPD2    C3 6158   1.755   2.820  17.176 -0.1069 -0.2237 -0.2251
  409MPD2    C4 6159   1.647   2.781  17.101 -0.2322  0.5120  0.1661
  409MPD2    C5 6160   1.573   2.678  17.142 -0.1020 -0.0312 -0.9367
  409MPD2     H 6161   1.849   2.802  17.368  0.2206 -0.1256 -0.2894
  409MPD2    H1 6162   1.634   2.821  17.002  2.3835 -0.7557 -0.6933
  409MPD2    H2 6163   1.506   2.552  17.302  0.6995  0.6414  1.5885
  409MPD2    H3 6164   1.492   2.653  17.074 -2.3618  1.5886  1.1978
  409MPD2     N 6165   1.843   2.924  17.120  0.5058  0.2887  0.2556
  409MPD2    H5 6166   1.802   2.979  17.045  0.1267  1.2948  1.2009
  409MPD2    N1 6167   1.705   2.614  17.477  0.9366  0.3090 -0.5963
  409MPD2    H7 6168   1.783   2.648  17.532  1.0498 -1.7069  0.4885
  410TMC3    C1 6169   2.057   3.022  17.073  0.2150 -1.3707 -0.7409
  410TMC3    C2 6170   2.178   3.057  17.122 -0.2151  0.7274  0.5353
  410TMC3    C3 6171   2.263   3.131  17.041  0.4081  0.2919  0.6251
  410TMC3    C4 6172   2.008   3.070  16.956  0.6995  0.2090  0.1765
  410TMC3    C5 6173   2.091   3.160  16.891 -1.4748 -0.0640  0.9430
  410TMC3    C6 6174   2.216   3.185  16.926  0.0421  0.2198  0.3879
  410TMC3     C 6175   1.970   2.957  17.171 -0.7579 -0.0766 -0.4349
  410TMC3     O 6176   2.021   2.926  17.280  0.0381 -0.7229  0.2342
  410TMC3     H 6177   2.215   3.027  17.219  1.0097 -1.6794 -0.6905
  410TMC3    H1 6178   1.913   3.037  16.915 -0.5167  0.2847  2.9177
  410TMC3    H2 6179   2.284   3.244  16.866 -1.0276  0.7239 -0.3362
  410TMC3    C7 6180   2.047   3.216  16.769 -0.8080  1.0368  0.5205
  410TMC3    C8 6181   2.396   3.168  17.084 -0.1338 -0.2833 -0.2124
  410TMC3    O1 6182   1.948   3.161  16.714 -0.1838  0.4043  0.0857
  410TMC3    O2 6183   2.447   3.264  17.032 -0.2827  0.0090 -0.4631
  411MPD2     C 6184   2.209   4.126  14.746  0.3247 -0.1302 -0.2800
  411MPD2    C1 6185   2.188   4.144  14.877  0.4841 -0.2767 -0.5797
  411MPD2    C2 6186   2.132   4.031  14.945 -0.2111  0.3182 -0.2316
  411MPD2    C3 6187   2.102   3.910  14.882 -0.7795 -0.3347  0.4692
  411MPD2    C4 6188   2.128   3.900  14.749  0.3452 -0.7761 -0.1112
  411MPD2    C5 6189   2.169   4.008  14.681  0.7145  0.3402  0.4969
  411MPD2     H 6190   2.119   4.034  15.053  2.3021 -1.7321  0.1251
  411MPD2    H1 6191   2.106   3.805  14.701  1.8664 -0.6605 -1.0423
  411MPD2    H2 6192   2.254   4.209  14.693 -0.7379 -0.0731 -1.0932
  411MPD2    H3 6193   2.194   3.980  14.579 -0.6889 -3.7851  1.3015
  411MPD2     N 6194   2.054   3.792  14.951  0.1595  0.3554 -0.1864
  411MPD2    H5 6195   2.052   3.705  14.900 -1.5832  0.4626 -0.3055
  411MPD2    N1 6196   2.212   4.266  14.944  0.2279 -0.9176 -0.4567
  411MPD2    H7 6197   2.223   4.351  14.890  1.3714 -1.0429 -0.4274
  412TMC3    C1 6198   1.948   3.659  15.124  0.0514  0.5084  0.2189
  412TMC3    C2 6199   1.832   3.686  15.178  0.6253  0.3292 -0.7312
  412TMC3    C3 6200   1.732   3.593  15.164 -0.6577  0.0093 -0.3313
  412TMC3    C4 6201   1.983   3.536  15.068 -0.4689 -0.1565 -0.8581
  412TMC3    C5 6202   1.886   3.436  15.072 -0.3502 -0.3773 -0.1495
  412TMC3    C6 6203   1.762   3.466  15.116 -0.0449  0.1786 -0.1814
  412TMC3     C 6204   2.016   3.784  15.082  0.1088  0.0573 -0.2797
  412TMC3     O 6205   2.016   3.874  15.167 -0.3325  0.7323 -0.3138
  412TMC3     H 6206   1.806   3.787  15.208  0.0855  0.5360 -1.8869
  412TMC3    H1 6207   2.072   3.529  15.007 -0.0041 -2.0422  0.0349
  412TMC3    H2 6208   1.688   3.387  15.119  0.4372 -0.2445  0.7379
  412TMC3    C7 6209   1.874   3.340  14.962  0.4144 -0.3865 -0.2579
  412TMC3    C8 6210   1.609   3.646  15.102  0.1797 -0.2154 -0.5514
  412TMC3    O1 6211   1.812   3.239  14.998  0.2736  0.2308 -0.3461
  412TMC3    O2 6212   1.618   3.766  15.076 -0.3323  0.0787 -0.3531
  413MPD2     C 6213   3.669   2.288  15.657  0.1250 -0.8543 -1.2059
  413MPD2    C1 6214   3.619   2.227  15.549 -0.7423 -0.1787  0.8455
  413MPD2    C2 6215   3.694   2.178  15.449  0.4248 -0.3765 -0.6041
  413MPD2    C3 6216   3.830   2.173  15.469  0.0980 -0.0294  0.2123
  413MPD2    C4 6217   3.885   2.241  15.576  0.0710  0.6363  0.2586
  413MPD2    C5 6218   3.807   2.301  15.670 -0.3438 -0.1133 -0.4400
  413MPD2     H 6219   3.649   2.133  15.362 -0.3044 -1.6133  0.4076
  413MPD2    H1 6220   3.991   2.260  15.588  0.2104  0.2053 -0.2758
  413MPD2    H2 6221   3.606   2.329  15.736  1.5389  0.4277 -0.7355
  413MPD2    H3 6222   3.854   2.347  15.756 -2.9151  0.5723  0.6140
  413MPD2     N 6223   3.904   2.093  15.381  0.4949 -0.2621 -0.3181
  413MPD2    H5 6224   3.850   2.040  15.313 -0.2896  0.4948 -0.2910
  413MPD2    N1 6225   3.475   2.223  15.539  0.3327  0.3942 -0.1270
  413MPD2    H7 6226   3.426   2.207  15.626  1.7920  2.1129  1.0156
  414TMC3    C1 6227   4.066   1.951  15.303 -0.0232  0.2590 -0.3590
  414TMC3    C2 6228   4.117   1.837  15.355  0.4158 -0.1377 -0.4430
  414TMC3    C3 6229   4.157   1.747  15.259  0.3829  0.6412 -0.0144
  414TMC3    C4 6230   4.038   1.970  15.170  0.4904  0.3612  0.2752
  414TMC3    C5 6231   4.082   1.874  15.080  0.4734  0.3216  0.3110
  414TMC3    C6 6232   4.143   1.758  15.121  0.4401 -0.3546  0.4162
  414TMC3     C 6233   4.027   2.048  15.405  0.2265 -0.3422  1.2010
  414TMC3     O 6234   4.101   2.058  15.504 -0.0801 -0.5197 -0.4255
  414TMC3     H 6235   4.123   1.821  15.462 -1.4687  0.2575 -0.2808
  414TMC3    H1 6236   3.992   2.061  15.134 -1.3808 -0.3020  0.9611
  414TMC3    H2 6237   4.166   1.674  15.057  0.3461 -0.0705  0.0092
  414TMC3    C7 6238   4.024   1.887  14.943 -0.3267  0.2519 -0.0917
  414TMC3    C8 6239   4.223   1.626  15.306 -0.7164 -0.1497 -0.3383
  414TMC3    O1 6240   3.920   1.941  14.923  0.4994  0.0282 -0.0802
  414TMC3    O2 6241   4.226   1.538  15.220  0.0881  0.1049  0.4047
  415TMC3    C1 6242   4.609   0.087  10.560 -0.7678  0.1767  0.0033
  415TMC3    C2 6243   4.707   0.136  10.477  1.0244  0.2581 -0.6159
  415TMC3    C3 6244   4.670   0.153  10.346 -0.8378  0.0515 -0.3160
  415TMC3    C4 6245   4.487   0.051  10.513 -0.0799 -0.1627 -0.1208
  415TMC3    C5 6246   4.457   0.061  10.379  0.0276 -0.9986 -0.6799
  415TMC3    C6 6247   4.545   0.127  10.296 -0.7083  0.7569  0.6405
  415TMC3     C 6248   4.654   0.012  10.670 -0.0935 -0.1209  0.3885
  415TMC3     O 6249   4.572   4.666  10.701  0.0114 -0.2245 -0.5911
  415TMC3     H 6250   0.069   0.158  10.503  0.7166  0.3123  0.5893
  415TMC3    H1 6251   4.410   0.016  10.582 -0.1558  1.6217  0.7002
  415TMC3    H2 6252   4.525   0.125  10.189 -0.9517 -0.3541  0.6999
  415TMC3    C7 6253   4.325   0.029  10.333 -0.2831  0.5028  0.6073
  415TMC3    C8 6254   0.035   0.185  10.248  0.5405 -0.1824 -0.1345
  415TMC3    O1 6255   4.280   0.103  10.247 -0.3706  0.1929 -0.0717
  415TMC3    O2 6256   0.032   0.127  10.141 -0.1396 -0.1456 -0.0023
  416MPD2     C 6257   1.813   3.878  11.596 -0.3325  0.0466  0.0466
  416MPD2    C1 6258   1.710   3.804  11.624  0.5368  0.0782  0.0140
  416MPD2    C2 6259   1.686   3.694  11.544 -0.3113  0.2922  0.2541
  416MPD2    C3 6260   1.764   3.663  11.437  0.1569  0.2093  0.4623
  416MPD2    C4 6261   1.858   3.753  11.396 -0.0394  0.0033 -0.1148
  416MPD2    C5 6262   1.893   3.855  11.480  1.2275  0.3334  0.1407
  416MPD2     H 6263   1.604   3.624  11.558  0.2484 -0.4822 -0.3524
  416MPD2    H1 6264   1.922   3.722  11.314  0.3985 -0.9006  0.5602
  416MPD2    H2 6265   1.838   3.955  11.668 -1.4928  1.4846 -1.0884
  416MPD2    H3 6266   1.981   3.913  11.455  0.9099  0.3986 -0.8360
  416MPD2     N 6267   1.730   3.546  11.366  0.1745 -0.0780  0.1891
  416MPD2    H5 6268   1.659   3.485  11.406 -0.3160 -0.4069 -1.1788
  416MPD2    N1 6269   1.623   3.847  11.725 -0.0923 -0.1974  0.5118
  416MPD2    H7 6270   1.644   3.935  11.770 -1.6010  0.9664 -1.0445
  417TMC3    C1 6271   1.433   3.882  11.834  0.5441  0.1481  0.3734
  417TMC3    C2 6272   1.441   3.868  11.975 -0.1051 -0.5641 -0.3206
  417TMC3    C3 6273   1.332   3.912  12.043 -0.6656  0.0483  0.3909
  417TMC3    C4 6274   1.326   3.935  11.765 -0.0824 -0.0087  0.8749
  417TMC3    C5 6275   1.222   3.975  11.853  1.1630 -0.3102  0.1975
  417TMC3    C6 6276   1.224   3.967  11.983  0.4887 -0.9616 -0.0262
  417TMC3     C 6277   1.500   3.795  11.743 -0.0456 -0.1885 -0.5314
  417TMC3     O 6278   1.436   3.717  11.670  0.0298  0.1828  0.0127
  417TMC3     H 6279   1.537   3.836  12.014  0.5591  0.9714 -0.6851
  417TMC3    H1 6280   1.326   3.961  11.660  1.1751  3.0446  1.6458
  417TMC3    H2 6281   1.130   3.977  12.037  0.2042  0.1514 -0.7245
  417TMC3    C7 6282   1.103   4.034  11.792 -0.2500 -0.1555  0.4447
  417TMC3    C8 6283   1.330   3.928  12.185  0.1667  0.3843 -0.8281
  417TMC3    O1 6284   1.078   4.003  11.678 -0.6605 -0.3514  0.2703
  417TMC3    O2 6285   1.222   3.952  12.236 -0.1888 -0.2694  0.2840
  418TMC3    C1 6286   4.630   1.416   0.381  0.3386  0.4705 -0.3393
  418TMC3    C2 6287   4.519   1.393   0.296  0.0247  0.2018 -0.3916
  418TMC3    C3 6288   4.431   1.297   0.333 -0.4895 -0.0291 -0.0891
  418TMC3    C4 6289   4.648   1.342   0.495 -0.0623 -0.6598  0.4773
  418TMC3    C5 6290   4.558   1.243   0.518  1.3752  0.2732  0.1228
  418TMC3    C6 6291   4.450   1.219   0.440 -1.0970  0.1197  0.1714
  418TMC3     C 6292   0.012   1.448   0.312 -0.5788  0.0843 -0.4461
  418TMC3     O 6293   0.117   1.418   0.361  0.3510  0.0195 -0.0583
  418TMC3     H 6294   4.492   1.442   0.203 -0.8060  0.7344  0.1249
  418TMC3    H1 6295   4.738   1.331   0.555  0.3435  3.2081  0.5512
  418TMC3    H2 6296   4.386   1.134   0.461  0.4460 -1.2295 -0.6572
  418TMC3    C7 6297   4.591   1.124   0.586  0.5181 -0.2700 -0.1871
  418TMC3    C8 6298   4.331   1.255   0.245 -0.6834  0.1637 -0.7614
  418TMC3    O1 6299   4.558   1.019   0.530  0.2659  0.1111 -0.0213
  418TMC3    O2 6300   4.238   1.332   0.211 -0.1830 -0.2170  0.3928
  419MPD2     C 6301   3.389   4.200  12.701 -0.2918  0.3100 -0.9504
  419MPD2    C1 6302   3.262   4.236  12.734 -0.0502 -0.0344 -0.4523
  419MPD2    C2 6303   3.229   4.265  12.868 -0.2356  0.0446  0.1392
  419MPD2    C3 6304   3.317   4.228  12.965  0.9382 -0.0153  0.6455
  419MPD2    C4 6305   3.441   4.193  12.932 -0.2636 -0.0390  0.1767
  419MPD2    C5 6306   3.480   4.183  12.804 -0.3269 -0.2938 -0.0908
  419MPD2     H 6307   3.130   4.305  12.884 -0.6271 -0.9205  0.1819
  419MPD2    H1 6308   3.509   4.166  13.012  2.3442 -0.2699 -2.1322
  419MPD2    H2 6309   3.427   4.188  12.601 -0.5494 -0.5555 -0.9429
  419MPD2    H3 6310   3.583   4.161  12.776 -1.2022 -0.5765 -3.0141
  419MPD2     N 6311   3.263   4.236  13.097  0.8394  0.2969 -0.9874
  419MPD2    H5 6312   3.178   4.291  13.110 -0.5114 -1.4739 -2.2025
  419MPD2    N1 6313   3.165   4.266  12.637 -0.0473  0.0067 -0.3532
  419MPD2    H7 6314   3.080   4.313  12.666 -0.2696 -1.2260  1.0039
  420TMC3    C1 6315   3.223   4.192  13.322 -0.1761  0.3008 -0.5008
  420TMC3    C2 6316   3.094   4.231  13.305  0.1029 -0.8264 -0.4921
  420TMC3    C3 6317   3.018   4.272  13.408  0.3461 -0.2893 -0.1121
  420TMC3    C4 6318   3.275   4.177  13.447 -0.3976 -0.7274 -0.3398
  420TMC3    C5 6319   3.197   4.218  13.557  0.1280 -0.2164 -0.4084
  420TMC3    C6 6320   3.072   4.272  13.537 -0.0263 -0.2986  0.8760
  420TMC3     C 6321   3.314   4.176  13.210 -0.3254 -0.5355  0.3748
  420TMC3     O 6322   3.420   4.113  13.218  0.4109  0.9702  0.3577
  420TMC3     H 6323   3.049   4.224  13.206 -1.0178  0.5640 -0.0881
  420TMC3    H1 6324   3.373   4.134  13.464 -0.3978 -0.2944  0.7831
  420TMC3    H2 6325   3.013   4.310  13.620  1.4647 -0.7201  2.1168
  420TMC3    C7 6326   3.247   4.213  13.695  0.6881  0.3782  0.6744
  420TMC3    C8 6327   2.878   4.299  13.397 -0.0180  0.4130 -0.3714
  420TMC3    O1 6328   3.166   4.221  13.785  0.2692 -0.6440  0.1906
  420TMC3    O2 6329   2.823   4.236  13.307  0.2285  0.1192 -0.9627
  421TMC3    C1 6330   4.087   0.693  13.952 -0.3518  0.0728  0.0918
  421TMC3    C2 6331   4.132   0.811  14.011  0.4380 -1.1694  0.0336
  421TMC3    C3 6332   4.264   0.819  14.041  0.0419  0.3614  1.0989
  421TMC3    C4 6333   4.171   0.580  13.946  0.3745  0.0757 -0.6882
  421TMC3    C5 6334   4.304   0.599  13.974  0.5129 -0.2291 -0.3508
  421TMC3    C6 6335   4.352   0.721  14.019  0.2261 -0.0806  0.2965
  421TMC3     C 6336   3.947   0.683  13.923  0.0482 -0.0214 -0.0731
  421TMC3     O 6337   3.869   0.772  13.955 -0.6366  0.2310 -0.6207
  421TMC3     H 6338   4.068   0.898  14.019 -0.3184 -1.4033 -3.4251
  421TMC3    H1 6339   4.135   0.480  13.928  0.2752 -0.2420  1.2659
  421TMC3    H2 6340   4.459   0.726  14.037  0.7183 -0.5410 -2.4876
  421TMC3    C7 6341   4.397   0.495  13.948  0.6365 -0.6118 -0.1347
  421TMC3    C8 6342   4.330   0.943  14.073  0.6479 -0.3055  0.3159
  421TMC3    O1 6343   4.500   0.504  14.010 -0.3240  0.6729  0.3063
  421TMC3    O2 6344   4.449   0.950  14.049 -0.0439 -0.6244 -0.0200
  422TMC3    C1 6345   2.417   2.109  12.824 -0.4500 -0.7840  0.1700
  422TMC3    C2 6346   2.400   2.216  12.914  0.1231  0.0676  0.0773
  422TMC3    C3 6347   2.274   2.250  12.950  0.6375  0.0529 -0.1439
  422TMC3    C4 6348   2.325   2.004  12.820 -0.8265  0.9563  0.3482
  422TMC3    C5 6349   2.201   2.045  12.865  0.5507  0.3342  0.1631
  422TMC3    C6 6350   2.166   2.164  12.924  0.6711 -0.0656  0.1178
  422TMC3     C 6351   2.517   2.121  12.720 -0.3382  0.2135 -0.5013
  422TMC3     O 6352   2.593   2.213  12.734  0.3218 -0.0560 -0.5839
  422TMC3     H 6353   2.468   2.300  12.905  1.7336 -1.1443  0.9969
  422TMC3    H1 6354   2.337   1.918  12.756  1.1140  1.1957  0.3782
  422TMC3    H2 6355   2.062   2.189  12.944  1.3236  2.1511  0.7844
  422TMC3    C7 6356   2.093   1.951  12.850 -0.2767 -0.7667 -0.1357
  422TMC3    C8 6357   2.255   2.390  12.992 -0.6080 -1.0023  0.7136
  422TMC3    O1 6358   2.125   1.834  12.882 -0.3800 -0.1448 -0.6428
  422TMC3    O2 6359   2.347   2.449  13.053  0.2435  0.3215 -0.3047
  423MPD2     C 6360   3.423   3.071   0.447 -0.4591 -0.0716  0.0569
  423MPD2    C1 6361   3.402   2.945   0.488  0.5703 -0.1020 -0.7285
  423MPD2    C2 6362   3.407   2.842   0.400  0.2041 -0.3509  0.0774
  423MPD2    C3 6363   3.430   2.863   0.265 -0.4507  0.1952 -0.5834
  423MPD2    C4 6364   3.449   2.993   0.224  0.5914  0.1592  0.2336
  423MPD2    C5 6365   3.445   3.093   0.318  0.1222 -0.2078 -0.0556
  423MPD2     H 6366   3.387   2.741   0.434 -0.4043  0.5115  2.2622
  423MPD2    H1 6367   3.470   3.021   0.122  1.0111 -0.6650  0.0968
  423MPD2    H2 6368   3.440   3.152   0.517  0.3223  1.0477 -1.4220
  423MPD2    H3 6369   3.481   3.187   0.278  4.5451 -1.8958 -0.1306
  423MPD2     N 6370   3.438   2.764   0.170  0.7102 -0.0483 -0.0457
  423MPD2    H5 6371   3.435   2.797   0.074 -0.7358  0.6517  0.2396
  423MPD2    N1 6372   3.391   2.920   0.627 -0.2933  0.0712  0.7556
  423MPD2    H7 6373   3.418   2.827   0.656  0.2311  0.2445  0.8125
  424TMC3    C1 6374   3.362   2.955   0.844  0.4732 -0.2437  0.1183
  424TMC3    C2 6375   3.466   2.868   0.873  0.3106 -0.1536 -0.9442
  424TMC3    C3 6376   3.490   2.829   0.997 -0.5213  0.4687 -0.1791
  424TMC3    C4 6377   3.300   3.016   0.950 -0.3983  0.3459 -0.7771
  424TMC3    C5 6378   3.321   2.966   1.076  0.1365  0.0692 -0.7026
  424TMC3    C6 6379   3.415   2.870   1.100 -0.1127 -0.0229  0.5231
  424TMC3     C 6380   3.353   3.015   0.719 -0.0107 -0.8975 -0.5921
  424TMC3     O 6381   3.323   3.132   0.704 -1.3929 -0.5847  0.6254
  424TMC3     H 6382   3.515   2.819   0.790 -0.3300  1.6790 -2.3884
  424TMC3    H1 6383   3.228   3.095   0.933 -0.7602  0.6595  2.2761
  424TMC3    H2 6384   3.436   2.822   1.195  1.0044 -1.7003 -0.5768
  424TMC3    C7 6385   3.248   3.019   1.190 -0.5832 -0.0945 -0.7657
  424TMC3    C8 6386   3.596   2.736   1.034 -0.3938  0.1779 -0.6255
  424TMC3    O1 6387   3.266   2.947   1.287  0.2668  0.0154 -0.4660
  424TMC3    O2 6388   3.591   2.671   1.139 -0.3369  0.0654  0.2366
  425MPD2     C 6389   2.963   2.117  17.489  0.6226  0.3088 -0.6106
  425MPD2    C1 6390   2.942   1.997  17.557 -0.5365  0.3110 -0.1334
  425MPD2    C2 6391   2.889   1.991  17.682  0.5387 -0.4513 -0.3994
  425MPD2    C3 6392   2.862   2.109  17.746  0.0724  0.0193  0.4314
  425MPD2    C4 6393   2.897   2.230  17.684  0.2941 -0.8074 -0.0368
  425MPD2    C5 6394   2.951   2.233  17.556 -0.4116  0.7046  0.3636
  425MPD2     H 6395   2.871   1.898  17.734 -0.3257  0.0228  0.1429
  425MPD2    H1 6396   2.876   2.327  17.727  1.5865  0.3092 -1.9288
  425MPD2    H2 6397   3.008   2.128  17.391 -0.2447 -0.1013 -1.0538
  425MPD2    H3 6398   2.976   2.336  17.531 -0.4192  0.3304 -1.1984
  425MPD2     N 6399   2.804   2.090   0.119  0.0297 -0.5305 -0.1219
  425MPD2    H5 6400   2.789   1.993   0.145  1.5581 -0.4055  1.2317
  425MPD2    N1 6401   2.956   1.880  17.481 -0.1339  0.7353 -0.7657
  425MPD2    H7 6402   2.973   1.899  17.383 -0.7780 -0.5162 -1.1138
  426TMC3    C1 6403   3.001   1.660  17.419  0.4804  0.7820 -0.7651
  426TMC3    C2 6404   2.930   1.667  17.301 -0.6124 -0.3010 -0.0409
  426TMC3    C3 6405   2.947   1.560  17.217 -0.3244 -0.0247  0.4881
  426TMC3    C4 6406   3.073   1.546  17.449 -0.4683 -0.0647  0.0529
  426TMC3    C5 6407   3.082   1.438  17.360 -0.0235 -0.5568 -0.1290
  426TMC3    C6 6408   3.028   1.448  17.239 -0.2287 -0.2592  0.6150
  426TMC3     C 6409   2.984   1.755  17.529 -0.4562  0.1942 -0.1905
  426TMC3     O 6410   3.002   1.719  17.643  0.7467  0.6248 -0.4987
  426TMC3     H 6411   2.869   1.753  17.276  1.7462  1.2394 -0.4536
  426TMC3    H1 6412   3.123   1.543  17.545 -1.7138 -0.8656  0.6741
  426TMC3    H2 6413   3.020   1.359  17.177 -0.8501 -1.1684  2.0172
  426TMC3    C7 6414   3.082   1.303  17.415 -0.1673 -0.0809  0.0601
  426TMC3    C8 6415   2.875   1.540  17.096 -0.2600  0.1715  0.1261
  426TMC3    O1 6416   3.135   1.221  17.337 -0.5839  0.3506  0.4886
  426TMC3    O2 6417   2.941   1.489  17.005  0.1809 -0.1671 -0.4634
  427MPD2     C 6418   1.239   4.357  15.192  0.2726 -0.0114 -0.1539
  427MPD2    C1 6419   1.181   4.231  15.202  0.5502 -0.2599 -0.0462
  427MPD2    C2 6420   1.051   4.220  15.170  0.0550  0.2777  0.0832
  427MPD2    C3 6421   0.976   4.335  15.130 -0.0369  0.4003 -1.2385
  427MPD2    C4 6422   1.040   4.459  15.120  1.1635  0.2179  0.1892
  427MPD2    C5 6423   1.172   4.471  15.165  0.8135 -0.3945  0.0225
  427MPD2     H 6424   1.016   4.119  15.155 -1.4824  0.8000  0.1354
  427MPD2    H1 6425   0.982   4.548  15.097  0.5245 -0.5357 -1.1342
  427MPD2    H2 6426   1.342   4.385  15.209 -0.0144  0.6095  0.5601
  427MPD2    H3 6427   1.221   4.568  15.163  1.4357 -0.7357 -1.2787
  427MPD2     N 6428   0.844   4.335  15.075  0.1348 -0.1340  0.2658
  427MPD2    H5 6429   0.804   4.424  15.046 -1.1390 -0.7187  0.2014
  427MPD2    N1 6430   1.251   4.117  15.239  0.1380 -0.1691 -0.0014
  427MPD2    H7 6431   1.193   4.039  15.268 -0.3168 -0.0902 -0.6857
  428TMC3    C1 6432   1.445   3.987  15.316 -0.6244  0.1173  0.1066
  428TMC3    C2 6433   1.388   3.860  15.295 -0.6992  0.6005 -0.6027
  428TMC3    C3 6434   1.440   3.754  15.367 -0.2175 -0.6442 -0.1843
  428TMC3    C4 6435   1.559   4.001  15.385 -0.0104  0.7987  0.6827
  428TMC3    C5 6436   1.615   3.892  15.446 -0.1928  0.2735  0.6983
  428TMC3    C6 6437   1.544   3.773  15.456  0.7613  0.2750 -0.6338
  428TMC3     C 6438   1.390   4.108  15.256  0.1744 -0.4444  0.2867
  428TMC3     O 6439   1.475   4.193  15.224 -0.1636  0.6392  0.1222
  428TMC3     H 6440   1.313   3.853  15.217 -0.1409  0.9012 -1.1639
  428TMC3    H1 6441   1.611   4.094  15.401  1.6375 -0.2018  1.2103
  428TMC3    H2 6442   1.585   3.682  15.499  0.4238 -0.9083 -2.7782
  428TMC3    C7 6443   1.738   3.908  15.527  0.2553 -0.3222  0.1751
  428TMC3    C8 6444   1.373   3.623  15.375  0.0112 -0.1146  0.2282
  428TMC3    O1 6445   1.731   3.844  15.630  0.0987 -0.0910 -0.2900
  428TMC3    O2 6446   1.445   3.532  15.415 -0.0134 -0.4967  0.3310
  429MPD2     C 6447   2.249   3.609   0.173  0.5189  0.3791  0.1230
  429MPD2    C1 6448   2.364   3.546   0.136 -0.6558  0.0579 -0.8301
  429MPD2    C2 6449   2.442   3.607   0.039 -0.0733 -0.3594 -0.1258
  429MPD2    C3 6450   2.398   3.725  17.739 -0.3303 -0.3978 -0.0424
  429MPD2    C4 6451   2.282   3.789   0.021  0.4065 -0.0315 -0.0565
  429MPD2    C5 6452   2.215   3.734   0.130  0.4676  0.0783 -0.0624
  429MPD2     H 6453   2.541   3.568   0.018  1.0931  1.7329  1.4298
  429MPD2    H1 6454   2.235   3.868  17.725  0.7704 -0.1775 -0.5686
  429MPD2    H2 6455   2.189   3.567   0.253  0.9990  0.0244  0.2989
  429MPD2    H3 6456   2.133   3.790   0.173 -0.0922  1.3163 -2.7292
  429MPD2     N 6457   2.474   3.768  17.633 -0.3710  0.3630  0.0977
  429MPD2    H5 6458   2.561   3.715  17.628 -1.5880 -1.5492 -0.7264
  429MPD2    N1 6459   2.395   3.413   0.184 -0.5762  1.0516 -0.5114
  429MPD2    H7 6460   2.480   3.364   0.158 -1.0198 -0.1548  0.2980
  430TMC3    C1 6461   2.556   3.890  17.441  0.0731 -0.5597 -0.9283
  430TMC3    C2 6462   2.564   4.015  17.374 -0.0138 -0.4536  0.1121
  430TMC3    C3 6463   2.658   4.031  17.276 -0.1596  0.2618 -0.1021
  430TMC3    C4 6464   2.623   3.774  17.401  0.3221 -0.1635  0.3603
  430TMC3    C5 6465   2.702   3.792  17.295  0.0349 -0.2825  0.3609
  430TMC3    C6 6466   2.730   3.916  17.241 -0.0172  0.7173  0.4286
  430TMC3     C 6467   2.454   3.872  17.544 -0.8375 -0.1542 -0.0149
  430TMC3     O 6468   2.348   3.934  17.535  0.4863 -0.0090  0.4557
  430TMC3     H 6469   2.496   4.098  17.392 -0.5965 -0.2227 -3.1929
  430TMC3    H1 6470   2.600   3.672  17.431 -2.0944  0.1851 -0.3338
  430TMC3    H2 6471   2.804   3.926  17.163 -0.6538 -1.8029 -0.4846
  430TMC3    C7 6472   2.674   3.702  17.184 -0.8114 -0.4398  0.5496
  430TMC3    C8 6473   2.621   4.105  17.162 -0.4581  1.4729 -0.2606
  430TMC3    O1 6474   2.667   3.587  17.217 -0.6084 -0.6272  0.1844
  430TMC3    O2 6475   2.645   4.054  17.053  0.0980 -0.5135 -0.0411
  431MPD2     C 6476   3.353   0.335  12.193 -0.3882 -0.1891  0.4324
  431MPD2    C1 6477   3.405   0.250  12.290 -0.0390 -0.4410  0.2260
  431MPD2    C2 6478   3.328   0.134  12.311  0.1018  0.0865 -1.1007
  431MPD2    C3 6479   3.221   0.091  12.233 -0.2080  0.1385  0.1058
  431MPD2    C4 6480   3.178   0.177  12.137  0.1070 -0.0231 -1.2781
  431MPD2    C5 6481   3.238   0.302  12.126  0.4865  0.0806  0.1271
  431MPD2     H 6482   3.354   0.078  12.400 -0.1521 -1.2193 -1.8364
  431MPD2    H1 6483   3.090   0.142  12.084  0.9434 -2.7111 -0.8678
  431MPD2    H2 6484   3.411   0.423  12.166 -0.0653 -0.6122 -0.2468
  431MPD2    H3 6485   3.219   0.363  12.039  0.5473 -1.7969 -1.2032
  431MPD2     N 6486   3.149   4.716  12.247  0.2618 -0.3231  0.9193
  431MPD2    H5 6487   3.076   4.696  12.178  0.6821  0.8599  0.1457
  431MPD2    N1 6488   3.519   0.267  12.374 -0.1510 -0.2396  0.2278
  431MPD2    H7 6489   3.544   0.192  12.438 -0.3202  0.6397  1.3374
  432TMC3    C1 6490   3.087   4.505  12.328 -0.1120  0.4456 -0.0307
  432TMC3    C2 6491   3.108   4.451  12.201  0.7400 -0.3759  0.1383
  432TMC3    C3 6492   3.097   4.314  12.189 -0.4302  0.2647  0.4067
  432TMC3    C4 6493   3.074   4.427  12.438 -0.7605  0.1244  0.7114
  432TMC3    C5 6494   3.085   4.289  12.420 -0.0337  0.2669  0.1121
  432TMC3    C6 6495   3.101   4.235  12.298  0.4164  0.1132  0.1988
  432TMC3     C 6496   3.152   4.632  12.352  0.2636  0.8257  0.4012
  432TMC3     O 6497   3.201   4.653  12.460  0.5124 -0.2257  0.2040
  432TMC3     H 6498   3.110   4.509  12.109 -0.1552 -0.1377  0.2748
  432TMC3    H1 6499   3.069   4.475  12.535 -0.5565  2.4622 -0.4194
  432TMC3    H2 6500   3.104   4.127  12.292  1.0078  0.1170  0.4019
  432TMC3    C7 6501   3.170   4.216  12.513 -0.0760 -0.1121 -0.1053
  432TMC3    C8 6502   3.168   4.255  12.075 -0.2779 -0.1696  0.3638
  432TMC3    O1 6503   3.252   4.147  12.458  0.2697 -0.0188 -0.0239
  432TMC3    O2 6504   3.148   4.305  11.969  0.0441 -0.3595 -0.3620
  433MPD2     C 6505   2.320   3.156  11.040  0.8574  0.0687  0.1104
  433MPD2    C1 6506   2.316   3.042  11.115  0.5287 -0.2081  0.5603
  433MPD2    C2 6507   2.354   3.063  11.244 -0.6692  1.0399 -0.5339
  433MPD2    C3 6508   2.386   3.183  11.303  0.4526 -0.9612 -0.5856
  433MPD2    C4 6509   2.391   3.295  11.224  0.1624  1.5400  0.3581
  433MPD2    C5 6510   2.358   3.281  11.092 -0.6874  0.1626  0.9053
  433MPD2     H 6511   2.367   2.978  11.310 -2.5301  0.1574 -1.3059
  433MPD2    H1 6512   2.417   3.394  11.259  2.6417 -0.4587  4.0957
  433MPD2    H2 6513   2.294   3.139  10.936  3.3468  2.4543 -0.8932
  433MPD2    H3 6514   2.357   3.362  11.020 -1.9447  0.0856  0.8390
  433MPD2     N 6515   2.411   3.178  11.442  0.4443  0.2589  0.1683
  433MPD2    H5 6516   2.411   3.085  11.483  0.4911  0.1141 -0.1647
  433MPD2    N1 6517   2.264   2.914  11.085 -0.4747  0.0175  0.2292
  433MPD2    H7 6518   2.252   2.857  11.169  2.3621 -1.2692 -0.2279
  434TMC3    C1 6519   2.184   2.730  10.955 -0.2687 -0.1805 -0.1769
  434TMC3    C2 6520   2.280   2.633  10.994 -0.1895  0.1366  0.4233
  434TMC3    C3 6521   2.274   2.519  10.920  0.2844  0.1323  0.4647
  434TMC3    C4 6522   2.074   2.706  10.872 -0.0462  0.4032  0.0802
  434TMC3    C5 6523   2.067   2.582  10.820 -0.9626 -0.6390  0.4432
  434TMC3    C6 6524   2.173   2.495  10.835  0.2143 -0.5892  0.1071
  434TMC3     C 6525   2.217   2.873  10.963 -0.2442 -0.0453  0.0266
  434TMC3     O 6526   2.194   2.946  10.870  0.0717  0.2511 -0.0876
  434TMC3     H 6527   2.365   2.644  11.060 -1.7355  2.5750  2.0008
  434TMC3    H1 6528   1.996   2.780  10.858 -1.6753 -1.5029 -0.9053
  434TMC3    H2 6529   2.167   2.396  10.792  0.6672 -1.5407  2.2017
  434TMC3    C7 6530   1.949   2.544  10.748 -0.4447 -0.3075  0.2368
  434TMC3    C8 6531   2.394   2.424  10.903  0.0479 -0.3601 -0.2500
  434TMC3    O1 6532   1.851   2.616  10.760  0.2730 -0.2054  0.4513
  434TMC3    O2 6533   2.374   2.327  10.827  0.3086  0.1263  0.3590
  435MPD2     C 6534   4.268   2.760  15.481 -0.1233  0.1463 -0.2254
  435MPD2    C1 6535   4.235   2.770  15.615  0.5946  0.3764 -0.1695
  435MPD2    C2 6536   4.310   2.713  15.710  0.5644 -0.1676  0.3427
  435MPD2    C3 6537   4.422   2.643  15.678  0.4708  0.6057  0.3198
  435MPD2    C4 6538   4.460   2.638  15.545  0.0615  0.0326 -0.0230
  435MPD2    C5 6539   4.380   2.686  15.444 -0.2148 -0.2801 -0.0198
  435MPD2     H 6540   4.271   2.710  15.811  0.3183  0.5032  0.2671
  435MPD2    H1 6541   4.549   2.583  15.518 -0.7417 -0.0234 -2.5368
  435MPD2    H2 6542   4.204   2.797  15.401  0.3347  1.3364 -0.0399
  435MPD2    H3 6543   4.411   2.684  15.340  1.3287  3.0025  0.3659
  435MPD2     N 6544   4.485   2.575  15.787  0.2777 -0.0647  0.1310
  435MPD2    H5 6545   4.442   2.588  15.878 -0.6635 -0.8049 -0.2079
  435MPD2    N1 6546   4.121   2.845  15.656 -0.4185 -0.3182  0.4649
  435MPD2    H7 6547   4.094   2.851  15.754 -1.2024  1.4392  0.1297
  436TMC3    C1 6548   3.820   2.993  15.872 -0.3751 -0.3143  0.9308
  436TMC3    C2 6549   3.929   2.976  15.796 -0.2884 -0.7266 -0.0427
  436TMC3    C3 6550   3.921   2.966  15.657 -1.3325  0.1815  0.8570
  436TMC3    C4 6551   3.695   2.992  15.818 -0.0384 -0.0228 -0.4820
  436TMC3    C5 6552   3.687   2.996  15.681 -0.6979 -0.2368 -0.3159
  436TMC3    C6 6553   3.793   2.978  15.596 -0.3417 -0.0074 -0.4383
  436TMC3     C 6554   3.839   3.050  16.008  0.1169 -0.8329  0.4975
  436TMC3     O 6555   3.952   3.077  16.040 -0.0737 -0.6346 -0.1591
  436TMC3     H 6556   4.026   2.984  15.844  1.0718 -0.9117 -2.7440
  436TMC3    H1 6557   3.612   3.030  15.876  1.5328  2.2109  0.3162
  436TMC3    H2 6558   3.776   2.963  15.490 -0.2899  0.5663 -0.5263
  436TMC3    C7 6559   3.549   2.997  15.625  0.0916 -0.1016  0.0207
  436TMC3    C8 6560   4.031   2.914  15.580  0.4512  0.2843 -0.6894
  436TMC3    O1 6561   3.457   2.974  15.703  0.1283  0.3639  0.1870
  436TMC3    O2 6562   4.012   2.920  15.460 -0.0828 -0.2546  0.0870
  437TMC3    C1 6563   2.521   0.266  12.827 -0.1094  0.1205 -0.5403
  437TMC3    C2 6564   2.407   0.346  12.827 -0.3492 -0.5030  0.5183
  437TMC3    C3 6565   2.399   0.433  12.725 -0.5142  0.0971  0.5121
  437TMC3    C4 6566   2.623   0.286  12.740  0.2913 -0.3367 -0.0130
  437TMC3    C5 6567   2.608   0.375  12.639  0.1354  0.1011  0.6182
  437TMC3    C6 6568   2.494   0.454  12.630 -0.1017 -0.5009 -0.0851
  437TMC3     C 6569   2.538   0.170  12.938  0.2956  1.4730 -0.7593
  437TMC3     O 6570   2.642   0.109  12.942 -0.3174  0.3897 -0.5378
  437TMC3     H 6571   2.324   0.353  12.897 -0.8177  3.1243 -0.4144
  437TMC3    H1 6572   2.712   0.224  12.730  0.4372  0.2431 -2.3656
  437TMC3    H2 6573   2.484   0.517  12.542  1.0882 -1.5312 -0.9643
  437TMC3    C7 6574   2.710   0.404  12.540  0.4830 -0.7264  0.4348
  437TMC3    C8 6575   2.322   0.557  12.756 -0.3845 -0.4111  0.2645
  437TMC3    O1 6576   2.676   0.465  12.441  0.2825 -0.3671 -0.3641
  437TMC3    O2 6577   2.225   0.551  12.835 -0.1578  0.5862  0.1925
  438MPD2     C 6578   0.318   0.818  16.784  0.0313 -0.4246 -0.3245
  438MPD2    C1 6579   0.398   0.746  16.869  0.5121  0.2484  0.2243
  438MPD2    C2 6580   0.390   0.774  17.004 -0.1275  0.0012 -0.0990
  438MPD2    C3 6581   0.325   0.885  17.048 -0.5893  0.7518 -0.1100
  438MPD2    C4 6582   0.245   0.954  16.963  0.4592  0.5091  0.4656
  438MPD2    C5 6583   0.236   0.915  16.837  0.0731  0.0910  0.9144
  438MPD2     H 6584   0.448   0.706  17.065 -1.2733 -0.4265  0.5051
  438MPD2    H1 6585   0.205   1.046  17.005  0.6926  0.5773  0.5379
  438MPD2    H2 6586   0.297   0.792  16.681 -1.9755  1.4054 -0.3594
  438MPD2    H3 6587   0.160   0.957  16.771  0.0760 -1.2657  0.0419
  438MPD2     N 6588   0.346   0.941  17.175  0.4124  0.1605  0.6720
  438MPD2    H5 6589   0.294   1.026  17.195  2.2711  1.2049  1.1064
  438MPD2    N1 6590   0.487   0.643  16.820  0.2778  0.4086 -0.5932
  438MPD2    H7 6591   0.551   0.600  16.885  2.4233  3.1882 -0.8681
  439TMC3    C1 6592   0.597   0.493  16.679  0.5362  0.8366 -0.1409
  439TMC3    C2 6593   0.588   0.395  16.583  0.5700 -0.3726  0.5761
  439TMC3    C3 6594   0.691   0.314  16.581 -0.4515 -0.6332  0.1929
  439TMC3    C4 6595   0.710   0.529  16.746  0.3875 -0.2353 -0.5363
  439TMC3    C5 6596   0.821   0.461  16.704  0.0880 -0.3287 -0.5575
  439TMC3    C6 6597   0.804   0.345  16.642  0.2713  0.1644  0.0400
  439TMC3     C 6598   0.490   0.589  16.693  0.3444 -0.0921 -0.8613
  439TMC3     O 6599   0.412   0.599  16.596  0.3214 -0.1542  0.6756
  439TMC3     H 6600   0.492   0.371  16.539  1.6295 -1.8396 -0.9166
  439TMC3    H1 6601   0.717   0.608  16.820  0.2711 -2.3357  1.6922
  439TMC3    H2 6602   0.880   0.268  16.635  0.0348  0.0358 -1.0895
  439TMC3    C7 6603   0.949   0.485  16.763 -0.7105 -0.5800  0.1555
  439TMC3    C8 6604   0.706   0.205  16.487 -0.1774  0.0302  0.0074
  439TMC3    O1 6605   0.960   0.558  16.861  0.0798 -0.5991  0.1066
  439TMC3    O2 6606   0.768   0.104  16.526 -0.7552  0.6577  0.3611
  440MPD2     C 6607   4.040   1.104  15.516  0.1382 -0.1550  0.0131
  440MPD2    C1 6608   4.091   1.206  15.430 -0.1173 -0.2262  0.1409
  440MPD2    C2 6609   4.189   1.169  15.333 -0.1043  0.1027  0.0698
  440MPD2    C3 6610   4.238   1.043  15.330  0.5397  0.4620 -0.1992
  440MPD2    C4 6611   4.185   0.946  15.413 -0.4640  0.2198  0.5830
  440MPD2    C5 6612   4.088   0.977  15.501 -0.5817 -0.3409  0.4141
  440MPD2     H 6613   4.226   1.251  15.274 -2.1586  0.5702 -0.5743
  440MPD2    H1 6614   4.220   0.844  15.421  0.3854  0.4199 -0.6075
  440MPD2    H2 6615   3.962   1.130  15.586  0.3348  0.7438 -0.0973
  440MPD2    H3 6616   4.055   0.896  15.566  0.6565 -0.9288  0.3168
  440MPD2     N 6617   4.349   1.005  15.253  0.0479  0.2423  0.8419
  440MPD2    H5 6618   4.384   0.913  15.275 -1.3595 -0.0604  1.7435
  440MPD2    N1 6619   4.043   1.336  15.424 -0.1227  0.0479 -0.1654
  440MPD2    H7 6620   4.079   1.399  15.353 -0.2475  0.7823  0.4236
  441TMC3    C1 6621   4.566   1.016  15.172  0.3474  0.1059  0.5951
  441TMC3    C2 6622   4.649   1.111  15.207 -0.4546 -0.1931 -0.2636
  441TMC3    C3 6623   4.712   1.097  15.326  0.3572  0.6976 -0.2972
  441TMC3    C4 6624   4.569   0.886  15.235 -0.0825  0.5119  0.5049
  441TMC3    C5 6625   4.625   0.886  15.356 -0.2132 -0.9306 -0.3873
  441TMC3    C6 6626   4.699   0.990  15.409 -0.2937 -0.6602 -0.7954
  441TMC3     C 6627   4.439   1.078  15.184  0.0061  0.4113  0.2027
  441TMC3     O 6628   4.431   1.200  15.151  0.5472  0.3671 -0.5065
  441TMC3     H 6629   4.662   1.204  15.153 -0.8606 -0.3497 -0.6372
  441TMC3    H1 6630   4.503   0.805  15.204 -1.5120  2.3803 -1.3624
  441TMC3    H2 6631   0.008   0.978  15.504  0.1505  0.2910 -0.9034
  441TMC3    C7 6632   4.557   0.806  15.455 -0.2151 -0.6747 -0.3311
  441TMC3    C8 6633   4.716   1.213  15.410 -0.2003  0.1120 -0.5670
  441TMC3    O1 6634   4.450   0.760  15.420  0.8249 -0.0498  0.0640
  441TMC3    O2 6635   0.063   1.219  15.493  0.5257 -0.3093  0.1129
  442MPD2     C 6636   1.968   1.844  16.316 -0.6128 -0.1793 -0.0721
  442MPD2    C1 6637   1.860   1.758  16.330 -0.1020 -0.8532  0.1963
  442MPD2    C2 6638   1.869   1.626  16.306  0.4273 -0.1106  0.0108
  442MPD2    C3 6639   1.986   1.570  16.276 -0.2657  0.0715  0.5668
  442MPD2    C4 6640   2.095   1.647  16.246  0.1490 -0.6479 -0.5611
  442MPD2    C5 6641   2.084   1.786  16.270  0.0161 -0.0572 -0.3313
  442MPD2     H 6642   1.788   1.560  16.334 -0.9504  0.5074 -2.4634
  442MPD2    H1 6643   2.189   1.598  16.224  1.6197  2.7334 -1.7312
  442MPD2    H2 6644   1.962   1.947  16.349 -0.8113 -0.0775 -0.4240
  442MPD2    H3 6645   2.175   1.845  16.267 -1.6839  2.5788  0.7037
  442MPD2     N 6646   2.007   1.429  16.240  0.4878 -0.3901  0.3791
  442MPD2    H5 6647   2.099   1.407  16.204  0.1821 -0.6066 -0.2752
  442MPD2    N1 6648   1.728   1.796  16.365  0.1053  0.2483 -0.3046
  442MPD2    H7 6649   1.657   1.724  16.369 -0.4102  0.7912  0.5099
  443TMC3    C1 6650   1.534   1.937  16.409  0.4725 -0.2145  0.6244
  443TMC3    C2 6651   1.457   1.953  16.302 -0.2518 -0.4095 -0.1710
  443TMC3    C3 6652   1.333   1.899  16.305  0.3602  0.1433 -0.1154
  443TMC3    C4 6653   1.489   1.876  16.526  0.1564  0.5524  0.4351
  443TMC3    C5 6654   1.362   1.829  16.526  0.4222  0.6050 -0.0723
  443TMC3    C6 6655   1.282   1.843  16.422 -0.5473  0.3640  0.4574
  443TMC3     C 6656   1.679   1.925  16.379  0.2821 -0.1062  0.0042
  443TMC3     O 6657   1.721   2.021  16.316 -0.2537 -0.0472 -0.1067
  443TMC3     H 6658   1.514   1.971  16.211  1.5140  1.2303  1.2768
  443TMC3    H1 6659   1.569   1.842  16.590 -0.9575  0.3397  1.7170
  443TMC3    H2 6660   1.184   1.800  16.408  0.1447 -0.4868 -1.7707
  443TMC3    C7 6661   1.329   1.730  16.627  0.7620 -0.1041 -0.4249
  443TMC3    C8 6662   1.292   1.839  16.176 -0.0777  0.2038 -0.6598
  443TMC3    O1 6663   1.253   1.646  16.585  0.9529 -0.1718 -0.1805
  443TMC3    O2 6664   1.239   1.726  16.192  0.9992  0.0122  0.5216
  444MPD2     C 6665   2.495   1.419  17.476  0.2687  0.1340 -0.0490
  444MPD2    C1 6666   2.384   1.359  17.420 -0.3437 -0.0469 -0.2853
  444MPD2    C2 6667   2.404   1.282  17.305  0.1437 -0.3996 -0.0509
  444MPD2    C3 6668   2.528   1.263  17.257  0.2737  0.6300 -0.1619
  444MPD2    C4 6669   2.634   1.320  17.318  0.2393 -0.2156 -0.0508
  444MPD2    C5 6670   2.620   1.394  17.425  0.3215 -0.3849 -0.3396
  444MPD2     H 6671   2.318   1.240  17.254 -0.5172  2.4180 -1.2545
  444MPD2    H1 6672   2.735   1.319  17.276  0.0688 -3.1838 -0.4072
  444MPD2    H2 6673   2.496   1.484  17.563  0.3384 -0.7964  0.6394
  444MPD2    H3 6674   2.705   1.440  17.476  0.6362  0.2770 -1.4576
  444MPD2     N 6675   2.545   1.196  17.132  0.6401 -0.0202  0.4000
  444MPD2    H5 6676   2.460   1.157  17.091  1.7827 -0.6758 -1.3262
  444MPD2    N1 6677   2.256   1.367  17.476 -0.4386  0.2376 -0.0096
  444MPD2    H7 6678   2.186   1.313  17.426 -0.1656  0.7147 -0.9061
  445TMC3    C1 6679   2.625   1.079  16.948 -0.2250  0.3979 -0.7912
  445TMC3    C2 6680   2.508   1.112  16.877 -0.1575 -0.0221  0.0301
  445TMC3    C3 6681   2.473   1.037  16.767 -0.0957 -0.1509 -0.3113
  445TMC3    C4 6682   2.719   0.993  16.895  0.1454  0.2663 -0.5099
  445TMC3    C5 6683   2.678   0.930  16.782 -0.0058 -0.4945 -0.2303
  445TMC3    C6 6684   2.557   0.942  16.713 -0.2976 -0.5566 -0.5715
  445TMC3     C 6685   2.659   1.161  17.065 -0.8706  0.5447  0.2374
  445TMC3     O 6686   2.775   1.171  17.108  0.0518  0.0342 -0.0901
  445TMC3     H 6687   2.446   1.195  16.910  1.4458  0.5055  1.7399
  445TMC3    H1 6688   2.806   0.964  16.954 -1.2293 -0.9540  0.9257
  445TMC3    H2 6689   2.532   0.879  16.628  0.3347 -1.0925 -0.3569
  445TMC3    C7 6690   2.771   0.822  16.736  1.0016  0.4981  0.4236
  445TMC3    C8 6691   2.336   0.997  16.759  0.7245  0.5639 -0.9251
  445TMC3    O1 6692   2.778   0.802  16.616  0.1634 -0.1356  0.3294
  445TMC3    O2 6693   2.258   1.086  16.802  0.3336 -0.1604  0.3071
  446MPD2     C 6694   2.157   2.236  11.159 -0.1895  0.3548  0.2722
  446MPD2    C1 6695   2.087   2.352  11.187  0.0002 -0.8857  0.6555
  446MPD2    C2 6696   2.154   2.456  11.252 -0.8488  0.6528  0.0227
  446MPD2    C3 6697   2.289   2.442  11.289  0.3501  0.4134  0.3274
  446MPD2    C4 6698   2.355   2.320  11.259 -0.0748 -0.4075  0.5981
  446MPD2    C5 6699   2.292   2.220  11.188  0.9390  0.3988 -0.0870
  446MPD2     H 6700   2.109   2.554  11.263 -1.5168  0.2751  0.6288
  446MPD2    H1 6701   2.459   2.303  11.282 -0.2547 -0.7765  1.1442
  446MPD2    H2 6702   2.106   2.158  11.103 -0.6123  0.0957  1.0205
  446MPD2    H3 6703   2.339   2.124  11.173  0.2976  0.1767 -0.6747
  446MPD2     N 6704   2.353   2.559  11.329  0.1242  0.5955 -0.3198
  446MPD2    H5 6705   2.298   2.643  11.343  1.5869  1.4402  0.4267
  446MPD2    N1 6706   1.946   2.358  11.156 -0.2759  0.4172  1.0352
  446MPD2    H7 6707   1.902   2.448  11.174  1.9454  2.0636 -1.6929
  447TMC3    C1 6708   2.557   2.679  11.386  0.5690 -0.7059  0.2605
  447TMC3    C2 6709   2.545   2.736  11.259 -0.1862 -0.9329 -0.2465
  447TMC3    C3 6710   2.656   2.761  11.176  0.4004 -0.3222  0.6301
  447TMC3    C4 6711   2.687   2.662  11.432 -0.6813 -0.3434  0.5162
  447TMC3    C5 6712   2.794   2.693  11.351 -0.2977  0.2290  0.3588
  447TMC3    C6 6713   2.781   2.739  11.220 -0.4728 -0.0924 -0.3050
  447TMC3     C 6714   2.478   2.551  11.395 -0.0431 -0.3228  0.0042
  447TMC3     O 6715   2.540   2.456  11.441  0.3211 -0.0940  0.0986
  447TMC3     H 6716   2.447   2.763  11.221 -0.8264 -2.0722  0.5889
  447TMC3    H1 6717   2.705   2.612  11.526  0.0260 -0.2985  0.4026
  447TMC3    H2 6718   2.868   2.738  11.156  1.1652  0.1079  1.9491
  447TMC3    C7 6719   2.925   2.641  11.385  0.6151 -0.5009 -0.1458
  447TMC3    C8 6720   2.633   2.814  11.045  0.9225 -0.4508 -0.5698
  447TMC3    O1 6721   2.992   2.582  11.300 -0.2100 -0.0931  0.2874
  447TMC3    O2 6722   2.523   2.780  11.006  0.4217  0.0053 -0.3850
  448TMC3    C1 6723   0.123   2.071  16.990 -0.6058  0.0581  0.5685
  448TMC3    C2 6724   0.135   1.957  16.916 -0.4616  0.0945 -0.2749
  448TMC3    C3 6725   0.207   1.857  16.973  0.9853 -0.2018  0.3465
  448TMC3    C4 6726   0.186   2.080  17.113  0.3005 -0.4024  0.7551
  448TMC3    C5 6727   0.273   1.987  17.159 -0.3635  0.0439  0.2349
  448TMC3    C6 6728   0.279   1.869  17.090  0.5314  0.1086  0.1622
  448TMC3     C 6729   0.108   2.197  16.920  0.2512  0.2687  0.1612
  448TMC3     O 6730   0.140   2.299  16.980  0.6724  0.3292 -0.2992
  448TMC3     H 6731   0.087   1.939  16.820 -0.9640  3.6121 -0.6990
  448TMC3    H1 6732   0.178   2.167  17.179 -2.2646  1.1959 -1.6721
  448TMC3    H2 6733   0.329   1.784  17.134  0.0835 -1.2081 -1.8772
  448TMC3    C7 6734   0.323   1.992  17.290 -0.3119  0.3419 -0.1299
  448TMC3    C8 6735   0.232   1.732  16.899  0.3941  0.4512  0.6658
  448TMC3    O1 6736   0.290   2.078  17.373  0.1273  0.3482 -0.2572
  448TMC3    O2 6737   0.269   1.640  16.972 -0.8388  0.5735  0.4839
  449MPD2     C 6738   1.598   0.315  14.081  0.5817 -0.5389 -0.0783
  449MPD2    C1 6739   1.503   0.390  14.021  0.7848 -1.2059  0.2496
  449MPD2    C2 6740   1.373   0.344  14.048 -0.5173  0.5582 -0.1791
  449MPD2    C3 6741   1.338   0.228  14.119  0.5524  0.6530 -0.0142
  449MPD2    C4 6742   1.438   0.160  14.181 -0.8158  0.3168  0.0054
  449MPD2    C5 6743   1.567   0.202  14.162 -0.4891 -0.1818  0.5687
  449MPD2     H 6744   1.295   0.400  13.998 -0.8125 -0.2080 -0.5702
  449MPD2    H1 6745   1.416   0.069  14.237 -0.3313  0.8383  1.0423
  449MPD2    H2 6746   1.703   0.339  14.067  0.7399 -0.5914  0.9508
  449MPD2    H3 6747   1.648   0.137  14.193  0.0580  0.7687  1.1268
  449MPD2     N 6748   1.199   0.198  14.123 -0.0782 -0.5109 -0.4543
  449MPD2    H5 6749   1.140   0.263  14.071 -0.4247 -1.7850 -1.6266
  449MPD2    N1 6750   1.526   0.513  13.950 -0.1567 -0.0880 -0.2945
  449MPD2    H7 6751   1.440   0.553  13.913 -0.6078  0.6957  1.6409
  450TMC3    C1 6752   1.633   0.687  13.823  0.6545 -0.2948  0.3717
  450TMC3    C2 6753   1.659   0.673  13.693  0.0707 -0.0197  0.1740
  450TMC3    C3 6754   1.586   0.717  13.595 -0.1911  0.1690 -0.7308
  450TMC3    C4 6755   1.516   0.754  13.855 -0.3093 -0.1847 -0.6601
  450TMC3    C5 6756   1.433   0.789  13.754  0.2143 -0.3400  0.5785
  450TMC3    C6 6757   1.466   0.780  13.622 -0.2356 -0.4504 -0.3361
  450TMC3     C 6758   1.649   0.560  13.893 -0.5941 -0.1802  1.1787
  450TMC3     O 6759   1.765   0.518  13.905  0.4794  0.3416  0.1535
  450TMC3     H 6760   1.737   0.599  13.678  0.4370  0.1254  1.3362
  450TMC3    H1 6761   1.491   0.767  13.960  0.2321 -0.2297 -0.5270
  450TMC3    H2 6762   1.400   0.817  13.545  0.1933 -0.7658 -0.8560
  450TMC3    C7 6763   1.302   0.728  13.780  0.1915  0.0300  0.2477
  450TMC3    C8 6764   1.625   0.713  13.452 -0.6337 -0.7541  0.4308
  450TMC3    O1 6765   1.310   0.620  13.843  0.7640 -0.5459 -0.1387
  450TMC3    O2 6766   1.551   0.772  13.374  0.3732 -0.3434  0.7300
  451MPD2     C 6767   3.186   3.790   1.292 -0.5579 -0.7470 -1.1597
  451MPD2    C1 6768   3.243   3.869   1.196 -0.4346 -0.6562 -0.2319
  451MPD2    C2 6769   3.332   3.817   1.103 -0.0815  0.0399  0.2155
  451MPD2    C3 6770   3.358   3.681   1.109 -0.4282 -0.4833  0.3152
  451MPD2    C4 6771   3.291   3.602   1.195  0.0487 -0.0438  0.1060
  451MPD2    C5 6772   3.197   3.649   1.283  0.1023 -0.4661 -0.1476
  451MPD2     H 6773   3.388   3.885   1.040 -1.3630  0.3156 -0.6442
  451MPD2    H1 6774   3.305   3.494   1.195 -0.8265 -0.1552  1.3863
  451MPD2    H2 6775   3.120   3.838   1.364  1.3126 -0.1311  0.1306
  451MPD2    H3 6776   3.155   3.579   1.354 -2.0746  0.0493 -0.9354
  451MPD2     N 6777   3.450   3.609   1.028 -0.2926  0.9939 -0.4962
  451MPD2    H5 6778   3.451   3.509   1.049 -0.4746  1.0333 -0.2948
  451MPD2    N1 6779   3.190   4.000   1.169 -0.0110 -0.6210  0.3650
  451MPD2    H7 6780   3.117   4.025   1.235  0.2728 -2.1301  1.2525
  452TMC3    C1 6781   3.604   3.550   0.850  0.3827  0.0051 -0.0329
  452TMC3    C2 6782   3.512   3.468   0.788  0.1319  0.0944 -0.1339
  452TMC3    C3 6783   3.527   3.445   0.656  0.5569  0.5363 -0.4182
  452TMC3    C4 6784   3.707   3.608   0.776  0.1078 -0.2604 -0.3737
  452TMC3    C5 6785   3.725   3.571   0.645  0.2962 -0.0504 -0.4921
  452TMC3    C6 6786   3.632   3.495   0.586 -0.0535 -0.1555 -0.8863
  452TMC3     C 6787   3.543   3.659   0.935  0.2264 -0.7819 -0.3545
  452TMC3     O 6788   3.565   3.776   0.894 -0.4764 -0.2743 -0.0918
  452TMC3     H 6789   3.429   3.432   0.848  0.6721 -0.6282  0.1807
  452TMC3    H1 6790   3.777   3.674   0.825  0.2298 -0.3303 -0.4519
  452TMC3    H2 6791   3.653   3.472   0.482  2.0697  0.6506 -0.6470
  452TMC3    C7 6792   3.770   3.684   0.563 -0.0152 -0.1990 -0.2697
  452TMC3    C8 6793   3.415   3.458   0.571  0.0750  0.4868 -0.2669
  452TMC3    O1 6794   3.757   3.663   0.441 -0.2321  0.2025 -0.1300
  452TMC3    O2 6795   3.425   3.506   0.462 -0.9508 -0.1103 -0.1406
  453TMC3    C1 6796   4.139   1.062  12.047  0.4130 -0.7426  0.3232
  453TMC3    C2 6797   4.164   0.947  11.981 -0.2013 -0.4596  0.4059
  453TMC3    C3 6798   4.119   0.941  11.852  0.2544 -0.3522  0.0985
  453TMC3    C4 6799   4.090   1.181  11.986 -0.8314  0.2771  0.4770
  453TMC3    C5 6800   4.066   1.168  11.855 -0.0918  0.1481 -0.3392
  453TMC3    C6 6801   4.076   1.048  11.780 -0.1508  0.7627 -0.3193
  453TMC3     C 6802   4.214   1.088  12.167 -0.3429  1.2542  0.5655
  453TMC3     O 6803   4.335   1.089  12.166  0.4865 -0.0259 -0.3500
  453TMC3     H 6804   4.200   0.858  12.032 -2.3954 -1.1355  0.7624
  453TMC3    H1 6805   4.091   1.272  12.044 -0.9982  1.3952 -1.2863
  453TMC3    H2 6806   4.069   1.050  11.672  0.5437 -2.4743 -0.4078
  453TMC3    C7 6807   4.081   1.284  11.774 -0.2415 -0.0922  1.6245
  453TMC3    C8 6808   4.195   0.849  11.772 -0.0511 -0.6767 -0.1033
  453TMC3    O1 6809   4.101   1.271  11.653 -0.4850  0.7799  0.3421
  453TMC3    O2 6810   4.291   0.800  11.827  0.2469 -0.7420 -0.2346
  454MPD2     C 6811   3.230   0.983  16.229 -0.3401  0.2090 -0.2471
  454MPD2    C1 6812   3.132   1.007  16.135  0.6987  0.7205 -0.3582
  454MPD2    C2 6813   3.068   1.133  16.138 -0.0908 -0.4272 -0.1603
  454MPD2    C3 6814   3.089   1.221  16.246 -0.1928  0.3400  0.4609
  454MPD2    C4 6815   3.187   1.188  16.337  0.4560  0.2261 -0.0135
  454MPD2    C5 6816   3.258   1.071  16.330 -0.1477  0.1016  0.2043
  454MPD2     H 6817   2.991   1.151  16.064  0.8941  1.9414 -0.6083
  454MPD2    H1 6818   3.208   1.253  16.421 -0.8419  0.9507 -0.2419
  454MPD2    H2 6819   3.291   0.893  16.232 -0.1151  0.3882  0.4116
  454MPD2    H3 6820   3.351   1.058  16.384 -0.9215  0.8378  1.7058
  454MPD2     N 6821   3.011   1.335  16.263 -0.1337  0.5557  0.5463
  454MPD2    H5 6822   3.013   1.381  16.353 -1.5372 -0.9835  1.3527
  454MPD2    N1 6823   3.088   0.905  16.044 -0.0622  0.1307  0.4390
  454MPD2    H7 6824   3.021   0.940  15.976  0.4648  1.7604  0.7676
  455TMC3    C1 6825   2.789   1.405  16.238 -0.3991 -0.3273 -0.6967
  455TMC3    C2 6826   2.792   1.447  16.369  0.5091 -0.5312 -0.0021
  455TMC3    C3 6827   2.682   1.404  16.450  0.0713  0.0348  0.1091
  455TMC3    C4 6828   2.685   1.336  16.184 -0.7885  0.2932  1.2813
  455TMC3    C5 6829   2.580   1.300  16.265  0.2420 -0.0279  0.0072
  455TMC3    C6 6830   2.578   1.333  16.395 -1.5548  0.7623  0.5672
  455TMC3     C 6831   2.918   1.378  16.176 -0.2749  0.1917  0.1896
  455TMC3     O 6832   2.910   1.349  16.055  0.5384  0.3383  0.4172
  455TMC3     H 6833   2.879   1.504  16.398 -0.0859  1.6750 -2.6416
  455TMC3    H1 6834   2.680   1.299  16.082  0.6213  0.6686  1.0755
  455TMC3    H2 6835   2.494   1.287  16.446 -2.6620  2.1491  0.0113
  455TMC3    C7 6836   2.514   1.172  16.221  0.7522 -1.0415  0.1965
  455TMC3    C8 6837   2.700   1.419  16.597 -0.5563  0.0270 -0.0988
  455TMC3    O1 6838   2.582   1.100  16.149 -0.2266  0.1338 -0.0187
  455TMC3    O2 6839   2.813   1.405  16.642 -0.4655 -0.4459 -0.1894
  456MPD2     C 6840   0.736   0.592  16.092  0.0135  0.8093 -0.5669
  456MPD2    C1 6841   0.802   0.548  16.200 -0.0270  0.1530 -0.4161
  456MPD2    C2 6842   0.784   0.615  16.317  0.8433  0.1178 -0.2895
  456MPD2    C3 6843   0.697   0.720  16.337 -0.6225 -1.0725  0.8529
  456MPD2    C4 6844   0.619   0.757  16.230 -0.5281  0.0280  0.2579
  456MPD2    C5 6845   0.646   0.691  16.110 -0.1993  0.1013 -0.3457
  456MPD2     H 6846   0.820   0.575  16.411  1.4349 -1.8622 -1.3349
  456MPD2    H1 6847   0.554   0.844  16.220  0.0213  0.1973 -1.7816
  456MPD2    H2 6848   0.735   0.551  15.992  0.1584 -0.4223 -0.0627
  456MPD2    H3 6849   0.590   0.725  16.023  2.1719 -1.7285 -2.5752
  456MPD2     N 6850   0.701   0.785  16.463  0.3971 -0.5009 -0.0879
  456MPD2    H5 6851   0.777   0.771  16.528  0.9543 -0.0833 -0.6569
  456MPD2    N1 6852   0.890   0.436  16.180 -0.1954 -0.4530 -0.4785
  456MPD2    H7 6853   0.911   0.413  16.083  1.3171 -0.4538 -0.1521
  457TMC3    C1 6854   0.651   0.965  16.604  0.5465  0.3553  0.3124
  457TMC3    C2 6855   0.568   1.073  16.611  0.1313 -0.5629  0.4336
  457TMC3    C3 6856   0.531   1.126  16.728 -0.1833  0.2682  0.1522
  457TMC3    C4 6857   0.695   0.908  16.722  0.0555  0.5202 -0.0898
  457TMC3    C5 6858   0.653   0.967  16.841  0.5811 -0.6755 -0.4030
  457TMC3    C6 6859   0.567   1.074  16.850  0.5230  0.2801 -0.3829
  457TMC3     C 6860   0.610   0.877  16.496 -0.0932  0.2173 -0.2647
  457TMC3     O 6861   0.496   0.896  16.455 -0.3345  0.5676  0.8919
  457TMC3     H 6862   0.529   1.115  16.520 -1.8988 -2.0016  0.6425
  457TMC3    H1 6863   0.744   0.811  16.718 -0.5233  0.1790  1.4569
  457TMC3    H2 6864   0.524   1.111  16.942 -2.4400  0.1146 -1.7230
  457TMC3    C7 6865   0.719   0.932  16.962  0.3906  0.1117 -0.0945
  457TMC3    C8 6866   0.452   1.246  16.739 -0.0213  0.6921 -0.1436
  457TMC3    O1 6867   0.757   0.818  16.971 -0.5007 -0.6059 -0.2423
  457TMC3    O2 6868   0.436   1.299  16.848  0.4722  1.0364  0.0655
  458MPD2     C 6869   3.191   0.509  12.465  0.4405  0.6105  0.9942
  458MPD2    C1 6870   3.188   0.447  12.587  0.1642 -0.4546  0.9636
  458MPD2    C2 6871   3.061   0.406  12.636  0.1270  0.0143  0.1192
  458MPD2    C3 6872   2.956   0.412  12.547 -0.0488  0.6458  0.1828
  458MPD2    C4 6873   2.973   0.464  12.418  0.4189  0.1421 -0.6232
  458MPD2    C5 6874   3.090   0.521  12.377  0.0995  0.1718 -0.1346
  458MPD2     H 6875   3.039   0.378  12.738 -0.3460  2.2969  0.6589
  458MPD2    H1 6876   2.886   0.485  12.356  0.9647  0.8040 -1.1679
  458MPD2    H2 6877   3.288   0.539  12.428  0.3012 -2.0875 -1.5309
  458MPD2    H3 6878   3.100   0.550  12.273 -1.3946 -2.5247 -1.0501
  458MPD2     N 6879   2.833   0.378  12.600  0.0445  0.6747  0.1700
  458MPD2    H5 6880   2.828   0.344  12.695 -0.4241  0.6056  0.1202
  458MPD2    N1 6881   3.309   0.440  12.667  0.2917 -1.0153  0.4212
  458MPD2    H7 6882   3.402   0.466  12.634 -1.2345  1.3287 -1.9793
  459TMC3    C1 6883   3.451   0.346  12.828 -0.4842  1.3841  0.1361
  459TMC3    C2 6884   3.564   0.413  12.788  0.2360  0.1941 -0.7563
  459TMC3    C3 6885   3.687   0.366  12.831  0.1234 -0.1483  0.2846
  459TMC3    C4 6886   3.458   0.227  12.905 -0.1951 -0.1254  0.2621
  459TMC3    C5 6887   3.587   0.193  12.950 -0.5699 -0.0683  0.3726
  459TMC3    C6 6888   3.699   0.262  12.918 -0.0069  0.1459  0.4496
  459TMC3     C 6889   3.312   0.373  12.785 -0.6818 -0.3897 -0.3618
  459TMC3     O 6890   3.218   0.320  12.846 -0.1920 -0.1513 -0.2878
  459TMC3     H 6891   3.557   0.499  12.723 -0.1818 -0.1007 -1.0980
  459TMC3    H1 6892   3.367   0.172  12.923  1.4570 -2.8467  0.2658
  459TMC3    H2 6893   3.795   0.224  12.951  0.1343  0.7559  0.7519
  459TMC3    C7 6894   3.605   0.087  13.054 -0.4419 -0.4505 -0.0355
  459TMC3    C8 6895   3.806   0.425  12.777  0.1183 -0.5764  0.3826
  459TMC3    O1 6896   3.718   0.051  13.081  0.3040  0.3448  0.1010
  459TMC3    O2 6897   3.806   0.484  12.671 -0.2245  0.1730 -0.0409
  460MPD2     C 6898   2.846   3.020  10.827 -0.3434 -0.0786  0.4469
  460MPD2    C1 6899   2.726   2.973  10.883 -0.5188 -0.1995  0.1682
  460MPD2    C2 6900   2.606   3.037  10.858  0.2952  0.2082  0.5407
  460MPD2    C3 6901   2.601   3.148  10.771 -0.4946  0.7611 -0.2882
  460MPD2    C4 6902   2.717   3.187  10.711 -0.2951  0.2515 -0.0505
  460MPD2    C5 6903   2.837   3.129  10.743 -0.0367 -0.3496 -0.4332
  460MPD2     H 6904   2.518   3.001  10.908  0.3563 -0.5318  0.1053
  460MPD2    H1 6905   2.726   3.268  10.639  0.4413 -0.3301 -0.6105
  460MPD2    H2 6906   2.937   2.961  10.833  0.3309  0.8674 -0.4139
  460MPD2    H3 6907   2.930   3.162  10.699  0.3304 -2.0284 -0.9006
  460MPD2     N 6908   2.474   3.207  10.748 -0.3073  0.4708 -0.2783
  460MPD2    H5 6909   2.387   3.171  10.785 -0.6444  1.1732 -0.3756
  460MPD2    N1 6910   2.740   2.887  10.996  0.4436 -0.1482 -0.2552
  460MPD2    H7 6911   2.833   2.864  11.030  0.0894 -1.1597  0.0580
  461TMC3    C1 6912   2.321   3.364  10.650  0.2358  0.1563  0.4087
  461TMC3    C2 6913   2.209   3.288  10.604  0.4376  0.1992  0.3960
  461TMC3    C3 6914   2.115   3.344  10.516 -0.3378 -0.0265  0.2107
  461TMC3    C4 6915   2.332   3.494  10.605 -1.0022 -0.1294  0.0502
  461TMC3    C5 6916   2.242   3.547  10.516 -0.0359 -0.3899 -0.8597
  461TMC3    C6 6917   2.133   3.470  10.472  0.7089 -0.4108  0.4237
  461TMC3     C 6918   2.454   3.311  10.659  0.6510 -0.3484  0.9695
  461TMC3     O 6919   2.533   3.366  10.588  0.0697 -0.2477 -0.0076
  461TMC3     H 6920   2.222   3.180  10.609 -1.3195  0.0215  1.2475
  461TMC3    H1 6921   2.418   3.550  10.639 -0.1923 -1.2993 -0.0620
  461TMC3    H2 6922   2.073   3.512  10.392  1.0460  0.3221  0.5516
  461TMC3    C7 6923   2.268   3.657  10.426  0.5987 -0.5947  0.6751
  461TMC3    C8 6924   2.038   3.258  10.429  0.3874  0.6161  0.1777
  461TMC3    O1 6925   2.256   3.635  10.304  0.0347  0.4504 -0.6073
  461TMC3    O2 6926   2.005   3.298  10.318 -0.1096 -0.2202  0.4489
  462TMC3    C1 6927   2.769   3.836   0.078 -0.1713 -0.2850  0.1464
  462TMC3    C2 6928   2.846   3.748  17.758  0.3309  0.2357  0.5348
  462TMC3    C3 6929   2.877   3.621   0.050 -0.0397 -0.1189  1.1802
  462TMC3    C4 6930   2.731   3.798   0.201 -0.2626  0.1581 -0.6468
  462TMC3    C5 6931   2.756   3.670   0.241  0.7456 -0.0780 -0.1149
  462TMC3    C6 6932   2.841   3.589   0.182  0.1287 -0.6578 -0.9160
  462TMC3     C 6933   2.729   3.965   0.029  0.9017  0.2156  0.2938
  462TMC3     O 6934   2.640   4.021   0.093  0.1007 -0.2177 -0.1243
  462TMC3     H 6935   2.886   3.761  17.658 -0.1739 -2.2947 -0.0131
  462TMC3    H1 6936   2.685   3.867   0.271 -2.7033 -1.9503 -0.1858
  462TMC3    H2 6937   2.841   3.485   0.212  0.7352 -0.5725 -0.6141
  462TMC3    C7 6938   2.669   3.608   0.342 -0.2229  0.0025 -0.3420
  462TMC3    C8 6939   2.826   3.522  17.721 -0.0232  0.3827  0.1852
  462TMC3    O1 6940   2.713   3.503   0.388 -0.1605  0.1801 -0.1741
  462TMC3    O2 6941   2.750   3.574  17.639  0.3765  0.5773 -0.4583
  463MPD2     C 6942   4.185   2.243   1.534 -0.4601  0.0080 -0.2650
  463MPD2    C1 6943   4.054   2.271   1.566  0.4069  0.0486  0.7576
  463MPD2    C2 6944   4.008   2.396   1.534 -0.0183 -0.0533 -0.3680
  463MPD2    C3 6945   4.088   2.495   1.476  0.0136 -0.6881 -0.6258
  463MPD2    C4 6946   4.220   2.469   1.460 -0.3974  0.1215 -0.1171
  463MPD2    C5 6947   4.264   2.347   1.495  0.5166 -0.4385 -0.3682
  463MPD2     H 6948   3.902   2.411   1.548 -0.1658 -0.3931 -1.0906
  463MPD2    H1 6949   4.290   2.549   1.439  0.4023 -0.3913  0.6420
  463MPD2    H2 6950   4.232   2.147   1.552 -0.5149  0.0897  0.3218
  463MPD2    H3 6951   4.368   2.323   1.476  0.2707  0.3685 -2.6743
  463MPD2     N 6952   4.047   2.621   1.420 -0.0901  0.2190 -0.1840
  463MPD2    H5 6953   4.115   2.688   1.386  1.8584 -2.2928 -1.3025
  463MPD2    N1 6954   3.964   2.176   1.612 -0.4887 -0.2829  0.2389
  463MPD2    H7 6955   3.871   2.210   1.631  0.3200  1.9654  0.1520
  464TMC3    C1 6956   3.862   1.961   1.640  0.6993  0.3095  0.6428
  464TMC3    C2 6957   3.752   2.036   1.675 -0.7118 -0.2667 -0.7309
  464TMC3    C3 6958   3.624   1.988   1.643  0.1526 -0.6245  0.0068
  464TMC3    C4 6959   3.835   1.843   1.566 -0.3567  0.1943 -0.3486
  464TMC3    C5 6960   3.712   1.800   1.538  1.0115  0.1190 -0.1206
  464TMC3    C6 6961   3.601   1.870   1.566 -0.2406 -0.2833  1.0037
  464TMC3     C 6962   3.984   2.038   1.613 -0.4598  0.6207 -0.4241
  464TMC3     O 6963   4.089   1.977   1.596  0.2379  0.3997 -0.4566
  464TMC3     H 6964   3.758   2.129   1.730  0.1940  0.4739 -2.0869
  464TMC3    H1 6965   3.923   1.787   1.538  0.5147  2.0805 -1.4016
  464TMC3    H2 6966   3.510   1.842   1.515  1.2719 -1.3925 -1.0976
  464TMC3    C7 6967   3.710   1.671   1.465 -0.2129  0.1380 -0.0383
  464TMC3    C8 6968   3.523   2.088   1.641 -0.7972 -0.0079  0.5322
  464TMC3    O1 6969   3.814   1.617   1.428  0.4829  0.0230  0.3227
  464TMC3    O2 6970   3.550   2.213   1.643  0.5341 -0.4764  0.0850
  465MPD2     C 6971   4.727   1.186  16.896 -0.0917 -0.5810  0.1443
  465MPD2    C1 6972   4.593   1.149  16.898  0.1913 -0.0999  0.4438
  465MPD2    C2 6973   4.517   1.161  16.784 -0.0323  0.1409  0.5405
  465MPD2    C3 6974   4.574   1.202  16.663  0.3385 -0.9452 -0.8111
  465MPD2    C4 6975   4.713   1.227  16.656 -0.2179  0.0644  0.3317
  465MPD2    C5 6976   0.042   1.220  16.776  0.3409  0.1907 -0.2620
  465MPD2     H 6977   4.409   1.147  16.776 -0.0399  0.1395  0.6539
  465MPD2    H1 6978   0.021   1.244  16.560 -2.5560  1.0535 -0.6706
  465MPD2    H2 6979   0.055   1.174  16.979 -2.4919 -2.1289  1.8935
  465MPD2    H3 6980   0.149   1.235  16.769  0.1370  1.4299 -0.6039
  465MPD2     N 6981   4.488   1.220  16.557  0.2867  0.3185 -0.4418
  465MPD2    H5 6982   4.392   1.188  16.565  0.6976 -1.2337 -1.5932
  465MPD2    N1 6983   4.526   1.101  17.013  0.0951  0.0347  0.1718
  465MPD2    H7 6984   4.432   1.072  16.990  0.3221  0.8696 -1.7757
  466TMC3    C1 6985   4.167   1.266  16.335 -0.9491  1.0347  0.3347
  466TMC3    C2 6986   4.155   1.390  16.270  0.4659 -0.3341  0.4625
  466TMC3    C3 6987   4.273   1.460  16.254 -0.2263  0.0540 -0.0724
  466TMC3    C4 6988   4.286   1.211  16.380 -0.5878 -0.3205  0.7961
  466TMC3    C5 6989   4.397   1.291  16.358  0.1964 -0.6055 -0.0892
  466TMC3    C6 6990   4.393   1.408  16.288  0.1981 -0.1472 -0.7247
  466TMC3     C 6991   4.050   1.199  16.387  0.3228  0.0174 -0.2064
  466TMC3     O 6992   4.064   1.120  16.481 -0.6612  0.5312  0.0841
  466TMC3     H 6993   4.062   1.431  16.234  0.2908  0.0570  1.3874
  466TMC3    H1 6994   4.288   1.117  16.434 -1.7152 -1.0393 -0.4158
  466TMC3    H2 6995   4.482   1.467  16.268  0.0790  0.6499  1.0650
  466TMC3    C7 6996   4.516   1.276  16.435  0.3006 -0.1461  0.0713
  466TMC3    C8 6997   4.274   1.604  16.248 -0.3564 -0.2509 -0.5011
  466TMC3    O1 6998   4.620   1.327  16.394  0.3562 -0.5287  0.3660
  466TMC3    O2 6999   4.343   1.662  16.165 -0.2785  0.4706  0.4100
  467TMC3    C1 7000   0.970   4.148  14.017 -0.5604  0.2382 -0.7263
  467TMC3    C2 7001   0.926   4.133  13.883  0.1197 -0.9322 -0.0054
  467TMC3    C3 7002   0.794   4.152  13.860 -0.6036  0.2375  0.0550
  467TMC3    C4 7003   0.884   4.189  14.116  0.1929  0.0021 -0.2055
  467TMC3    C5 7004   0.746   4.198  14.090 -0.0903  0.4097  0.4206
  467TMC3    C6 7005   0.700   4.166  13.963 -0.0843 -0.3476  0.8782
  467TMC3     C 7006   1.112   4.184  14.032  0.4767  0.8729 -0.2663
  467TMC3     O 7007   1.137   4.267  14.112  0.0317 -0.1833  0.4158
  467TMC3     H 7008   0.987   4.130  13.793 -0.9512 -2.0557 -0.6961
  467TMC3    H1 7009   0.920   4.190  14.219 -1.4064  0.2929  0.3435
  467TMC3    H2 7010   0.594   4.176  13.940  0.3003 -0.2916 -0.8368
  467TMC3    C7 7011   0.658   4.165  14.204 -0.1173  0.0669 -0.6923
  467TMC3    C8 7012   0.777   4.258  13.764 -0.4042 -0.3838 -0.3078
  467TMC3    O1 7013   0.723   4.135  14.305  0.3051 -0.1942  0.7917
  467TMC3    O2 7014   0.852   4.355  13.757 -0.1049  0.1114 -0.0032
  468MPD2     C 7015   3.905   2.973  11.256  0.2878 -0.5263 -0.4191
  468MPD2    C1 7016   4.046   2.960  11.264  0.1366 -0.1342 -0.5123
  468MPD2    C2 7017   4.104   2.836  11.257  0.0658 -0.0518  0.4267
  468MPD2    C3 7018   4.023   2.720  11.265  0.0888  0.1398  0.1527
  468MPD2    C4 7019   3.886   2.735  11.245  0.4582 -0.1329  0.0731
  468MPD2    C5 7020   3.830   2.857  11.250  0.1696  0.0682  0.3603
  468MPD2     H 7021   4.212   2.827  11.264  0.0344 -0.2243  0.6724
  468MPD2    H1 7022   3.829   2.643  11.240  1.1383 -0.6637  1.9180
  468MPD2    H2 7023   3.846   3.063  11.246  1.4231  0.2608 -0.0792
  468MPD2    H3 7024   3.721   2.863  11.251  0.1199 -0.7253 -0.0704
  468MPD2     N 7025   4.076   2.587  11.286  0.2125  0.1477  0.3720
  468MPD2    H5 7026   4.006   2.514  11.288 -0.6021  0.9124 -0.3465
  468MPD2    N1 7027   4.131   3.072  11.285 -0.5620 -0.0488  0.3610
  468MPD2    H7 7028   4.230   3.052  11.285 -0.5928 -0.2230 -1.2668
  469TMC3    C1 7029   4.193   3.302  11.288  0.6942 -0.8100 -0.5089
  469TMC3    C2 7030   4.324   3.266  11.257 -0.1738  0.0399 -0.1461
  469TMC3    C3 7031   4.417   3.362  11.282 -0.6321 -0.1247  0.2815
  469TMC3    C4 7032   4.173   3.429  11.339  0.0119 -0.6497  0.5718
  469TMC3    C5 7033   4.279   3.517  11.375 -0.0351 -0.1570 -0.1487
  469TMC3    C6 7034   4.403   3.486  11.343  0.2809 -0.2218  0.3866
  469TMC3     C 7035   4.083   3.202  11.295  0.0576 -0.2362 -0.3118
  469TMC3     O 7036   3.967   3.242  11.307 -0.0559  0.6901  0.0842
  469TMC3     H 7037   4.345   3.165  11.224  0.6286  0.7664 -1.8760
  469TMC3    H1 7038   4.080   3.445  11.391 -0.2350  1.2275 -0.4165
  469TMC3    H2 7039   4.486   3.554  11.360 -1.2611  2.5378 -3.0370
  469TMC3    C7 7040   4.243   3.608  11.479  0.0778 -0.4041 -0.4473
  469TMC3    C8 7041   4.557   3.330  11.263  0.4766 -0.3717 -0.2481
  469TMC3    O1 7042   4.126   3.644  11.486 -0.4691 -0.0501  1.0452
  469TMC3    O2 7043   4.641   3.417  11.257  0.0186 -0.7348 -0.9277
  470TMC3    C1 7044   1.860   3.734   1.133  0.5403 -0.4004 -0.1163
  470TMC3    C2 7045   1.932   3.847   1.153  0.1549  0.7275  0.1750
  470TMC3    C3 7046   1.857   3.960   1.174  0.3449 -0.1328 -0.2612
  470TMC3    C4 7047   1.720   3.727   1.134  0.3811 -0.1918  0.3825
  470TMC3    C5 7048   1.650   3.838   1.156 -0.7367  0.1130  0.2135
  470TMC3    C6 7049   1.716   3.960   1.174  0.5530 -0.3662 -0.0473
  470TMC3     C 7050   1.931   3.619   1.075  0.1072 -0.1275  0.3845
  470TMC3     O 7051   2.028   3.654   1.012  0.0169 -0.0649  0.0529
  470TMC3     H 7052   2.040   3.849   1.144  0.0126  0.3752 -1.5338
  470TMC3    H1 7053   1.663   3.642   1.096 -3.0844  1.6304  1.4970
  470TMC3    H2 7054   1.664   4.050   1.204 -0.4608 -0.8653 -0.3065
  470TMC3    C7 7055   1.517   3.846   1.102 -0.4309  0.2407 -1.0887
  470TMC3    C8 7056   1.921   4.089   1.170  0.3057  0.5238  0.6499
  470TMC3    O1 7057   1.505   3.778   1.001 -0.5941  0.1086 -0.5045
  470TMC3    O2 7058   1.871   4.190   1.216 -0.5040  0.2668 -0.3278
  471MPD2     C 7059   2.318   4.428  16.907  0.6047 -0.0895 -0.0288
  471MPD2    C1 7060   2.334   4.289  16.884  0.3115  0.0844  0.1300
  471MPD2    C2 7061   2.411   4.219  16.983 -0.4023  0.0672  1.1445
  471MPD2    C3 7062   2.465   4.285  17.099 -0.3312  0.1838  0.8140
  471MPD2    C4 7063   2.426   4.417  17.120 -0.3590 -0.2695  0.0511
  471MPD2    C5 7064   2.353   4.481  17.023  0.8202  0.5273  0.2557
  471MPD2     H 7065   2.429   4.112  16.971 -0.5314  0.1967 -0.2435
  471MPD2    H1 7066   2.465   4.471  17.206  0.0776 -1.5213  0.6406
  471MPD2    H2 7067   2.268   4.491  16.835 -1.1740  0.2120  1.4574
  471MPD2    H3 7068   2.328   4.584  17.043 -3.5561 -0.4773  0.0509
  471MPD2     N 7069   2.548   4.218  17.193 -0.1639  0.0395 -0.5307
  471MPD2    H5 7070   2.559   4.247  17.289 -0.9810 -1.5385  0.0280
  471MPD2    N1 7071   2.301   4.226  16.766 -0.8384 -0.1067  0.3469
  471MPD2    H7 7072   2.320   4.127  16.765 -0.0181  0.0459  1.0797
  472TMC3    C1 7073   2.208   4.169  16.567  0.9111 -0.5735  0.3760
  472TMC3    C2 7074   2.129   4.201  16.462  0.0204  0.0780  0.8704
  472TMC3    C3 7075   2.107   4.103  16.371  0.1999 -0.6788 -0.3598
  472TMC3    C4 7076   2.272   4.048  16.591 -0.0844  0.0748  0.1192
  472TMC3    C5 7077   2.248   3.954  16.495 -0.4476 -0.7155  0.2862
  472TMC3    C6 7078   2.177   3.981  16.386 -0.4466  0.0749 -0.3245
  472TMC3     C 7079   2.246   4.278  16.655  0.0343 -0.7144  1.0872
  472TMC3     O 7080   2.212   4.396  16.626 -0.1482  0.1421 -0.0265
  472TMC3     H 7081   2.076   4.295  16.458  0.7350  0.5339  2.2353
  472TMC3    H1 7082   2.327   4.019  16.679 -0.1422  1.6642  0.6790
  472TMC3    H2 7083   2.170   3.910  16.303  1.1579  0.7523 -1.0382
  472TMC3    C7 7084   2.227   3.822  16.548 -0.1973 -0.0276  0.1558
  472TMC3    C8 7085   1.967   4.081  16.334  1.3436  0.9761 -0.7513
  472TMC3    O1 7086   2.218   3.819  16.668 -0.0671 -0.0413  0.1008
  472TMC3    O2 7087   1.900   4.164  16.269  0.3748 -0.2451  0.3228
  473MPD2     C 7088   2.148   1.750  13.856  0.8306 -0.8150  0.2436
  473MPD2    C1 7089   2.218   1.830  13.764 -0.5035  0.4627 -0.0430
  473MPD2    C2 7090   2.306   1.921  13.811 -0.1671  0.6701  0.0858
  473MPD2    C3 7091   2.319   1.936  13.948  0.6678  0.5691  0.1875
  473MPD2    C4 7092   2.257   1.854  14.038  0.1505  0.0801 -0.0244
  473MPD2    C5 7093   2.173   1.760  13.988 -0.2504  0.5179  1.0240
  473MPD2     H 7094   2.361   1.982  13.740  2.9771 -1.4288  0.7289
  473MPD2    H1 7095   2.267   1.867  14.146  0.5650 -1.6604  0.1411
  473MPD2    H2 7096   2.065   1.684  13.832 -0.3584  1.1027 -0.9872
  473MPD2    H3 7097   2.125   1.686  14.052  1.4259 -0.7560  0.7860
  473MPD2     N 7098   2.411   2.033  14.004 -0.0004 -0.1430 -0.1141
  473MPD2    H5 7099   2.444   2.016  14.098 -1.7462  0.4137  0.5947
  473MPD2    N1 7100   2.195   1.819  13.627 -0.0973 -0.6063  0.2874
  473MPD2    H7 7101   2.227   1.895  13.568  0.6750 -0.5755  0.7446
  474TMC3    C1 7102   2.530   2.245  14.012  0.1229 -0.3352 -0.1960
  474TMC3    C2 7103   2.529   2.370  13.960 -0.5552  0.3918 -0.4921
  474TMC3    C3 7104   2.521   2.469  14.055 -0.0238 -0.4249 -0.4844
  474TMC3    C4 7105   2.561   2.214  14.140  0.0964  0.1817 -0.2097
  474TMC3    C5 7106   2.562   2.310  14.237 -0.1851 -0.3342  0.2219
  474TMC3    C6 7107   2.543   2.443  14.194 -1.0669  0.2141 -0.3297
  474TMC3     C 7108   2.443   2.150  13.940  0.0142  0.1739 -0.1412
  474TMC3     O 7109   2.425   2.181  13.824 -0.3230 -0.4100  0.6913
  474TMC3     H 7110   2.516   2.381  13.853  1.0396 -1.2059 -0.8400
  474TMC3    H1 7111   2.572   2.112  14.173 -1.3957  0.3775  0.9051
  474TMC3    H2 7112   2.541   2.519  14.271  3.0932 -0.7740  0.7454
  474TMC3    C7 7113   2.616   2.276  14.362 -0.4254  0.6323  0.0715
  474TMC3    C8 7114   2.438   2.580  14.012  0.0782 -0.1038 -0.0317
  474TMC3    O1 7115   2.675   2.168  14.365 -0.2719 -0.6167 -0.3754
  474TMC3    O2 7116   2.373   2.556  13.912  0.1947  0.4646 -0.2614
  475MPD2     C 7117   1.141   0.564  10.804 -0.2820  0.0434  0.3127
  475MPD2    C1 7118   1.098   0.667  10.889  0.1849 -0.2980 -0.1987
  475MPD2    C2 7119   0.965   0.673  10.933 -0.4440 -0.7536  0.3112
  475MPD2    C3 7120   0.885   0.562  10.906 -0.0676  0.2152 -0.6159
  475MPD2    C4 7121   0.940   0.448  10.852  0.2835 -0.3025  0.0375
  475MPD2    C5 7122   1.066   0.441  10.795  0.9089 -0.0168  0.4248
  475MPD2     H 7123   0.933   0.769  10.973  1.4624  0.4691 -1.0976
  475MPD2    H1 7124   0.878   0.360  10.844  0.4821 -0.7241  3.0648
  475MPD2    H2 7125   1.240   0.569  10.759 -0.1708  0.8575  0.6618
  475MPD2    H3 7126   1.101   0.350  10.747 -2.2608 -0.2342 -1.4441
  475MPD2     N 7127   0.751   0.574  10.944 -0.9644 -0.1705 -0.3361
  475MPD2    H5 7128   0.718   0.664  10.977  0.5730  0.2224  0.0969
  475MPD2    N1 7129   1.185   0.777  10.914  0.2671 -0.0249  0.3577
  475MPD2    H7 7130   1.255   0.811  10.849 -0.0750 -0.1424 -0.0698
  476TMC3    C1 7131   1.218   0.995  11.009 -0.3255  0.3930 -0.3147
  476TMC3    C2 7132   1.212   1.038  10.882 -0.0331 -0.5149  0.0689
  476TMC3    C3 7133   1.178   1.172  10.865 -0.3411  0.0439  0.5782
  476TMC3    C4 7134   1.206   1.069  11.119 -0.3955 -0.5164  0.4917
  476TMC3    C5 7135   1.175   1.199  11.098 -0.6897  0.0375  0.1874
  476TMC3    C6 7136   1.165   1.255  10.972  0.1640  0.6989 -0.0356
  476TMC3     C 7137   1.172   0.854  11.027  0.1365  0.1329 -0.4268
  476TMC3     O 7138   1.111   0.822  11.128  0.1688 -0.1274 -0.2315
  476TMC3     H 7139   1.241   0.984  10.793 -0.4474  0.2191 -0.5106
  476TMC3    H1 7140   1.191   1.007  11.207 -0.8087 -0.5896  0.3683
  476TMC3    H2 7141   1.128   1.356  10.958 -1.9580 -0.2588 -1.3174
  476TMC3    C7 7142   1.137   1.280  11.212  0.1435  0.0983  0.4950
  476TMC3    C8 7143   1.054   1.179  10.780 -0.8271 -0.2190 -0.6212
  476TMC3    O1 7144   1.127   1.399  11.192  0.4616  0.2882 -0.0211
  476TMC3    O2 7145   0.992   1.284  10.786  0.2797  0.3931  0.7083
  477MPD2     C 7146   3.386   2.288  12.040  0.2026  0.2072  0.4716
  477MPD2    C1 7147   3.318   2.187  11.976  0.0060 -1.1931  1.0265
  477MPD2    C2 7148   3.310   2.061  12.041 -0.3745  0.4302 -0.2759
  477MPD2    C3 7149   3.345   2.053  12.176  0.6557  0.2976 -0.5755
  477MPD2    C4 7150   3.412   2.162  12.244 -0.1100  0.2120  0.2974
  477MPD2    C5 7151   3.438   2.277  12.169 -0.3703  0.3133  0.2680
  477MPD2     H 7152   3.249   1.983  11.996 -1.2871 -0.6401  2.8619
  477MPD2    H1 7153   3.440   2.156  12.349  0.0430 -1.2839  0.1763
  477MPD2    H2 7154   3.388   2.384  11.989 -1.1988 -0.2729 -0.4959
  477MPD2    H3 7155   3.489   2.360  12.217 -0.1601 -0.5238  1.4697
  477MPD2     N 7156   3.288   1.943  12.248  0.3784  0.8772 -0.5985
  477MPD2    H5 7157   3.248   1.863  12.200  0.2639  1.2967 -1.2108
  477MPD2    N1 7158   3.240   2.224  11.862  0.2697  0.8566  0.6951
  477MPD2    H7 7159   3.238   2.323  11.840  0.8910  0.3883 -1.4688
  478TMC3    C1 7160   3.061   2.202  11.719 -0.3958 -0.0644 -0.5645
  478TMC3    C2 7161   3.003   2.310  11.786  0.9925 -0.9387 -0.5884
  478TMC3    C3 7162   2.885   2.354  11.735  0.5100  0.9170  0.3012
  478TMC3    C4 7163   3.012   2.154  11.600  0.5326 -1.1348 -0.2025
  478TMC3    C5 7164   2.913   2.225  11.533 -0.5076 -0.2679 -0.0897
  478TMC3    C6 7165   2.850   2.329  11.602  0.3062  0.6611 -0.2377
  478TMC3     C 7166   3.169   2.140  11.785  0.4839  0.1016 -0.6937
  478TMC3     O 7167   3.176   2.020  11.768 -0.1821 -0.1071  0.3456
  478TMC3     H 7168   3.032   2.336  11.888  1.9581  0.8857 -1.3290
  478TMC3    H1 7169   3.037   2.058  11.557  0.0616 -0.0280 -2.9419
  478TMC3    H2 7170   2.758   2.375  11.566  0.1822  1.0830  0.6090
  478TMC3    C7 7171   2.885   2.189  11.390  0.2273 -0.1350  0.2219
  478TMC3    C8 7172   2.808   2.455  11.803 -0.3838  0.3287  0.0945
  478TMC3    O1 7173   2.931   2.083  11.353  0.6409  0.3989 -0.2666
  478TMC3    O2 7174   2.716   2.504  11.734 -0.1236  0.0348 -0.2913
  479MPD2     C 7175   2.017   4.149  15.475 -0.0976 -0.3354 -0.1359
  479MPD2    C1 7176   1.935   4.061  15.544 -0.2882 -0.7777 -0.1913
  479MPD2    C2 7177   1.958   4.040  15.678  0.2695 -0.4031 -0.1137
  479MPD2    C3 7178   2.054   4.120  15.745  0.6516 -0.3500 -0.1802
  479MPD2    C4 7179   2.143   4.198  15.670  0.0624  0.7549 -0.8711
  479MPD2    C5 7180   2.120   4.212  15.535  0.3704  0.3356 -0.2009
  479MPD2     H 7181   1.902   3.963  15.731 -0.2457  0.0272 -0.0339
  479MPD2    H1 7182   2.219   4.267  15.705  0.9352 -0.8922  0.4881
  479MPD2    H2 7183   1.985   4.175  15.375  2.2363 -0.2188 -0.8648
  479MPD2    H3 7184   2.174   4.293  15.488  0.4290  0.3439 -0.1180
  479MPD2     N 7185   2.067   4.125  15.890 -0.4041 -0.2375 -0.1120
  479MPD2    H5 7186   2.145   4.182  15.920 -1.7164  0.5884  1.6717
  479MPD2    N1 7187   1.828   4.000  15.479 -0.0719 -0.0060  0.2584
  479MPD2    H7 7188   1.805   4.035  15.387  0.5027 -0.1505  0.0608
  480TMC3    C1 7189   1.658   3.931  15.950  0.0245  0.0380 -0.2364
  480TMC3    C2 7190   1.594   4.029  15.882  0.6556  0.9461  0.3172
  480TMC3    C3 7191   1.669   4.139  15.856  0.2693  0.1886  0.0552
  480TMC3    C4 7192   1.787   3.928  15.996  0.4159  0.4422  0.6598
  480TMC3    C5 7193   1.852   4.049  15.977 -0.4726  0.2133  0.1903
  480TMC3    C6 7194   1.796   4.151  15.905 -0.3497  0.1301 -0.5305
  480TMC3     C 7195   1.596   3.795  15.939 -0.9880  0.3965 -0.8135
  480TMC3     O 7196   1.678   3.713  15.970  0.8778  0.1626 -0.1817
  480TMC3     H 7197   1.492   4.023  15.846  1.0907  1.6809 -1.0099
  480TMC3    H1 7198   1.837   3.857  16.060 -0.0679  0.9037  1.5534
  480TMC3    H2 7199   1.856   4.240  15.887 -0.4063  0.1068 -0.8211
  480TMC3    C7 7200   2.000   4.040  15.971 -0.1690 -0.5012 -0.3584
  480TMC3    C8 7201   1.626   4.201  15.732  0.2597 -0.3483 -0.5323
  480TMC3    O1 7202   2.057   3.961  16.045  0.5245  0.0484  0.4648
  480TMC3    O2 7203   1.523   4.165  15.684  0.0761 -0.1525 -0.1630
  481MPD2     C 7204   3.676   3.616  14.870 -0.4836  1.0169  0.2384
  481MPD2    C1 7205   3.541   3.600  14.843  0.1483 -0.0490 -0.3856
  481MPD2    C2 7206   3.460   3.516  14.921  1.4573  0.1867  0.6037
  481MPD2    C3 7207   3.515   3.472  15.044  0.0236 -0.1980  0.3491
  481MPD2    C4 7208   3.645   3.509  15.074  0.0475 -0.2334 -0.0202
  481MPD2    C5 7209   3.721   3.568  14.985  0.9603  0.3053  0.4693
  481MPD2     H 7210   3.362   3.483  14.889  1.7264  0.9063 -0.9357
  481MPD2    H1 7211   3.684   3.500  15.175  2.6005 -1.0477 -1.0834
  481MPD2    H2 7212   3.741   3.675  14.806  0.2305 -0.4073 -0.3376
  481MPD2    H3 7213   3.826   3.582  15.006  1.1039 -1.8296  1.1748
  481MPD2     N 7214   3.444   3.407  15.149 -0.1146  0.3680 -0.0772
  481MPD2    H5 7215   3.499   3.366  15.224  1.3694  1.8330 -0.3708
  481MPD2    N1 7216   3.495   3.648  14.714 -0.0909 -0.2898  0.5227
  481MPD2    H7 7217   3.406   3.618  14.674  0.6493 -1.2940 -0.3675
  482TMC3    C1 7218   3.500   3.770  14.514  0.7236 -0.4351  0.5130
  482TMC3    C2 7219   3.430   3.674  14.446  0.4539  0.1025  0.7963
  482TMC3    C3 7220   3.368   3.704  14.325  0.1096 -0.5748  0.4204
  482TMC3    C4 7221   3.498   3.898  14.468  0.4061  0.2074  0.1142
  482TMC3    C5 7222   3.423   3.927  14.353 -0.6102  0.1294  0.5919
  482TMC3    C6 7223   3.368   3.832  14.271  0.3327  0.1845  0.5616
  482TMC3     C 7224   3.563   3.742  14.642 -0.0804  0.9274 -0.3059
  482TMC3     O 7225   3.639   3.825  14.684  0.6508 -0.7810  0.5391
  482TMC3     H 7226   3.433   3.571  14.481  0.9122  0.0811  0.6860
  482TMC3    H1 7227   3.543   3.981  14.522  0.2621  1.1093 -1.1496
  482TMC3    H2 7228   3.320   3.844  14.175  3.2384  0.1180 -0.9216
  482TMC3    C7 7229   3.479   4.039  14.274 -0.3607  0.2355 -0.2473
  482TMC3    C8 7230   3.290   3.589  14.270  0.7748 -0.7375 -0.3116
  482TMC3    O1 7231   3.586   4.081  14.313  0.0004 -0.4065 -0.2086
  482TMC3    O2 7232   3.299   3.476  14.317 -0.2864  0.2897  0.0462
  483TMC3    C1 7233   1.554   2.461   1.167  0.1977  0.2597 -0.7032
  483TMC3    C2 7234   1.627   2.552   1.238 -0.4982 -0.4597  0.2090
  483TMC3    C3 7235   1.751   2.514   1.277 -0.7620 -0.9943  0.1784
  483TMC3    C4 7236   1.596   2.331   1.153  0.3000 -0.4808  0.3687
  483TMC3    C5 7237   1.717   2.299   1.215  0.2677  0.2541  0.1372
  483TMC3    C6 7238   1.799   2.387   1.276  0.0652 -0.7831 -0.3240
  483TMC3     C 7239   1.445   2.509   1.083  0.1966 -1.0506  0.0241
  483TMC3     O 7240   1.416   2.631   1.077 -0.2386  0.1067  0.1702
  483TMC3     H 7241   1.605   2.657   1.226 -0.9289 -0.5506  0.1974
  483TMC3    H1 7242   1.540   2.256   1.098  0.9201 -0.7441  0.1052
  483TMC3    H2 7243   1.902   2.378   1.309 -0.3469 -0.3518  1.1170
  483TMC3    C7 7244   1.788   2.178   1.163  0.1608  0.7132  0.0798
  483TMC3    C8 7245   1.857   2.611   1.277  0.1944 -0.1027 -0.0435
  483TMC3    O1 7246   1.907   2.177   1.192 -0.2417 -0.2281  0.1080
  483TMC3    O2 7247   1.963   2.584   1.220  0.3306  0.0378 -0.2493
  484MPD2     C 7248   4.153   0.299  12.829  0.2636 -0.2660  0.4980
  484MPD2    C1 7249   4.056   0.387  12.775  0.1402 -0.3028  0.0716
  484MPD2    C2 7250   4.098   0.488  12.684 -0.4208  0.0384 -0.5473
  484MPD2    C3 7251   4.223   0.481  12.624  0.0589  0.1030 -0.2801
  484MPD2    C4 7252   4.309   0.388  12.677  0.5729 -0.8278 -0.9750
  484MPD2    C5 7253   4.279   0.301  12.786 -0.3049 -0.0408  0.1799
  484MPD2     H 7254   4.031   0.562  12.640  1.9669  2.0235 -0.8821
  484MPD2    H1 7255   4.409   0.378  12.637  0.2383 -1.5691 -1.6033
  484MPD2    H2 7256   4.131   0.230  12.910  0.1622 -0.7757  0.0296
  484MPD2    H3 7257   4.351   0.229  12.823 -1.4647  0.1056  2.7516
  484MPD2     N 7258   4.257   0.568  12.518  0.4013 -0.3504  0.0081
  484MPD2    H5 7259   4.203   0.654  12.514  0.0459 -0.6382 -1.4176
  484MPD2    N1 7260   3.923   0.384  12.832  0.6838 -0.0620 -0.6155
  484MPD2    H7 7261   3.916   0.323  12.913 -2.6309 -0.2871 -1.0857
  485TMC3    C1 7262   4.352   0.645  12.321 -0.5330 -0.1359  0.0316
  485TMC3    C2 7263   4.409   0.755  12.372 -0.8675  0.2805 -0.6418
  485TMC3    C3 7264   4.476   0.835  12.281  0.0917  0.1422 -0.5472
  485TMC3    C4 7265   4.373   0.606  12.190  0.0678 -0.1460 -0.8242
  485TMC3    C5 7266   4.427   0.697  12.100  0.2065 -0.5398 -0.1109
  485TMC3    C6 7267   4.474   0.816  12.144  0.2219  0.3893 -0.6493
  485TMC3     C 7268   4.346   0.536  12.417  0.3677  0.9975 -0.0522
  485TMC3     O 7269   4.426   0.443  12.403 -0.5756  0.5471  0.4957
  485TMC3     H 7270   4.416   0.771  12.479 -0.6414  0.5700 -0.6987
  485TMC3    H1 7271   4.344   0.512  12.145 -0.4738 -0.2763 -0.2106
  485TMC3    H2 7272   4.519   0.887  12.076  1.6664  0.7783  0.6993
  485TMC3    C7 7273   4.527   0.627  12.014  0.7423  0.8115  0.2476
  485TMC3    C8 7274   4.607   0.858  12.331 -0.6981  0.1562  0.4857
  485TMC3    O1 7275   4.597   0.547  12.076  0.0007 -0.2914  0.4335
  485TMC3    O2 7276   4.623   0.943  12.421  0.2536 -0.9439  0.4976
  486MPD2     C 7277   1.743   4.060  12.983  0.1871  0.3713 -0.3771
  486MPD2    C1 7278   1.609   4.026  13.012 -0.4931 -0.2601  0.2438
  486MPD2    C2 7279   1.501   4.108  12.971 -0.0531  0.1766 -0.0029
  486MPD2    C3 7280   1.531   4.221  12.893 -0.1695  0.7134 -0.0257
  486MPD2    C4 7281   1.656   4.254  12.874  0.1912  0.0599  0.4155
  486MPD2    C5 7282   1.761   4.176  12.921  0.0394  0.6442 -0.4248
  486MPD2     H 7283   1.398   4.079  12.988  0.6605 -0.4999  3.1020
  486MPD2    H1 7284   1.673   4.345  12.818 -0.3437  0.3515  0.7226
  486MPD2    H2 7285   1.830   4.005  13.016  1.5034  2.6390 -0.1178
  486MPD2    H3 7286   1.863   4.207  12.901  0.5550  0.3081  1.7083
  486MPD2     N 7287   1.422   4.303  12.842  0.2430  0.3195  0.0258
  486MPD2    H5 7288   1.453   4.384  12.790  1.2473  0.7520  1.2728
  486MPD2    N1 7289   1.587   3.899  13.089  0.1327  0.2591 -0.0113
  486MPD2    H7 7290   1.663   3.857  13.142 -1.1946  1.4316  2.8584
  487TMC3    C1 7291   1.476   3.720  13.193  0.2931  0.0352  1.0160
  487TMC3    C2 7292   1.399   3.612  13.161  0.4848 -0.3141  0.5909
  487TMC3    C3 7293   1.399   3.508  13.249 -0.5662  0.2023  0.4187
  487TMC3    C4 7294   1.535   3.735  13.320  0.2256  0.2928  0.0229
  487TMC3    C5 7295   1.547   3.620  13.393  0.0852  0.1545  0.2258
  487TMC3    C6 7296   1.493   3.504  13.348  0.1516 -0.9465 -1.0128
  487TMC3     C 7297   1.469   3.829  13.097  0.2422  0.0819 -0.3003
  487TMC3     O 7298   1.362   3.846  13.036 -0.4219 -0.3605  0.0547
  487TMC3     H 7299   1.362   3.607  13.059 -3.2414 -0.3597  1.9799
  487TMC3    H1 7300   1.593   3.823  13.345  0.5956  0.0395  0.0676
  487TMC3    H2 7301   1.498   3.422  13.419 -2.2127 -1.5702 -1.5871
  487TMC3    C7 7302   1.553   3.642  13.538 -0.0301  0.5318 -0.0572
  487TMC3    C8 7303   1.269   3.473  13.310  0.2955  0.3451 -0.4994
  487TMC3    O1 7304   1.610   3.742  13.584 -0.1966 -0.3239  0.1480
  487TMC3    O2 7305   1.265   3.423  13.421  0.4715  0.3095  0.7904
  488MPD2     C 7306   1.229   0.793  16.122  0.1095  0.0758 -0.0205
  488MPD2    C1 7307   1.277   0.912  16.164  0.0557  0.3466 -0.8625
  488MPD2    C2 7308   1.253   0.940  16.297 -0.4481  0.1665 -0.0122
  488MPD2    C3 7309   1.162   0.873  16.373  0.3235 -0.4397 -0.3590
  488MPD2    C4 7310   1.103   0.761  16.321  0.1032 -0.1051  0.0292
  488MPD2    C5 7311   1.136   0.722  16.192  0.0242 -0.1092 -0.3018
  488MPD2     H 7312   1.297   1.028  16.342  0.4207  0.2806 -1.0905
  488MPD2    H1 7313   1.032   0.702  16.378  1.3884 -1.2345  0.4647
  488MPD2    H2 7314   1.247   0.756  16.021  0.6686  0.1266  0.0580
  488MPD2    H3 7315   1.082   0.643  16.140 -0.1710  1.1329 -2.0018
  488MPD2     N 7316   1.136   0.925  16.503 -0.2239  0.4018  0.1360
  488MPD2    H5 7317   1.199   0.998  16.536  0.1281  0.9864 -1.8831
  488MPD2    N1 7318   1.371   0.981  16.083  0.1500  0.3473 -0.0345
  488MPD2    H7 7319   1.400   1.074  16.110  0.8869 -0.4288  1.8641
  489TMC3    C1 7320   1.059   0.945  16.716  0.0697 -0.3974 -0.3133
  489TMC3    C2 7321   1.099   1.076  16.715  0.0092 -0.0803  0.8062
  489TMC3    C3 7322   1.151   1.129  16.827  0.5390 -0.7679 -0.0417
  489TMC3    C4 7323   1.070   0.872  16.828  0.0759 -0.5074  0.7678
  489TMC3    C5 7324   1.097   0.927  16.951 -0.0476  0.1988  0.0601
  489TMC3    C6 7325   1.144   1.059  16.947 -0.1015 -0.2034  0.4106
  489TMC3     C 7326   1.039   0.870  16.593 -0.1198  0.1860  0.7609
  489TMC3     O 7327   0.967   0.775  16.592  0.4271  0.4233  0.2588
  489TMC3     H 7328   1.104   1.126  16.619  0.0733 -1.3067  0.1732
  489TMC3    H1 7329   1.043   0.767  16.830 -1.4645 -0.1623 -2.2933
  489TMC3    H2 7330   1.188   1.089  17.042  0.9861 -0.1597 -0.1092
  489TMC3    C7 7331   1.172   0.847  17.049 -0.3621  0.7439 -0.6157
  489TMC3    C8 7332   1.180   1.271  16.820  0.1472  0.8933 -0.3950
  489TMC3    O1 7333   1.223   0.908  17.139 -0.4833  0.0675  0.5277
  489TMC3    O2 7334   1.111   1.321  16.733 -1.1569  0.3108 -0.0874
  490MPD2     C 7335   1.980   0.374  17.132 -0.0919 -0.5167 -0.9184
  490MPD2    C1 7336   2.048   0.298  17.226  0.9110  0.3057 -0.5213
  490MPD2    C2 7337   2.107   0.363  17.334 -0.2569  0.5138 -0.3123
  490MPD2    C3 7338   2.122   0.498  17.336 -0.2190  0.2159  0.8451
  490MPD2    C4 7339   2.077   0.568  17.227  0.5685 -0.0989  0.3205
  490MPD2    C5 7340   1.989   0.506  17.139 -0.3102  0.1731 -0.0138
  490MPD2     H 7341   2.143   0.300  17.414 -0.2615 -0.6443 -1.2173
  490MPD2    H1 7342   2.100   0.672  17.204  1.0153 -0.0117  1.1313
  490MPD2    H2 7343   1.931   0.330  17.046 -0.6979  0.0608 -0.8661
  490MPD2    H3 7344   1.963   0.566  17.052  0.1393 -0.1932 -0.4007
  490MPD2     N 7345   2.198   0.562  17.440 -0.2042 -0.2758  0.5309
  490MPD2    H5 7346   2.229   0.656  17.417 -2.8125  0.0574 -1.6604
  490MPD2    N1 7347   2.048   0.160  17.239  0.4689 -0.4946  0.0127
  490MPD2    H7 7348   2.099   0.124  17.319  2.0577  0.5969 -0.5136
  491TMC3    C1 7349   1.982   4.681  17.200 -0.2916 -0.0066  0.5981
  491TMC3    C2 7350   1.991   4.648  17.334  1.1863  0.2207  0.5076
  491TMC3    C3 7351   2.052   4.532  17.363  0.4616  0.0034  0.7299
  491TMC3    C4 7352   1.995   4.586  17.104  0.2809  0.0110  0.0072
  491TMC3    C5 7353   2.049   4.462  17.135 -0.3806  0.7487  0.2547
  491TMC3    C6 7354   2.069   4.437  17.269  0.5540  0.1952  0.5289
  491TMC3     C 7355   1.978   0.078  17.158  0.2130 -0.7879  0.2174
  491TMC3     O 7356   1.944   0.099  17.039 -0.0707 -0.3715 -0.2252
  491TMC3     H 7357   1.962   4.712  17.417  0.2117  0.0089  0.3343
  491TMC3    H1 7358   1.966   4.610  17.002 -0.8058  0.4825  0.4370
  491TMC3    H2 7359   2.121   4.345  17.293 -1.7712 -1.5273 -0.9754
  491TMC3    C7 7360   2.007   4.347  17.056  0.3109 -0.3545  0.7480
  491TMC3    C8 7361   2.095   4.516  17.499  0.3620  0.1973  0.3033
  491TMC3    O1 7362   1.997   4.238  17.108  0.1295  0.5586  0.1149
  491TMC3    O2 7363   2.083   4.615  17.571 -0.8767 -0.0115 -0.1855
  492MPD2     C 7364   2.521   0.971  11.830 -0.9799  0.6646 -0.0025
  492MPD2    C1 7365   2.464   0.881  11.743 -0.1085  0.4112 -0.3365
  492MPD2    C2 7366   2.420   0.754  11.792 -0.1478  0.0778 -0.2083
  492MPD2    C3 7367   2.420   0.726  11.933  0.1495 -0.5499 -0.0153
  492MPD2    C4 7368   2.473   0.823  12.018  0.4784 -0.1167 -0.3228
  492MPD2    C5 7369   2.514   0.945  11.964 -0.1806 -0.0889  0.6097
  492MPD2     H 7370   2.371   0.679  11.732 -0.5905  1.2057 -1.2623
  492MPD2    H1 7371   2.466   0.820  12.126  0.4287  1.2709 -0.2902
  492MPD2    H2 7372   2.543   1.073  11.801 -2.3707  1.0175  0.1374
  492MPD2    H3 7373   2.536   1.027  12.031 -2.0962  1.6711 -0.8954
  492MPD2     N 7374   2.357   0.615  11.996  0.3718  0.6280  0.3145
  492MPD2    H5 7375   2.356   0.611  12.098  0.7046  0.9197  0.3298
  492MPD2    N1 7376   2.440   0.922  11.612 -0.3847  0.4924  0.6210
  492MPD2    H7 7377   2.484   1.004  11.573 -0.0964  0.5541  1.0771
  493TMC3    C1 7378   2.405   0.885  11.383 -0.0111 -0.2716 -0.5783
  493TMC3    C2 7379   2.491   0.994  11.342  0.6531 -0.8690  0.4425
  493TMC3    C3 7380   2.503   1.031  11.209  0.1874 -0.3630 -0.0091
  493TMC3    C4 7381   2.344   0.812  11.283  0.2122  0.7250  0.7450
  493TMC3    C5 7382   2.387   0.835  11.159  0.2719  0.0020 -0.3282
  493TMC3    C6 7383   2.458   0.944  11.119 -0.5914 -0.0499  0.3410
  493TMC3     C 7384   2.375   0.837  11.518  0.0836  0.1027 -0.0279
  493TMC3     O 7385   2.310   0.738  11.531 -0.6309  0.1092 -0.3495
  493TMC3     H 7386   2.542   1.045  11.424  0.4165  0.7125 -0.3888
  493TMC3    H1 7387   2.291   0.721  11.306 -0.3304  0.4346 -1.6104
  493TMC3    H2 7388   2.466   0.962  11.012 -1.2596 -0.9828  0.1258
  493TMC3    C7 7389   2.362   0.725  11.066  0.6123  0.3062 -1.2707
  493TMC3    C8 7390   2.586   1.149  11.175  0.1150  0.5048 -0.0841
  493TMC3    O1 7391   2.337   0.748  10.951 -0.2522 -0.5177 -0.1976
  493TMC3    O2 7392   2.647   1.203  11.265  0.6078 -0.5061  0.0180
  494TMC3    C1 7393   3.138   2.609   0.604  0.1066 -0.3352 -0.4021
  494TMC3    C2 7394   3.111   2.476   0.626  0.4527  0.0519 -0.3143
  494TMC3    C3 7395   3.059   2.404   0.524  0.5100 -0.5467 -0.1040
  494TMC3    C4 7396   3.111   2.678   0.487 -0.2647 -0.0622  0.1807
  494TMC3    C5 7397   3.064   2.600   0.388  0.0655  0.3145  0.1619
  494TMC3    C6 7398   3.031   2.467   0.403 -0.5717  0.1172 -0.0173
  494TMC3     C 7399   3.128   2.677   0.732  0.2431  0.5870  0.1648
  494TMC3     O 7400   3.180   2.632   0.834  0.2689 -0.3494  0.5260
  494TMC3     H 7401   3.126   2.430   0.723 -1.0636 -0.7424 -0.4580
  494TMC3    H1 7402   3.154   2.774   0.463  3.6930 -1.8300  0.1244
  494TMC3    H2 7403   2.983   2.419   0.318  1.9407  0.4103 -1.6109
  494TMC3    C7 7404   3.075   2.642   0.251  0.1889 -0.5423 -0.4370
  494TMC3    C8 7405   3.074   2.260   0.528 -0.3916 -0.0757  0.0998
  494TMC3    O1 7406   3.058   2.564   0.162  0.1956  0.5721  0.4381
  494TMC3    O2 7407   3.097   2.212   0.640  0.2882  0.1945  0.0488
  495TMC3    C1 7408   2.199   4.428  15.112  0.2350  0.0320  0.6154
  495TMC3    C2 7409   2.154   4.516  15.021 -0.0878 -0.2306 -0.2023
  495TMC3    C3 7410   2.121   4.634  15.076  0.3006  0.5495  0.5627
  495TMC3    C4 7411   2.202   4.456  15.248  0.2504 -0.1770  0.8348
  495TMC3    C5 7412   2.167   4.574  15.300 -0.4055 -0.8519  0.2082
  495TMC3    C6 7413   2.130   4.668  15.208  0.5629  0.2689 -0.4328
  495TMC3     C 7414   2.203   4.291  15.080  0.0016  0.8677  0.3695
  495TMC3     O 7415   2.184   4.218  15.176 -0.0236 -0.1617  0.1713
  495TMC3     H 7416   2.113   4.494  14.923  0.0013  3.6648 -1.1054
  495TMC3    H1 7417   2.237   4.382  15.320  0.9209 -1.5125 -0.8652
  495TMC3    H2 7418   2.092   0.020  15.249  0.3410 -0.0557  0.0997
  495TMC3    C7 7419   2.074   4.559  15.409  0.2932  0.0161 -0.0594
  495TMC3    C8 7420   2.005   4.691  15.016  0.1806 -0.7372 -0.2368
  495TMC3    O1 7421   2.121   4.520  15.515 -0.8825  0.2617 -0.0049
  495TMC3    O2 7422   1.913   4.714  15.095 -0.2640  0.5103  0.2811
  496MPD2     C 7423   3.572   4.185  15.153 -0.3197 -0.7232 -0.1131
  496MPD2    C1 7424   3.622   4.139  15.268  0.3323  0.2735 -0.0084
  496MPD2    C2 7425   3.539   4.112  15.377 -0.8713  0.1217  0.3959
  496MPD2    C3 7426   3.400   4.128  15.370 -0.6108 -0.2793  0.2794
  496MPD2    C4 7427   3.353   4.162  15.244  0.0183 -0.0489  0.4293
  496MPD2    C5 7428   3.440   4.195  15.145  0.1270  0.2993 -0.1270
  496MPD2     H 7429   3.583   4.069  15.466  1.2793  1.4632 -0.0252
  496MPD2    H1 7430   3.246   4.174  15.229 -0.3683 -1.3221  2.2053
  496MPD2    H2 7431   3.635   4.194  15.065  1.4957  1.1369  1.3763
  496MPD2    H3 7432   3.394   4.221  15.050 -0.3664  3.7147  1.0359
  496MPD2     N 7433   3.311   4.102  15.481  0.3185  0.2607 -0.6441
  496MPD2    H5 7434   3.214   4.082  15.458  0.2235 -1.1941  1.0234
  496MPD2    N1 7435   3.758   4.120  15.266  0.3186 -0.6264 -0.2322
  496MPD2    H7 7436   3.798   4.119  15.173  0.7039  0.5201 -0.0696
  497TMC3    C1 7437   3.259   4.056  15.713  0.2540  0.4977  0.4696
  497TMC3    C2 7438   3.130   4.083  15.699 -0.0237  0.3114  0.4051
  497TMC3    C3 7439   3.054   4.093  15.814  0.4191  0.1367  0.0384
  497TMC3    C4 7440   3.310   4.024  15.837 -0.4717  0.5275 -0.2429
  497TMC3    C5 7441   3.231   4.035  15.943  0.8286  0.1957  0.4331
  497TMC3    C6 7442   3.103   4.063  15.937 -0.1996  0.0759 -0.7967
  497TMC3     C 7443   3.358   4.091  15.614 -0.6595  0.4629  0.1789
  497TMC3     O 7444   3.468   4.114  15.662 -0.2500  0.5871 -0.3096
  497TMC3     H 7445   3.092   4.098  15.599  1.2930 -0.8894 -0.2586
  497TMC3    H1 7446   3.413   3.994  15.846 -1.7473 -3.9737 -0.5486
  497TMC3    H2 7447   3.060   4.093  16.032  0.5559  0.8508 -0.6992
  497TMC3    C7 7448   3.282   4.009  16.076  0.1667 -0.8498  1.1216
  497TMC3    C8 7449   2.914   4.105  15.792 -0.1221 -1.6988  0.6582
  497TMC3    O1 7450   3.207   3.965  16.162 -0.2492  0.6867 -0.4434
  497TMC3    O2 7451   2.867   4.115  15.680 -0.1383 -0.1660 -0.7538
  498MPD2     C 7452   0.446   0.422  10.074  0.0811 -0.7215  0.2983
  498MPD2    C1 7453   0.406   0.490  10.187  0.9808 -0.1846  0.7009
  498MPD2    C2 7454   0.301   0.440  10.266  0.2645  0.4155  0.1109
  498MPD2    C3 7455   0.234   0.332  10.216  0.5317  0.8331  0.4126
  498MPD2    C4 7456   0.274   0.265  10.102  0.7223 -0.1975 -1.1010
  498MPD2    C5 7457   0.388   0.303  10.038 -0.2918  0.3421  0.4518
  498MPD2     H 7458   0.265   0.499  10.349 -0.6688 -0.0616  0.0369
  498MPD2    H1 7459   0.241   0.166  10.075  0.0237 -0.6271  1.2759
  498MPD2    H2 7460   0.532   0.457  10.019  1.3043 -3.7967  0.2669
  498MPD2    H3 7461   0.437   0.251   9.957  1.0988 -0.1960  1.6472
  498MPD2     N 7462   0.120   0.285  10.291  0.2108 -0.0562 -0.0385
  498MPD2    H5 7463   0.099   0.337  10.375  0.9908  0.5296 -0.2039
  498MPD2    N1 7464   0.463   0.607  10.239 -0.5563 -0.2431  0.1983
  498MPD2    H7 7465   0.402   0.662  10.298  1.4617  1.1061  1.0316
  499TMC3    C1 7466   0.617   0.789  10.281  0.4465 -0.9146  0.4293
  499TMC3    C2 7467   0.748   0.827  10.299  0.1456  0.0218 -0.1644
  499TMC3    C3 7468   0.768   0.959  10.323  0.1151 -0.9368 -0.4238
  499TMC3    C4 7469   0.516   0.881  10.294 -0.0552  0.4425  0.0090
  499TMC3    C5 7470   0.544   1.016  10.322  1.1950 -0.0070  0.1194
  499TMC3    C6 7471   0.673   1.058  10.338  0.0597 -0.0773 -1.0632
  499TMC3     C 7472   0.588   0.654  10.230  0.3067 -0.2434 -0.1811
  499TMC3     O 7473   0.682   0.591  10.183  0.3479 -0.7473 -0.4161
  499TMC3     H 7474   0.830   0.760  10.277 -0.4109 -1.1904  1.4388
  499TMC3    H1 7475   0.421   0.852  10.250  0.2008 -0.6013  0.1567
  499TMC3    H2 7476   0.697   1.157  10.377  1.4549 -0.2757 -1.4196
  499TMC3    C7 7477   0.443   1.118  10.327  0.7621 -0.2798  0.6333
  499TMC3    C8 7478   0.910   0.991  10.342  0.5741  0.7032  0.1432
  499TMC3    O1 7479   0.478   1.234  10.319  0.1390  0.3562  0.1991
  499TMC3    O2 7480   0.993   0.911  10.302  0.2722  0.6132  0.1885
  500MPD2     C 7481   1.551   1.934  11.047  0.5184  0.3074  0.1175
  500MPD2    C1 7482   1.542   1.927  10.908  0.8906  0.0696  0.0853
  500MPD2    C2 7483   1.413   1.919  10.856 -0.2245 -0.3842 -0.8921
  500MPD2    C3 7484   1.298   1.909  10.931 -0.2096  0.2400  0.0554
  500MPD2    C4 7485   1.314   1.911  11.066  0.1765  0.4185 -0.0534
  500MPD2    C5 7486   1.436   1.926  11.122 -0.5735 -0.1062 -0.1033
  500MPD2     H 7487   1.408   1.937  10.749 -1.9006  2.3298 -0.3387
  500MPD2    H1 7488   1.224   1.911  11.126  2.5653  0.1287  3.5312
  500MPD2    H2 7489   1.646   1.958  11.093  0.7651 -1.4618  0.5314
  500MPD2    H3 7490   1.449   1.942  11.229  0.4699  0.2299 -0.2765
  500MPD2     N 7491   1.167   1.897  10.879 -0.0141 -0.4655  0.0415
  500MPD2    H5 7492   1.088   1.895  10.942  0.2666 -0.0683  0.4019
  500MPD2    N1 7493   1.649   1.928  10.820 -0.3166 -0.0865 -0.8322
  500MPD2    H7 7494   1.622   1.943  10.723 -0.2129 -1.0431 -1.0076
  501TMC3    C1 7495   1.856   1.859  10.736 -0.7201  0.0456  1.1706
  501TMC3    C2 7496   1.847   1.950  10.630  0.1730  0.1969 -0.5816
  501TMC3    C3 7497   1.953   1.945  10.534  0.4376 -0.5777  0.0854
  501TMC3    C4 7498   1.970   1.793  10.767 -0.6387 -0.5213  0.3538
  501TMC3    C5 7499   2.074   1.805  10.681  0.0870  0.1078 -0.3415
  501TMC3    C6 7500   2.066   1.871  10.558  0.6023 -0.4306 -0.2277
  501TMC3     C 7501   1.777   1.900  10.849  0.1761 -0.1620 -0.0940
  501TMC3     O 7502   1.825   1.866  10.957  0.0732 -0.0053 -0.2079
  501TMC3     H 7503   1.760   2.009  10.604 -0.4984 -0.6499 -0.2833
  501TMC3    H1 7504   1.983   1.732  10.855 -2.6096  0.6485  1.4593
  501TMC3    H2 7505   2.143   1.861  10.482 -0.0862 -1.6795 -0.7527
  501TMC3    C7 7506   2.208   1.753  10.722  0.1234 -0.9148  0.3485
  501TMC3    C8 7507   1.925   1.991  10.395 -0.3276  0.7799  0.0449
  501TMC3    O1 7508   2.205   1.678  10.818  0.3734 -0.1611 -0.0106
  501TMC3    O2 7509   1.989   1.941  10.303 -0.1171 -0.5272 -0.1720
  502TMC3    C1 7510   1.273   0.280  15.516  0.1778  0.2800  0.6829
  502TMC3    C2 7511   1.307   0.386  15.429 -0.4896 -0.3656 -1.1492
  502TMC3    C3 7512   1.220   0.425  15.332 -0.0220  0.3860 -0.1335
  502TMC3    C4 7513   1.161   0.208  15.492  1.1803 -0.3937  0.1319
  502TMC3    C5 7514   1.070   0.257  15.396  0.8612 -0.3081  0.2689
  502TMC3    C6 7515   1.097   0.366  15.318 -0.4205  0.4415 -0.2106
  502TMC3     C 7516   1.357   0.248  15.633 -0.1036  0.2600  0.5694
  502TMC3     O 7517   1.459   0.316  15.644  0.1940 -0.2798 -0.4559
  502TMC3     H 7518   1.396   0.440  15.457 -0.6580  0.5415 -2.3503
  502TMC3    H1 7519   1.142   0.111  15.537  2.3451 -0.5118  0.3508
  502TMC3    H2 7520   1.028   0.409  15.247 -0.8367 -1.6664 -1.0899
  502TMC3    C7 7521   0.956   0.164  15.364  0.1394  0.1301 -0.4089
  502TMC3    C8 7522   1.256   0.525  15.228  0.5426  0.1185  0.3035
  502TMC3    O1 7523   0.978   0.044  15.354  0.2874 -0.5279 -0.0637
  502TMC3    O2 7524   1.172   0.537  15.138 -0.3083  0.5834 -0.4847
  503MPD2     C 7525   3.335   1.099  16.737 -0.2084  0.2239 -0.5483
  503MPD2    C1 7526   3.369   1.145  16.864  0.2077 -0.1079 -0.3783
  503MPD2    C2 7527   3.431   1.056  16.949  0.0926 -0.3621 -0.2515
  503MPD2    C3 7528   3.455   0.929  16.919  0.6701 -0.2206  0.5306
  503MPD2    C4 7529   3.425   0.881  16.797 -0.0866 -0.2641  0.5593
  503MPD2    C5 7530   3.368   0.970  16.711  0.2254 -0.0967 -0.6554
  503MPD2     H 7531   3.467   1.098  17.043 -1.3851 -0.8290  0.5286
  503MPD2    H1 7532   3.447   0.779  16.767 -0.0103 -0.2755  0.6521
  503MPD2    H2 7533   3.285   1.159  16.661 -1.6698 -1.4840 -0.9416
  503MPD2    H3 7534   3.344   0.939  16.610 -0.0149  1.2325 -1.0075
  503MPD2     N 7535   3.523   0.858  17.021  0.2317 -0.3359  0.0983
  503MPD2    H5 7536   3.561   0.908  17.101 -0.0547 -0.6479  0.4304
  503MPD2    N1 7537   3.353   1.275  16.904 -0.1645  0.4258 -0.1460
  503MPD2    H7 7538   3.373   1.288  17.002  1.0976 -0.8278 -0.2319
  504TMC3    C1 7539   3.639   0.701  17.128 -0.1871 -0.7472 -0.9936
  504TMC3    C2 7540   3.616   0.583  17.190 -0.3488 -0.0561  0.7477
  504TMC3    C3 7541   3.724   0.536  17.266  0.4070  0.2840  0.1994
  504TMC3    C4 7542   3.748   0.782  17.139  0.5582  0.2108  0.2771
  504TMC3    C5 7543   3.850   0.724  17.208 -0.6321 -0.2893 -0.3746
  504TMC3    C6 7544   3.835   0.607  17.275  0.2941 -0.0384 -0.1841
  504TMC3     C 7545   3.552   0.725  17.017  0.8840  0.6689  0.4046
  504TMC3     O 7546   3.489   0.635  16.959  0.0645 -0.2695 -0.0679
  504TMC3     H 7547   3.526   0.525  17.181 -1.3420  1.6451 -0.2187
  504TMC3    H1 7548   3.762   0.875  17.085  0.6427 -0.1693 -0.3562
  504TMC3    H2 7549   3.917   0.573  17.337 -1.2558  1.4504  2.6659
  504TMC3    C7 7550   3.992   0.775  17.189 -0.9834 -0.3296 -0.0369
  504TMC3    C8 7551   3.711   0.407  17.338  0.1012  0.2692 -0.0847
  504TMC3    O1 7552   4.017   0.834  17.087  0.2150 -0.1624 -0.3095
  504TMC3    O2 7553   3.635   0.327  17.292 -0.2903 -0.6163 -0.3698
  505MPD2     C 7554   4.064   4.291  11.122  0.5362  0.2546 -0.3326
  505MPD2    C1 7555   4.103   4.184  11.046 -0.2229 -0.4199  0.9865
  505MPD2    C2 7556   4.229   4.137  11.053  0.3107 -0.0012  0.2527
  505MPD2    C3 7557   4.315   4.185  11.143 -0.0480 -0.9705 -0.4432
  505MPD2    C4 7558   4.275   4.294  11.225 -0.8317  0.3401  0.0352
  505MPD2    C5 7559   4.152   4.346  11.208 -0.2176  0.2076  0.7016
  505MPD2     H 7560   4.265   4.052  10.995  2.3199  1.3554 -0.4849
  505MPD2    H1 7561   4.346   4.342  11.290  2.3816 -3.0314 -0.9789
  505MPD2    H2 7562   3.962   4.328  11.122  1.2493  2.2268  1.1714
  505MPD2    H3 7563   4.124   4.433  11.267  1.4714  0.4049  1.2253
  505MPD2     N 7564   4.450   4.149  11.150 -0.5797  0.3436 -0.5525
  505MPD2    H5 7565   4.512   4.224  11.177  1.6348 -1.4426 -0.5685
  505MPD2    N1 7566   4.010   4.132  10.955 -0.3125  0.1600  0.5677
  505MPD2    H7 7567   3.924   4.184  10.949 -1.8601 -2.3583  0.7576
  506TMC3    C1 7568   3.936   4.002  10.774 -0.2022 -0.3407 -0.8368
  506TMC3    C2 7569   3.923   4.111  10.692  0.2766 -0.0173  0.1301
  506TMC3    C3 7570   3.904   4.083  10.561  0.2953  0.0530 -0.0909
  506TMC3    C4 7571   3.940   3.876  10.728 -0.0670  0.2957  0.5939
  506TMC3    C5 7572   3.925   3.851  10.599 -0.7328  0.2783  0.1833
  506TMC3    C6 7573   3.901   3.955  10.510 -0.4697 -0.2900  0.0502
  506TMC3     C 7574   4.031   4.021  10.878  0.4948 -1.0813 -0.3589
  506TMC3     O 7575   4.113   3.932  10.875  0.0958 -0.1061 -0.0177
  506TMC3     H 7576   3.923   4.212  10.731  2.7395  0.5115 -1.2749
  506TMC3    H1 7577   3.962   3.792  10.793 -0.7346  1.0318  1.7601
  506TMC3    H2 7578   3.903   3.937  10.403 -2.3371  2.3763 -0.4264
  506TMC3    C7 7579   4.040   3.765  10.558  0.6668  0.6387 -0.1378
  506TMC3    C8 7580   3.898   4.180  10.454 -0.2399 -0.3960  0.3020
  506TMC3    O1 7581   4.034   3.714  10.445  0.4390  0.5871  0.1641
  506TMC3    O2 7582   3.825   4.156  10.359  0.9300  0.7115 -1.7556
  507TMC3    C1 7583   4.233   0.522  15.417 -0.2296 -0.6828  0.4467
  507TMC3    C2 7584   4.093   0.518  15.438  0.1646  0.1819  0.0062
  507TMC3    C3 7585   4.007   0.534  15.331 -0.6842 -0.2409  0.3556
  507TMC3    C4 7586   4.282   0.540  15.290 -0.2033 -0.2153  0.0957
  507TMC3    C5 7587   4.190   0.527  15.185 -0.8879  0.1624  1.2529
  507TMC3    C6 7588   4.049   0.523  15.203  0.2119  0.4632 -0.6148
  507TMC3     C 7589   4.305   0.426  15.500  0.1537 -0.1051 -0.4589
  507TMC3     O 7590   4.426   0.422  15.480 -0.0689 -0.2343  0.1781
  507TMC3     H 7591   4.065   0.523  15.542 -0.7572  0.9127 -0.2802
  507TMC3    H1 7592   4.390   0.552  15.284  0.0673 -2.7883 -0.0524
  507TMC3    H2 7593   3.984   0.514  15.117  2.4854 -0.3661 -2.2488
  507TMC3    C7 7594   4.215   0.618  15.077  1.1844  0.7005 -0.1122
  507TMC3    C8 7595   3.909   0.645  15.344  0.8257  0.2594 -0.2879
  507TMC3    O1 7596   4.125   0.683  15.032  0.3743 -0.3575 -0.3161
  507TMC3    O2 7597   3.852   0.654  15.451  0.1282 -0.2195  0.2247
  508MPD2     C 7598   4.721   3.166  16.224  0.2567 -0.4718  0.7236
  508MPD2    C1 7599   0.108   3.140  16.188  0.2024  0.5682 -0.2433
  508MPD2    C2 7600   0.146   3.162  16.056  0.2495 -0.1798  0.2123
  508MPD2    C3 7601   0.062   3.195  15.954  0.4450  0.6670  0.1033
  508MPD2    C4 7602   4.677   3.242  15.987 -0.1354 -0.3135  0.5718
  508MPD2    C5 7603   4.638   3.212  16.117  0.1841 -0.8113 -1.1529
  508MPD2     H 7604   0.250   3.144  16.031 -0.3737 -1.5699 -1.3660
  508MPD2    H1 7605   4.600   3.271  15.916  2.6650  2.0495 -1.4892
  508MPD2    H2 7606   4.688   3.171  16.327 -0.9798 -0.7736  0.3409
  508MPD2    H3 7607   4.537   3.235  16.147  1.7001  1.1483  2.5519
  508MPD2     N 7608   0.116   3.204  15.826 -0.3879 -0.2105 -0.6251
  508MPD2    H5 7609   0.212   3.174  15.817  0.3073  0.9072  2.8419
  508MPD2    N1 7610   0.205   3.119  16.286  0.3377  0.0618 -0.1179
  508MPD2    H7 7611   0.172   3.128  16.381  1.8858 -0.0689  0.4222
  509TMC3    C1 7612   0.130   3.404  15.434  0.2604  0.8429  0.2748
  509TMC3    C2 7613   0.269   3.396  15.436 -0.3738  0.8536 -0.3196
  509TMC3    C3 7614   0.316   3.286  15.506  0.0564 -0.0229  0.3663
  509TMC3    C4 7615   0.048   3.324  15.501 -0.0286 -0.0642 -0.1374
  509TMC3    C5 7616   0.103   3.228  15.585  0.7562  0.3007 -0.3353
  509TMC3    C6 7617   0.235   3.198  15.574 -0.2573 -0.3331  0.8177
  509TMC3     C 7618   0.060   3.531  15.387  1.3618 -0.1237  0.2576
  509TMC3     O 7619   4.682   3.535  15.397 -0.1167  0.4183 -0.3812
  509TMC3     H 7620   0.334   3.461  15.378  0.5069  1.6116  1.4818
  509TMC3    H1 7621   4.681   3.335  15.489  0.3651  2.3170 -1.4910
  509TMC3    H2 7622   0.267   3.104  15.619  2.1384  0.6896  1.2509
  509TMC3    C7 7623   0.036   3.233  15.715  0.1564  0.3293  0.2786
  509TMC3    C8 7624   0.454   3.252  15.508 -0.5577 -0.1332  0.8309
  509TMC3    O1 7625   4.660   3.262  15.705  0.3845 -0.0961 -0.0245
  509TMC3    O2 7626   0.484   3.131  15.533  0.3415 -0.2361 -0.2360
  510MPD2     C 7627   3.026   0.174  14.824  0.1069  0.1462  0.1834
  510MPD2    C1 7628   3.078   0.048  14.844 -0.4717 -0.2068  0.4842
  510MPD2    C2 7629   3.201   0.020  14.797 -0.1221 -0.3334 -0.4606
  510MPD2    C3 7630   3.273   0.117  14.725 -0.0220  0.1889 -0.7863
  510MPD2    C4 7631   3.206   0.227  14.676 -0.9035  0.5227  0.6778
  510MPD2    C5 7632   3.085   0.253  14.726  0.1849  0.3769 -0.2724
  510MPD2     H 7633   3.253   4.668  14.820 -2.4503 -1.2304  1.2828
  510MPD2    H1 7634   3.247   0.306  14.614  1.8394  0.2181  2.0874
  510MPD2    H2 7635   2.924   0.188  14.859  0.2575 -1.4744  1.2642
  510MPD2    H3 7636   3.035   0.341  14.689  0.3276 -0.0941 -1.5727
  510MPD2     N 7637   3.403   0.083  14.686  0.5343 -0.4188 -0.2138
  510MPD2    H5 7638   3.437   0.001  14.735  0.0232 -0.3409  0.2785
  510MPD2    N1 7639   3.003   4.697  14.919 -0.5361  0.2749 -0.2863
  510MPD2    H7 7640   2.911   4.731  14.946 -0.0169  2.4816 -1.3313
  511TMC3    C1 7641   2.976   4.498  15.053  0.4998  0.6005 -0.4405
  511TMC3    C2 7642   2.892   4.563  15.144  0.5733 -0.6312 -0.0494
  511TMC3    C3 7643   2.871   4.496  15.265  0.3425  0.0612  0.2751
  511TMC3    C4 7644   3.009   4.368  15.068  0.0367 -1.3224  0.1354
  511TMC3    C5 7645   2.956   4.302  15.174 -0.6149 -0.5405 -0.2597
  511TMC3    C6 7646   2.888   4.360  15.283  0.0650 -0.0812 -0.1971
  511TMC3     C 7647   3.038   4.565  14.944 -0.8009 -0.0401 -0.6642
  511TMC3     O 7648   3.118   4.495  14.884  0.2353  0.6206  1.1828
  511TMC3     H 7649   2.867   4.667  15.125  3.6306 -0.4601 -3.1172
  511TMC3    H1 7650   3.072   4.319  14.995  3.0735 -0.1496  1.9476
  511TMC3    H2 7651   2.858   4.300  15.368 -0.9193 -0.8900 -1.1105
  511TMC3    C7 7652   2.965   4.156  15.160  0.2402 -0.1824  0.0105
  511TMC3    C8 7653   2.812   4.569  15.375  0.6805  0.7050  0.4595
  511TMC3    O1 7654   3.056   4.108  15.093  0.1874  0.2602  0.5957
  511TMC3    O2 7655   2.775   4.685  15.362  0.5481  0.2012  0.0524
  512TMC3    C1 7656   1.991   4.126  13.996  0.3823 -0.5743 -0.0195
  512TMC3    C2 7657   2.105   4.128  13.924  0.3035 -0.4207 -0.3293
  512TMC3    C3 7658   2.142   4.009  13.860  0.0447 -0.1088  0.1162
  512TMC3    C4 7659   1.909   4.011  14.003  0.2737 -0.0956 -0.5552
  512TMC3    C5 7660   1.943   3.901  13.935 -0.6116  0.3742 -0.1000
  512TMC3    C6 7661   2.063   3.895  13.863 -0.4783  0.4940 -0.0618
  512TMC3     C 7662   1.964   4.255  14.064 -0.1187 -1.2384  0.0519
  512TMC3     O 7663   2.037   4.350  14.031 -0.4290 -0.2472  0.7043
  512TMC3     H 7664   2.161   4.218  13.900 -0.6010 -0.0697 -1.1482
  512TMC3    H1 7665   1.816   4.007  14.059  0.4570  0.3307 -0.2174
  512TMC3    H2 7666   2.088   3.813  13.797 -0.7405 -0.0524  0.5260
  512TMC3    C7 7667   1.870   3.786  13.965  1.0600 -0.2389 -0.0856
  512TMC3    C8 7668   2.279   3.986  13.817 -0.3393  0.3877 -0.1578
  512TMC3    O1 7669   1.750   3.796  13.990 -0.6630  0.3713  0.3549
  512TMC3    O2 7670   2.302   3.876  13.767 -0.6463  0.4094  0.1527
  513MPD2     C 7671   4.005   3.550  13.971  0.6205  0.2568  0.0627
  513MPD2    C1 7672   4.080   3.631  13.893 -0.6009 -0.0753 -0.3004
  513MPD2    C2 7673   4.167   3.719  13.952 -0.4118 -0.0335 -0.5237
  513MPD2    C3 7674   4.165   3.722  14.090 -0.9862 -0.4956 -0.0303
  513MPD2    C4 7675   4.079   3.650  14.173 -0.0514  0.0690  0.2599
  513MPD2    C5 7676   4.002   3.555  14.107 -0.1857  0.5409  0.8319
  513MPD2     H 7677   4.242   3.770  13.893 -0.0421  0.3353  0.2594
  513MPD2    H1 7678   4.079   3.661  14.281 -2.2346  0.6415  0.1970
  513MPD2    H2 7679   3.930   3.482  13.932  1.6374 -0.7988 -0.0389
  513MPD2    H3 7680   3.928   3.494  14.158  0.6531 -0.8906  0.3290
  513MPD2     N 7681   4.266   3.805  14.141  0.1064  0.1388  0.0194
  513MPD2    H5 7682   4.325   3.844  14.068 -2.0754  1.7766 -0.8715
  513MPD2    N1 7683   4.107   3.614  13.758  0.0633  0.2743 -0.6287
  513MPD2    H7 7684   4.188   3.664  13.723  0.0882  1.5595  1.3167
  514TMC3    C1 7685   4.102   3.538  13.542  0.3276 -0.4935 -0.6573
  514TMC3    C2 7686   4.025   3.594  13.441 -1.0325  0.1403 -0.1192
  514TMC3    C3 7687   4.084   3.676  13.350  0.9733 -0.4436 -0.2566
  514TMC3    C4 7688   4.232   3.555  13.549 -0.6538  0.2238  0.7562
  514TMC3    C5 7689   4.290   3.643  13.457 -0.5822 -0.0016  0.1478
  514TMC3    C6 7690   4.220   3.699  13.357  0.8227 -0.2576 -0.2636
  514TMC3     C 7691   4.039   3.536  13.670 -0.1305  0.8182 -0.4574
  514TMC3     O 7692   3.922   3.489  13.682  0.0159 -0.5296  0.8361
  514TMC3     H 7693   3.917   3.580  13.439 -0.8635 -1.3157  0.8784
  514TMC3    H1 7694   4.299   3.514  13.624 -0.3817  0.1087  0.4518
  514TMC3    H2 7695   4.259   3.784  13.301  1.1554 -0.5417 -0.4659
  514TMC3    C7 7696   4.360   3.733  13.537 -0.6529 -0.0360  0.2544
  514TMC3    C8 7697   4.005   3.774  13.276  0.0923 -0.7223  0.4944
  514TMC3    O1 7698   4.300   3.771  13.640 -0.0604 -0.6353  0.2836
  514TMC3    O2 7699   3.892   3.790  13.322 -0.4516 -0.2419 -0.0106
  515MPD2     C 7700   2.129   0.452  14.419  0.0990 -0.0054  0.2266
  515MPD2    C1 7701   2.072   0.470  14.537  0.0063  0.0180  1.0707
  515MPD2    C2 7702   2.119   0.571  14.625 -0.5176  0.2332 -0.1664
  515MPD2    C3 7703   2.226   0.656  14.590 -0.5596  0.8104  0.3592
  515MPD2    C4 7704   2.275   0.643  14.459 -0.1395  0.3306  0.7446
  515MPD2    C5 7705   2.218   0.548  14.378 -0.1156  0.1681  0.1107
  515MPD2     H 7706   2.067   0.565  14.720 -1.3859 -0.4439 -0.6825
  515MPD2    H1 7707   2.345   0.709  14.408  0.1393  0.8466  1.7961
  515MPD2    H2 7708   2.101   0.374  14.350  1.9566 -0.3626 -0.1123
  515MPD2    H3 7709   2.251   0.548  14.275 -0.5812 -2.2823 -0.0371
  515MPD2     N 7710   2.280   0.757  14.677  0.3854 -0.5909 -0.0090
  515MPD2    H5 7711   2.364   0.798  14.638 -0.0312 -0.6988 -1.0392
  515MPD2    N1 7712   1.947   0.411  14.564 -0.0856 -0.0749 -0.1591
  515MPD2    H7 7713   1.914   0.434  14.657 -1.4961 -1.1921 -0.3818
  516TMC3    C1 7714   1.728   0.361  14.542 -0.2113  0.1328 -0.3015
  516TMC3    C2 7715   1.625   0.415  14.472  0.4510  0.1004 -0.4022
  516TMC3    C3 7716   1.510   0.460  14.535  0.5963 -0.1198  0.6440
  516TMC3    C4 7717   1.718   0.349  14.678  0.3535  0.1582  0.1406
  516TMC3    C5 7718   1.605   0.392  14.740 -0.2670 -0.4644 -0.7473
  516TMC3    C6 7719   1.492   0.447  14.674  0.1715 -0.3239 -0.4943
  516TMC3     C 7720   1.856   0.357  14.482 -0.5678 -0.5786 -0.0503
  516TMC3     O 7721   1.876   0.330  14.365  1.0417  0.1489 -0.0886
  516TMC3     H 7722   1.644   0.420  14.365  0.6429 -0.2871 -0.3876
  516TMC3    H1 7723   1.791   0.288  14.730 -0.6314 -0.1987  1.0964
  516TMC3    H2 7724   1.403   0.487  14.721  0.5720 -0.2601  0.2081
  516TMC3    C7 7725   1.594   0.348  14.877  0.1058 -0.9396 -0.1275
  516TMC3    C8 7726   1.424   0.553  14.472 -0.0342  0.7565 -1.0574
  516TMC3    O1 7727   1.698   0.344  14.944  0.5067 -0.3327  0.2107
  516TMC3    O2 7728   1.316   0.587  14.519  0.4222  0.3585  0.4851
  517MPD2     C 7729   2.764   2.407   0.859 -0.8040  0.2455  0.3690
  517MPD2    C1 7730   2.680   2.451   0.759  0.1778  0.7069 -0.3887
  517MPD2    C2 7731   2.612   2.571   0.764 -0.8666 -0.3542 -0.1870
  517MPD2    C3 7732   2.634   2.651   0.883 -0.3607 -0.1877 -0.7331
  517MPD2    C4 7733   2.726   2.608   0.978  0.1193  0.2941 -0.2785
  517MPD2    C5 7734   2.789   2.482   0.968 -0.4118 -0.5700  0.6474
  517MPD2     H 7735   2.544   2.597   0.684 -0.6149  0.3420 -0.1744
  517MPD2    H1 7736   2.744   2.662   1.070  0.7431 -0.5376  0.0894
  517MPD2    H2 7737   2.810   2.309   0.853 -0.3789  0.4962 -0.4977
  517MPD2    H3 7738   2.862   2.448   1.039 -0.6915 -1.4547  0.5172
  517MPD2     N 7739   2.556   2.768   0.913 -0.1519  0.1295  0.6665
  517MPD2    H5 7740   2.574   2.815   1.000 -1.2322  0.8347  0.5096
  517MPD2    N1 7741   2.649   2.372   0.647  0.1748 -0.6326 -0.0454
  517MPD2    H7 7742   2.608   2.419   0.568 -1.2020  2.2582  2.3795
  518TMC3    C1 7743   2.593   2.189   0.515 -0.1727 -0.3969 -0.1173
  518TMC3    C2 7744   2.541   2.060   0.518  0.7377 -0.0498  0.3203
  518TMC3    C3 7745   2.543   1.985   0.406 -0.2107  0.2503 -0.0206
  518TMC3    C4 7746   2.672   2.222   0.409 -0.0737 -0.2287  0.5691
  518TMC3    C5 7747   2.693   2.138   0.309  0.2312 -0.3581  0.1340
  518TMC3    C6 7748   2.626   2.018   0.299 -0.7639  0.1032  0.4052
  518TMC3     C 7749   2.650   2.239   0.644 -0.1880  0.4385 -0.0526
  518TMC3     O 7750   2.648   2.166   0.741  0.4688 -0.2143  0.1197
  518TMC3     H 7751   2.498   2.032   0.614  1.0207  0.9672  0.7475
  518TMC3    H1 7752   2.721   2.319   0.406  2.0682 -1.3042  1.0755
  518TMC3    H2 7753   2.610   1.974   0.201  1.5157 -2.3673  1.1425
  518TMC3    C7 7754   2.770   2.194   0.201 -1.0394 -1.0978 -0.5066
  518TMC3    C8 7755   2.447   1.886   0.376  0.7843  0.4055  0.3798
  518TMC3    O1 7756   2.788   2.314   0.197 -0.1323  0.6805  0.4868
  518TMC3    O2 7757   2.464   1.818   0.278 -0.1702 -0.8599  0.1142
  519MPD2     C 7758   3.315   1.034  14.464  0.8192 -0.0697  0.6493
  519MPD2    C1 7759   3.352   1.016  14.334  0.3168 -0.2393  0.4407
  519MPD2    C2 7760   3.395   0.891  14.296  0.3859  0.4373 -0.8113
  519MPD2    C3 7761   3.404   0.791  14.383 -0.5871 -0.5697 -0.5373
  519MPD2    C4 7762   3.373   0.808  14.517  0.5820  0.4698 -0.0871
  519MPD2    C5 7763   3.333   0.933  14.558 -0.3253  0.8584 -0.2563
  519MPD2     H 7764   3.420   0.872  14.192  1.0064  1.9198 -0.9319
  519MPD2    H1 7765   3.384   0.730  14.592  1.2101  1.9571  1.3729
  519MPD2    H2 7766   3.292   1.136  14.491  1.0185 -0.2697  1.5739
  519MPD2    H3 7767   3.326   0.954  14.664 -0.4279  1.8929 -0.4728
  519MPD2     N 7768   3.454   0.665  14.338  0.4137  0.0659  0.8554
  519MPD2    H5 7769   3.467   0.601  14.416  0.6587 -1.3953 -0.3720
  519MPD2    N1 7770   3.333   1.118  14.236  0.8411  0.1638  0.4439
  519MPD2    H7 7771   3.281   1.197  14.273  1.1172  0.1497  0.8581
  520TMC3    C1 7772   3.442   0.472  14.194  0.3002 -0.6817 -0.5975
  520TMC3    C2 7773   3.357   0.416  14.102 -0.2753  0.4943 -0.3966
  520TMC3    C3 7774   3.384   0.290  14.068  0.2215  0.5373  0.2348
  520TMC3    C4 7775   3.536   0.405  14.252 -0.1473  0.1432  0.2811
  520TMC3    C5 7776   3.558   0.274  14.220  0.4860 -0.2723 -0.1580
  520TMC3    C6 7777   3.479   0.211  14.131  0.3114 -0.1867 -0.5351
  520TMC3     C 7778   3.436   0.613  14.211  0.3258 -0.3282 -0.0428
  520TMC3     O 7779   3.411   0.674  14.109 -0.1463  1.0786  0.8169
  520TMC3     H 7780   3.291   0.484  14.048 -1.4492  0.6491  1.2330
  520TMC3    H1 7781   3.594   0.461  14.324  0.5260  0.0866 -0.2187
  520TMC3    H2 7782   3.490   0.106  14.108 -1.9769 -1.0361  2.3288
  520TMC3    C7 7783   3.699   0.255  14.212 -0.1979 -0.5913 -0.6365
  520TMC3    C8 7784   3.352   0.243  13.930  0.1860 -0.0044  0.0964
  520TMC3    O1 7785   3.755   0.303  14.309 -0.1528 -0.0081  0.4257
  520TMC3    O2 7786   3.422   0.150  13.886 -0.1143 -0.5329  0.4336
  521MPD2     C 7787   4.193   3.543  17.587  0.1165 -1.1461 -0.3982
  521MPD2    C1 7788   4.187   3.568  17.453 -0.2918 -0.6128  0.1462
  521MPD2    C2 7789   4.311   3.577  17.389  0.0150  0.0693  0.1158
  521MPD2    C3 7790   4.433   3.571  17.462  0.0247 -0.4039 -0.2185
  521MPD2    C4 7791   4.428   3.542  17.598  0.1979  0.5317 -0.3947
  521MPD2    C5 7792   4.306   3.532  17.660 -0.6221  1.5444 -0.2603
  521MPD2     H 7793   4.322   3.620  17.291  1.5824  1.0195  0.7219
  521MPD2    H1 7794   4.514   3.557  17.662  0.0188 -0.7438  0.1338
  521MPD2    H2 7795   4.101   3.527  17.641  1.7948  0.1225  2.8512
  521MPD2    H3 7796   4.296   3.509   0.005 -4.1366  0.4608 -0.8063
  521MPD2     N 7797   4.558   3.589  17.393 -0.2863  0.0839  0.2870
  521MPD2    H5 7798   4.547   3.591  17.293  1.2874  1.3139  0.1359
  521MPD2    N1 7799   4.063   3.574  17.386  0.6472  0.2721  0.1623
  521MPD2    H7 7800   3.981   3.585  17.446  0.7327 -0.4816  0.4188
  522TMC3    C1 7801   0.031   3.657  17.362  0.1684  0.9674 -0.7905
  522TMC3    C2 7802   0.154   3.605  17.386  0.1244  0.2391  0.0284
  522TMC3    C3 7803   0.240   3.625  17.277  0.4977 -0.4953 -0.6674
  522TMC3    C4 7804   4.726   3.738  17.253  0.3848  0.7122  0.6755
  522TMC3    C5 7805   0.074   3.743  17.143 -0.5166 -0.0844 -0.6070
  522TMC3    C6 7806   0.199   3.695  17.158 -0.0600 -0.0020 -0.0888
  522TMC3     C 7807   4.677   3.606  17.456 -0.0491 -0.1590 -0.3941
  522TMC3     O 7808   4.715   3.605  17.575 -0.1581  0.2954  0.8105
  522TMC3     H 7809   0.179   3.538  17.467  2.4062  0.3627 -0.5591
  522TMC3    H1 7810   4.625   3.778  17.249  0.4576  0.8646  0.3437
  522TMC3    H2 7811   0.269   3.704  17.076  0.1652  0.4138  0.1496
  522TMC3    C7 7812   0.042   3.831  17.027  0.4226 -0.7547 -0.4810
  522TMC3    C8 7813   0.341   3.523  17.262 -0.5244  0.2625 -0.5111
  522TMC3    O1 7814   0.140   3.869  16.965  0.2570 -0.5174 -0.5314
  522TMC3    O2 7815   0.384   3.475  17.366  0.0018 -0.2750  0.4281
  523MPD2     C 7816   2.429   3.971  10.510 -0.2191  0.3957  0.3514
  523MPD2    C1 7817   2.352   3.885  10.437 -0.1608 -0.2640 -0.1799
  523MPD2    C2 7818   2.280   3.925  10.328  0.5320  0.2117  0.2346
  523MPD2    C3 7819   2.303   4.051  10.275  0.8136 -0.0534 -0.0538
  523MPD2    C4 7820   2.387   4.135  10.344 -0.0741 -0.0934  0.0326
  523MPD2    C5 7821   2.445   4.097  10.458  0.0692 -0.4083 -0.3134
  523MPD2     H 7822   2.205   3.860  10.284  0.5649  1.0782 -1.1236
  523MPD2    H1 7823   2.418   4.234  10.310  0.6034 -0.3096  0.0235
  523MPD2    H2 7824   2.476   3.949  10.605 -0.6732 -1.7484  0.0707
  523MPD2    H3 7825   2.497   4.171  10.518 -0.5890 -0.6946  0.6211
  523MPD2     N 7826   2.233   4.109  10.164 -0.3628 -0.7468  0.3678
  523MPD2    H5 7827   2.238   4.209  10.151 -1.9342 -0.4535  2.0600
  523MPD2    N1 7828   2.325   3.759  10.492  0.4010 -0.6829  0.1024
  523MPD2    H7 7829   2.342   3.745  10.591  1.2967 -1.3664 -0.1420
  524TMC3    C1 7830   2.109   4.110   9.973 -0.4296  0.1233 -0.1792
  524TMC3    C2 7831   2.115   4.071   9.843  0.4690 -0.2665 -0.2234
  524TMC3    C3 7832   2.057   4.164   9.758 -0.6101  0.1072 -0.5474
  524TMC3    C4 7833   2.031   4.211  10.024  0.0576  0.4656 -0.0203
  524TMC3    C5 7834   1.979   4.297   9.933 -0.2194 -0.0628 -0.2036
  524TMC3    C6 7835   1.986   4.276   9.796 -0.1021 -0.1297 -0.5780
  524TMC3     C 7836   2.195   4.033  10.061  0.1865  0.3526 -0.2835
  524TMC3     O 7837   2.227   3.915  10.034 -0.4210 -0.4805  0.1519
  524TMC3     H 7838   2.204   4.016   9.813  0.0745 -0.0574 -1.7522
  524TMC3    H1 7839   2.021   4.236  10.129 -0.7629  0.1242 -0.0153
  524TMC3    H2 7840   1.928   4.332   9.723 -2.0002 -1.6533 -0.2308
  524TMC3    C7 7841   1.888   4.391   9.998 -0.0284 -0.0671  0.7269
  524TMC3    C8 7842   2.073   4.128   9.617 -0.4638  0.7165  0.0330
  524TMC3    O1 7843   1.838   4.353  10.105 -0.0173 -0.2987  0.6133
  524TMC3    O2 7844   2.093   4.220   9.541  0.3240 -0.2166 -0.0528
  525MPD2     C 7845   4.596   0.533  14.578 -0.5721  0.4893  0.1299
  525MPD2    C1 7846   4.726   0.547  14.613  0.1895  0.0702 -0.2925
  525MPD2    C2 7847   0.053   0.662  14.579  0.7259 -0.8025 -0.3844
  525MPD2    C3 7848   4.732   0.766  14.522 -0.3901 -0.1696  1.0010
  525MPD2    C4 7849   4.598   0.750  14.489  0.3368 -0.1874 -0.5443
  525MPD2    C5 7850   4.528   0.631  14.513 -0.2573  0.4320 -0.0508
  525MPD2     H 7851   0.156   0.675  14.612 -0.2436  3.9209  0.8341
  525MPD2    H1 7852   4.544   0.833  14.444 -0.0772  0.5499  1.3258
  525MPD2    H2 7853   4.524   0.458  14.609 -1.0774  1.7415  1.9996
  525MPD2    H3 7854   4.428   0.617  14.473 -0.1094  2.2582 -1.0566
  525MPD2     N 7855   0.045   0.902  14.511  0.2297 -0.3784 -0.0278
  525MPD2    H5 7856   4.724   0.980  14.490  2.1277  0.5811 -2.0230
  525MPD2    N1 7857   0.058   0.453  14.696 -0.3937 -0.8552  0.7417
  525MPD2    H7 7858   0.159   0.468  14.694 -0.7522  1.0820 -2.4640
  526TMC3    C1 7859   0.088   0.267  14.854  0.6651  0.1920  0.1104
  526TMC3    C2 7860   0.038   0.152  14.906 -0.4107 -0.5252 -0.0084
  526TMC3    C3 7861   0.128   0.064  14.964 -0.3928 -0.7939 -0.1737
  526TMC3    C4 7862   0.215   0.307  14.884 -0.4978  0.9815  0.6719
  526TMC3    C5 7863   0.299   0.222  14.942 -0.4093  0.0955  0.8015
  526TMC3    C6 7864   0.266   0.095  14.978 -0.0336  0.3965 -0.0072
  526TMC3     C 7865   0.003   0.352  14.767 -0.7127 -0.4980 -0.2829
  526TMC3     O 7866   4.629   0.310  14.759  0.5869 -0.4347 -1.0657
  526TMC3     H 7867   4.673   0.127  14.898 -0.4801  0.1087 -0.9508
  526TMC3    H1 7868   0.246   0.405  14.852 -1.9296  0.5126 -2.1215
  526TMC3    H2 7869   0.339   0.026  15.017 -0.1817 -0.5207 -1.3339
  526TMC3    C7 7870   0.430   0.274  14.974 -0.1537  0.0441 -0.2616
  526TMC3    C8 7871   0.090   4.705  15.064 -0.1241  0.4611  0.1537
  526TMC3    O1 7872   0.435   0.393  14.998  0.0817  0.4183  0.2811
  526TMC3    O2 7873   0.178   4.652  15.131 -0.2512  0.8938 -0.1778
  527MPD2     C 7874   2.891   3.288   1.444  0.7344  0.4283  0.1947
  527MPD2    C1 7875   2.906   3.349   1.322  0.1799 -0.1926  0.7670
  527MPD2    C2 7876   3.002   3.300   1.236  0.3225  0.1800 -0.3047
  527MPD2    C3 7877   3.089   3.195   1.270 -0.5376  0.7165  1.0659
  527MPD2    C4 7878   3.086   3.147   1.405 -0.4246 -0.5343  0.6200
  527MPD2    C5 7879   2.982   3.193   1.482 -0.3575 -0.2643 -0.0456
  527MPD2     H 7880   3.009   3.342   1.137 -2.6735 -2.4187 -1.6378
  527MPD2    H1 7881   3.151   3.068   1.439  0.0857 -0.0398  0.7924
  527MPD2    H2 7882   2.810   3.312   1.511  0.9927  0.9135  0.3343
  527MPD2    H3 7883   2.976   3.163   1.586 -0.7957 -1.2269 -0.3442
  527MPD2     N 7884   3.182   3.143   1.175  0.5925  0.4056  0.4622
  527MPD2    H5 7885   3.183   3.186   1.083 -2.2832 -2.5862 -0.9395
  527MPD2    N1 7886   2.822   3.455   1.273 -0.0289  0.0992  1.0072
  527MPD2    H7 7887   2.834   3.499   1.183  0.8906 -1.6018  0.2943
  528TMC3    C1 7888   2.666   3.630   1.288 -0.1602  0.2308 -0.4688
  528TMC3    C2 7889   2.754   3.723   1.235  0.2084 -0.0254 -0.0418
  528TMC3    C3 7890   2.710   3.848   1.211 -0.1225  0.3486  0.0152
  528TMC3    C4 7891   2.543   3.667   1.327 -0.2962 -0.4192 -0.1377
  528TMC3    C5 7892   2.502   3.795   1.303  0.4995  0.1343  0.1532
  528TMC3    C6 7893   2.583   3.887   1.243  0.4214  0.6775  0.2616
  528TMC3     C 7894   2.713   3.499   1.340  0.2918 -0.5870 -0.4008
  528TMC3     O 7895   2.652   3.462   1.438 -0.1369  0.6451 -0.8808
  528TMC3     H 7896   2.859   3.703   1.219 -0.0069 -1.4532  0.3829
  528TMC3    H1 7897   2.479   3.595   1.377 -0.0804 -2.0784 -2.2787
  528TMC3    H2 7898   2.556   3.992   1.240 -0.7623  0.4018  1.2272
  528TMC3    C7 7899   2.372   3.837   1.344  0.5646 -0.2567 -0.2438
  528TMC3    C8 7900   2.791   3.943   1.132  0.6552 -0.3659  0.5761
  528TMC3    O1 7901   2.357   3.958   1.363  0.4477 -0.0982  0.1825
  528TMC3    O2 7902   2.881   3.892   1.067 -0.0523  0.2051  0.2227
  529MPD2     C 7903   0.364   0.984   0.629 -0.3203 -0.3592 -0.1828
  529MPD2    C1 7904   0.471   1.065   0.658  0.1924  0.1565  1.1443
  529MPD2    C2 7905   0.475   1.194   0.595  0.5792  0.3167 -0.3142
  529MPD2    C3 7906   0.366   1.243   0.527  0.5077 -0.2712  0.6751
  529MPD2    C4 7907   0.256   1.155   0.503  0.3476  0.1878  0.6556
  529MPD2    C5 7908   0.263   1.024   0.549  0.4184 -0.1515  0.8120
  529MPD2     H 7909   0.555   1.262   0.619 -0.1372  0.9729  0.1880
  529MPD2    H1 7910   0.167   1.182   0.448  0.6255 -2.1969 -0.9427
  529MPD2    H2 7911   0.340   0.892   0.682  2.2818 -0.4047  0.8753
  529MPD2    H3 7912   0.182   0.952   0.540  0.3284  0.0800 -0.1972
  529MPD2     N 7913   0.362   1.371   0.464 -0.4356  0.0975  0.2818
  529MPD2    H5 7914   0.279   1.381   0.407  1.2525  0.4334 -2.0758
  529MPD2    N1 7915   0.575   1.025   0.748  0.0347 -0.1999  0.2681
  529MPD2    H7 7916   0.664   1.074   0.745 -1.4259  2.3776 -0.5174
  530TMC3    C1 7917   0.678   0.919   0.934  0.1595  0.1237 -0.7641
  530TMC3    C2 7918   0.739   1.037   0.969 -0.0925  0.2521  0.4649
  530TMC3    C3 7919   0.826   1.040   1.081  0.8504  0.1884 -0.1936
  530TMC3    C4 7920   0.692   0.806   1.012  0.9206 -0.0089 -0.4182
  530TMC3    C5 7921   0.780   0.812   1.124  0.5320 -0.3328  0.2815
  530TMC3    C6 7922   0.846   0.928   1.158 -0.0703 -0.0869 -0.1231
  530TMC3     C 7923   0.568   0.922   0.838 -0.2297 -0.2197 -0.4453
  530TMC3     O 7924   0.487   0.828   0.845 -0.0183  0.0475 -0.1992
  530TMC3     H 7925   0.716   1.130   0.920  0.9863 -0.4510 -1.3953
  530TMC3    H1 7926   0.634   0.715   0.998 -1.3237  0.6218  4.7071
  530TMC3    H2 7927   0.904   0.939   1.248  0.3362 -0.3336 -0.3514
  530TMC3    C7 7928   0.783   0.705   1.220 -0.3457  0.3427 -0.5025
  530TMC3    C8 7929   0.909   1.159   1.097  0.1036  0.5749  0.0087
  530TMC3    O1 7930   0.865   0.714   1.309  0.0769 -0.2754  0.8879
  530TMC3    O2 7931   0.870   1.271   1.065 -0.0509 -0.3019 -0.0097
  531MPD2     C 7932   0.069   3.913  13.699 -0.2432  0.2446 -0.1904
  531MPD2    C1 7933   4.691   3.893  13.760  0.3055  0.1998 -0.2653
  531MPD2    C2 7934   4.580   3.845  13.692  0.2271  0.9174 -0.0737
  531MPD2    C3 7935   4.594   3.815  13.560 -0.5113 -0.9591 -0.8218
  531MPD2    C4 7936   4.711   3.822  13.499  0.3489  0.3950  0.3327
  531MPD2    C5 7937   0.077   3.884  13.561 -0.5793 -0.9345 -0.8481
  531MPD2     H 7938   4.489   3.839  13.751  0.8663 -1.6538  0.6636
  531MPD2    H1 7939   4.710   3.812  13.391 -1.5299 -0.2982  0.4077
  531MPD2    H2 7940   0.156   3.955  13.749 -0.8793  1.6227 -0.2495
  531MPD2    H3 7941   0.172   3.887  13.510 -0.4651  1.9159 -0.4623
  531MPD2     N 7942   4.479   3.767  13.491 -0.4953 -0.0419  0.3136
  531MPD2    H5 7943   4.502   3.729  13.399 -1.6001  2.1416 -0.8768
  531MPD2    N1 7944   4.687   3.933  13.894 -0.4384  0.3472 -0.8358
  531MPD2    H7 7945   0.037   3.951  13.937 -1.8089 -0.1939  2.2882
  532TMC3    C1 7946   4.573   3.974  14.101  0.0731  0.2045 -0.4438
  532TMC3    C2 7947   4.448   3.962  14.158  0.2394 -0.5710  0.3720
  532TMC3    C3 7948   4.426   3.896  14.272  0.4514  1.0157  0.2171
  532TMC3    C4 7949   4.676   3.920  14.170 -0.4441  0.4248 -0.0290
  532TMC3    C5 7950   4.654   3.856  14.296 -0.4667 -0.3560 -0.2878
  532TMC3    C6 7951   4.529   3.842  14.349 -0.1185 -0.0611 -0.5198
  532TMC3     C 7952   4.567   3.957  13.959 -0.7658  0.0700 -0.1214
  532TMC3     O 7953   4.457   3.974  13.909 -0.9212  0.5108 -0.4639
  532TMC3     H 7954   4.368   4.023  14.116  0.2049  0.8154  2.4902
  532TMC3    H1 7955   0.038   3.937  14.139 -0.5505  0.8577 -0.1403
  532TMC3    H2 7956   4.521   3.776  14.434 -1.4474  0.5964 -0.1371
  532TMC3    C7 7957   0.018   3.808  14.383  0.0506  0.5788 -0.3054
  532TMC3    C8 7958   4.293   3.831  14.269  0.1001 -0.4551  0.4694
  532TMC3    O1 7959   0.001   3.766  14.498  0.3165  0.1792  0.2474
  532TMC3    O2 7960   4.256   3.773  14.368 -0.4429  0.2535  0.4427
  533TMC3    C1 7961   0.199   1.076  14.530  0.4632  0.4618 -0.3529
  533TMC3    C2 7962   0.331   1.106  14.502  0.9320 -0.6871 -0.3404
  533TMC3    C3 7963   0.402   1.165  14.603  0.2069 -0.2561  0.0778
  533TMC3    C4 7964   0.144   1.126  14.652 -0.2475 -0.7420 -0.2119
  533TMC3    C5 7965   0.223   1.172  14.757  0.4601 -0.8755  0.8637
  533TMC3    C6 7966   0.355   1.202  14.729  0.2879 -0.7238 -0.4107
  533TMC3     C 7967   0.177   0.932  14.525  0.1284 -0.1750 -0.6361
  533TMC3     O 7968   0.281   0.865  14.561  0.2188 -0.5310 -1.1903
  533TMC3     H 7969   0.369   1.073  14.406  0.9454 -1.0320 -0.2181
  533TMC3    H1 7970   0.042   1.096  14.670  0.9127 -2.5147  3.2050
  533TMC3    H2 7971   0.429   1.231  14.803 -2.2917 -0.7936  2.2001
  533TMC3    C7 7972   0.210   1.089  14.872 -0.9834  0.2037  0.3722
  533TMC3    C8 7973   0.544   1.176  14.589 -0.2506 -0.3173 -0.2326
  533TMC3    O1 7974   0.131   0.994  14.876  0.1110 -0.5146 -0.1684
  533TMC3    O2 7975   0.592   1.080  14.529  0.0137 -0.2587  0.0443
  534MPD2     C 7976   3.617   1.435   1.310 -0.1655 -0.4528 -0.4610
  534MPD2    C1 7977   3.534   1.527   1.361 -0.5845 -0.3653  0.0197
  534MPD2    C2 7978   3.399   1.525   1.332  0.3582 -0.2337 -0.0573
  534MPD2    C3 7979   3.349   1.419   1.255  0.1105  0.3410  0.2335
  534MPD2    C4 7980   3.434   1.320   1.212 -0.3766 -0.0299 -0.6317
  534MPD2    C5 7981   3.569   1.327   1.242 -0.2070  0.2144  0.5899
  534MPD2     H 7982   3.324   1.596   1.366  0.5861 -0.4464  0.9135
  534MPD2    H1 7983   3.401   1.237   1.150 -1.8415  0.6570 -0.7566
  534MPD2    H2 7984   3.723   1.438   1.332 -0.0482  1.6949 -1.3067
  534MPD2    H3 7985   3.632   1.251   1.198 -1.2406 -0.1389 -0.2861
  534MPD2     N 7986   3.214   1.406   1.208 -1.0991  0.1639  0.3207
  534MPD2    H5 7987   3.187   1.336   1.139  0.1809  0.3399 -0.3607
  534MPD2    N1 7988   3.583   1.632   1.441 -0.1509 -0.6707  0.1495
  534MPD2    H7 7989   3.512   1.679   1.496  2.5309  1.0754  2.1040
  535TMC3    C1 7990   2.990   1.467   1.163  0.0636  0.4640 -0.0269
  535TMC3    C2 7991   2.892   1.556   1.201  0.0125  0.1648  1.0124
  535TMC3    C3 7992   2.802   1.601   1.114 -0.4391  0.3327  0.4030
  535TMC3    C4 7993   3.012   1.445   1.031 -0.2327  0.1394 -0.8755
  535TMC3    C5 7994   2.926   1.502   0.941  0.6896 -0.9270 -0.6420
  535TMC3    C6 7995   2.814   1.574   0.981  0.6861  0.1540  0.2676
  535TMC3     C 7996   3.112   1.486   1.245 -0.8112  0.2508 -1.0338
  535TMC3     O 7997   3.102   1.561   1.341 -0.5844 -0.1389 -0.1315
  535TMC3     H 7998   2.876   1.571   1.307  1.3367  1.7247  0.9890
  535TMC3    H1 7999   3.097   1.390   0.990 -1.2933 -0.8402 -1.7528
  535TMC3    H2 8000   2.748   1.623   0.910 -1.7953 -0.8401  1.9157
  535TMC3    C7 8001   2.936   1.466   0.802  0.5817 -0.7070  0.1267
  535TMC3    C8 8002   2.669   1.627   1.165 -0.1503  0.3946 -0.1360
  535TMC3    O1 8003   2.987   1.357   0.787 -0.1076  0.3437 -0.1224
  535TMC3    O2 8004   2.576   1.596   1.091  0.2671  0.3051  0.2275
  536MPD2     C 8005   1.134   4.189  16.966 -0.3168 -0.3323  0.2574
  536MPD2    C1 8006   1.206   4.126  16.872  0.8526 -0.8686 -0.0639
  536MPD2    C2 8007   1.193   4.174  16.742  0.3190 -0.3041 -0.1430
  536MPD2    C3 8008   1.097   4.272  16.709 -0.6140  0.0618 -0.8906
  536MPD2    C4 8009   1.017   4.317  16.805  0.4962  0.4594  0.5201
  536MPD2    C5 8010   1.036   4.278  16.935  0.3267 -0.2018 -0.3531
  536MPD2     H 8011   1.258   4.140  16.662  0.2618  0.7588 -0.6403
  536MPD2    H1 8012   0.941   4.393  16.788  1.0489  1.0700  0.7424
  536MPD2    H2 8013   1.140   4.144  17.064  0.0318 -1.7533 -0.4112
  536MPD2    H3 8014   0.972   4.305  17.019 -0.2375 -2.0744 -0.1636
  536MPD2     N 8015   1.057   4.317  16.581  0.3748  0.6426  0.2908
  536MPD2    H5 8016   0.970   4.368  16.573 -0.7394 -1.3941 -0.4425
  536MPD2    N1 8017   1.288   4.023  16.916 -0.4477  0.8536 -0.1686
  536MPD2    H7 8018   1.291   4.002  17.015  1.6178  1.2570 -0.1285
  537TMC3    C1 8019   1.462   3.857  16.905  0.0172  0.8595 -0.3942
  537TMC3    C2 8020   1.577   3.829  16.832 -0.2029 -0.4741 -0.4903
  537TMC3    C3 8021   1.693   3.795  16.900 -0.3422  0.4221 -0.3292
  537TMC3    C4 8022   1.448   3.821  17.034 -0.9179 -0.1912 -0.9476
  537TMC3    C5 8023   1.561   3.776  17.097 -0.2106  0.0557  0.2182
  537TMC3    C6 8024   1.682   3.774  17.035 -0.4796 -0.1776  0.2872
  537TMC3     C 8025   1.377   3.953  16.835  0.8711  0.3104  0.0819
  537TMC3     O 8026   1.394   3.964  16.711  0.3627 -0.6883  0.1242
  537TMC3     H 8027   1.572   3.845  16.725  1.7108  1.1757 -0.3320
  537TMC3    H1 8028   1.353   3.832  17.086 -1.1781 -3.0381 -0.8122
  537TMC3    H2 8029   1.769   3.742  17.090 -0.6651  0.8387  1.1719
  537TMC3    C7 8030   1.547   3.769  17.237 -0.2964  0.4628 -0.5263
  537TMC3    C8 8031   1.806   3.883  16.860 -0.5731  0.2694 -0.4357
  537TMC3    O1 8032   1.439   3.795  17.283 -0.1747  0.0312 -0.0054
  537TMC3    O2 8033   1.906   3.886  16.935  0.8373 -0.1057  0.0777
  538TMC3    C1 8034   2.880   3.091  11.396 -0.4684  0.2421 -0.4568
  538TMC3    C2 8035   2.954   3.028  11.304  0.3019 -0.0034  0.4484
  538TMC3    C3 8036   2.957   3.072  11.175  0.1829 -0.7898 -0.6171
  538TMC3    C4 8037   2.815   3.208  11.359 -0.0789  0.5030  0.4761
  538TMC3    C5 8038   2.827   3.255  11.227  0.5505 -0.6096 -0.0642
  538TMC3    C6 8039   2.888   3.180  11.127  0.5658  0.4620  0.5999
  538TMC3     C 8040   2.895   3.054  11.540  0.1769  0.3642 -0.1831
  538TMC3     O 8041   2.957   2.949  11.562  0.6184  0.4754 -0.1658
  538TMC3     H 8042   3.024   2.954  11.341 -1.9701 -2.3957 -0.0251
  538TMC3    H1 8043   2.752   3.262  11.428  1.7677  1.4655  1.3832
  538TMC3    H2 8044   2.880   3.198  11.020  0.5478 -1.1186  0.3324
  538TMC3    C7 8045   2.752   3.381  11.196  0.1854 -0.4228 -0.3395
  538TMC3    C8 8046   3.048   2.997  11.096 -0.2515  0.1433 -0.7802
  538TMC3    O1 8047   2.682   3.441  11.277  0.0494 -0.0008 -0.7496
  538TMC3    O2 8048   3.061   2.878  11.122 -0.0274  0.2950  0.1939
  539MPD2     C 8049   2.789   2.596  12.139  0.3186 -0.1626 -0.0456
  539MPD2    C1 8050   2.784   2.594  12.001  0.3427  0.2156  0.2825
  539MPD2    C2 8051   2.739   2.715  11.935  0.3221  0.3572  0.1483
  539MPD2    C3 8052   2.686   2.818  12.008  0.2403  0.3610  0.1080
  539MPD2    C4 8053   2.702   2.820  12.145  0.5943 -0.5544  0.8752
  539MPD2    C5 8054   2.757   2.711  12.209  0.0060  0.2107  0.5720
  539MPD2     H 8055   2.761   2.735  11.831  1.7493 -0.7174  0.2412
  539MPD2    H1 8056   2.668   2.909  12.197 -0.4024 -0.8005  0.6573
  539MPD2    H2 8057   2.830   2.513  12.195 -0.1826 -0.3301  0.0726
  539MPD2    H3 8058   2.766   2.720  12.317 -2.1116 -1.8240  0.9266
  539MPD2     N 8059   2.631   2.938  11.951 -0.1085  0.2487  0.0688
  539MPD2    H5 8060   2.623   3.020  12.010 -2.4153 -1.1764  1.7380
  539MPD2    N1 8061   2.828   2.473  11.935 -0.3649 -0.6647  0.1069
  539MPD2    H7 8062   2.875   2.405  11.994  0.5455 -0.1122  0.0166
  540TMC3    C1 8063   2.534   3.082  11.802  0.1101  0.2531  0.4973
  540TMC3    C2 8064   2.527   3.130  11.674  0.6103  0.6225  0.3816
  540TMC3    C3 8065   2.458   3.246  11.656 -0.0900 -0.2414 -0.1370
  540TMC3    C4 8066   2.457   3.136  11.906  0.2404  0.5542 -0.1123
  540TMC3    C5 8067   2.408   3.266  11.888  0.3499  0.3688 -0.3814
  540TMC3    C6 8068   2.408   3.320  11.761 -0.3225  0.0673 -0.7926
  540TMC3     C 8069   2.601   2.954  11.813  0.2604 -0.4179 -0.2318
  540TMC3     O 8070   2.633   2.880  11.721  0.1763 -0.1305  0.2363
  540TMC3     H 8071   2.576   3.080  11.591 -1.0774 -0.9501  0.3132
  540TMC3    H1 8072   2.434   3.081  11.997 -2.1663 -0.2810 -1.2145
  540TMC3    H2 8073   2.366   3.420  11.750  0.3084  0.3122 -0.9790
  540TMC3    C7 8074   2.310   3.326  11.977  0.2739  0.3753  0.1448
  540TMC3    C8 8075   2.430   3.286  11.526  0.0379  0.3733  0.4153
  540TMC3    O1 8076   2.221   3.398  11.930  0.5774 -0.5824  0.2243
  540TMC3    O2 8077   2.434   3.407  11.502 -0.1408  0.6786 -0.0291
  541MPD2     C 8078   1.225   3.892  13.582  0.9071  0.5030 -0.0255
  541MPD2    C1 8079   1.108   3.837  13.529  0.1615  0.3914  0.7614
  541MPD2    C2 8080   1.079   3.862  13.391 -0.7186 -0.2260 -0.1121
  541MPD2    C3 8081   1.169   3.934  13.314 -0.0725 -0.3757 -0.2971
  541MPD2    C4 8082   1.291   3.979  13.357 -0.3837 -0.5429 -0.0961
  541MPD2    C5 8083   1.315   3.953  13.494  0.3566 -0.2796  0.5718
  541MPD2     H 8084   0.981   3.829  13.359 -1.1274  0.5284  0.3376
  541MPD2    H1 8085   1.361   4.038  13.298 -0.7800  0.8903  0.8721
  541MPD2    H2 8086   1.254   3.894  13.687 -1.3431  0.0999  0.6086
  541MPD2    H3 8087   1.410   3.993  13.527  0.3870  0.0188  0.1284
  541MPD2     N 8088   1.133   3.964  13.182  0.3046 -0.1019  0.3009
  541MPD2    H5 8089   1.203   4.000  13.117  1.9010 -1.4898  1.2540
  541MPD2    N1 8090   1.009   3.772  13.610  0.0846  0.1449 -0.7835
  541MPD2    H7 8091   0.931   3.727  13.563  0.6946  0.4989 -2.1295
  542TMC3    C1 8092   0.988   4.001  12.998  0.0141  0.5975  0.7814
  542TMC3    C2 8093   1.072   3.965  12.900 -0.1025  0.2417  0.5168
  542TMC3    C3 8094   1.062   4.028  12.779 -0.0754 -0.8513 -0.3085
  542TMC3    C4 8095   0.893   4.096  12.975  0.4440  0.5340  0.0288
  542TMC3    C5 8096   0.876   4.150  12.847 -0.0283  0.0317  0.0424
  542TMC3    C6 8097   0.965   4.120  12.748 -0.7089 -0.7541 -0.6671
  542TMC3     C 8098   1.001   3.966  13.138 -0.4022  0.1270 -0.7511
  542TMC3     O 8099   0.893   3.971  13.202 -0.5870 -0.2085  0.3516
  542TMC3     H 8100   1.135   3.879  12.918  1.4106  1.7413  2.4043
  542TMC3    H1 8101   0.834   4.138  13.055  0.0714 -0.3001  0.1937
  542TMC3    H2 8102   0.963   4.163  12.648 -0.0847  0.3050 -0.2247
  542TMC3    C7 8103   0.799   4.268  12.837 -0.6565 -0.2728 -0.6811
  542TMC3    C8 8104   1.146   4.001  12.669 -0.0599 -0.6839  0.3017
  542TMC3    O1 8105   0.789   4.334  12.940 -0.3685  0.1330  0.0399
  542TMC3    O2 8106   1.105   4.023  12.557 -0.4438  0.1228 -0.0948
  543TMC3    C1 8107   0.417   0.957  17.397  0.3824 -0.2957  0.4370
  543TMC3    C2 8108   0.522   0.938  17.483  0.1008  1.1368  0.3146
  543TMC3    C3 8109   0.498   0.978  17.610  0.0818  0.6398  0.1236
  543TMC3    C4 8110   0.297   1.005  17.442 -0.1168 -0.4018  0.0445
  543TMC3    C5 8111   0.277   1.042  17.572  1.0256  0.0016 -0.2217
  543TMC3    C6 8112   0.379   1.030  17.658 -0.2838  0.1131 -0.2442
  543TMC3     C 8113   0.430   0.885  17.271  0.1458  0.2172  0.1468
  543TMC3     O 8114   0.526   0.815  17.270  0.7275  0.1555  0.1184
  543TMC3     H 8115   0.617   0.895  17.456  0.1566 -0.6025  3.2159
  543TMC3    H1 8116   0.208   1.001  17.379 -1.1635  0.7404  1.4516
  543TMC3    H2 8117   0.366   1.074  17.756  0.5436 -0.6814  0.2249
  543TMC3    C7 8118   0.171   1.138  17.610 -0.5511 -0.0889 -0.1162
  543TMC3    C8 8119   0.608   0.950  17.702 -0.0235  0.0359 -0.8314
  543TMC3    O1 8120   0.163   1.163  17.727 -0.7182 -0.1952  0.3368
  543TMC3    O2 8121   0.617   1.019   0.041  0.3575  0.1070 -0.4572
  544MPD2     C 8122   0.982   0.680   0.154  0.1503 -0.7738 -0.5043
  544MPD2    C1 8123   0.888   0.596   0.103 -0.4605 -0.3602  0.7384
  544MPD2    C2 8124   0.796   0.649   0.014 -0.0840 -1.0053  0.4459
  544MPD2    C3 8125   0.771   0.780   0.006 -0.3077 -0.3092 -0.2671
  544MPD2    C4 8126   0.865   0.874   0.064  0.0869 -0.1818 -1.1527
  544MPD2    C5 8127   0.963   0.817   0.141  0.2683 -0.0477 -0.2601
  544MPD2     H 8128   0.729   0.584  17.718 -3.1444  0.5442  2.3169
  544MPD2    H1 8129   0.853   0.981   0.054  1.0408 -0.2015 -2.4093
  544MPD2    H2 8130   1.061   0.646   0.220 -1.1670 -0.9938  0.9550
  544MPD2    H3 8131   1.036   0.880   0.191 -0.2556  1.1444 -0.9924
  544MPD2     N 8132   0.664   0.826  17.680  0.1086  0.9104 -0.0343
  544MPD2    H5 8133   0.617   0.750  17.631  0.1216 -0.1496  1.5749
  544MPD2    N1 8134   0.893   0.460   0.143 -0.4231 -0.3367 -0.0305
  544MPD2    H7 8135   0.971   0.424   0.197 -0.9376 -2.5480 -0.7745
  545TMC3    C1 8136   0.840   0.229   0.158 -0.4911 -0.6174  0.9008
  545TMC3    C2 8137   0.791   0.119   0.085 -0.6064  0.3329 -0.1500
  545TMC3    C3 8138   0.811   4.731   0.137  0.2819  0.8208 -0.5604
  545TMC3    C4 8139   0.902   0.208   0.282 -0.1008  0.6125  0.1242
  545TMC3    C5 8140   0.947   0.083   0.315  0.3739 -0.4842  0.4548
  545TMC3    C6 8141   0.899   4.715   0.239  0.0203  0.0471  0.4831
  545TMC3     C 8142   0.800   0.358   0.108  0.1034 -0.6075  0.1052
  545TMC3     O 8143   0.701   0.368   0.042  0.2050 -0.5948  0.5119
  545TMC3     H 8144   0.743   0.141  17.750  1.0127  0.0925 -1.0141
  545TMC3    H1 8145   0.958   0.292   0.321  1.3926 -1.2359  2.0020
  545TMC3    H2 8146   0.899   4.614   0.279  0.0500 -0.0290  0.2894
  545TMC3    C7 8147   1.043   0.064   0.426 -0.6345 -0.7016  0.2249
  545TMC3    C8 8148   0.759   4.617   0.061 -0.4993  1.0045 -0.4121
  545TMC3    O1 8149   1.055   0.158   0.501 -0.2431 -0.1342  0.2359
  545TMC3    O2 8150   0.793   4.507   0.093  0.5959  0.7564 -0.1758
  546MPD2     C 8151   1.867   0.649  17.719  0.3127 -0.2036  0.1020
  546MPD2    C1 8152   1.830   0.717  17.604  0.3990  0.4412  0.1623
  546MPD2    C2 8153   1.811   0.856  17.608  0.0525 -0.0199  0.2074
  546MPD2    C3 8154   1.839   0.927  17.724 -0.6823  0.1141 -0.2088
  546MPD2    C4 8155   1.860   0.856   0.078  0.6037  0.7791 -0.6670
  546MPD2    C5 8156   1.882   0.722   0.076  0.4308 -0.1283  0.5609
  546MPD2     H 8157   1.788   0.909  17.517 -0.0560 -0.5413 -0.0706
  546MPD2    H1 8158   1.878   0.905   0.173 -0.8926  0.1838 -0.0724
  546MPD2    H2 8159   1.865   0.541  17.724 -2.1966 -0.1725 -0.1867
  546MPD2    H3 8160   1.911   0.666   0.164 -0.8846  0.3001  1.2572
  546MPD2     N 8161   1.857   1.073  17.728  0.2608 -0.1761 -0.2556
  546MPD2    H5 8162   1.896   1.111   0.054 -2.4066  3.3688 -0.5710
  546MPD2    N1 8163   1.809   0.634  17.492  0.4401 -0.0719  0.0465
  546MPD2    H7 8164   1.847   0.540  17.498  0.5474  0.0276  0.8720
  547TMC3    C1 8165   1.721   0.583  17.275 -0.8637 -0.1260  0.2202
  547TMC3    C2 8166   1.671   0.641  17.156 -0.2791  0.6779  0.2179
  547TMC3    C3 8167   1.610   0.554  17.081  0.0660 -0.2540 -0.2620
  547TMC3    C4 8168   1.699   0.447  17.314 -0.6906  0.8275 -0.1206
  547TMC3    C5 8169   1.638   0.368  17.223  0.4736 -0.3243 -0.5605
  547TMC3    C6 8170   1.588   0.425  17.110 -0.2005 -0.4207  0.3978
  547TMC3     C 8171   1.751   0.682  17.376 -0.0591 -0.5151  0.0839
  547TMC3     O 8172   1.723   0.797  17.344  0.2543 -0.6848 -0.0092
  547TMC3     H 8173   1.692   0.743  17.126  0.0711 -0.1708 -2.3287
  547TMC3    H1 8174   1.725   0.418  17.415  1.9993 -2.1296 -1.6635
  547TMC3    H2 8175   1.527   0.362  17.046  0.4421 -0.7050  0.0761
  547TMC3    C7 8176   1.633   0.228  17.254 -0.7576 -0.2141  1.0472
  547TMC3    C8 8177   1.550   0.619  16.964  0.2420 -0.6022 -0.6364
  547TMC3    O1 8178   1.636   0.208  17.377  0.0751  0.5234  0.2026
  547TMC3    O2 8179   1.617   0.705  16.912  0.7197  0.4388 -0.3979
  548MPD2     C 8180   1.454   1.066  12.855  0.7524 -0.5263  0.1124
  548MPD2    C1 8181   1.445   0.927  12.875 -0.9055 -0.5871 -0.8575
  548MPD2    C2 8182   1.544   0.851  12.815 -0.2340  0.5172  0.4577
  548MPD2    C3 8183   1.649   0.904  12.743 -0.1489  0.4051  0.6881
  548MPD2    C4 8184   1.655   1.044  12.731  0.5119  0.1609 -0.0149
  548MPD2    C5 8185   1.556   1.125  12.790  0.4997 -0.4754 -0.1878
  548MPD2     H 8186   1.532   0.743  12.822  0.8148  0.3816  0.1514
  548MPD2    H1 8187   1.730   1.089  12.667  3.2733 -0.9174  2.4826
  548MPD2    H2 8188   1.376   1.123  12.904 -0.6073 -0.6556 -1.8852
  548MPD2    H3 8189   1.565   1.233  12.781  0.7482 -0.4724  0.1169
  548MPD2     N 8190   1.733   0.814  12.668  0.1652 -0.0781 -0.5895
  548MPD2    H5 8191   1.710   0.715  12.673 -0.7778  0.1618 -0.2501
  548MPD2    N1 8192   1.330   0.874  12.945  0.6969 -0.0500  0.2618
  548MPD2    H7 8193   1.267   0.944  12.983 -1.2911 -0.8215 -1.6144
  549TMC3    C1 8194   1.179   0.706  13.018 -0.2648 -0.7400 -0.1327
  549TMC3    C2 8195   1.067   0.775  12.965 -0.4958 -0.4383  0.2037
  549TMC3    C3 8196   0.941   0.723  12.993 -0.2440  0.0557 -0.3449
  549TMC3    C4 8197   1.159   0.582  13.081 -0.3988  0.2186  0.1678
  549TMC3    C5 8198   1.032   0.533  13.081  0.0521  0.2632 -0.2911
  549TMC3    C6 8199   0.922   0.598  13.045  0.3222 -0.5691  0.4983
  549TMC3     C 8200   1.303   0.743  12.963  0.1364  0.2737  0.4532
  549TMC3     O 8201   1.368   0.644  12.929 -0.0804  0.1754 -0.3570
  549TMC3     H 8202   1.077   0.862  12.901  0.5267 -1.1331 -0.5575
  549TMC3    H1 8203   1.246   0.522  13.104  0.3697  0.5330 -1.8603
  549TMC3    H2 8204   0.823   0.557  13.064 -0.6216  1.8794  0.8597
  549TMC3    C7 8205   1.002   0.394  13.111  0.4196  0.3755  0.1601
  549TMC3    C8 8206   0.820   0.778  12.934 -0.4266  0.0168 -0.1587
  549TMC3    O1 8207   0.916   0.343  13.043 -0.0445  0.2995  0.3387
  549TMC3    O2 8208   0.717   0.711  12.948 -0.1218  0.2965  0.5617
  550TMC3    C1 8209   0.144   3.433  12.978  0.3552  0.7072  0.2907
  550TMC3    C2 8210   0.146   3.531  13.073 -0.1019 -0.0682 -0.1080
  550TMC3    C3 8211   0.072   3.642  13.054 -0.5037  0.0532 -0.1029
  550TMC3    C4 8212   0.050   3.428  12.876 -0.1598  0.4567 -0.3185
  550TMC3    C5 8213   4.700   3.538  12.873  0.8372  0.2025 -0.0725
  550TMC3    C6 8214   4.713   3.649  12.956  0.2259 -0.9465 -0.4225
  550TMC3     C 8215   0.230   3.316  12.998  0.9543  0.8419 -0.3790
  550TMC3     O 8216   0.259   3.282  13.109 -0.3332  0.5158 -0.2934
  550TMC3     H 8217   0.238   3.540  13.131  0.9586  0.7591 -1.9098
  550TMC3    H1 8218   0.061   3.350  12.802 -0.2307 -0.3801  0.5547
  550TMC3    H2 8219   4.646   3.735  12.952 -0.2721 -1.2844  0.5966
  550TMC3    C7 8220   4.596   3.546  12.773 -0.0614  0.7151  0.2554
  550TMC3    C8 8221   0.112   3.760  13.124 -0.1245  0.0444 -0.4216
  550TMC3    O1 8222   4.482   3.582  12.809 -0.2775 -0.0176 -0.4198
  550TMC3    O2 8223   0.204   3.750  13.200 -0.3591  0.2497  0.7467
  551TMC3    C1 8224   3.077   1.809  13.550 -0.3272 -0.3049  0.2176
  551TMC3    C2 8225   3.165   1.869  13.467 -0.2915  0.2323  0.0318
  551TMC3    C3 8226   3.261   1.950  13.517 -0.2349  0.0723  0.3428
  551TMC3    C4 8227   3.062   1.849  13.683 -0.6909  0.1050  0.0982
  551TMC3    C5 8228   3.162   1.933  13.724  0.0703  0.2347  0.2143
  551TMC3    C6 8229   3.256   1.992  13.644  0.6131 -0.4289 -0.0222
  551TMC3     C 8230   2.957   1.772  13.479 -0.2841 -0.1467  0.5541
  551TMC3     O 8231   2.964   1.707  13.377 -0.0361 -1.0548  0.5826
  551TMC3     H 8232   3.183   1.843  13.363 -0.6549 -0.3364  0.1142
  551TMC3    H1 8233   2.998   1.806  13.759 -0.6143  0.4113  0.3361
  551TMC3    H2 8234   3.338   2.055  13.678  0.5945 -0.1634 -0.4652
  551TMC3    C7 8235   3.170   1.950  13.870 -0.2957 -0.5355  0.0977
  551TMC3    C8 8236   3.311   2.046  13.421  0.9042  0.1092 -0.2415
  551TMC3    O1 8237   3.152   1.854  13.945 -0.4605  0.2396  0.2114
  551TMC3    O2 8238   3.342   2.000  13.311 -0.4213  0.0092  0.3014
  552MPD2     C 8239   4.500   3.875  14.786  0.6209  0.6835 -0.5937
  552MPD2    C1 8240   4.559   3.749  14.789 -1.0021 -0.2764  0.0067
  552MPD2    C2 8241   4.694   3.746  14.822 -0.5807 -0.3681  0.3881
  552MPD2    C3 8242   0.034   3.854  14.844  0.7180  0.7971 -0.4404
  552MPD2    C4 8243   4.715   3.977  14.831  0.3277 -0.0374  0.1958
  552MPD2    C5 8244   4.578   3.987  14.809 -0.2607 -0.6652 -0.4769
  552MPD2     H 8245   4.738   3.648  14.840  2.2423  0.2131 -3.6048
  552MPD2    H1 8246   0.033   4.068  14.830 -2.1173  1.5213  1.9423
  552MPD2    H2 8247   4.400   3.899  14.752  0.1425 -1.0094 -0.3795
  552MPD2    H3 8248   4.531   4.082  14.789 -0.0529 -0.0917  1.6752
  552MPD2     N 8249   0.171   3.842  14.849 -0.1054 -0.0012  0.2946
  552MPD2    H5 8250   0.198   3.744  14.845  1.0355  0.3141  0.2409
  552MPD2    N1 8251   4.493   3.634  14.756 -0.1158  0.3228 -0.4552
  552MPD2    H7 8252   4.558   3.556  14.747 -0.4979 -0.1780  1.1568
  553TMC3    C1 8253   4.361   3.484  14.639  0.9593 -0.2587  0.2392
  553TMC3    C2 8254   4.406   3.504  14.515  0.4433 -0.1516  0.3601
  553TMC3    C3 8255   4.523   3.443  14.486  0.3068 -0.2258 -0.1845
  553TMC3    C4 8256   4.417   3.389  14.725  0.9649 -0.6189 -0.1789
  553TMC3    C5 8257   4.535   3.321  14.685 -0.5272  0.5570  0.3123
  553TMC3    C6 8258   4.583   3.344  14.554 -0.4205  0.2858 -0.6917
  553TMC3     C 8259   4.363   3.613  14.714 -0.8273 -0.3274 -0.2150
  553TMC3     O 8260   4.273   3.695  14.686  0.3149 -0.2745 -0.7789
  553TMC3     H 8261   4.347   3.574  14.456  0.9763  0.1920  0.2368
  553TMC3    H1 8262   4.379   3.369  14.825  0.1524  4.5207  0.5725
  553TMC3    H2 8263   4.671   3.296  14.513  1.3888  3.3968 -0.4204
  553TMC3    C7 8264   4.596   3.218  14.774 -0.3454  0.3920 -0.6716
  553TMC3    C8 8265   4.582   3.480  14.358  0.4910 -0.1415  0.2593
  553TMC3    O1 8266   4.534   3.187  14.874 -0.2663 -0.0689 -0.3221
  553TMC3    O2 8267   4.700   3.462  14.348 -0.6450  0.2111 -0.1516
  554TMC3    C1 8268   1.696   2.842  11.710 -0.2378 -0.3124  0.0472
  554TMC3    C2 8269   1.645   2.773  11.609 -0.6270  0.0167 -0.2208
  554TMC3    C3 8270   1.714   2.762  11.492 -0.0125  0.3927 -0.7044
  554TMC3    C4 8271   1.809   2.915  11.704 -0.3780  0.1908 -0.2555
  554TMC3    C5 8272   1.872   2.910  11.583 -0.4739 -1.2611  0.2084
  554TMC3    C6 8273   1.838   2.822  11.485 -0.1815 -0.2277  0.7280
  554TMC3     C 8274   1.674   2.769  11.832 -0.1987  0.6222 -0.6134
  554TMC3     O 8275   1.574   2.698  11.840  0.5152 -0.7490  0.2674
  554TMC3     H 8276   1.549   2.724  11.620  0.9973 -2.8847  0.7531
  554TMC3    H1 8277   1.830   2.991  11.778 -0.8167  1.8127 -1.8279
  554TMC3    H2 8278   1.890   2.822  11.389  0.1410 -0.2271  0.9031
  554TMC3    C7 8279   1.982   2.997  11.542  0.0314  0.3347  0.1336
  554TMC3    C8 8280   1.649   2.739  11.366 -0.8177  1.0107  0.1925
  554TMC3    O1 8281   2.043   2.977  11.438 -0.0126 -0.5813 -0.3481
  554TMC3    O2 8282   1.697   2.788  11.264  0.5005  0.0241  0.0954
  555TMC3    C1 8283   0.780   2.072  15.239 -0.3987 -0.5165  0.3604
  555TMC3    C2 8284   0.744   2.170  15.324  0.6076  0.5523  0.5233
  555TMC3    C3 8285   0.737   2.131  15.460 -0.6380 -0.0835  0.6531
  555TMC3    C4 8286   0.795   1.940  15.277  0.4088 -0.0836 -0.5205
  555TMC3    C5 8287   0.770   1.909  15.408 -0.1905 -0.0582 -0.2438
  555TMC3    C6 8288   0.731   1.998  15.501  0.0127 -0.4162  0.2972
  555TMC3     C 8289   0.799   2.106  15.101 -0.0699 -0.4077 -0.0436
  555TMC3     O 8290   0.884   2.049  15.029  0.2497  0.4288 -0.7784
  555TMC3     H 8291   0.764   2.274  15.299 -2.0006  0.8956 -0.1162
  555TMC3    H1 8292   0.830   1.873  15.199  0.0691  0.1116 -0.8388
  555TMC3    H2 8293   0.717   1.964  15.602  0.2153  1.6061  1.0085
  555TMC3    C7 8294   0.749   1.769  15.445 -1.0774  0.1068  0.1659
  555TMC3    C8 8295   0.722   2.237  15.559 -0.0783  0.8924  0.1470
  555TMC3    O1 8296   0.662   1.743  15.523  0.3884 -0.0295 -0.0964
  555TMC3    O2 8297   0.672   2.343  15.522 -0.2239 -0.3876  0.2606
  556MPD2     C 8298   3.614   4.183  10.754 -0.2116  0.4413 -0.3642
  556MPD2    C1 8299   3.587   4.072  10.836 -0.3901  0.0626  0.1969
  556MPD2    C2 8300   3.546   3.962  10.771  0.3946 -0.7189  0.7354
  556MPD2    C3 8301   3.528   3.958  10.638  0.5093 -0.3515  0.0277
  556MPD2    C4 8302   3.558   4.070  10.560 -0.6571  0.0965  0.2143
  556MPD2    C5 8303   3.585   4.188  10.622  0.1632  0.1698  1.0925
  556MPD2     H 8304   3.518   3.868  10.819  0.3498 -1.5753 -0.9542
  556MPD2    H1 8305   3.553   4.065  10.452  0.4589  0.3768  0.1489
  556MPD2    H2 8306   3.638   4.278  10.798  1.6080  0.3544 -1.1857
  556MPD2    H3 8307   3.607   4.280  10.569  1.4667  0.4685  2.1734
  556MPD2     N 8308   3.487   3.832  10.594  0.0673 -0.3257  0.1422
  556MPD2    H5 8309   3.432   3.773  10.655  0.8856  1.8685  2.9893
  556MPD2    N1 8310   3.603   4.076  10.975  0.4114 -0.0791  0.2964
  556MPD2    H7 8311   3.562   3.995  11.021  0.1507  0.7079  1.4363
  557TMC3    C1 8312   3.466   3.644  10.463  0.3124  0.5306  0.0785
  557TMC3    C2 8313   3.428   3.603  10.342  0.3378 -0.7438  0.4713
  557TMC3    C3 8314   3.370   3.478  10.327  0.5329  0.3742 -1.1454
  557TMC3    C4 8315   3.457   3.560  10.571  0.2838  0.0510 -0.4593
  557TMC3    C5 8316   3.403   3.430  10.549  0.2273  0.5462  0.3629
  557TMC3    C6 8317   3.360   3.380  10.432 -0.3255  0.1091 -0.6481
  557TMC3     C 8318   3.508   3.783  10.470 -0.7822  0.0211  0.1607
  557TMC3     O 8319   3.553   3.837  10.372  1.1219 -0.0124 -0.9451
  557TMC3     H 8320   3.426   3.672  10.258 -1.4322  0.5777  1.5934
  557TMC3    H1 8321   3.505   3.589  10.663  1.8954 -1.5620 -0.8053
  557TMC3    H2 8322   3.298   3.292  10.428 -1.5110  0.8406  1.6611
  557TMC3    C7 8323   3.376   3.349  10.666  0.3092  0.5321 -0.0156
  557TMC3    C8 8324   3.335   3.439  10.189 -0.0115  0.2164  0.3917
  557TMC3    O1 8325   3.374   3.409  10.774 -0.1233 -0.6735 -0.3025
  557TMC3    O2 8326   3.314   3.534  10.120  0.7439 -0.4463  0.3102
  558TMC3    C1 8327   0.986   1.865  10.722 -0.0759  0.2157 -0.3944
  558TMC3    C2 8328   0.893   1.870  10.823  0.1215 -0.3149 -0.0044
  558TMC3    C3 8329   0.766   1.897  10.778 -0.0491 -0.1624  0.1682
  558TMC3    C4 8330   0.960   1.868  10.588 -0.3870  0.1449 -0.0755
  558TMC3    C5 8331   0.831   1.893  10.549  0.3643 -0.2024 -0.2033
  558TMC3    C6 8332   0.730   1.909  10.645  0.0710  1.0233 -0.0005
  558TMC3     C 8333   1.128   1.883  10.747 -0.0843 -0.6849 -0.5280
  558TMC3     O 8334   1.195   1.887  10.640  0.2605  0.6113  0.3544
  558TMC3     H 8335   0.904   1.854  10.930 -1.5188  0.7024  0.3112
  558TMC3    H1 8336   1.029   1.878  10.505 -0.9835 -2.0446 -0.8178
  558TMC3    H2 8337   0.631   1.937  10.611 -0.0965  1.0503  0.5061
  558TMC3    C7 8338   0.808   1.943  10.414 -0.7047 -0.3873  0.1129
  558TMC3    C8 8339   0.662   1.928  10.871 -0.9384  0.3237  0.0998
  558TMC3    O1 8340   0.894   2.009  10.355 -0.0472 -0.0212 -0.3137
  558TMC3    O2 8341   0.546   1.921  10.832  0.4614 -0.0875 -0.2754
  559MPD2     C 8342   0.983   2.227  10.612  0.7044 -0.0016  0.0807
  559MPD2    C1 8343   0.966   2.270  10.741 -0.2717 -0.1436 -0.9760
  559MPD2    C2 8344   1.073   2.314  10.815 -0.0170  0.1827 -0.8017
  559MPD2    C3 8345   1.201   2.275  10.766  0.8934  0.2312 -0.8269
  559MPD2    C4 8346   1.220   2.222  10.636  0.3564 -0.3842  0.4387
  559MPD2    C5 8347   1.107   2.201  10.561 -0.2097  0.4551  0.1639
  559MPD2     H 8348   1.070   2.373  10.905 -1.2258  1.9941 -2.0206
  559MPD2    H1 8349   1.317   2.218  10.587 -0.2480  0.0093 -0.7939
  559MPD2    H2 8350   0.895   2.196  10.557  1.0259 -1.0470  0.1484
  559MPD2    H3 8351   1.109   2.147  10.466 -0.4568 -0.3297  0.6028
  559MPD2     N 8352   1.310   2.286  10.859  0.1924  0.6494  0.1324
  559MPD2    H5 8353   1.287   2.344  10.940 -0.7197  0.5336 -0.0451
  559MPD2    N1 8354   0.833   2.296  10.788  0.4215 -0.2365  0.1139
  559MPD2    H7 8355   0.759   2.287  10.719 -0.8274  1.1247  1.2775
  560TMC3    C1 8356   1.530   2.283  10.962 -0.4599 -0.4752 -0.5549
  560TMC3    C2 8357   1.460   2.279  11.077  0.4645 -0.0574  0.5244
  560TMC3    C3 8358   1.539   2.290  11.193  0.0268 -0.8014  0.1824
  560TMC3    C4 8359   1.665   2.297  10.943  0.6934 -0.1588  0.4277
  560TMC3    C5 8360   1.731   2.310  11.066  0.6878 -0.1300 -0.1423
  560TMC3    C6 8361   1.675   2.306  11.185 -0.6085  0.2287  0.5241
  560TMC3     C 8362   1.449   2.263  10.843  0.0767  0.0332 -0.3710
  560TMC3     O 8363   1.515   2.225  10.745  0.2900 -0.1859  0.2214
  560TMC3     H 8364   1.355   2.254  11.094  0.1834  0.7752  0.0385
  560TMC3    H1 8365   1.716   2.273  10.850  0.4458 -0.3757  0.3460
  560TMC3    H2 8366   1.735   2.308  11.275 -0.4147 -1.5474  0.4450
  560TMC3    C7 8367   1.873   2.284  11.064 -0.2616  0.9259  0.0798
  560TMC3    C8 8368   1.475   2.244  11.317  0.0680  0.0169 -0.7553
  560TMC3    O1 8369   1.912   2.201  10.986 -0.5301 -0.2733 -0.1336
  560TMC3    O2 8370   1.354   2.261  11.314  0.2226  0.2858 -0.0593
  561TMC3    C1 8371   3.782   1.349  11.509 -0.3619 -0.3130 -0.4400
  561TMC3    C2 8372   3.765   1.275  11.626  0.7249  0.0618  0.9950
  561TMC3    C3 8373   3.716   1.344  11.734  0.7282  0.4480 -0.3026
  561TMC3    C4 8374   3.735   1.473  11.499  0.4480  0.3042  0.1093
  561TMC3    C5 8375   3.677   1.534  11.609  0.2891  0.5717  0.2564
  561TMC3    C6 8376   3.672   1.472  11.727  0.3955 -0.1250  0.7431
  561TMC3     C 8377   3.853   1.290  11.395  0.1701  0.7395  0.9798
  561TMC3     O 8378   3.869   1.170  11.380 -0.3312  0.1359 -0.7031
  561TMC3     H 8379   3.805   1.175  11.641  0.2684 -0.5819 -2.2776
  561TMC3    H1 8380   3.706   1.523  11.407 -0.6267 -1.1421 -0.3293
  561TMC3    H2 8381   3.650   1.534  11.813 -0.7086  2.4355 -1.4028
  561TMC3    C7 8382   3.639   1.671  11.616 -0.1869  0.3629 -0.4488
  561TMC3    C8 8383   3.655   1.252  11.832  0.7710  0.6671  0.3420
  561TMC3    O1 8384   3.540   1.710  11.677 -0.1646 -0.3814 -0.2111
  561TMC3    O2 8385   3.678   1.133  11.834  0.2357  0.0132 -0.0262
  562TMC3    C1 8386   0.312   2.591  16.381 -0.2797 -0.2805  0.2078
  562TMC3    C2 8387   0.213   2.674  16.328  0.6648 -0.0482 -0.3213
  562TMC3    C3 8388   0.162   2.647  16.204  0.1867 -0.0638  0.0033
  562TMC3    C4 8389   0.348   2.474  16.321  0.5043 -0.2076 -0.3094
  562TMC3    C5 8390   0.282   2.443  16.201 -0.1513  0.2793 -0.5432
  562TMC3    C6 8391   0.192   2.527  16.140 -0.2442  0.4492 -0.1006
  562TMC3     C 8392   0.389   2.641  16.490  0.5950  0.3078  0.5135
  562TMC3     O 8393   0.345   2.745  16.537  0.7891 -0.2687 -0.0238
  562TMC3     H 8394   0.189   2.766  16.381 -0.1054 -1.4983  1.8627
  562TMC3    H1 8395   0.428   2.413  16.362  0.1902 -0.2218  0.2704
  562TMC3    H2 8396   0.146   2.499  16.046 -0.2202  0.7931 -0.2132
  562TMC3    C7 8397   0.319   2.316  16.132  0.4750  0.0751 -0.0086
  562TMC3    C8 8398   0.046   2.730  16.157  0.0132 -1.1494  0.0459
  562TMC3    O1 8399   0.310   2.316  16.012  0.3665 -0.5081 -0.1498
  562TMC3    O2 8400   4.712   2.754  16.250  0.4058  0.0007  0.4216
  563MPD2     C 8401   2.479   3.660  15.816  0.0593 -0.2418 -0.1629
  563MPD2    C1 8402   2.515   3.606  15.940  0.6243 -0.4095  0.2567
  563MPD2    C2 8403   2.636   3.626  16.001  0.2260 -0.3726  0.1172
  563MPD2    C3 8404   2.733   3.696  15.926  0.2855 -0.1988 -0.7460
  563MPD2    C4 8405   2.695   3.750  15.802 -0.0516 -0.5653  1.0378
  563MPD2    C5 8406   2.575   3.733  15.746 -0.0454  0.5499  0.2940
  563MPD2     H 8407   2.660   3.575  16.093 -0.1681  1.2077  1.0892
  563MPD2    H1 8408   2.772   3.796  15.741 -1.4524 -0.9868 -1.0389
  563MPD2    H2 8409   2.376   3.642  15.786  0.0794  0.0769 -0.4359
  563MPD2    H3 8410   2.545   3.774  15.650  1.4823 -2.3139 -1.3951
  563MPD2     N 8411   2.857   3.707  15.984 -0.3688 -0.4372  0.6125
  563MPD2    H5 8412   2.876   3.656  16.070 -1.5859 -1.9224 -0.0086
  563MPD2    N1 8413   2.431   3.516  16.003  0.1622  0.5116  0.4451
  563MPD2    H7 8414   2.475   3.464  16.079 -2.3049 -0.9966  0.8414
  564TMC3    C1 8415   2.287   3.342  16.061  0.1092  0.0029  0.4316
  564TMC3    C2 8416   2.160   3.305  16.094  1.3918  0.7032  0.8143
  564TMC3    C3 8417   2.151   3.198  16.188  0.0290  0.2055  0.5780
  564TMC3    C4 8418   2.405   3.287  16.110  0.4478  0.1025 -1.0824
  564TMC3    C5 8419   2.389   3.176  16.198 -0.0146 -0.7469  1.0400
  564TMC3    C6 8420   2.262   3.143  16.235  0.3237  0.5722  0.6294
  564TMC3     C 8421   2.309   3.457  15.970  0.4586 -0.2208  0.4753
  564TMC3     O 8422   2.226   3.489  15.886 -0.0907  0.6000 -0.4137
  564TMC3     H 8423   2.072   3.360  16.062  1.5885 -0.3842 -1.6428
  564TMC3    H1 8424   2.505   3.301  16.071  0.1952  0.6620 -1.5303
  564TMC3    H2 8425   2.251   3.071  16.316  0.1977 -1.3961 -1.1511
  564TMC3    C7 8426   2.506   3.126  16.264 -0.6523 -0.7615  1.4843
  564TMC3    C8 8427   2.032   3.128  16.212 -0.2911 -0.6026 -0.1233
  564TMC3    O1 8428   2.607   3.191  16.256 -0.2385  0.2139  0.1085
  564TMC3    O2 8429   2.044   3.016  16.261 -0.9485  0.1852 -0.4332
  565TMC3    C1 8430   3.165   0.521  10.230  0.0470 -0.2106  0.1173
  565TMC3    C2 8431   3.214   0.471  10.342  0.4034  0.1760  0.1221
  565TMC3    C3 8432   3.184   0.341  10.377 -0.2608 -1.2636 -0.3905
  565TMC3    C4 8433   3.094   0.450  10.138 -0.0225 -0.1128 -0.2594
  565TMC3    C5 8434   3.061   0.324  10.176  0.2393  0.5569 -0.4881
  565TMC3    C6 8435   3.096   0.269  10.300 -0.1855  0.2266  0.3410
  565TMC3     C 8436   3.176   0.667  10.207 -0.6328  0.1025 -0.7616
  565TMC3     O 8437   3.153   0.700  10.089 -0.0094  0.6408 -0.5206
  565TMC3     H 8438   3.284   0.529  10.401  1.0846 -1.8042  1.2714
  565TMC3    H1 8439   3.074   0.483  10.037 -0.0516 -2.5034 -1.0348
  565TMC3    H2 8440   3.067   0.171  10.335 -0.6783  0.1362 -0.3293
  565TMC3    C7 8441   2.955   0.265  10.104 -0.7768  0.7400 -0.3776
  565TMC3    C8 8442   3.263   0.286  10.483  0.2635  0.3514 -0.5412
  565TMC3    O1 8443   2.909   0.331  10.008 -0.6683  0.4196  0.8685
  565TMC3    O2 8444   3.323   0.362  10.557  0.1984 -0.4986  0.0118
  566MPD2     C 8445   0.249   2.312  14.533 -0.3964  0.2047 -0.1152
  566MPD2    C1 8446   0.359   2.340  14.449  0.2767  0.4634  0.4694
  566MPD2    C2 8447   0.327   2.395  14.327  0.3500  0.8708  0.2302
  566MPD2    C3 8448   0.197   2.422  14.291 -0.0927 -0.1900 -0.4950
  566MPD2    C4 8449   0.096   2.405  14.380  0.4265 -0.1228 -0.5224
  566MPD2    C5 8450   0.124   2.358  14.505 -0.0570 -0.0817 -0.2235
  566MPD2     H 8451   0.405   2.411  14.254  1.0371 -1.3402  0.4675
  566MPD2    H1 8452   0.003   2.452  14.351  1.0906  1.8894  0.6169
  566MPD2    H2 8453   0.260   2.259  14.627 -3.8563 -2.5652 -1.2798
  566MPD2    H3 8454   0.039   2.352  14.572 -1.9928 -0.5732 -2.6964
  566MPD2     N 8455   0.170   2.423  14.152 -0.5057  0.0593 -0.3139
  566MPD2    H5 8456   0.249   2.413  14.089 -0.9325 -1.6797 -0.5610
  566MPD2    N1 8457   0.486   2.276  14.474 -0.4265  0.5067 -0.7788
  566MPD2    H7 8458   0.479   2.198  14.539 -4.1397  0.9189 -0.7215
  567TMC3    C1 8459   0.696   2.187  14.412  0.2288  0.5452  0.2556
  567TMC3    C2 8460   0.794   2.179  14.316  0.2918 -0.0198  0.5131
  567TMC3    C3 8461   0.885   2.076  14.325  0.0701 -0.3021  0.5697
  567TMC3    C4 8462   0.696   2.100  14.520 -0.0358  0.5729  0.7598
  567TMC3    C5 8463   0.796   2.007  14.526 -0.2681 -0.1712  0.9426
  567TMC3    C6 8464   0.893   1.991  14.426  0.4866 -0.0094  0.1077
  567TMC3     C 8465   0.598   2.301  14.403 -0.1493  0.1651  0.3233
  567TMC3     O 8466   0.630   2.403  14.344  0.4603 -0.7937  0.5669
  567TMC3     H 8467   0.790   2.246  14.231  2.2108  1.6923  1.7555
  567TMC3    H1 8468   0.631   2.117  14.604 -1.3163  0.3547 -0.1942
  567TMC3    H2 8469   0.972   1.917  14.429  0.1639 -0.3128  0.9530
  567TMC3    C7 8470   0.814   1.925  14.646  0.0621  0.2918  1.5704
  567TMC3    C8 8471   0.943   2.043  14.196  0.3470 -0.1672  0.0179
  567TMC3    O1 8472   0.918   1.864  14.656 -0.7413  0.0028  0.1656
  567TMC3    O2 8473   0.970   2.130  14.115  0.2791  0.3693 -0.1754
  568MPD2     C 8474   1.647   2.018  16.898 -0.2975 -0.0522 -0.4930
  568MPD2    C1 8475   1.750   2.032  16.811  0.3857  0.8816  0.2551
  568MPD2    C2 8476   1.727   2.107  16.696 -0.4823  0.1671 -0.1357
  568MPD2    C3 8477   1.603   2.163  16.665 -0.1524 -0.8849  0.5429
  568MPD2    C4 8478   1.498   2.136  16.748 -0.3855 -0.4310 -0.8389
  568MPD2    C5 8479   1.519   2.057  16.861 -0.4184  0.4154 -0.1420
  568MPD2     H 8480   1.809   2.117  16.626  1.8834 -0.5034  2.5450
  568MPD2    H1 8481   1.400   2.181  16.738  0.0255  0.1915 -2.0715
  568MPD2    H2 8482   1.671   1.965  16.990 -0.0655 -0.3300 -0.7122
  568MPD2    H3 8483   1.439   2.046  16.934  1.0415  2.8643  1.8343
  568MPD2     N 8484   1.599   2.243  16.548  0.2136  0.5267 -0.8031
  568MPD2    H5 8485   1.691   2.253  16.504 -0.4335  3.0255 -1.6446
  568MPD2    N1 8486   1.877   1.963  16.842 -0.8054 -0.3605  0.9420
  568MPD2    H7 8487   1.871   1.891  16.913  0.3887 -1.3271  0.0805
  569TMC3    C1 8488   1.532   2.398  16.389 -0.1275  0.2532 -0.1622
  569TMC3    C2 8489   1.659   2.384  16.347  0.3411 -0.4062 -0.0760
  569TMC3    C3 8490   1.751   2.481  16.372 -0.4506  0.7695 -0.2576
  569TMC3    C4 8491   1.481   2.527  16.413  1.0537 -0.2474  0.3916
  569TMC3    C5 8492   1.578   2.630  16.415  0.3810  0.7623  0.5152
  569TMC3    C6 8493   1.712   2.611  16.399 -0.0006  0.6859 -0.1370
  569TMC3     C 8494   1.490   2.297  16.485  0.0869  0.0994 -0.2771
  569TMC3     O 8495   1.370   2.289  16.515  0.2655  0.2142 -1.1959
  569TMC3     H 8496   1.693   2.282  16.328 -0.5197  0.0179 -3.8584
  569TMC3    H1 8497   1.375   2.547  16.423  0.9614 -0.6785  0.2763
  569TMC3    H2 8498   1.789   2.683  16.426  0.7455  0.1470 -0.8219
  569TMC3    C7 8499   1.540   2.761  16.375  0.1575  0.1188  0.4060
  569TMC3    C8 8500   1.884   2.434  16.397 -0.5045  0.1682 -0.7700
  569TMC3    O1 8501   1.419   2.780  16.361 -0.2243 -0.8251  0.0899
  569TMC3    O2 8502   1.895   2.310  16.402 -0.0759 -0.1602  0.0338
  570TMC3    C1 8503   1.459   1.057  15.881  0.1477  0.4630  0.3343
  570TMC3    C2 8504   1.584   1.053  15.832 -0.2207 -0.5041  0.1777
  570TMC3    C3 8505   1.638   1.171  15.779 -0.3614 -0.2203 -0.1669
  570TMC3    C4 8506   1.388   1.172  15.890 -0.5345  0.3152  0.2957
  570TMC3    C5 8507   1.444   1.283  15.833 -0.5690  0.1149 -0.1448
  570TMC3    C6 8508   1.566   1.283  15.775 -0.1761 -0.2321  0.4013
  570TMC3     C 8509   1.408   0.946  15.951  0.1907 -0.3619 -0.3328
  570TMC3     O 8510   1.419   0.837  15.899  0.4604  0.1125  0.1629
  570TMC3     H 8511   1.635   0.957  15.835  1.3702  0.3085 -0.8237
  570TMC3    H1 8512   1.287   1.173  15.929 -0.2089 -1.1847  1.1321
  570TMC3    H2 8513   1.608   1.376  15.737  0.6756  0.2501  2.5412
  570TMC3    C7 8514   1.383   1.413  15.868 -0.1719 -0.1267 -0.4153
  570TMC3    C8 8515   1.774   1.179  15.731  0.3490  0.1238 -0.0603
  570TMC3    O1 8516   1.309   1.415  15.970  0.4938  0.0481 -0.1176
  570TMC3    O2 8517   1.826   1.290  15.725 -0.5233  0.2109  0.0450
  571MPD2     C 8518   3.784   3.202   0.089 -0.1733  0.6635  0.1894
  571MPD2    C1 8519   3.803   3.178   0.228 -0.4544  0.2730 -0.0626
  571MPD2    C2 8520   3.863   3.267   0.310 -0.4668 -0.2337  0.2371
  571MPD2    C3 8521   3.892   3.384   0.250  0.7075  0.2035  0.0883
  571MPD2    C4 8522   3.856   3.419   0.121 -0.7514 -0.0234  0.0670
  571MPD2    C5 8523   3.799   3.331   0.037  0.5461 -0.4381 -0.4256
  571MPD2     H 8524   3.891   3.237   0.411  3.2807 -0.0171 -0.7644
  571MPD2    H1 8525   3.890   3.515   0.086 -1.6185  0.8840  1.7017
  571MPD2    H2 8526   3.731   3.133   0.024 -0.9533  0.8958  0.5807
  571MPD2    H3 8527   3.763   3.352  17.697  3.7897 -0.6085 -1.6240
  571MPD2     N 8528   3.973   3.480   0.315  0.6852 -0.1228  0.1053
  571MPD2    H5 8529   4.005   3.555   0.255  1.6858 -0.0328  0.7567
  571MPD2    N1 8530   3.773   3.041   0.259  0.6236  0.0026  0.0654
  571MPD2    H7 8531   3.736   2.984   0.183  1.9499 -2.1419  1.0213
  572TMC3    C1 8532   4.129   3.576   0.459  1.0202 -0.8945  0.7122
  572TMC3    C2 8533   4.151   3.613   0.590  0.3831 -0.2305 -0.2004
  572TMC3    C3 8534   4.258   3.693   0.608 -0.3387 -0.2215  0.0472
  572TMC3    C4 8535   4.232   3.574   0.369  0.1819 -1.0889 -0.0030
  572TMC3    C5 8536   4.348   3.640   0.403 -0.2192 -0.0398  0.2106
  572TMC3    C6 8537   4.362   3.707   0.520 -0.0539 -0.1049  0.1541
  572TMC3     C 8538   4.022   3.480   0.446 -0.8989 -0.4467 -0.0569
  572TMC3     O 8539   4.007   3.409   0.541 -1.1104 -0.3696  0.5093
  572TMC3     H 8540   4.069   3.608   0.660  1.1956  0.8982  0.8371
  572TMC3    H1 8541   4.205   3.538   0.270 -1.5318 -0.3875  0.2142
  572TMC3    H2 8542   4.455   3.758   0.544 -1.3773  2.8462 -1.1035
  572TMC3    C7 8543   4.407   3.710   0.286 -0.2814 -0.2238  0.2591
  572TMC3    C8 8544   4.229   3.823   0.665  0.1492  0.8436  0.5726
  572TMC3    O1 8545   4.336   3.726   0.189  0.1910  0.2600 -0.0283
  572TMC3    O2 8546   4.315   3.906   0.636  0.0706 -0.0200  0.1303
  573MPD2     C 8547   1.020   3.907   0.539  0.8180 -0.1232 -0.3200
  573MPD2    C1 8548   1.070   4.024   0.598  0.7331 -0.0272  0.3244
  573MPD2    C2 8549   1.200   4.026   0.647 -0.0159  0.3045  0.0798
  573MPD2    C3 8550   1.282   3.921   0.616 -0.4758 -0.3829 -0.2163
  573MPD2    C4 8551   1.229   3.808   0.559  0.0468 -0.1328  0.0804
  573MPD2    C5 8552   1.102   3.798   0.524  0.4933 -0.5011  0.1335
  573MPD2     H 8553   1.242   4.118   0.687  0.4045  0.5959 -1.0148
  573MPD2    H1 8554   1.284   3.722   0.522 -0.5742 -0.0871 -0.9551
  573MPD2    H2 8555   0.914   3.901   0.518  0.7324  0.8730 -0.1852
  573MPD2    H3 8556   1.062   3.714   0.469  0.1603 -1.4201  1.7717
  573MPD2     N 8557   1.419   3.935   0.642  0.3098 -0.2543 -0.5307
  573MPD2    H5 8558   1.450   4.018   0.690 -0.4462  1.2223 -2.5987
  573MPD2    N1 8559   0.983   4.140   0.600 -0.0582  0.1386  0.1190
  573MPD2    H7 8560   0.886   4.126   0.576 -0.3053 -0.5795  1.5458
  574TMC3    C1 8561   1.595   4.000   0.510  0.1731  0.3040  0.3055
  574TMC3    C2 8562   1.561   4.127   0.540  0.4997 -0.0242  0.1936
  574TMC3    C3 8563   1.651   4.224   0.515 -0.3035 -0.1574  0.6822
  574TMC3    C4 8564   1.721   3.967   0.464 -0.1191  0.5615  0.5270
  574TMC3    C5 8565   1.814   4.073   0.451 -0.7869 -0.1739  0.7296
  574TMC3    C6 8566   1.782   4.204   0.484 -0.1937 -0.1702  0.2522
  574TMC3     C 8567   1.519   3.883   0.556  0.3572  0.3928  0.6167
  574TMC3     O 8568   1.529   3.777   0.490  0.1474 -0.3329  0.1402
  574TMC3     H 8569   1.458   4.153   0.563  0.1515 -1.0848 -0.1394
  574TMC3    H1 8570   1.754   3.864   0.456  1.1111  1.0234 -0.4778
  574TMC3    H2 8571   1.839   4.292   0.455  0.1462 -0.4953 -0.0749
  574TMC3    C7 8572   1.948   4.043   0.430  0.8769  0.2478  0.3794
  574TMC3    C8 8573   1.613   4.352   0.546  0.2170  0.1248  0.2895
  574TMC3    O1 8574   1.966   3.928   0.393  0.1071  0.1840 -0.4574
  574TMC3    O2 8575   1.702   4.420   0.590  0.0325  0.5968 -0.0481
  575TMC3    C1 8576   3.629   0.326  11.284  0.3660  0.3271  0.3249
  575TMC3    C2 8577   3.681   0.215  11.342  0.1514  0.4583  0.8061
  575TMC3    C3 8578   3.697   0.106  11.261 -0.2402 -0.6633 -0.0959
  575TMC3    C4 8579   3.581   0.316  11.155 -0.3228  0.5210  0.0836
  575TMC3    C5 8580   3.601   0.210  11.078 -0.6708  0.1509 -0.4109
  575TMC3    C6 8581   3.660   0.101  11.131 -0.4194  0.6334  0.4889
  575TMC3     C 8582   3.621   0.464  11.347 -0.1296  0.3802  0.0913
  575TMC3     O 8583   3.524   0.537  11.319 -0.3303  0.0229 -0.6022
  575TMC3     H 8584   3.706   0.219  11.448  3.4801 -0.4675  0.0911
  575TMC3    H1 8585   3.519   0.394  11.112 -1.1708 -0.7350 -0.9838
  575TMC3    H2 8586   3.690   0.009  11.083  0.0034  1.0061  0.0481
  575TMC3    C7 8587   3.513   0.201  10.955  0.0916 -0.0839  0.6099
  575TMC3    C8 8588   3.743   4.723  11.311 -0.3013 -0.2956 -0.0924
  575TMC3    O1 8589   3.466   0.298  10.902 -0.4154 -0.5363 -0.3245
  575TMC3    O2 8590   3.721   4.617  11.255 -0.1044 -0.1166  0.2333
  576MPD2     C 8591   2.694   1.779  12.807  0.0107  0.2816 -0.3453
  576MPD2    C1 8592   2.811   1.855  12.807  0.0157 -0.4464 -0.3095
  576MPD2    C2 8593   2.818   1.956  12.897 -0.6083 -0.9245  0.4564
  576MPD2    C3 8594   2.734   1.979  13.004 -0.3355  0.0520  0.2309
  576MPD2    C4 8595   2.629   1.896  13.011  0.1673 -0.1440 -0.2758
  576MPD2    C5 8596   2.607   1.793  12.915 -0.3775  0.2680 -0.4594
  576MPD2     H 8597   2.896   2.031  12.891 -0.2973 -1.2367  0.6003
  576MPD2    H1 8598   2.557   1.904  13.092  0.3681 -2.1886  0.1014
  576MPD2    H2 8599   2.681   1.695  12.741 -0.6334  0.6299 -0.6610
  576MPD2    H3 8600   2.523   1.725  12.921 -2.3348  2.6607 -0.5390
  576MPD2     N 8601   2.762   2.095  13.087  0.9694 -0.4618  0.7562
  576MPD2    H5 8602   2.847   2.149  13.081  2.0781 -1.8775  3.7359
  576MPD2    N1 8603   2.921   1.830  12.721  0.5410 -0.1048 -0.4578
  576MPD2    H7 8604   2.990   1.904  12.726 -0.6655  0.9969 -0.1742
  577TMC3    C1 8605   3.058   1.710  12.565 -0.1348  0.2159 -0.1065
  577TMC3    C2 8606   3.101   1.590  12.519  0.1287  0.0176  0.3438
  577TMC3    C3 8607   3.205   1.593  12.429 -0.3321 -0.6383 -0.8129
  577TMC3    C4 8608   3.102   1.833  12.516 -0.3715 -0.3449  0.5326
  577TMC3    C5 8609   3.197   1.826  12.414  0.2400 -0.5828 -0.4647
  577TMC3    C6 8610   3.245   1.710  12.368  0.3922  0.3696  0.0007
  577TMC3     C 8611   2.940   1.707  12.658  0.0905 -0.0629 -0.1118
  577TMC3     O 8612   2.893   1.596  12.676 -0.3860  0.0321  0.4966
  577TMC3     H 8613   3.077   1.497  12.569 -1.2728  0.4695  0.5084
  577TMC3    H1 8614   3.044   1.921  12.542  0.4548  0.7999 -1.4972
  577TMC3    H2 8615   3.328   1.712  12.299  0.6235 -0.5326  0.2449
  577TMC3    C7 8616   3.257   1.950  12.382 -0.1769  0.4487  0.0185
  577TMC3    C8 8617   3.265   1.461  12.404  0.4929  0.4806  0.3299
  577TMC3    O1 8618   3.240   2.044  12.459  0.1086  0.1885  0.3996
  577TMC3    O2 8619   3.240   1.364  12.476 -0.0956  0.1327  0.5361
  578MPD2     C 8620   1.113   1.867   1.278 -0.1023  0.0499  0.4845
  578MPD2    C1 8621   1.163   1.822   1.158  0.6629 -0.5401  0.2801
  578MPD2    C2 8622   1.293   1.780   1.154  0.2786 -0.6862 -0.4891
  578MPD2    C3 8623   1.374   1.789   1.262 -0.2489  0.5670 -0.1025
  578MPD2    C4 8624   1.319   1.825   1.388  0.4423  0.5563 -0.7410
  578MPD2    C5 8625   1.189   1.873   1.389 -0.4042  0.3282  0.2698
  578MPD2     H 8626   1.325   1.737   1.060 -0.0418 -1.9394 -0.0260
  578MPD2    H1 8627   1.382   1.835   1.475 -0.3819 -4.1282  0.3492
  578MPD2    H2 8628   1.010   1.901   1.281 -0.2564 -0.5034  1.3957
  578MPD2    H3 8629   1.138   1.919   1.473 -2.4229 -0.3100 -0.6080
  578MPD2     N 8630   1.509   1.759   1.242  0.0411  0.1649 -0.0279
  578MPD2    H5 8631   1.528   1.701   1.160 -1.4162 -0.9335  0.4042
  578MPD2    N1 8632   1.087   1.820   1.037  0.3831 -0.0203  0.4305
  578MPD2    H7 8633   0.988   1.843   1.034  0.5503  0.6038 -0.2850
  579TMC3    C1 8634   1.735   1.752   1.279 -0.0594  0.8584  0.0496
  579TMC3    C2 8635   1.846   1.812   1.343  0.0043 -0.0396 -0.3104
  579TMC3    C3 8636   1.971   1.758   1.318 -0.1336 -0.0179  0.8621
  579TMC3    C4 8637   1.753   1.643   1.199  0.0201 -0.7910 -1.1833
  579TMC3    C5 8638   1.880   1.594   1.183  0.1993  0.6107 -0.4132
  579TMC3    C6 8639   1.992   1.652   1.232  0.0985 -0.2846  0.2932
  579TMC3     C 8640   1.607   1.802   1.326 -0.4701 -0.3767 -0.2576
  579TMC3     O 8641   1.613   1.888   1.419 -0.3078  0.2059  0.9158
  579TMC3     H 8642   1.834   1.901   1.403 -0.5830 -1.7687  2.1582
  579TMC3    H1 8643   1.666   1.580   1.182 -0.1610 -0.2089 -2.4238
  579TMC3    H2 8644   2.093   1.613   1.222  0.0704 -0.7754  1.9068
  579TMC3    C7 8645   1.907   1.479   1.099  0.2973  0.4147  0.0125
  579TMC3    C8 8646   2.080   1.830   1.381 -0.3095  0.0540 -0.5094
  579TMC3    O1 8647   2.021   1.429   1.103 -0.2118  0.1760  0.9481
  579TMC3    O2 8648   2.057   1.925   1.459 -0.6624 -0.8208 -0.6048
  580TMC3    C1 8649   1.240   0.883  12.581  0.6447  0.8464 -0.2191
  580TMC3    C2 8650   1.364   0.930  12.536  0.0021  0.5047 -0.1616
  580TMC3    C3 8651   1.464   0.842  12.489 -0.3276 -0.0696 -0.3825
  580TMC3    C4 8652   1.219   0.749  12.574 -0.7648 -0.0656  0.8808
  580TMC3    C5 8653   1.316   0.668  12.527  0.7083  0.3428 -0.0473
  580TMC3    C6 8654   1.434   0.705  12.475 -0.4482 -0.4650  0.0364
  580TMC3     C 8655   1.125   0.972  12.558 -0.9857 -0.5889 -0.0869
  580TMC3     O 8656   1.124   1.094  12.577  0.5923  0.0312 -0.1307
  580TMC3     H 8657   1.374   1.038  12.531  1.1792  0.2987 -1.8572
  580TMC3    H1 8658   1.133   0.705  12.624 -1.9271 -0.1786 -1.2303
  580TMC3    H2 8659   1.502   0.636  12.427  0.2878 -1.4141  2.4550
  580TMC3    C7 8660   1.302   0.517  12.539  0.9840 -0.8594  0.0808
  580TMC3    C8 8661   1.573   0.889  12.415  0.1356  0.3820  1.1201
  580TMC3    O1 8662   1.242   0.474  12.639  0.1098 -0.6206  0.2355
  580TMC3    O2 8663   1.625   0.809  12.340  0.7713  0.0232 -0.0699
  581MPD2     C 8664   3.564   0.530  15.152  0.6655  0.3874  0.0560
  581MPD2    C1 8665   3.477   0.441  15.090 -0.3826 -1.0184  0.1699
  581MPD2    C2 8666   3.374   0.489  15.013 -0.0453  0.6270  0.0016
  581MPD2    C3 8667   3.358   0.627  14.999 -0.0532  0.0785 -0.3242
  581MPD2    C4 8668   3.448   0.713  15.065 -0.0935 -0.6200 -0.1457
  581MPD2    C5 8669   3.545   0.664  15.147 -0.8084 -0.4612 -0.2687
  581MPD2     H 8670   3.319   0.414  14.957 -0.2244  1.8421 -1.4756
  581MPD2    H1 8671   3.442   0.821  15.053  0.9039 -0.2483  2.7178
  581MPD2    H2 8672   3.654   0.500  15.205  0.5856  0.8516  0.4553
  581MPD2    H3 8673   3.609   0.728  15.207 -0.8953 -1.0256  0.4222
  581MPD2     N 8674   3.262   0.696  14.917  0.0310 -0.5707 -0.3065
  581MPD2    H5 8675   3.257   0.795  14.934  0.3569 -1.1700  3.3082
  581MPD2    N1 8676   3.504   0.305  15.126 -0.3727  0.4658  0.0040
  581MPD2    H7 8677   3.597   0.288  15.164  0.1153 -0.0572 -1.3929
  582TMC3    C1 8678   3.470   0.078  15.169  0.1752 -0.1823 -0.6514
  582TMC3    C2 8679   3.529   0.079  15.289  1.0755 -0.1541 -0.3369
  582TMC3    C3 8680   3.533   4.706  15.369  0.4931  0.2579 -0.2218
  582TMC3    C4 8681   3.392   4.706  15.133 -0.2900 -0.3675 -0.0323
  582TMC3    C5 8682   3.385   4.598  15.220  0.5963 -0.0675 -0.0247
  582TMC3    C6 8683   3.472   4.589  15.327  0.1403  0.0782  0.2242
  582TMC3     C 8684   3.419   0.202  15.109  0.4163 -0.2764  0.9595
  582TMC3     O 8685   3.296   0.211  15.098  0.1809  0.3508  0.3037
  582TMC3     H 8686   3.561   0.173  15.332 -2.1113  1.4034 -1.3761
  582TMC3    H1 8687   3.334   4.708  15.041  0.0074 -0.1232 -0.2160
  582TMC3    H2 8688   3.469   4.504  15.395  0.2419  0.1904  0.3688
  582TMC3    C7 8689   3.250   4.583  15.276  0.9785  0.2921  0.8401
  582TMC3    C8 8690   3.521   4.730  15.516 -0.4260 -0.0225  0.7195
  582TMC3    O1 8691   3.233   4.484  15.348  0.2193  0.2950  0.3795
  582TMC3    O2 8692   3.519   0.105  15.551  0.1125 -0.3245  0.2738
  583MPD2     C 8693   3.702   2.078  17.002 -0.5991 -0.5387 -0.0347
  583MPD2    C1 8694   3.614   2.123  16.908  0.4105  0.5612 -0.1517
  583MPD2    C2 8695   3.481   2.149  16.946 -0.0278 -0.2896 -0.2572
  583MPD2    C3 8696   3.451   2.152  17.081  0.3711 -0.3753  0.0616
  583MPD2    C4 8697   3.533   2.108  17.175 -0.0401 -0.3094 -0.2734
  583MPD2    C5 8698   3.653   2.061  17.131  0.3205  0.1541 -0.1065
  583MPD2     H 8699   3.400   2.183  16.882 -0.0449 -0.9373 -0.5861
  583MPD2    H1 8700   3.498   2.101  17.277 -0.3696 -1.2523 -0.4556
  583MPD2    H2 8701   3.806   2.048  16.989 -0.1128  0.5280  1.3485
  583MPD2    H3 8702   3.713   2.021  17.212 -0.7159  2.5716  1.8449
  583MPD2     N 8703   3.336   2.226  17.109 -0.5024 -0.2950 -0.2276
  583MPD2    H5 8704   3.285   2.249  17.025 -2.4216 -0.8504  0.7871
  583MPD2    N1 8705   3.657   2.146  16.774  0.2560  0.1605  0.5668
  583MPD2    H7 8706   3.586   2.173  16.707 -0.1470  0.2591  1.0322
  584TMC3    C1 8707   3.232   2.413  17.216  0.2570 -0.5059 -0.4088
  584TMC3    C2 8708   3.258   2.494  17.110 -0.2704 -0.7406  0.2902
  584TMC3    C3 8709   3.249   2.631  17.130 -0.1147 -0.1069 -0.3522
  584TMC3    C4 8710   3.187   2.468  17.332 -0.3453  0.7572  0.4538
  584TMC3    C5 8711   3.184   2.597  17.350  0.3309 -0.3720 -0.5493
  584TMC3    C6 8712   3.216   2.683  17.246  0.2163  0.2208 -0.2251
  584TMC3     C 8713   3.303   2.284  17.234  0.0136  0.6609 -0.0703
  584TMC3     O 8714   3.351   2.273  17.346  0.0537  0.3620 -0.2747
  584TMC3     H 8715   3.311   2.447  17.028 -0.3474  1.1523 -0.8318
  584TMC3    H1 8716   3.155   2.395  17.406  0.4552 -1.0608 -1.0219
  584TMC3    H2 8717   3.202   2.788  17.267  2.3050  0.2422  1.0549
  584TMC3    C7 8718   3.166   2.644  17.488  1.0426 -0.9748  0.1355
  584TMC3    C8 8719   3.297   2.714  17.022 -0.2909  0.6077 -1.1537
  584TMC3    O1 8720   3.120   2.555  17.558 -0.1337  0.9116  0.6324
  584TMC3    O2 8721   3.269   2.674  16.905  0.8285 -0.1667 -0.2494
  585MPD2     C 8722   2.728   0.741   0.444 -0.8927 -0.0964  0.2386
  585MPD2    C1 8723   2.824   0.717   0.348 -0.7734  0.7067  1.0179
  585MPD2    C2 8724   2.789   0.654   0.230 -0.2473  0.3184  0.3418
  585MPD2    C3 8725   2.669   0.592   0.220 -0.2395  0.2391 -0.2725
  585MPD2    C4 8726   2.580   0.607   0.330 -0.0321 -0.2639 -0.5981
  585MPD2    C5 8727   2.609   0.679   0.435  0.3438  0.1169  0.4592
  585MPD2     H 8728   2.861   0.653   0.148  0.4978  1.9967  0.9805
  585MPD2    H1 8729   2.483   0.561   0.320  0.0112 -0.0506 -1.9435
  585MPD2    H2 8730   2.745   0.816   0.519  1.5583 -0.0825 -0.3099
  585MPD2    H3 8731   2.536   0.680   0.516 -2.9379 -1.1223 -2.4902
  585MPD2     N 8732   2.619   0.518   0.108 -0.6375 -0.3078 -0.1952
  585MPD2    H5 8733   2.518   0.508   0.108 -0.9562  2.7542  0.2250
  585MPD2    N1 8734   2.943   0.795   0.359  0.9639  0.0260  0.4493
  585MPD2    H7 8735   2.944   0.871   0.426 -0.9096 -0.0278  0.5271
  586TMC3    C1 8736   2.610   0.480  17.630 -0.2040 -0.4978 -0.0631
  586TMC3    C2 8737   2.679   0.500  17.516  0.3716  0.3606  0.1935
  586TMC3    C3 8738   2.615   0.555  17.412 -0.4473 -0.1944 -0.3240
  586TMC3    C4 8739   2.476   0.512  17.645  0.4828  0.2404  0.8815
  586TMC3    C5 8740   2.407   0.550  17.540  0.3776 -0.4825 -1.1363
  586TMC3    C6 8741   2.471   0.575  17.422 -0.5018 -0.1633  0.2060
  586TMC3     C 8742   2.689   0.481  17.758 -0.5628  0.6626  0.7499
  586TMC3     O 8743   2.813   0.467  17.750  0.7066 -0.3404  0.0655
  586TMC3     H 8744   2.785   0.477  17.516  0.1519 -0.6012 -3.2255
  586TMC3    H1 8745   2.419   0.470  17.727 -0.4224  2.3656  1.3486
  586TMC3    H2 8746   2.422   0.595  17.327  1.0197 -0.7236 -0.6970
  586TMC3    C7 8747   2.272   0.495  17.531 -0.3852  0.5514 -0.4887
  586TMC3    C8 8748   2.654   0.495  17.290  0.1931  0.7748  0.5324
  586TMC3    O1 8749   2.256   0.391  17.587 -0.4100  0.8112  0.6639
  586TMC3    O2 8750   2.724   0.392  17.299 -0.1294  0.3806  0.2079
  587TMC3    C1 8751   0.395   4.392  16.420 -0.3173  0.2863 -0.1548
  587TMC3    C2 8752   0.358   4.497  16.345  0.4550  0.1318 -0.2655
  587TMC3    C3 8753   0.388   4.624  16.391  0.1465  0.3946 -0.1655
  587TMC3    C4 8754   0.478   4.400  16.534 -0.4713 -0.2165 -0.2680
  587TMC3    C5 8755   0.510   4.532  16.570  0.1887 -0.9072 -0.2820
  587TMC3    C6 8756   0.467   4.647  16.502 -0.1806 -0.7500 -0.4725
  587TMC3     C 8757   0.334   4.266  16.397  1.0890  1.3065 -0.7655
  587TMC3     O 8758   0.387   4.157  16.405  0.1593  0.0062  0.3656
  587TMC3     H 8759   0.297   4.483  16.256 -1.9680  0.9684  1.2592
  587TMC3    H1 8760   0.509   4.308  16.584 -0.9707 -1.3804 -2.1265
  587TMC3    H2 8761   0.496   0.007  16.528 -0.0976 -1.0198  0.4995
  587TMC3    C7 8762   0.611   4.543  16.674  0.1482  0.9243  0.2598
  587TMC3    C8 8763   0.337   4.730  16.313 -0.0382  0.0099  0.4233
  587TMC3    O1 8764   0.654   4.436  16.713 -0.7370 -0.0780 -0.1115
  587TMC3    O2 8765   0.297   4.706  16.200 -0.2066 -0.5602 -0.1141
  588TMC3    C1 8766   2.368   2.725  10.170  0.1453  0.8498 -0.6096
  588TMC3    C2 8767   2.335   2.612  10.097  0.2435  0.1076 -0.7165
  588TMC3    C3 8768   2.411   2.500  10.127  0.2717  0.0761  0.6752
  588TMC3    C4 8769   2.476   2.734  10.253 -0.3860  0.2020  0.0844
  588TMC3    C5 8770   2.562   2.627  10.253  0.0307  0.3536 -0.3393
  588TMC3    C6 8771   2.530   2.507  10.198 -0.7836  0.7487  0.2782
  588TMC3     C 8772   2.286   2.844  10.156 -0.6142 -0.4256 -0.4341
  588TMC3     O 8773   2.223   2.845  10.052  0.7304 -0.2242  0.0873
  588TMC3     H 8774   2.241   2.592  10.048  0.6514 -0.2849 -1.3409
  588TMC3    H1 8775   2.513   2.825  10.298 -0.6568  0.5785 -0.4575
  588TMC3    H2 8776   2.597   2.422  10.196 -0.6523  0.8760 -0.7404
  588TMC3    C7 8777   2.699   2.655  10.291 -0.1162  0.3276  0.1692
  588TMC3    C8 8778   2.407   2.389  10.032  0.7115 -0.3149  0.5658
  588TMC3    O1 8779   2.761   2.554  10.323  0.2723  0.5267 -0.2932
  588TMC3    O2 8780   2.351   2.402   9.922  0.0231 -0.0195  0.5945
  589TMC3    C1 8781   2.059   0.198   1.247  0.0168 -0.3734 -0.5121
  589TMC3    C2 8782   2.182   0.214   1.307  0.2628  0.1144  0.2957
  589TMC3    C3 8783   2.275   0.113   1.304  0.2681  0.2496  0.2589
  589TMC3    C4 8784   2.025   0.084   1.183  0.7021  0.1686  0.3589
  589TMC3    C5 8785   2.116   4.720   1.197 -0.8539 -0.4441  0.2912
  589TMC3    C6 8786   2.239   4.731   1.256  0.7801  0.1504  0.0273
  589TMC3     C 8787   1.953   0.291   1.261  0.0999  0.5644 -0.1560
  589TMC3     O 8788   1.841   0.265   1.218 -0.2614  0.2872 -0.2049
  589TMC3     H 8789   2.209   0.303   1.362 -1.1157 -1.2426  3.1628
  589TMC3    H1 8790   1.928   0.072   1.135  0.3607  1.2307  0.7806
  589TMC3    H2 8791   2.296   4.642   1.280 -0.1223 -0.4630 -0.0716
  589TMC3    C7 8792   2.088   4.600   1.124  0.5184  0.3342 -0.5422
  589TMC3    C8 8793   2.404   0.126   1.367  0.8368 -0.6470  0.5241
  589TMC3    O1 8794   1.974   4.577   1.085  0.2004  0.3553  0.1248
  589TMC3    O2 8795   2.432   0.216   1.444 -0.5033 -0.6296  0.3728
  590MPD2     C 8796   0.821   2.623  16.224  0.2444  0.8021  0.5182
  590MPD2    C1 8797   0.845   2.754  16.268 -0.2163 -0.3446  0.4892
  590MPD2    C2 8798   0.958   2.821  16.238  0.1967  0.0323  0.2186
  590MPD2    C3 8799   1.054   2.754  16.162  0.0072 -0.1310 -0.8944
  590MPD2    C4 8800   1.029   2.626  16.120 -0.0478 -0.4904  0.1742
  590MPD2    C5 8801   0.916   2.559  16.154  0.3594  0.4287 -0.5258
  590MPD2     H 8802   0.970   2.929  16.244 -0.3375  0.0545  0.8977
  590MPD2    H1 8803   1.106   2.571  16.066  0.5884 -0.3854  0.9702
  590MPD2    H2 8804   0.731   2.568  16.252  1.2703 -1.3694 -0.4048
  590MPD2    H3 8805   0.900   2.455  16.129 -0.5482  0.0258  1.7107
  590MPD2     N 8806   1.175   2.827  16.131  0.1963 -0.0699  0.1178
  590MPD2    H5 8807   1.179   2.919  16.174 -3.0753  0.8563 -1.5279
  590MPD2    N1 8808   0.742   2.798  16.348 -0.4051 -0.1087  0.1928
  590MPD2    H7 8809   0.654   2.746  16.344 -0.2176 -0.2470 -1.9474
  591TMC3    C1 8810   1.387   2.869  16.026  0.7801  0.7906 -0.4605
  591TMC3    C2 8811   1.501   2.827  15.965 -0.1628 -0.4369  0.7976
  591TMC3    C3 8812   1.583   2.918  15.900  0.2720  0.1788  0.5218
  591TMC3    C4 8813   1.339   2.996  15.995 -0.1447  0.3249  0.0602
  591TMC3    C5 8814   1.416   3.080  15.921  0.3690  0.8091  0.2160
  591TMC3    C6 8815   1.544   3.046  15.871 -1.2564  0.2075  0.2515
  591TMC3     C 8816   1.288   2.767  16.068  1.0033  0.5683  0.3899
  591TMC3     O 8817   1.315   2.650  16.041 -0.9390 -0.0471  0.0390
  591TMC3     H 8818   1.534   2.727  15.992  1.6129 -0.3658 -1.1052
  591TMC3    H1 8819   1.238   3.025  16.021 -0.1313  1.5326 -1.1958
  591TMC3    H2 8820   1.577   3.118  15.797  1.3987 -0.6752  0.5887
  591TMC3    C7 8821   1.348   3.190  15.860 -0.4505  0.5667  0.3341
  591TMC3    C8 8822   1.721   2.877  15.873  0.1728 -0.7385  0.4008
  591TMC3    O1 8823   1.238   3.172  15.809 -0.5767 -0.2164 -0.0574
  591TMC3    O2 8824   1.749   2.757  15.877 -0.3583  0.4041  0.0996
  592MPD2     C 8825   2.001   0.499  11.414  0.2102 -0.3614  0.3648
  592MPD2    C1 8826   1.967   0.508  11.548 -0.0963  0.6335  0.5582
  592MPD2    C2 8827   1.902   0.411  11.616 -0.3224 -0.1982  0.9404
  592MPD2    C3 8828   1.877   0.296  11.553 -0.6373 -0.4643  0.3176
  592MPD2    C4 8829   1.916   0.282  11.422  0.2671 -1.1769 -0.0974
  592MPD2    C5 8830   1.971   0.385  11.356  0.7091  0.4727  0.0958
  592MPD2     H 8831   1.895   0.421  11.724  0.7749  0.7572  0.9200
  592MPD2    H1 8832   1.897   0.193  11.363  0.5998 -0.9651 -0.5277
  592MPD2    H2 8833   2.057   0.577  11.363  1.1799 -1.6041 -0.4695
  592MPD2    H3 8834   2.007   0.374  11.254  0.9424 -0.7116  0.3117
  592MPD2     N 8835   1.820   0.189  11.627  0.5210 -0.3658 -0.4116
  592MPD2    H5 8836   1.781   0.211  11.718  1.2930 -0.0966 -0.1453
  592MPD2    N1 8837   2.034   0.618  11.611 -0.5599 -0.2783 -0.2598
  592MPD2    H7 8838   2.101   0.666  11.552 -0.5568 -2.5480 -2.1190
  593TMC3    C1 8839   2.078   0.783  11.781 -0.0411  0.2079 -0.1668
  593TMC3    C2 8840   2.075   0.821  11.907 -0.3014 -0.0889  0.1370
  593TMC3    C3 8841   2.085   0.953  11.937  0.0763 -0.6517  0.2731
  593TMC3    C4 8842   2.107   0.877  11.689 -0.0287  0.0772 -1.0839
  593TMC3    C5 8843   2.106   1.012  11.719 -0.0033  0.1372 -0.3493
  593TMC3    C6 8844   2.105   1.053  11.847  0.2984 -0.4806  0.0028
  593TMC3     C 8845   2.015   0.655  11.743 -1.2346 -0.0958 -0.2332
  593TMC3     O 8846   1.961   0.596  11.837  0.6087 -0.6934  0.0056
  593TMC3     H 8847   2.044   0.758  11.989  0.7703 -0.4534  0.2605
  593TMC3    H1 8848   2.099   0.853  11.583  1.2777  2.1680 -1.6548
  593TMC3    H2 8849   2.093   1.156  11.879 -2.4246  0.5390 -4.2902
  593TMC3    C7 8850   2.139   1.112  11.620  0.1879 -0.0417 -0.1769
  593TMC3    C8 8851   2.074   0.992  12.077 -0.1075 -0.7426  0.2102
  593TMC3    O1 8852   2.162   1.222  11.661  0.3221 -0.2525  0.4283
  593TMC3    O2 8853   2.020   0.914  12.151  0.2396  0.4907 -0.4192
  594MPD2     C 8854   1.092   3.816  14.904 -0.1179  0.1293 -0.0005
  594MPD2    C1 8855   0.990   3.895  14.864 -0.2281 -0.5875 -0.3661
  594MPD2    C2 8856   1.013   4.025  14.849 -0.1336 -0.2738 -0.8877
  594MPD2    C3 8857   1.140   4.076  14.862 -0.2719  0.5170 -0.3416
  594MPD2    C4 8858   1.246   4.002  14.903  0.5446 -0.1000  0.0486
  594MPD2    C5 8859   1.216   3.873  14.931  0.2657 -0.0872 -0.5215
  594MPD2     H 8860   0.935   4.087  14.807 -1.1683  0.4769  2.1574
  594MPD2    H1 8861   1.345   4.039  14.925  0.1929  0.7823  0.1540
  594MPD2    H2 8862   1.083   3.714  14.941 -1.5765 -0.0245 -0.7816
  594MPD2    H3 8863   1.294   3.806  14.965 -0.2924 -0.9789 -0.9971
  594MPD2     N 8864   1.147   4.212  14.839 -0.0406  0.3026  0.0455
  594MPD2    H5 8865   1.061   4.239  14.791 -0.2101  0.5237  0.4671
  594MPD2    N1 8866   0.860   3.839  14.877 -0.1487  0.5401 -0.4478
  594MPD2    H7 8867   0.846   3.741  14.897 -0.5722  0.7652  0.3797
  595TMC3    C1 8868   1.322   4.645  14.770  0.2374  0.3830 -0.2772
  595TMC3    C2 8869   1.343   4.515  14.798 -0.3311  0.4393  0.0415
  595TMC3    C3 8870   1.235   4.433  14.830  0.1361 -0.3974 -0.6790
  595TMC3    C4 8871   1.199   4.697  14.757  0.0836 -0.0055 -0.1586
  595TMC3    C5 8872   1.095   4.611  14.773 -0.4498 -0.1577 -0.8806
  595TMC3    C6 8873   1.109   4.486  14.816 -0.1625  0.0787 -0.3192
  595TMC3     C 8874   1.421   4.715  14.696  0.2106 -0.2777  0.6584
  595TMC3     O 8875   1.395   0.023  14.588  0.5505 -0.7275  0.2824
  595TMC3     H 8876   1.442   4.473  14.786 -1.4823 -2.3342  0.1084
  595TMC3    H1 8877   1.190   0.057  14.716 -1.6941  0.2214  0.7992
  595TMC3    H2 8878   1.018   4.428  14.831 -0.4297  0.3655 -0.8190
  595TMC3    C7 8879   0.961   4.667  14.811 -0.0623  0.1315 -0.0858
  595TMC3    C8 8880   1.259   4.292  14.856  0.5940 -0.2084 -0.0582
  595TMC3    O1 8881   0.866   4.588  14.832  0.6525 -0.2848  0.0590
  595TMC3    O2 8882   1.376   4.253  14.868  0.5080 -0.5098  0.0310
  596MPD2     C 8883   4.533   1.923  16.981  0.3500 -0.5985  0.2294
  596MPD2    C1 8884   4.522   2.035  16.901 -0.1862 -0.6980  0.2108
  596MPD2    C2 8885   4.546   2.022  16.763 -0.4628  0.1238  0.3006
  596MPD2    C3 8886   4.563   1.898  16.704 -0.0474  0.1413 -0.8801
  596MPD2    C4 8887   4.575   1.792  16.787  0.7655 -0.1673  0.7681
  596MPD2    C5 8888   4.564   1.803  16.924 -0.3439  0.2120 -0.2445
  596MPD2     H 8889   4.532   2.108  16.699 -0.1507 -0.2391 -0.2534
  596MPD2    H1 8890   4.597   1.694  16.744  0.3514 -0.2890  0.8339
  596MPD2    H2 8891   4.516   1.927  17.088 -0.1142 -2.0648  0.2093
  596MPD2    H3 8892   4.579   1.709  16.976 -2.8189 -1.2632 -2.1982
  596MPD2     N 8893   4.556   1.872  16.562 -0.1501 -0.3128 -0.1200
  596MPD2    H5 8894   4.571   1.772  16.549 -0.8739 -0.2443 -1.4669
  596MPD2    N1 8895   4.502   2.163  16.952  0.2689 -0.0886 -0.2592
  596MPD2    H7 8896   4.492   2.248  16.896  0.6939 -0.6212 -1.1443
  597TMC3    C1 8897   4.448   2.341  17.111 -0.6690 -1.0409  0.7384
  597TMC3    C2 8898   4.516   2.445  17.050  0.1608 -0.7122 -0.8772
  597TMC3    C3 8899   4.457   2.569  17.052 -0.0598  0.0388  0.3502
  597TMC3    C4 8900   4.345   2.358  17.190  0.3654 -0.8357  0.1524
  597TMC3    C5 8901   4.287   2.481  17.198  0.4404 -0.0466  0.0195
  597TMC3    C6 8902   4.338   2.588  17.122  0.7833 -0.1826  0.7855
  597TMC3     C 8903   4.499   2.202  17.085  0.4166  0.1062  0.0873
  597TMC3     O 8904   4.509   2.125  17.184  0.0927 -0.3944  0.1160
  597TMC3     H 8905   4.606   2.431  16.992  0.0355 -2.1344 -0.7271
  597TMC3    H1 8906   4.294   2.274  17.235  0.1733 -1.4636 -1.2317
  597TMC3    H2 8907   4.302   2.690  17.133 -1.1844 -0.6038 -1.6585
  597TMC3    C7 8908   4.150   2.488  17.256  0.2253  0.7763 -0.7443
  597TMC3    C8 8909   4.513   2.672  16.967 -0.1949  0.2033  0.2100
  597TMC3    O1 8910   4.105   2.400  17.328  0.1072 -0.5238  0.4504
  597TMC3    O2 8911   4.630   2.662  16.938 -0.1821  0.2169 -0.2768
  598TMC3    C1 8912   2.420   3.403  15.559  1.0842 -0.1634  0.1906
  598TMC3    C2 8913   2.298   3.356  15.528  0.1627 -1.2289  0.1699
  598TMC3    C3 8914   2.227   3.423  15.435  0.2657 -0.9617  0.6247
  598TMC3    C4 8915   2.475   3.523  15.513  0.4329 -0.6758  0.9057
  598TMC3    C5 8916   2.405   3.578  15.412 -0.4165 -0.5324  0.4372
  598TMC3    C6 8917   2.285   3.522  15.363 -0.1341 -0.7755 -0.2470
  598TMC3     C 8918   2.507   3.321  15.645 -0.3434  0.5987 -0.3430
  598TMC3     O 8919   2.447   3.222  15.691  0.0312  0.0211  0.7805
  598TMC3     H 8920   2.257   3.280  15.593 -0.6327 -0.6244  0.3819
  598TMC3    H1 8921   2.577   3.558  15.525  0.7428 -1.0991 -0.5466
  598TMC3    H2 8922   2.231   3.558  15.277  1.5892 -0.8413 -1.3643
  598TMC3    C7 8923   2.488   3.637  15.311  0.1790 -1.0924 -0.2312
  598TMC3    C8 8924   2.087   3.394  15.421  0.4277  0.0575  0.8172
  598TMC3    O1 8925   2.433   3.632  15.201  0.0987 -0.3720  0.2072
  598TMC3    O2 8926   2.017   3.487  15.377  0.2349 -0.2735 -0.6104
  599MPD2     C 8927   2.677   1.156  15.817 -0.1982  0.0515 -0.0337
  599MPD2    C1 8928   2.611   1.036  15.832 -0.2049  0.3237 -0.0818
  599MPD2    C2 8929   2.480   1.043  15.869 -0.2547  0.7905  0.6199
  599MPD2    C3 8930   2.409   1.160  15.879 -0.3569  0.6983 -0.4844
  599MPD2    C4 8931   2.475   1.274  15.839 -0.1552 -0.3467  0.4366
  599MPD2    C5 8932   2.605   1.273  15.799 -0.1139 -0.0365  0.2451
  599MPD2     H 8933   2.432   0.949  15.893  1.5342 -1.0743 -3.1368
  599MPD2    H1 8934   2.433   1.372  15.861 -0.1580 -0.3735  0.5485
  599MPD2    H2 8935   2.784   1.172  15.804 -0.2524  0.6490  0.2844
  599MPD2    H3 8936   2.657   1.366  15.781  1.4629 -0.7986  0.7953
  599MPD2     N 8937   2.283   1.171  15.934 -0.5338  0.1163  0.1314
  599MPD2    H5 8938   2.242   1.261  15.954 -4.4496 -2.2674  2.9843
  599MPD2    N1 8939   2.686   0.914  15.839  0.5492  0.0563 -0.1361
  599MPD2    H7 8940   2.783   0.928  15.812  0.9854 -0.2944  1.2228
  600TMC3    C1 8941   2.075   1.101  16.022 -0.1885 -1.1447  0.6710
  600TMC3    C2 8942   1.973   1.005  16.018  0.7379  0.2936 -0.4493
  600TMC3    C3 8943   1.874   1.009  16.109 -0.0535  0.0865  0.3467
  600TMC3    C4 8944   2.077   1.194  16.124  0.3048 -0.0310  0.3544
  600TMC3    C5 8945   1.969   1.201  16.212  0.0162  0.2977  0.4329
  600TMC3    C6 8946   1.869   1.100  16.209  0.0206 -0.9477 -0.3161
  600TMC3     C 8947   2.200   1.060  15.964  1.0445 -0.8198  0.1346
  600TMC3     O 8948   2.215   0.941  15.944 -0.2362 -0.2826  0.3278
  600TMC3     H 8949   1.984   0.923  15.948  2.4030 -0.9595  1.2791
  600TMC3    H1 8950   2.158   1.262  16.147  0.4885 -0.1114 -0.0548
  600TMC3    H2 8951   1.784   1.100  16.276 -0.6036  1.2733 -1.1157
  600TMC3    C7 8952   1.922   1.327  16.270  0.5512  0.0848  0.2419
  600TMC3    C8 8953   1.802   0.886  16.125  0.3277  0.0738  0.5758
  600TMC3    O1 8954   1.812   1.340  16.321  0.1471  0.3557  0.6943
  600TMC3    O2 8955   1.743   0.843  16.026  0.1115 -0.0667  0.5013
  601MPD2     C 8956   0.018   4.043   0.135 -0.0178  0.4016  0.2074
  601MPD2    C1 8957   4.620   4.049   0.123 -0.1726  0.1922  0.8441
  601MPD2    C2 8958   4.543   3.944   0.175 -0.0295 -0.4677  0.4104
  601MPD2    C3 8959   4.606   3.856   0.255  0.2523 -0.2916  0.2686
  601MPD2    C4 8960   4.738   3.856   0.283 -0.5540  0.0572  0.6966
  601MPD2    C5 8961   0.072   3.939   0.209  0.6742 -0.1723  0.1174
  601MPD2     H 8962   4.435   3.946   0.168 -0.0891 -0.1065  1.4086
  601MPD2    H1 8963   0.052   3.784   0.344  0.9874  0.6161 -0.0337
  601MPD2    H2 8964   0.085   4.111   0.084  1.3608 -0.8525  0.3078
  601MPD2    H3 8965   0.180   3.949   0.218  0.6313 -0.2975  0.7953
  601MPD2     N 8966   4.532   3.753   0.321  0.1748  0.2477  0.3656
  601MPD2    H5 8967   4.583   3.706   0.396 -0.3137 -1.4820 -0.3903
  601MPD2    N1 8968   4.557   4.148   0.038 -0.1054 -0.7422  0.0728
  601MPD2    H7 8969   4.465   4.121   0.006 -0.7804  0.4269  0.9985
  602TMC3    C1 8970   4.524   4.335  17.666 -0.1448 -0.3180 -0.2131
  602TMC3    C2 8971   4.562   4.468  17.646 -0.0502 -0.3172  0.2024
  602TMC3    C3 8972   4.478   4.539  17.574  0.1160 -0.0203 -0.2003
  602TMC3    C4 8973   4.416   4.273  17.611 -0.3142  0.0423 -0.0725
  602TMC3    C5 8974   4.334   4.354  17.533 -0.2593 -0.7312  0.0514
  602TMC3    C6 8975   4.362   4.490  17.515  0.4898 -0.1231 -0.5685
  602TMC3     C 8976   4.614   4.265  17.754 -0.0030 -0.3700  0.0880
  602TMC3     O 8977   4.713   4.318   0.045  0.5652  0.1092 -0.4189
  602TMC3     H 8978   4.648   4.499  17.704  0.0741 -0.8552  0.3079
  602TMC3    H1 8979   4.397   4.167  17.627  2.1626 -0.3812  0.0244
  602TMC3    H2 8980   4.287   4.561  17.480  2.3371  2.5652  0.8723
  602TMC3    C7 8981   4.222   4.294  17.470 -0.1987 -0.0872 -0.4018
  602TMC3    C8 8982   4.524   4.670  17.537 -0.1262 -0.3044  0.2240
  602TMC3    O1 8983   4.166   4.198  17.524  0.1027  0.1396 -0.1440
  602TMC3    O2 8984   4.601   4.730  17.609 -0.0624  0.2187 -0.0598
  603TMC3    C1 8985   3.331   4.702  11.271 -0.1830  0.1228  0.4323
  603TMC3    C2 8986   3.304   4.674  11.399 -0.1736 -0.0208 -0.2295
  603TMC3    C3 8987   3.220   0.028  11.467  1.0705 -0.3874  0.1478
  603TMC3    C4 8988   3.300   0.077  11.201  0.6488 -0.0510 -0.2234
  603TMC3    C5 8989   3.223   0.166  11.265 -0.4434  0.1873  0.2522
  603TMC3    C6 8990   3.185   0.139  11.394 -0.5547  0.1849  0.6812
  603TMC3     C 8991   3.341   4.596  11.178 -0.0279  0.1010  0.5654
  603TMC3     O 8992   3.354   4.616  11.057  0.3570  0.0965  0.2354
  603TMC3     H 8993   3.348   4.596  11.461  0.0126 -0.1827 -0.5700
  603TMC3    H1 8994   3.300   0.075  11.092  0.5623 -4.2395 -0.1645
  603TMC3    H2 8995   3.094   0.192  11.422 -0.8893  0.4133 -0.8300
  603TMC3    C7 8996   3.131   0.238  11.175 -0.2620  0.1776 -0.6066
  603TMC3    C8 8997   3.145   4.721  11.577  0.5860 -0.3487 -0.1911
  603TMC3    O1 8998   3.123   0.196  11.058  0.3770  0.2783  0.2766
  603TMC3    O2 8999   3.160   4.600  11.598  0.0555 -0.4591 -0.2971
  604MPD2     C 9000   3.699   3.197  16.468  0.3830 -0.1468  0.3332
  604MPD2    C1 9001   3.597   3.114  16.424 -0.1897  0.5131 -0.2171
  604MPD2    C2 9002   3.611   3.056  16.303  0.2408 -0.0687  0.0109
  604MPD2    C3 9003   3.723   3.087  16.226 -0.5123 -0.0007  0.3575
  604MPD2    C4 9004   3.816   3.175  16.280  0.3736  0.0516 -0.3313
  604MPD2    C5 9005   3.814   3.226  16.401 -0.4115  0.5563 -0.2771
  604MPD2     H 9006   3.545   2.981  16.260  0.4569  0.3724 -1.1065
  604MPD2    H1 9007   3.906   3.194  16.222 -0.3832  1.3446 -1.0878
  604MPD2    H2 9008   3.697   3.244  16.566  1.0126  0.2652  0.1467
  604MPD2    H3 9009   3.895   3.278  16.450 -0.6392 -1.9905  2.8240
  604MPD2     N 9010   3.735   3.032  16.095  0.4346  0.1183  0.2664
  604MPD2    H5 9011   3.648   2.988  16.065 -0.2159  0.6343  1.4014
  604MPD2    N1 9012   3.488   3.106  16.508 -0.6762  0.7937  0.2860
  604MPD2    H7 9013   3.505   3.154  16.596 -0.7937 -0.0955  0.7961
  605TMC3    C1 9014   3.276   3.070  16.594 -0.3549  0.6733 -0.4394
  605TMC3    C2 9015   3.313   3.148  16.702  1.1938  0.1392  0.8741
  605TMC3    C3 9016   3.204   3.197  16.772 -0.0084 -0.0254  0.2369
  605TMC3    C4 9017   3.149   3.038  16.569  0.5376 -0.1691  0.6085
  605TMC3    C5 9018   3.046   3.095  16.641 -0.1096  0.8554 -0.2881
  605TMC3    C6 9019   3.071   3.182  16.740 -0.1067 -0.3705  0.6156
  605TMC3     C 9020   3.365   3.037  16.488  0.4585 -0.3981 -0.0965
  605TMC3     O 9021   3.337   2.962  16.397 -0.5125  0.3924 -0.0893
  605TMC3     H 9022   3.416   3.165  16.731  1.0360  0.3047  1.3359
  605TMC3    H1 9023   3.136   2.980  16.478 -2.0042 -0.5899  1.2407
  605TMC3    H2 9024   2.994   3.212  16.810 -0.1629 -1.1247  0.8769
  605TMC3    C7 9025   2.910   3.072  16.610 -0.6425  0.1400 -0.5870
  605TMC3    C8 9026   3.239   3.307  16.862  0.4682 -0.8132 -0.2312
  605TMC3    O1 9027   2.823   3.160  16.627  0.1596 -0.0386 -0.0636
  605TMC3    O2 9028   3.170   3.319  16.964 -0.5691 -0.4852  0.1189
  606TMC3    C1 9029   4.202   2.013   0.060 -0.3346  0.3236 -0.0231
  606TMC3    C2 9030   4.218   1.922   0.162  0.4847 -0.4908 -0.1176
  606TMC3    C3 9031   4.254   1.794   0.126 -0.2494 -0.3578 -0.4433
  606TMC3    C4 9032   4.187   1.975  17.692 -0.1880  0.1668 -0.9397
  606TMC3    C5 9033   4.216   1.846  17.663 -0.5934  0.3359 -0.4459
  606TMC3    C6 9034   4.257   1.761  17.753  0.3302 -0.1170  0.3930
  606TMC3     C 9035   4.169   2.143   0.113 -0.0563  0.0686  0.5100
  606TMC3     O 9036   4.132   2.151   0.230 -0.2666 -0.4076  0.2968
  606TMC3     H 9037   4.255   1.957   0.258 -1.7305 -1.4315  1.0819
  606TMC3    H1 9038   4.159   2.044  17.613  0.2051  0.9249 -0.4073
  606TMC3    H2 9039   4.301   1.664  17.734 -1.5078 -1.2561  2.0771
  606TMC3    C7 9040   4.252   1.810  17.527  0.3057 -0.4572 -0.7588
  606TMC3    C8 9041   4.363   1.742   0.199 -0.3656 -0.5437 -0.0231
  606TMC3    O1 9042   4.288   1.910  17.467 -0.2755  0.2074 -0.1173
  606TMC3    O2 9043   4.463   1.682   0.154 -0.3532  0.0538  0.5220
  607MPD2     C 9044   1.874   4.612  12.013 -1.2278  0.2358  0.2091
  607MPD2    C1 9045   1.941   4.658  12.124  0.2234 -0.5205 -0.4394
  607MPD2    C2 9046   1.941   4.581  12.239 -0.5353  0.3363  0.0240
  607MPD2    C3 9047   1.879   4.459  12.246  0.5881 -0.0425  0.2055
  607MPD2    C4 9048   1.813   4.415  12.134 -0.0586 -0.3144  0.4182
  607MPD2    C5 9049   1.820   4.488  12.013  0.0383  0.3458 -0.0187
  607MPD2     H 9050   1.991   4.613  12.330 -0.5717  3.0202 -0.9244
  607MPD2    H1 9051   1.747   4.330  12.118  0.3684 -0.1323 -2.3219
  607MPD2    H2 9052   1.879   4.676  11.926  4.2359  0.2526  0.5036
  607MPD2    H3 9053   1.769   4.449  11.925 -0.7800 -3.0030  1.9453
  607MPD2     N 9054   1.880   4.404  12.373  0.2281  0.7181 -0.4348
  607MPD2    H5 9055   1.918   4.457  12.451  0.1553  0.6051 -0.3220
  607MPD2    N1 9056   2.007   0.044  12.126 -0.7201  0.0400 -0.4980
  607MPD2    H7 9057   2.067   0.055  12.207 -1.4941 -1.7343  0.3126
  608TMC3    C1 9058   2.087   0.254  12.064  0.3672  0.1009 -0.8429
  608TMC3    C2 9059   2.114   0.262  12.196  0.4613 -0.0467 -0.6088
  608TMC3    C3 9060   2.233   0.320  12.241  0.4974 -0.0500 -0.5096
  608TMC3    C4 9061   2.155   0.319  11.970  0.1433  0.3562 -0.1604
  608TMC3    C5 9062   2.260   0.397  12.018 -0.1286 -0.7142  0.4205
  608TMC3    C6 9063   2.308   0.388  12.152  0.5177 -0.4138 -0.1638
  608TMC3     C 9064   2.012   0.137  12.021 -0.8700 -0.5209 -0.2599
  608TMC3     O 9065   1.958   0.141  11.909 -0.1972  0.0581 -0.3667
  608TMC3     H 9066   2.048   0.224  12.273  2.2779 -2.0685 -0.0626
  608TMC3    H1 9067   2.112   0.323  11.871 -1.9317  0.1752  0.7435
  608TMC3    H2 9068   2.398   0.442  12.177  1.3187 -1.8608  0.0739
  608TMC3    C7 9069   2.299   0.508  11.927 -0.0797  0.7196  0.8344
  608TMC3    C8 9070   2.307   0.254  12.352 -0.9512  0.8952 -0.1028
  608TMC3    O1 9071   2.289   0.492  11.803  0.0833  0.2609  1.0033
  608TMC3    O2 9072   2.426   0.279  12.372  0.1084  0.0732 -0.1908
  609TMC3    C1 9073   0.248   3.616   9.783  0.1603  0.4524  0.6845
  609TMC3    C2 9074   0.160   3.655   9.683  0.3950  0.4587 -0.1963
  609TMC3    C3 9075   0.208   3.719   9.572 -0.7605 -0.0628 -0.1091
  609TMC3    C4 9076   0.378   3.680   9.784  0.1442 -0.0564  0.8522
  609TMC3    C5 9077   0.415   3.745   9.669  0.1925 -0.9205 -0.2507
  609TMC3    C6 9078   0.336   3.766   9.563 -0.2118  0.3947 -0.1556
  609TMC3     C 9079   0.194   3.588   9.913  0.4054  0.3432  1.1122
  609TMC3     O 9080   0.234   3.655  10.004 -0.1724 -0.2435 -0.1089
  609TMC3     H 9081   0.054   3.634   9.694  0.1897 -0.6932 -4.3059
  609TMC3    H1 9082   0.441   3.653   9.868  2.0160 -0.8633 -0.8042
  609TMC3    H2 9083   0.384   3.804   9.474 -0.7286  1.2532 -0.0690
  609TMC3    C7 9084   0.548   3.795   9.668 -0.1851 -0.1998  0.0131
  609TMC3    C8 9085   0.121   3.774   9.463  0.3667  0.1056  0.2904
  609TMC3    O1 9086   0.625   3.755   9.755 -0.6226  0.8439 -0.0649
  609TMC3    O2 9087   0.170   3.844   9.375  0.0649 -0.9759  0.1072
  610TMC3    C1 9088   2.013   4.064  13.380  0.3714 -0.1793 -0.1134
  610TMC3    C2 9089   2.002   3.928  13.395  0.5335 -0.1859  0.2871
  610TMC3    C3 9090   2.118   3.869  13.441  0.0401 -0.5385 -0.1931
  610TMC3    C4 9091   2.131   4.134  13.384  0.1087  0.0220 -0.4213
  610TMC3    C5 9092   2.249   4.057  13.398 -0.1233  0.8585  0.5509
  610TMC3    C6 9093   2.243   3.920  13.426  0.2919  0.5654  0.6510
  610TMC3     C 9094   1.892   4.138  13.330  0.0922 -0.0890 -0.2832
  610TMC3     O 9095   1.907   4.219  13.238 -0.0963  0.6551 -0.2834
  610TMC3     H 9096   1.908   3.876  13.389  1.0838 -1.3731  1.9223
  610TMC3    H1 9097   2.125   4.235  13.345 -0.2567 -0.0092 -0.4500
  610TMC3    H2 9098   2.334   3.871  13.457  0.0099 -1.2039 -1.3003
  610TMC3    C7 9099   2.370   4.130  13.415  0.2830 -0.1480  0.0107
  610TMC3    C8 9100   2.115   3.724  13.443  0.1974 -0.8214  0.0205
  610TMC3    O1 9101   2.468   4.074  13.367  0.0590 -0.3227 -0.1845
  610TMC3    O2 9102   2.198   3.668  13.376  0.7357  0.4719  0.8041
  611MPD2     C 9103   2.170   4.574  10.940  0.0137 -0.3130 -0.0079
  611MPD2    C1 9104   2.124   4.620  10.818 -0.8398  0.6155  0.0505
  611MPD2    C2 9105   2.212   4.682  10.741  0.3819 -0.3574  0.3176
  611MPD2    C3 9106   2.340   4.710  10.784 -0.3416 -0.0764  0.1422
  611MPD2    C4 9107   2.385   4.668  10.910 -0.3482 -1.0233  0.2538
  611MPD2    C5 9108   2.295   4.599  10.989 -0.1655 -0.3680 -0.4117
  611MPD2     H 9109   2.176   4.711  10.643 -1.6235  0.7443  1.3974
  611MPD2    H1 9110   2.485   4.680  10.950 -0.6853 -0.2754  0.8894
  611MPD2    H2 9111   2.107   4.529  11.017 -0.6305  1.1874  0.3461
  611MPD2    H3 9112   2.315   4.555  11.086  1.0004 -0.7855 -0.8394
  611MPD2     N 9113   2.416   0.076  10.727 -0.3141 -0.1736  1.1148
  611MPD2    H5 9114   2.490   0.103  10.790 -0.0876 -2.0946  1.6624
  611MPD2    N1 9115   1.985   4.597  10.786 -0.7102  0.6450  0.4996
  611MPD2    H7 9116   1.931   4.558  10.863  0.5849 -1.0161  0.5738
  612TMC3    C1 9117   2.460   0.276  10.618 -0.3591 -0.1000 -0.4442
  612TMC3    C2 9118   2.519   0.331  10.729 -0.6167 -0.6399 -0.2003
  612TMC3    C3 9119   2.576   0.454  10.722 -0.0560  0.0879 -0.6365
  612TMC3    C4 9120   2.440   0.355  10.507 -0.4541  0.9696 -0.8180
  612TMC3    C5 9121   2.476   0.488  10.506  0.0777  0.6053 -0.1822
  612TMC3    C6 9122   2.555   0.536  10.612 -0.0869 -0.1914  0.2537
  612TMC3     C 9123   2.383   0.150  10.620 -0.3455 -0.1663  0.1538
  612TMC3     O 9124   2.309   0.129  10.524  0.0685  0.2579 -0.5716
  612TMC3     H 9125   2.528   0.281  10.825  1.2713 -0.0749 -0.0793
  612TMC3    H1 9126   2.384   0.320  10.421 -1.5669 -0.0168  0.3183
  612TMC3    H2 9127   2.605   0.632  10.601 -2.2020  1.1955  2.8039
  612TMC3    C7 9128   2.452   0.565  10.387  0.4872 -0.2405  0.3050
  612TMC3    C8 9129   2.646   0.523  10.825 -0.0831  0.0569 -0.9130
  612TMC3    O1 9130   2.416   0.500  10.289  0.1429 -0.7417 -0.2110
  612TMC3    O2 9131   2.664   0.644  10.813 -0.4491 -0.3118 -0.0984
  613MPD2     C 9132   1.092   1.963  16.949  0.0306  0.0898  0.4449
  613MPD2    C1 9133   0.997   2.015  16.862 -0.2981 -0.5375 -0.0762
  613MPD2    C2 9134   0.882   1.950  16.846 -0.1640 -0.9162  0.3049
  613MPD2    C3 9135   0.855   1.835  16.913  0.4568  0.1179  0.7921
  613MPD2    C4 9136   0.946   1.783  17.007 -0.2740 -0.2495  0.7441
  613MPD2    C5 9137   1.063   1.846  17.019  0.6933  0.0314  0.1308
  613MPD2     H 9138   0.808   1.990  16.777 -0.4014 -0.8501  0.6003
  613MPD2    H1 9139   0.917   1.694  17.063 -0.6279 -1.3412 -1.1711
  613MPD2    H2 9140   1.185   2.017  16.963  0.2462  0.4290 -2.3217
  613MPD2    H3 9141   1.138   1.803  17.085 -1.3730 -0.9444  1.8278
  613MPD2     N 9142   0.751   1.743  16.876 -0.3026 -0.1479  0.3614
  613MPD2    H5 9143   0.767   1.648  16.910  2.5355 -0.4056 -1.6460
  613MPD2    N1 9144   1.034   2.136  16.801 -0.7501  0.0301 -0.1530
  613MPD2    H7 9145   1.116   2.179  16.842  0.5430 -0.6168 -2.1106
  614TMC3    C1 9146   0.907   2.141  16.596  0.4035 -0.5283  0.6708
  614TMC3    C2 9147   0.957   2.021  16.554 -0.2551  0.1575  1.1894
  614TMC3    C3 9148   0.924   1.978  16.430  0.1667 -0.1612 -0.2816
  614TMC3    C4 9149   0.817   2.212  16.520  0.3905 -0.6796  0.0339
  614TMC3    C5 9150   0.772   2.153  16.400  0.6416 -0.7534  0.1139
  614TMC3    C6 9151   0.821   2.028  16.359 -0.3759 -0.6203 -0.0158
  614TMC3     C 9152   0.968   2.208  16.712  0.8457  0.0391  0.5574
  614TMC3     O 9153   0.968   2.330  16.701  0.0015 -0.1924  0.2864
  614TMC3     H 9154   1.043   1.971  16.596 -0.4641 -0.8359  0.4253
  614TMC3    H1 9155   0.781   2.313  16.540  1.9884  0.3061 -2.1089
  614TMC3    H2 9156   0.801   1.993  16.258 -1.0242  0.2583 -0.1946
  614TMC3    C7 9157   0.712   2.246  16.298 -0.2227  0.4622 -0.2849
  614TMC3    C8 9158   0.908   1.841  16.441  0.0339  0.2230 -0.5127
  614TMC3    O1 9159   0.659   2.348  16.341 -0.4732 -0.5246  0.3231
  614TMC3    O2 9160   0.882   1.801  16.554  0.4900 -0.1670  0.1294
  615MPD2     C 9161   0.647   3.396  16.366  0.0387  0.4912 -0.5376
  615MPD2    C1 9162   0.606   3.533  16.365  0.2189 -0.1027 -0.0539
  615MPD2    C2 9163   0.560   3.578  16.242 -0.1086  0.5186 -0.5193
  615MPD2    C3 9164   0.536   3.494  16.132 -0.3371  0.1017 -0.3246
  615MPD2    C4 9165   0.563   3.361  16.144 -0.6818 -0.3851  0.8442
  615MPD2    C5 9166   0.618   3.315  16.257  0.0363 -0.2627  0.4503
  615MPD2     H 9167   0.530   3.682  16.230 -0.2037  0.3298 -1.9056
  615MPD2    H1 9168   0.538   3.292  16.064  1.8648 -0.6427  0.2716
  615MPD2    H2 9169   0.681   3.346  16.456 -0.2271  1.0347 -0.1365
  615MPD2    H3 9170   0.646   3.210  16.259  0.3648 -0.1759  0.4544
  615MPD2     N 9171   0.478   3.534  16.006 -0.5391  0.0915 -0.1293
  615MPD2    H5 9172   0.436   3.466  15.943  1.9506  0.3944 -2.1214
  615MPD2    N1 9173   0.598   3.614  16.478  0.3316 -0.2625  0.7957
  615MPD2    H7 9174   0.544   3.699  16.468  0.1674 -0.3740  0.7143
  616TMC3    C1 9175   0.628   3.679  16.712  0.1488  0.6054  0.7872
  616TMC3    C2 9176   0.674   3.642  16.833  0.1714  0.1912  0.3932
  616TMC3    C3 9177   0.631   3.708  16.948 -0.0393  0.1254 -0.0376
  616TMC3    C4 9178   0.549   3.793  16.692  0.9473  0.5410 -0.5646
  616TMC3    C5 9179   0.499   3.849  16.808  0.1691 -0.1298  0.3165
  616TMC3    C6 9180   0.531   3.807  16.935 -0.2879 -0.2632 -1.0711
  616TMC3     C 9181   0.647   3.579  16.602  0.2174 -0.7014  0.9544
  616TMC3     O 9182   0.723   3.487  16.629  0.2199 -0.2414 -0.3915
  616TMC3     H 9183   0.728   3.549  16.846  0.9853  0.8877  1.9489
  616TMC3    H1 9184   0.496   3.814  16.600  0.2176  0.9841 -0.0373
  616TMC3    H2 9185   0.488   3.848  17.026 -0.8893 -1.1561 -0.9506
  616TMC3    C7 9186   0.401   3.950  16.784 -0.4320 -0.2167  0.0257
  616TMC3    C8 9187   0.719   3.707  17.063 -0.2949  0.5498  0.3723
  616TMC3    O1 9188   0.330   3.934  16.687  0.0561  0.2606  0.1625
  616TMC3    O2 9189   0.671   3.728  17.170  0.4671 -0.3536  0.2214
  617MPD2     C 9190   3.672   1.873  13.765 -0.2434 -0.2469  0.5637
  617MPD2    C1 9191   3.607   1.849  13.883 -0.6810  0.0594  0.4571
  617MPD2    C2 9192   3.489   1.773  13.886 -0.0521 -0.0645 -0.4330
  617MPD2    C3 9193   3.437   1.709  13.777  0.3334 -0.3791 -0.2360
  617MPD2    C4 9194   3.501   1.732  13.654  0.1571  0.4198 -0.0976
  617MPD2    C5 9195   3.617   1.810  13.652 -0.0039  0.0576 -0.5747
  617MPD2     H 9196   3.427   1.782  13.975 -0.8881  1.2321 -1.1442
  617MPD2    H1 9197   3.470   1.682  13.563  0.2569 -0.1603  0.1820
  617MPD2    H2 9198   3.765   1.929  13.767  0.2494 -1.0792  1.0871
  617MPD2    H3 9199   3.676   1.831  13.563  1.5674  0.6755  0.6184
  617MPD2     N 9200   3.326   1.627  13.775  0.0757  0.2494 -0.2117
  617MPD2    H5 9201   3.292   1.598  13.684  1.1651  1.2760 -0.9570
  617MPD2    N1 9202   3.651   1.905  14.001  0.1509  1.1559 -0.2916
  617MPD2    H7 9203   3.723   1.976  13.994  1.2248  0.0221 -0.7160
  618TMC3    C1 9204   3.674   1.911  14.237  0.4498  0.2322  0.1803
  618TMC3    C2 9205   3.778   1.848  14.300 -0.3124  0.3457  0.5963
  618TMC3    C3 9206   3.858   1.924  14.383 -0.4260 -0.9279 -0.8408
  618TMC3    C4 9207   3.642   2.040  14.243 -0.1216  0.1721 -0.0482
  618TMC3    C5 9208   3.724   2.111  14.329 -0.8365  0.3190  0.3059
  618TMC3    C6 9209   3.819   2.052  14.408  0.2740  0.0446 -0.9048
  618TMC3     C 9210   3.627   1.839  14.124 -0.9868  0.7687 -0.3109
  618TMC3     O 9211   3.598   1.722  14.144 -0.4069 -0.5239  0.4433
  618TMC3     H 9212   3.803   1.746  14.273 -0.4511  0.2475  0.8365
  618TMC3    H1 9213   3.553   2.086  14.200  0.5123 -0.3492 -1.9203
  618TMC3    H2 9214   3.886   2.116  14.464  1.8432 -2.7527  0.4194
  618TMC3    C7 9215   3.693   2.252  14.359  0.1612  1.1596  0.8578
  618TMC3    C8 9216   3.996   1.911  14.376 -0.1404  0.8221  0.4585
  618TMC3    O1 9217   3.579   2.266  14.400  0.4368  0.4758  0.5016
  618TMC3    O2 9218   4.065   1.993  14.438  0.9988 -0.2223 -0.5682
  619MPD2     C 9219   0.317   3.047  14.031 -0.1745 -0.0464 -1.0283
  619MPD2    C1 9220   0.233   3.146  13.990  0.1758  0.0769  0.0315
  619MPD2    C2 9221   0.101   3.128  13.960 -0.3505 -0.2914 -0.6237
  619MPD2    C3 9222   0.049   3.006  13.968 -0.1797 -0.2675 -0.4875
  619MPD2    C4 9223   0.133   2.907  14.008 -0.2110 -0.3112  0.1648
  619MPD2    C5 9224   0.266   2.922  14.032 -0.3650  1.2914 -0.0816
  619MPD2     H 9225   0.038   3.217  13.968 -2.3641 -1.9655  2.1036
  619MPD2    H1 9226   0.088   2.808  14.007  0.6435 -0.6960 -1.0743
  619MPD2    H2 9227   0.420   3.051  14.064 -0.3936  2.2562 -0.6541
  619MPD2    H3 9228   0.334   2.842  14.057 -0.5060  1.8830  2.1840
  619MPD2     N 9229   4.649   2.975  13.935  0.0271 -0.0195  0.4119
  619MPD2    H5 9230   4.608   2.887  13.966  2.0084 -1.3714 -0.8625
  619MPD2    N1 9231   0.279   3.278  13.975  0.1769 -0.7667 -0.0646
  619MPD2    H7 9232   0.206   3.340  13.941 -1.0271 -1.2561  1.6317
  620TMC3    C1 9233   0.407   3.466  13.949  0.2180  0.1705  0.1431
  620TMC3    C2 9234   0.296   3.513  13.879  0.0670 -0.3298  0.3566
  620TMC3    C3 9235   0.259   3.644  13.882  0.3317  0.1149  0.7211
  620TMC3    C4 9236   0.490   3.547  14.024  0.4459  0.8550  0.8440
  620TMC3    C5 9237   0.453   3.675  14.019  0.0522 -0.1091 -0.6769
  620TMC3    C6 9238   0.355   3.726  13.943 -0.3879  0.7777  0.0317
  620TMC3     C 9239   0.400   3.328  13.994 -0.0187  0.1029 -0.2572
  620TMC3     O 9240   0.494   3.278  14.054 -0.8203  0.1523  0.1457
  620TMC3     H 9241   0.241   3.448  13.811  1.2560  0.5554 -1.4529
  620TMC3    H1 9242   0.569   3.507  14.086 -0.0114 -2.2623 -0.5469
  620TMC3    H2 9243   0.334   3.831  13.960  1.3264  0.7798  2.1506
  620TMC3    C7 9244   0.548   3.769  14.070  0.2805  0.0256 -0.4953
  620TMC3    C8 9245   0.131   3.656  13.945 -0.4351 -0.1390  0.1676
  620TMC3    O1 9246   0.616   3.816  13.979  0.3674  0.6366 -0.1980
  620TMC3    O2 9247   0.136   3.704  14.061  0.3795 -0.5393  0.5986
  621MPD2     C 9248   0.213   2.822  10.802  0.2919 -0.4686 -0.2591
  621MPD2    C1 9249   0.146   2.823  10.679  0.0505  0.4686 -0.0561
  621MPD2    C2 9250   0.176   2.927  10.589  0.0925 -0.7903  0.0191
  621MPD2    C3 9251   0.259   3.030  10.628 -0.5410 -0.5049  0.4963
  621MPD2    C4 9252   0.298   3.044  10.759  0.0314 -0.6985  0.6795
  621MPD2    C5 9253   0.270   2.939  10.842  0.7765  0.0826  0.0024
  621MPD2     H 9254   0.141   2.917  10.486  2.6149 -1.0957 -0.8114
  621MPD2    H1 9255   0.327   3.141  10.798  0.5029 -1.2598  1.7080
  621MPD2    H2 9256   0.215   2.750  10.883 -1.9556 -0.7495 -0.4617
  621MPD2    H3 9257   0.297   2.945  10.947  0.8877  0.4376 -0.0474
  621MPD2     N 9258   0.287   3.126  10.527 -0.5794 -0.9283 -0.1364
  621MPD2    H5 9259   0.244   3.108  10.437  1.0783 -3.6310 -0.3648
  621MPD2    N1 9260   0.051   2.717  10.646  1.1990 -0.1930 -0.2986
  621MPD2    H7 9261   0.011   2.721  10.553  2.1446 -0.9727 -0.7297
  622TMC3    C1 9262   4.669   2.525  10.655 -0.8860 -0.8606 -0.0676
  622TMC3    C2 9263   4.573   2.468  10.731  0.7049  0.2432 -0.3327
  622TMC3    C3 9264   4.459   2.420  10.672 -0.6282 -0.1584 -0.1398
  622TMC3    C4 9265   4.641   2.536  10.523  0.0491 -0.2810 -0.0669
  622TMC3    C5 9266   4.533   2.474  10.464 -0.3910  0.9643 -0.1527
  622TMC3    C6 9267   4.445   2.414  10.543 -0.3933  0.1939 -0.2708
  622TMC3     C 9268   0.031   2.605  10.718 -0.1182 -0.4219  0.8031
  622TMC3     O 9269   0.058   2.590  10.835  0.0671 -0.2538 -0.2670
  622TMC3     H 9270   4.570   2.480  10.838  4.7520 -0.6490 -0.1245
  622TMC3    H1 9271   4.718   2.575  10.457  0.2185 -1.6019 -0.6420
  622TMC3    H2 9272   4.360   2.364  10.499 -0.9529  0.5305  0.4324
  622TMC3    C7 9273   4.542   2.429  10.320  0.1285  0.0138  0.7516
  622TMC3    C8 9274   4.343   2.395  10.754 -0.2115  0.3424 -0.3051
  622TMC3    O1 9275   4.476   2.330  10.292 -0.2712 -0.2522  0.1398
  622TMC3    O2 9276   4.262   2.314  10.709 -0.9717 -0.0710  0.4502
  623MPD2     C 9277   3.614   3.841  15.841 -0.1731  0.3788  0.0166
  623MPD2    C1 9278   3.577   3.741  15.929  0.1733  0.2517 -0.4038
  623MPD2    C2 9279   3.636   3.730  16.053 -1.0463 -0.1767  0.3758
  623MPD2    C3 9280   3.757   3.792  16.079 -0.5007  0.8882 -0.3496
  623MPD2    C4 9281   3.797   3.888  15.989  0.7187  0.9579  0.2716
  623MPD2    C5 9282   3.736   3.903  15.870 -0.4440 -0.5690  0.4594
  623MPD2     H 9283   3.604   3.681  16.144 -0.9699 -1.2941 -0.2000
  623MPD2    H1 9284   3.886   3.948  16.008  2.0880 -1.0357  0.1515
  623MPD2    H2 9285   3.564   3.857  15.745  0.9886 -1.0511 -0.8239
  623MPD2    H3 9286   3.784   3.965  15.795 -2.2244 -0.6630 -0.7397
  623MPD2     N 9287   3.822   3.783  16.210  0.1236  0.4318 -0.0319
  623MPD2    H5 9288   3.772   3.723  16.274  1.5273 -0.2669  0.4108
  623MPD2    N1 9289   3.454   3.676  15.912 -0.2295 -0.3353 -0.3357
  623MPD2    H7 9290   3.393   3.708  15.838  1.6884  1.8245 -0.9757
  624TMC3    C1 9291   4.073   3.798  16.606  0.0362  0.1363 -0.1172
  624TMC3    C2 9292   3.958   3.778  16.677  0.5958 -0.4301 -0.0494
  624TMC3    C3 9293   3.842   3.762  16.602  0.2406  0.4955  0.6620
  624TMC3    C4 9294   4.066   3.810  16.464 -0.2062 -0.2145 -0.0883
  624TMC3    C5 9295   3.946   3.807  16.409 -0.3851 -0.0576  0.5434
  624TMC3    C6 9296   3.830   3.773  16.468  0.7486 -0.1672  0.3347
  624TMC3     C 9297   4.202   3.800  16.679 -0.0497  0.1168  0.2536
  624TMC3     O 9298   4.207   3.739  16.781 -0.4879  0.1510  0.3966
  624TMC3     H 9299   3.969   3.773  16.785  1.0748  1.8075  0.0125
  624TMC3    H1 9300   4.155   3.818  16.402  0.4978  2.8191  1.3354
  624TMC3    H2 9301   3.734   3.793  16.421  0.5823  1.0306  1.1890
  624TMC3    C7 9302   3.936   3.840  16.269 -0.5086  0.3048 -0.1114
  624TMC3    C8 9303   3.718   3.705  16.656  0.4712 -0.2562  0.1240
  624TMC3    O1 9304   4.027   3.903  16.219  0.4084 -0.1912  0.3380
  624TMC3    O2 9305   3.636   3.675  16.567 -0.0326 -0.1338  0.4651
  625MPD2     C 9306   4.560   4.675   0.461 -0.1280 -0.3433  0.4422
  625MPD2    C1 9307   4.519   0.058   0.510  0.1147  0.4422  0.1511
  625MPD2    C2 9308   4.615   0.142   0.569  0.1303  0.3014  0.0949
  625MPD2    C3 9309   0.005   0.099   0.583  0.0077 -0.0726 -0.3256
  625MPD2    C4 9310   0.041   4.714   0.537 -0.3311 -0.1222 -0.1183
  625MPD2    C5 9311   4.688   4.633   0.486  0.0289 -0.2067  0.2321
  625MPD2     H 9312   4.591   0.241   0.605 -0.4485  0.2452 -0.1353
  625MPD2    H1 9313   0.137   4.665   0.524  0.5632  1.2994  1.2260
  625MPD2    H2 9314   4.485   4.606   0.423 -0.6796  0.5913 -0.1561
  625MPD2    H3 9315   4.711   4.532   0.452 -1.2276 -0.0305 -1.1010
  625MPD2     N 9316   0.097   0.189   0.647  0.4904  0.3450 -0.0411
  625MPD2    H5 9317   0.059   0.276   0.682 -1.4605 -0.3633 -0.3999
  625MPD2    N1 9318   4.385   0.101   0.507  0.0445  0.0819 -0.2431
  625MPD2    H7 9319   4.352   0.174   0.568  0.1331 -0.6948  0.7350
  626TMC3    C1 9320   4.166   0.111   0.438  0.4335  0.0453  1.0773
  626TMC3    C2 9321   4.111   0.136   0.318 -0.4298  0.0755  0.3284
  626TMC3    C3 9322   4.027   0.243   0.312  0.2877 -0.6616 -0.0666
  626TMC3    C4 9323   4.149   0.194   0.549  0.5825 -0.2890 -0.1072
  626TMC3    C5 9324   4.058   0.298   0.539  0.2707  0.1122  0.3947
  626TMC3    C6 9325   3.999   0.324   0.421  0.0757 -0.2362 -0.0696
  626TMC3     C 9326   4.287   0.040   0.434  0.2216  0.3915  0.1036
  626TMC3     O 9327   4.311   4.712   0.332 -0.2354 -0.1038 -0.6454
  626TMC3     H 9328   4.132   0.077   0.230 -2.3152  0.0145 -0.0977
  626TMC3    H1 9329   4.176   0.156   0.647 -0.7275 -1.7660 -0.3231
  626TMC3    H2 9330   3.906   0.379   0.415  1.3677  1.9669 -0.0819
  626TMC3    C7 9331   4.019   0.374   0.656 -0.5887 -0.0749  0.4019
  626TMC3    C8 9332   3.970   0.282   0.188 -0.0034 -0.4578  0.0155
  626TMC3    O1 9333   3.951   0.477   0.630 -1.4473  0.3351 -0.1240
  626TMC3    O2 9334   3.951   0.402   0.171 -0.2638  0.6684  0.4577
  627MPD2     C 9335   2.703   0.530  14.281 -0.5920 -0.0152 -0.4273
  627MPD2    C1 9336   2.739   0.487  14.403 -0.3479  0.5228 -0.2768
  627MPD2    C2 9337   2.698   0.354  14.434  0.2913 -0.3538 -0.5973
  627MPD2    C3 9338   2.644   0.265  14.342  0.1915 -0.3245  0.1218
  627MPD2    C4 9339   2.630   0.313  14.214 -0.3237  0.3103 -0.2080
  627MPD2    C5 9340   2.660   0.439  14.187  0.0142 -0.1924  0.0194
  627MPD2     H 9341   2.711   0.329  14.539 -0.0751  0.8912 -0.2550
  627MPD2    H1 9342   2.577   0.264  14.132  1.5721 -3.2678  0.7061
  627MPD2    H2 9343   2.730   0.628  14.243  3.1169 -0.7456  0.3518
  627MPD2    H3 9344   2.635   0.484  14.091  2.4602 -1.4799 -1.2271
  627MPD2     N 9345   2.584   0.141  14.389 -0.1068 -0.0036 -0.2916
  627MPD2    H5 9346   2.586   0.121  14.488  0.7612 -1.1331 -0.5308
  627MPD2    N1 9347   2.807   0.565  14.500  0.1559  0.0134 -0.2701
  627MPD2    H7 9348   2.817   0.528  14.593 -0.3588 -0.4645 -0.4044
  628TMC3    C1 9349   2.921   0.751  14.594  0.5770  0.1764  0.8310
  628TMC3    C2 9350   2.999   0.664  14.666 -0.0610 -0.0460 -0.3542
  628TMC3    C3 9351   3.087   0.725  14.754  0.0158  0.7651  0.6229
  628TMC3    C4 9352   2.926   0.887  14.602  0.0099  0.8850  0.0304
  628TMC3    C5 9353   3.013   0.939  14.691  0.1698 -0.2488 -0.4082
  628TMC3    C6 9354   3.083   0.857  14.777  0.1934  0.1106  0.2069
  628TMC3     C 9355   2.845   0.695  14.480 -0.3746  0.2771 -0.1328
  628TMC3     O 9356   2.812   0.770  14.390  0.7527  0.2487  0.3460
  628TMC3     H 9357   3.006   0.560  14.640 -0.9968  0.3936 -2.3084
  628TMC3    H1 9358   2.849   0.935  14.543 -0.6886  1.0591  1.0771
  628TMC3    H2 9359   3.152   0.907  14.844 -0.5285 -0.3861  1.3178
  628TMC3    C7 9360   3.027   1.083  14.698  0.4424  0.1454 -0.3396
  628TMC3    C8 9361   3.175   0.632  14.825 -0.6909 -0.8570 -0.1890
  628TMC3    O1 9362   3.050   1.128  14.811 -0.3188 -0.2648 -0.2274
  628TMC3    O2 9363   3.170   0.512  14.793  0.3911  0.3537  0.8148
  629MPD2     C 9364   1.183   3.543  17.275  0.0914  0.6355  0.0626
  629MPD2    C1 9365   1.191   3.540  17.132 -0.5726  0.0836 -0.1886
  629MPD2    C2 9366   1.071   3.568  17.061 -0.6830  0.6218 -0.1161
  629MPD2    C3 9367   0.955   3.621  17.116 -0.3988 -0.6422 -0.6578
  629MPD2    C4 9368   0.949   3.631  17.258 -0.0507 -0.9205 -0.2367
  629MPD2    C5 9369   1.061   3.584  17.330 -0.0487  0.1652 -0.8725
  629MPD2     H 9370   1.069   3.552  16.954  0.7367 -1.7074  0.1918
  629MPD2    H1 9371   0.866   3.675  17.312  0.0817 -0.4032 -0.4544
  629MPD2    H2 9372   1.273   3.516  17.330 -0.0801  0.9670  0.5039
  629MPD2    H3 9373   1.048   3.593  17.437  0.0971  1.4214 -0.9535
  629MPD2     N 9374   0.848   3.654  17.026  0.3079  0.3801  0.1183
  629MPD2    H5 9375   0.869   3.649  16.926  0.3991 -0.6156  0.1832
  629MPD2    N1 9376   1.309   3.490  17.068  0.9081 -0.6300  0.0469
  629MPD2    H7 9377   1.385   3.459  17.129  0.1926 -0.1611  1.1684
  630TMC3    C1 9378   1.469   3.471  16.888  0.5494 -0.6549  0.2055
  630TMC3    C2 9379   1.504   3.492  16.755 -0.0880 -0.6456 -0.3189
  630TMC3    C3 9380   1.630   3.478  16.708  0.3651  0.0259  0.0425
  630TMC3    C4 9381   1.561   3.421  16.976 -0.9692 -0.0686  0.0505
  630TMC3    C5 9382   1.676   3.394  16.927  0.1174  0.2090  0.5540
  630TMC3    C6 9383   1.719   3.425  16.799 -0.5098  0.1139 -0.7591
  630TMC3     C 9384   1.339   3.515  16.938  0.1070 -0.4288  0.5091
  630TMC3     O 9385   1.275   3.576  16.861 -0.2771  0.0965 -0.2845
  630TMC3     H 9386   1.439   3.550  16.690  0.8858  1.0352  0.2039
  630TMC3    H1 9387   1.519   3.378  17.067  2.8394 -1.6612  1.0403
  630TMC3    H2 9388   1.808   3.378  16.759 -0.6876  0.1390 -1.1910
  630TMC3    C7 9389   1.787   3.412  17.021 -0.2640 -0.5520  0.1453
  630TMC3    C8 9390   1.697   3.574  16.626  0.1936 -0.1600  0.1747
  630TMC3    O1 9391   1.769   3.395  17.139 -0.1261 -0.6978  0.1503
  630TMC3    O2 9392   1.798   3.619  16.679  0.5854  0.8463 -0.0801
  631MPD2     C 9393   4.272   3.612  15.701 -0.9325  0.4323 -0.0041
  631MPD2    C1 9394   4.325   3.718  15.644 -0.0151 -0.4787 -0.3319
  631MPD2    C2 9395   4.456   3.745  15.659 -0.0504  0.9194  0.7350
  631MPD2    C3 9396   4.539   3.659  15.732 -0.6219  0.3740 -0.6030
  631MPD2    C4 9397   4.487   3.551  15.796  0.2354  0.3214  0.2629
  631MPD2    C5 9398   4.350   3.532  15.779  0.5527  0.1120 -0.6097
  631MPD2     H 9399   4.504   3.825  15.605  0.0571  0.3628  0.0012
  631MPD2    H1 9400   4.559   3.483  15.840 -0.8695  0.4206  2.2125
  631MPD2    H2 9401   4.167   3.585  15.698 -0.9424  0.5358 -0.4794
  631MPD2    H3 9402   4.313   3.441  15.824 -2.6181  0.4866 -2.4350
  631MPD2     N 9403   4.678   3.685  15.714  0.2191  0.0178  0.1204
  631MPD2    H5 9404   4.695   3.766  15.656 -1.0386 -0.1444 -0.4694
  631MPD2    N1 9405   4.237   3.798  15.567 -0.3961  0.1237 -0.2177
  631MPD2    H7 9406   4.140   3.767  15.561 -0.5426  0.6502 -0.5493
  632TMC3    C1 9407   4.178   3.963  15.403 -0.4861 -0.7380 -0.0534
  632TMC3    C2 9408   4.044   3.986  15.427  0.5041 -0.4236  0.7059
  632TMC3    C3 9409   3.974   4.064  15.339 -1.0229 -0.0514  0.2279
  632TMC3    C4 9410   4.232   4.023  15.297  0.2968 -0.2662 -0.8265
  632TMC3    C5 9411   4.154   4.091  15.210 -0.0828  0.5734  0.4767
  632TMC3    C6 9412   4.024   4.113  15.220 -0.3012 -0.0876  0.1910
  632TMC3     C 9413   4.268   3.919  15.510 -0.5096  0.1103 -0.2365
  632TMC3     O 9414   4.366   3.990  15.532 -0.1603 -0.3363 -0.2561
  632TMC3     H 9415   4.001   3.929  15.508 -1.3586 -1.5959 -1.1367
  632TMC3    H1 9416   4.339   4.012  15.285  0.4745 -0.8103  1.2832
  632TMC3    H2 9417   3.971   4.174  15.148  0.4000 -0.1628 -0.3930
  632TMC3    C7 9418   4.222   4.135  15.090 -0.2910 -0.3432 -1.0624
  632TMC3    C8 9419   3.834   4.071  15.366 -0.0708 -0.1902  0.1763
  632TMC3    O1 9420   4.164   4.119  14.981 -0.4542  0.3164 -0.4512
  632TMC3    O2 9421   3.806   4.055  15.484 -0.1687 -0.0650 -0.4355
  633MPD2     C 9422   3.845   1.838  17.398 -0.0114  0.1584  0.7160
  633MPD2    C1 9423   3.879   1.802  17.270 -0.0621 -0.0231  0.2076
  633MPD2    C2 9424   3.842   1.681  17.227  0.0315  0.1938 -0.0717
  633MPD2    C3 9425   3.753   1.604  17.299  0.8426 -0.6123 -0.0631
  633MPD2    C4 9426   3.718   1.641  17.424 -0.5430 -0.3700 -0.4389
  633MPD2    C5 9427   3.780   1.750  17.479  0.0754 -0.3118  0.0244
  633MPD2     H 9428   3.867   1.647  17.128 -1.1089 -2.6078  0.5845
  633MPD2    H1 9429   3.660   1.581  17.492 -0.0676 -0.6307 -0.2700
  633MPD2    H2 9430   3.891   1.925  17.444 -0.3096  0.6716  0.0299
  633MPD2    H3 9431   3.769   1.772  17.585 -0.3457  1.0938 -0.3046
  633MPD2     N 9432   3.713   1.473  17.257  0.5876 -0.2337  0.4379
  633MPD2    H5 9433   3.684   1.409  17.331  0.3670  0.5793  1.0547
  633MPD2    N1 9434   3.964   1.884  17.184  0.5889  0.0453 -0.5661
  633MPD2    H7 9435   3.985   1.844  17.094  1.2038 -0.8186 -0.0420
  634TMC3    C1 9436   4.073   2.070  17.100 -0.8175 -0.0658 -0.1090
  634TMC3    C2 9437   4.150   1.995  17.010 -0.1028 -0.5084 -0.4786
  634TMC3    C3 9438   4.190   2.055  16.894  0.2921 -0.8750 -0.8188
  634TMC3    C4 9439   4.027   2.197  17.067  0.3507  0.7486 -0.0184
  634TMC3    C5 9440   4.073   2.248  16.946 -0.5791 -0.3245 -0.5241
  634TMC3    C6 9441   4.159   2.180  16.865 -0.4830  0.2493  0.2901
  634TMC3     C 9442   3.999   2.011  17.208 -0.1395 -0.8442 -0.3909
  634TMC3     O 9443   3.968   2.087  17.297 -0.6384  0.2254  0.5192
  634TMC3     H 9444   4.189   1.896  17.030  1.3915  0.0394 -0.6193
  634TMC3    H1 9445   3.959   2.247  17.134 -0.0029  0.9760 -0.5490
  634TMC3    H2 9446   4.203   2.237  16.784  0.2651 -2.3716 -1.1576
  634TMC3    C7 9447   4.015   2.364  16.891 -0.6860  0.0278  0.3772
  634TMC3    C8 9448   4.199   1.961  16.784 -0.3272 -0.4742 -0.3045
  634TMC3    O1 9449   4.077   2.423  16.803  0.6247 -0.8197 -0.1178
  634TMC3    O2 9450   4.178   1.842  16.811  0.0315 -0.3918  0.6863
  635TMC3    C1 9451   3.773   2.835   0.371  1.1522 -0.3419 -0.1690
  635TMC3    C2 9452   3.818   2.758   0.272  0.4862 -0.3076  0.2903
  635TMC3    C3 9453   3.796   2.621   0.277 -0.1701 -0.5973 -0.0885
  635TMC3    C4 9454   3.715   2.786   0.484  0.3197 -0.1441  0.6034
  635TMC3    C5 9455   3.692   2.655   0.489  0.1487  1.0461  1.0391
  635TMC3    C6 9456   3.744   2.561   0.391 -0.8167  0.6935  0.3250
  635TMC3     C 9457   3.802   2.975   0.373 -0.1286 -0.1288  0.2139
  635TMC3     O 9458   3.860   3.016   0.474 -0.0721  0.0656 -0.1205
  635TMC3     H 9459   3.875   2.795   0.187 -2.3287  1.7967 -0.6948
  635TMC3    H1 9460   3.695   2.853   0.568  3.5130  2.7303 -0.8956
  635TMC3    H2 9461   3.689   2.468   0.394  0.9760 -0.3441  0.5570
  635TMC3    C7 9462   3.613   2.607   0.605  0.0484  0.5104 -0.2377
  635TMC3    C8 9463   3.804   2.554   0.149 -0.0704  0.3172 -0.2826
  635TMC3    O1 9464   3.506   2.649   0.626 -0.3557  0.6538 -0.1068
  635TMC3    O2 9465   3.800   2.622   0.048 -0.2309 -1.1908 -0.3241
  636MPD2     C 9466   0.452   2.062  16.045  0.1802 -0.5906  0.0047
  636MPD2    C1 9467   0.421   2.097  16.175  0.8036 -0.0008 -0.8083
  636MPD2    C2 9468   0.449   2.007  16.276  0.4942 -0.0475  0.2681
  636MPD2    C3 9469   0.490   1.880  16.253 -0.1696 -0.0333  0.1954
  636MPD2    C4 9470   0.513   1.850  16.121 -0.2253 -0.4845 -0.6485
  636MPD2    C5 9471   0.489   1.938  16.021  0.5470 -0.2482  0.8566
  636MPD2     H 9472   0.430   2.040  16.377 -0.3958 -2.6800  0.9831
  636MPD2    H1 9473   0.557   1.753  16.098  2.3319  0.2755  1.0150
  636MPD2    H2 9474   0.437   2.126  15.960  3.9096 -0.8724 -0.8889
  636MPD2    H3 9475   0.515   1.920  15.917 -0.4149 -1.3675  0.8150
  636MPD2     N 9476   0.490   1.786  16.362 -0.5940  0.0690  0.3427
  636MPD2    H5 9477   0.480   1.824  16.455 -1.8498  1.5915 -0.4004
  636MPD2    N1 9478   0.364   2.218  16.217  0.1078  0.1798  0.6412
  636MPD2    H7 9479   0.371   2.242  16.315  1.2941 -0.3674  0.6970
  637TMC3    C1 9480   0.540   1.593  16.486 -0.0569 -0.2647 -0.8284
  637TMC3    C2 9481   0.533   1.671  16.598  0.5971 -0.7885 -0.1846
  637TMC3    C3 9482   0.613   1.641  16.711 -0.0215  0.0075  0.0731
  637TMC3    C4 9483   0.615   1.478  16.486  0.0353  0.1711 -0.5365
  637TMC3    C5 9484   0.688   1.449  16.599 -0.1127  0.2777  0.1269
  637TMC3    C6 9485   0.693   1.533  16.708  0.2828  0.0901 -0.2765
  637TMC3     C 9486   0.512   1.651  16.355 -0.7956 -0.3058  0.3261
  637TMC3     O 9487   0.532   1.579  16.256 -0.0632 -0.0304 -0.3174
  637TMC3     H 9488   0.449   1.739  16.604 -0.2238 -1.8887  0.8224
  637TMC3    H1 9489   0.616   1.414  16.398  0.6691 -1.0173  0.3384
  637TMC3    H2 9490   0.752   1.510  16.796 -0.1302  0.8700  0.1944
  637TMC3    C7 9491   0.777   1.342  16.584  0.7819 -0.9241  0.2753
  637TMC3    C8 9492   0.660   1.759  16.772 -0.3589  0.8089 -0.0647
  637TMC3    O1 9493   0.793   1.262  16.673 -0.1669 -0.1425  0.2228
  637TMC3    O2 9494   0.619   1.863  16.720 -0.3892 -0.4954 -0.5449
  638MPD2     C 9495   0.343   1.144  15.221 -1.0934  0.6977 -0.7685
  638MPD2    C1 9496   0.281   1.077  15.112  0.3595  0.1100 -0.8293
  638MPD2    C2 9497   0.239   0.946  15.145 -0.4987  0.1130  0.7385
  638MPD2    C3 9498   0.246   0.893  15.272 -0.0419 -0.2078  0.8784
  638MPD2    C4 9499   0.321   0.951  15.372 -0.6478  0.0072 -0.1557
  638MPD2    C5 9500   0.355   1.080  15.349  0.0853  0.3747 -0.1730
  638MPD2     H 9501   0.189   0.886  15.070  0.4312 -0.8521  0.8941
  638MPD2    H1 9502   0.345   0.906  15.467 -0.1997  1.6825  0.5261
  638MPD2    H2 9503   0.377   1.244  15.201 -1.1587  0.7807 -0.4634
  638MPD2    H3 9504   0.399   1.136  15.431  1.4537 -1.9309  0.6504
  638MPD2     N 9505   0.180   0.771  15.287  1.0354  0.0045 -0.0499
  638MPD2    H5 9506   0.155   0.719  15.203 -0.4701  0.2519  0.2455
  638MPD2    N1 9507   0.275   1.138  14.987 -0.1146  0.1362 -0.4625
  638MPD2    H7 9508   0.301   1.236  14.988  1.5036 -0.2887 -0.9647
  639TMC3    C1 9509   0.116   0.574  15.390  0.3182  0.0684 -0.9377
  639TMC3    C2 9510   4.735   0.556  15.331 -0.3025 -0.8954  0.2481
  639TMC3    C3 9511   4.688   0.429  15.328  0.0222 -0.0574  0.2625
  639TMC3    C4 9512   0.187   0.469  15.440  0.2565 -0.1765  0.3564
  639TMC3    C5 9513   0.135   0.342  15.439  0.6927 -0.0593 -0.3403
  639TMC3    C6 9514   0.008   0.320  15.383 -0.1979  0.2458  0.2619
  639TMC3     C 9515   0.175   0.707  15.405  0.0441 -0.2809  0.7449
  639TMC3     O 9516   0.210   0.738  15.520 -0.9268  0.1523  0.2972
  639TMC3     H 9517   4.698   0.642  15.277 -3.4046 -2.3571  0.0471
  639TMC3    H1 9518   0.274   0.489  15.500  1.3841 -1.3163 -0.9015
  639TMC3    H2 9519   4.708   0.222  15.361 -2.3420  1.7252 -2.5207
  639TMC3    C7 9520   0.236   0.233  15.425  0.5303  0.2785 -0.3445
  639TMC3    C8 9521   4.625   0.394  15.204  0.2948 -0.1226 -0.0137
  639TMC3    O1 9522   0.193   0.125  15.452  0.0906  0.0811  0.1103
  639TMC3    O2 9523   4.647   0.466  15.108  0.1797 -0.1039  0.1977
  640MPD2     C 9524   1.182   4.621  10.341  0.2953 -0.7975 -0.2717
  640MPD2    C1 9525   1.176   0.005  10.287 -0.3601 -0.4388 -0.6323
  640MPD2    C2 9526   1.090   0.100  10.338 -0.2881 -0.3538  0.2080
  640MPD2    C3 9527   1.005   0.066  10.445 -0.5155 -0.0018  0.4002
  640MPD2    C4 9528   1.010   4.676  10.489  0.1434 -0.0389  0.4798
  640MPD2    C5 9529   1.095   4.587  10.437  0.0641 -0.5300  0.0826
  640MPD2     H 9530   1.082   0.196  10.289  0.6466  0.6055  1.9320
  640MPD2    H1 9531   0.945   4.644  10.570 -0.3164  3.0251  1.3117
  640MPD2    H2 9532   1.248   4.543  10.304  1.7498  0.1560  0.2936
  640MPD2    H3 9533   1.107   4.488  10.478  1.7241  0.0524  0.9875
  640MPD2     N 9534   0.912   0.160  10.497 -0.0235 -0.2161 -0.4556
  640MPD2    H5 9535   0.838   0.118  10.552 -1.7946  1.7314 -1.3359
  640MPD2    N1 9536   1.266   0.026  10.182 -0.5442  0.1543  0.2227
  640MPD2    H7 9537   1.306   4.682  10.143 -2.2108 -1.5877  2.2903
  641TMC3    C1 9538   1.345   0.114   9.981  0.4965  0.1424  0.2228
  641TMC3    C2 9539   1.354   4.733   9.927  0.5454 -0.3050  0.2105
  641TMC3    C3 9540   1.435   4.707   9.818 -0.3375  0.2370 -0.7171
  641TMC3    C4 9541   1.404   0.223   9.919  0.4369  0.5703 -0.2772
  641TMC3    C5 9542   1.482   0.196   9.805  0.1378 -0.2111 -0.0358
  641TMC3    C6 9543   1.499   0.069   9.757  0.2251  0.6428  0.0009
  641TMC3     C 9544   1.284   0.141  10.109  0.2553 -0.0160  0.0730
  641TMC3     O 9545   1.244   0.253  10.137 -0.5737  0.7735  0.4298
  641TMC3     H 9546   1.295   4.652   9.967  1.8201 -0.7785  1.1337
  641TMC3    H1 9547   1.392   0.321   9.963  0.9660 -0.3015  1.8017
  641TMC3    H2 9548   1.540   0.050   9.658 -2.0589 -0.0683 -0.7963
  641TMC3    C7 9549   1.514   0.307   9.703 -0.1253 -0.0357  0.0972
  641TMC3    C8 9550   1.459   4.568   9.794  0.1017 -0.4166  0.0941
  641TMC3    O1 9551   1.558   0.274   9.591 -0.5820  0.2659 -0.6890
  641TMC3    O2 9552   1.411   4.493   9.876  0.2454 -0.1860 -0.8344
  642TMC3    C1 9553   1.921   0.750  12.532  0.2906 -0.1811  0.4801
  642TMC3    C2 9554   2.047   0.792  12.491 -0.2645 -0.0213  1.2137
  642TMC3    C3 9555   2.100   0.729  12.381 -0.3417 -0.1725 -0.1864
  642TMC3    C4 9556   1.853   0.661  12.461  0.3807 -0.1199 -0.0294
  642TMC3    C5 9557   1.907   0.595  12.350  0.1382 -0.3151 -0.7056
  642TMC3    C6 9558   2.037   0.622  12.314 -0.3984  0.1039 -0.1228
  642TMC3     C 9559   1.845   0.851  12.604 -0.3882  0.3516 -0.3228
  642TMC3     O 9560   1.902   0.958  12.588  0.3626  0.1435 -0.1667
  642TMC3     H 9561   2.105   0.864  12.548  3.1610 -1.0983 -0.9208
  642TMC3    H1 9562   1.745   0.651  12.463  0.3853 -0.8137 -3.1135
  642TMC3    H2 9563   2.068   0.590  12.215 -0.3010  0.0000 -0.0568
  642TMC3    C7 9564   1.832   0.491  12.282 -0.3904 -0.6454  0.3304
  642TMC3    C8 9565   2.239   0.734  12.361 -0.0090  0.1871  0.1115
  642TMC3    O1 9566   1.862   0.470  12.169  0.3749 -0.1721  0.8023
  642TMC3    O2 9567   2.294   0.639  12.298 -0.3693 -0.4146  0.1847
  643TMC3    C1 9568   1.445   4.533   0.099  0.5539  0.1737 -0.4344
  643TMC3    C2 9569   1.324   4.480   0.071 -0.5212 -0.2298  0.0849
  643TMC3    C3 9570   1.297   4.420  17.710 -0.1507 -0.3803 -0.3813
  643TMC3    C4 9571   1.548   4.515   0.010  0.3654 -0.2756 -0.2882
  643TMC3    C5 9572   1.517   4.457  17.652  0.4030 -0.0352 -0.5527
  643TMC3    C6 9573   1.397   4.396  17.618  0.3478 -0.1299  0.2710
  643TMC3     C 9574   1.439   4.657   0.171  0.5465  0.7968 -0.5917
  643TMC3     O 9575   1.347   4.732   0.151 -0.1472  0.3248 -0.3160
  643TMC3     H 9576   1.249   4.500   0.146  0.5304  0.4979  0.9384
  643TMC3    H1 9577   1.644   4.563   0.029 -0.7500  0.7845  2.7051
  643TMC3    H2 9578   1.373   4.337  17.531 -2.7153  0.4589  0.7339
  643TMC3    C7 9579   1.578   4.524  17.540 -0.3863  0.3641 -0.8540
  643TMC3    C8 9580   1.177   4.466  17.652  0.2135  0.0340  0.2028
  643TMC3    O1 9581   1.619   4.632  17.572  0.0174 -0.9302 -0.2815
  643TMC3    O2 9582   1.131   4.394  17.561 -0.0373 -0.1879 -0.2895
  644MPD2     C 9583   1.883   1.054   9.497  0.4009  0.6960  0.1201
  644MPD2    C1 9584   1.915   0.997   9.619 -0.0240  0.5874  0.6508
  644MPD2    C2 9585   1.928   1.079   9.731 -0.0461 -0.0947  0.6141
  644MPD2    C3 9586   1.890   1.219   9.718  0.4770 -0.2611  0.0944
  644MPD2    C4 9587   1.839   1.267   9.601  0.4571  0.5983 -0.0759
  644MPD2    C5 9588   1.841   1.182   9.488  0.4421  0.4829  0.9517
  644MPD2     H 9589   1.951   1.051   9.833 -1.8786  0.4028  1.1699
  644MPD2    H1 9590   1.799   1.367   9.586 -0.6844  0.0939 -0.3784
  644MPD2    H2 9591   1.871   0.994   9.408  0.7990  1.1360 -0.2319
  644MPD2    H3 9592   1.795   1.219   9.397  1.0013  0.0527  0.4950
  644MPD2     N 9593   1.895   1.306   9.830 -0.6894  0.1119  0.3904
  644MPD2    H5 9594   1.913   1.269   9.923 -1.5944  1.3258  1.0467
  644MPD2    N1 9595   1.945   0.859   9.613 -0.6885  0.2504 -0.1557
  644MPD2    H7 9596   1.932   0.813   9.524 -0.0762 -1.4171  0.6130
  645TMC3    C1 9597   1.859   1.504   9.953 -0.0843 -0.3057  0.2193
  645TMC3    C2 9598   1.850   1.641   9.945 -0.1909  0.1373 -0.5696
  645TMC3    C3 9599   1.801   1.710  10.058  0.0643 -0.1280  0.1331
  645TMC3    C4 9600   1.823   1.437  10.073  1.0725  0.4620  0.4054
  645TMC3    C5 9601   1.771   1.511  10.179  0.4405 -0.3780  0.2143
  645TMC3    C6 9602   1.764   1.643  10.176 -0.3489  0.8733  0.6025
  645TMC3     C 9603   1.879   1.442   9.827  1.2580 -0.0461 -0.1068
  645TMC3     O 9604   1.898   1.512   9.733  0.5237 -0.6362  0.4924
  645TMC3     H 9605   1.882   1.697   9.859 -1.3852 -0.1065 -1.1698
  645TMC3    H1 9606   1.818   1.330  10.085  1.8201  0.4508  0.5837
  645TMC3    H2 9607   1.745   1.707  10.261  0.4757  0.7452  0.8853
  645TMC3    C7 9608   1.722   1.431  10.293  0.1340 -0.3850  0.5425
  645TMC3    C8 9609   1.745   1.843  10.034  0.2776 -0.1038 -0.2542
  645TMC3    O1 9610   1.700   1.309  10.276 -0.2674  0.0544  0.2358
  645TMC3    O2 9611   1.785   1.905   9.934  0.3427  0.3496 -0.0927
  646MPD2     C 9612   0.405   0.007  14.674  0.7159  0.3276 -0.0561
  646MPD2    C1 9613   0.305   4.661  14.711  0.8897  0.6604 -1.1983
  646MPD2    C2 9614   0.183   4.663  14.656  0.5346  0.4802 -0.2128
  646MPD2    C3 9615   0.152   0.036  14.581  0.4416 -0.1008 -0.8583
  646MPD2    C4 9616   0.249   0.133  14.557  0.2086  0.2062  0.1629
  646MPD2    C5 9617   0.381   0.115  14.596 -0.5641  0.4876  0.1260
  646MPD2     H 9618   0.113   4.582  14.669 -0.6823  1.4516 -0.7402
  646MPD2    H1 9619   0.211   0.222  14.507  3.8212 -0.6102 -4.0333
  646MPD2    H2 9620   0.506   0.002  14.711  1.4099  0.7074 -1.9119
  646MPD2    H3 9621   0.464   0.177  14.567 -0.6684  0.4778 -0.1888
  646MPD2     N 9622   0.019   0.046  14.539  0.4317  0.6179  0.3931
  646MPD2    H5 9623   4.693   4.722  14.579  0.5424  0.8909  1.0084
  646MPD2    N1 9624   0.341   4.552  14.791 -0.3157 -0.1102 -0.6690
  646MPD2    H7 9625   0.276   4.476  14.805 -0.8753  0.1493 -1.8586
  647TMC3    C1 9626   0.471   4.406  14.930 -0.5794  0.6157  0.0625
  647TMC3    C2 9627   0.370   4.358  15.012 -0.3141  0.3393 -0.5783
  647TMC3    C3 9628   0.395   4.243  15.079  0.2468  0.8632 -0.4359
  647TMC3    C4 9629   0.604   4.362  14.941 -0.3224  1.0814  0.2891
  647TMC3    C5 9630   0.630   4.257  15.022 -0.4347 -0.4759  0.8384
  647TMC3    C6 9631   0.531   4.199  15.096  0.6740  0.4290  0.0485
  647TMC3     C 9632   0.456   4.532  14.866  0.4522 -0.4032  0.2363
  647TMC3     O 9633   0.557   4.604  14.874 -0.2240  0.0861  0.3013
  647TMC3     H 9634   0.266   4.391  15.007 -0.4944  0.1219  1.8165
  647TMC3    H1 9635   0.689   4.388  14.878  1.7092 -2.4289  1.5848
  647TMC3    H2 9636   0.554   4.112  15.156  1.1008  0.4392 -0.1085
  647TMC3    C7 9637   0.764   4.222  15.066  0.7068  0.4594 -0.3883
  647TMC3    C8 9638   0.284   4.194  15.153 -0.1921 -0.7442  0.5752
  647TMC3    O1 9639   0.784   4.112  15.111 -0.4014  0.0864 -0.2642
  647TMC3    O2 9640   0.195   4.278  15.177 -0.3851 -0.2523 -0.0506
  648TMC3    C1 9641   4.541   1.909  16.318  0.0332  0.2768 -0.3582
  648TMC3    C2 9642   4.628   1.809  16.273 -0.3009 -0.3878  0.4503
  648TMC3    C3 9643   4.643   1.780  16.133  0.3372  0.3302  0.5664
  648TMC3    C4 9644   4.486   1.994  16.230  0.3228 -0.4670 -1.3356
  648TMC3    C5 9645   4.486   1.954  16.095  0.1145  0.5339 -0.0816
  648TMC3    C6 9646   4.563   1.847  16.042 -0.8254 -0.3202  0.1137
  648TMC3     C 9647   4.546   1.963  16.457 -0.4345 -0.0634  0.2235
  648TMC3     O 9648   4.526   2.085  16.466 -0.7931  0.1742  0.0177
  648TMC3     H 9649   4.684   1.749  16.344 -0.1644 -0.9927 -0.1737
  648TMC3    H1 9650   4.412   2.064  16.267  1.1761 -1.1773  1.7200
  648TMC3    H2 9651   4.571   1.826  15.936  1.4127 -0.3740  0.2999
  648TMC3    C7 9652   4.404   2.030  16.003  0.4404  0.2032 -0.0642
  648TMC3    C8 9653   4.686   1.642  16.110 -0.1105  0.0634 -0.0146
  648TMC3    O1 9654   4.396   1.988  15.887 -0.1621  0.1213 -1.1716
  648TMC3    O2 9655   0.054   1.603  16.149  0.8289 -0.1815 -0.2295
  649TMC3    C1 9656   3.704   3.337  13.374  0.4712 -0.2670  0.1109
  649TMC3    C2 9657   3.832   3.301  13.398 -0.1545 -0.5592  0.1066
  649TMC3    C3 9658   3.863   3.211  13.495  0.2483 -1.3250 -0.0596
  649TMC3    C4 9659   3.597   3.282  13.450 -0.1579  0.8467  0.2610
  649TMC3    C5 9660   3.632   3.176  13.528  0.2167 -0.1548 -0.4213
  649TMC3    C6 9661   3.763   3.141  13.547 -0.2662  0.1399  0.0316
  649TMC3     C 9662   3.679   3.448  13.278  0.2771 -1.1836  0.4246
  649TMC3     O 9663   3.583   3.518  13.306 -0.4616  0.7578 -0.1438
  649TMC3     H 9664   3.902   3.380  13.372 -1.6597  0.9690  0.6410
  649TMC3    H1 9665   3.495   3.320  13.442 -0.3253  0.3745  0.1584
  649TMC3    H2 9666   3.788   3.058  13.612  1.3946  0.0375 -0.7348
  649TMC3    C7 9667   3.531   3.104  13.601  0.3870  0.4818  0.5863
  649TMC3    C8 9668   3.992   3.173  13.522  1.0421  0.3203  0.3130
  649TMC3    O1 9669   3.432   3.166  13.640  0.0602  0.0174  0.0060
  649TMC3    O2 9670   4.016   3.133  13.633  0.4566 -0.9257 -0.1790
  650TMC3    C1 9671   1.203   4.388  12.810 -0.3541 -0.4265  0.8470
  650TMC3    C2 9672   1.115   4.443  12.900  0.1871  0.3219  0.1298
  650TMC3    C3 9673   1.039   4.544  12.855  0.1495  0.0023 -0.0825
  650TMC3    C4 9674   1.225   4.437  12.686 -0.1614 -0.5170  0.8808
  650TMC3    C5 9675   1.156   4.540  12.640  0.5886 -0.1098 -0.6079
  650TMC3    C6 9676   1.048   4.585  12.719  0.4817  0.2181 -0.3403
  650TMC3     C 9677   1.290   4.288  12.873 -0.6968 -0.5416 -0.1790
  650TMC3     O 9678   1.231   4.220  12.956 -0.0376  0.5789  0.0050
  650TMC3     H 9679   1.092   4.392  12.993  2.0754  2.2288  1.6443
  650TMC3    H1 9680   1.307   4.407  12.621 -0.2067 -0.9724  1.0325
  650TMC3    H2 9681   0.985   4.666  12.683 -2.9759 -2.6193 -0.6923
  650TMC3    C7 9682   1.209   4.615  12.526  0.1295  0.0113  0.1041
  650TMC3    C8 9683   0.989   4.637  12.956  0.1123  0.3738  0.7181
  650TMC3    O1 9684   1.282   4.563  12.439  0.0393 -0.0178  0.1453
  650TMC3    O2 9685   0.920   4.731  12.913 -0.4638  0.4012  0.1322
  651MPD2     C 9686   4.581   2.140  10.839 -0.2368  0.5952 -0.4158
  651MPD2    C1 9687   4.614   2.215  10.952 -0.3661  0.6230 -0.2610
  651MPD2    C2 9688   0.006   2.259  10.963 -0.2762 -0.3102 -0.2317
  651MPD2    C3 9689   0.098   2.239  10.862 -0.0538 -0.4890  0.0978
  651MPD2    C4 9690   0.060   2.183  10.739 -0.2391 -0.1428  0.2145
  651MPD2    C5 9691   4.674   2.130  10.733 -0.0569  0.3195 -0.0885
  651MPD2     H 9692   0.035   2.306  11.056  0.7816 -2.5584  0.5692
  651MPD2    H1 9693   0.120   2.180  10.650  0.0918  0.4679  0.4166
  651MPD2    H2 9694   4.475   2.120  10.827  0.1097  0.5708 -3.4935
  651MPD2    H3 9695   4.643   2.087  10.639  1.1632 -0.2463 -0.2263
  651MPD2     N 9696   0.226   2.280  10.880 -0.8618 -0.2511  0.2439
  651MPD2    H5 9697   0.237   2.329  10.968 -0.7631 -1.6298  1.0046
  651MPD2    N1 9698   4.522   2.244  11.058 -0.0311  0.5912  0.5866
  651MPD2    H7 9699   4.566   2.297  11.133  0.8913  0.0746  0.4036
  652TMC3    C1 9700   0.663   2.363  10.929 -0.1501  0.2299  0.0477
  652TMC3    C2 9701   0.568   2.289  10.856 -0.4608  0.3533 -0.2550
  652TMC3    C3 9702   0.435   2.334  10.862  0.3161  0.2337 -0.1229
  652TMC3    C4 9703   0.629   2.475  10.996 -0.1270 -0.7731  0.1921
  652TMC3    C5 9704   0.500   2.523  10.987  1.3676 -0.1294  0.1424
  652TMC3    C6 9705   0.403   2.459  10.908 -0.1299  0.6480 -0.2044
  652TMC3     C 9706   0.801   2.327  10.920 -0.0127 -0.1256 -0.5352
  652TMC3     O 9707   0.867   2.343  11.024 -0.1258  0.1593 -0.4521
  652TMC3     H 9708   0.576   2.203  10.791 -0.2908  1.8036 -2.1488
  652TMC3    H1 9709   0.715   2.527  11.038 -0.2454  0.2896 -0.8752
  652TMC3    H2 9710   0.306   2.508  10.900 -0.1854  0.4744 -0.5898
  652TMC3    C7 9711   0.500   2.667  11.001  0.0786 -0.5890  0.6073
  652TMC3    C8 9712   0.333   2.266  10.798  0.3739 -0.3331 -0.0127
  652TMC3    O1 9713   0.418   2.713  11.089 -0.2438 -0.1715 -0.3738
  652TMC3    O2 9714   0.353   2.205  10.696  0.1394 -0.7234 -0.3825
  653MPD2     C 9715   3.386   1.907  17.680 -0.3945  0.5211 -0.1861
  653MPD2    C1 9716   3.372   2.002  17.581  0.5550  0.3118  0.1848
  653MPD2    C2 9717   3.352   1.951  17.453  0.3957  0.4600 -0.1703
  653MPD2    C3 9718   3.354   1.821  17.419  0.0172  0.0693  0.0881
  653MPD2    C4 9719   3.371   1.730  17.524 -0.4728  0.6533  0.3832
  653MPD2    C5 9720   3.385   1.774  17.657 -0.3549 -0.4303 -0.5837
  653MPD2     H 9721   3.336   2.019  17.370  1.4510 -0.7210 -1.3238
  653MPD2    H1 9722   3.383   1.626  17.497 -2.4373  0.1165  1.5284
  653MPD2    H2 9723   3.403   1.930   0.025 -2.5311  2.2720 -0.2322
  653MPD2    H3 9724   3.397   1.703  17.739  0.7714 -0.5522 -0.8560
  653MPD2     N 9725   3.325   1.790  17.281  0.0962  0.4199 -0.0471
  653MPD2    H5 9726   3.300   1.865  17.219 -0.4938 -1.9973 -2.7292
  653MPD2    N1 9727   3.382   2.141  17.605  1.1489 -0.4730  0.1197
  653MPD2    H7 9728   3.375   2.197  17.521 -1.9133  1.0231  1.3928
  654TMC3    C1 9729   3.306   1.650  17.081 -0.3946 -0.4027 -0.3575
  654TMC3    C2 9730   3.220   1.739  17.022  0.5215 -0.1488  0.3601
  654TMC3    C3 9731   3.179   1.709  16.894 -0.4961  0.2498  0.7189
  654TMC3    C4 9732   3.348   1.537  17.014 -0.2466 -0.0514 -0.3144
  654TMC3    C5 9733   3.304   1.511  16.891  0.0175  0.1897  0.0984
  654TMC3    C6 9734   3.229   1.598  16.821 -0.9746  0.2883 -0.3521
  654TMC3     C 9735   3.334   1.664  17.227  0.7247 -0.3678  0.3661
  654TMC3     O 9736   3.376   1.560  17.277 -0.1361 -0.3505  0.1451
  654TMC3     H 9737   3.178   1.820  17.081  0.7476 -0.5553  1.0782
  654TMC3    H1 9738   3.425   1.475  17.058 -1.8632  0.0323  2.6678
  654TMC3    H2 9739   3.191   1.575  16.722 -1.8255  0.9837 -0.1954
  654TMC3    C7 9740   3.314   1.385  16.819 -0.3234  0.4141  0.4865
  654TMC3    C8 9741   3.056   1.770  16.854  0.1115 -0.2191 -0.4408
  654TMC3    O1 9742   3.280   1.373  16.701 -0.5027 -0.2287  0.2159
  654TMC3    O2 9743   3.001   1.845  16.937 -0.3680  0.2676 -0.2025
  655MPD2     C 9744   0.176   1.849  15.932  1.0165  0.4954 -0.6577
  655MPD2    C1 9745   0.100   1.926  15.845 -0.1828  0.7371  0.4932
  655MPD2    C2 9746   0.088   1.883  15.719 -0.1550  0.0578 -0.1555
  655MPD2    C3 9747   0.152   1.769  15.669  0.3229 -0.2392 -0.1747
  655MPD2    C4 9748   0.232   1.699  15.756  0.2326  0.6451 -0.0312
  655MPD2    C5 9749   0.234   1.733  15.888  0.1719 -0.2658 -0.1570
  655MPD2     H 9750   0.030   1.941  15.649  1.4637  1.5114 -0.3003
  655MPD2    H1 9751   0.288   1.612  15.722 -0.6511  0.1972 -0.3459
  655MPD2    H2 9752   0.195   1.870  16.037  0.7671  0.0150 -0.5152
  655MPD2    H3 9753   0.290   1.673  15.958 -1.1911 -1.7707 -0.3631
  655MPD2     N 9754   0.144   1.733  15.537  0.0422  0.0462  0.3055
  655MPD2    H5 9755   0.203   1.657  15.506  1.0297  0.7966  0.3415
  655MPD2    N1 9756   0.037   2.052  15.880 -0.3976  0.1619 -0.0448
  655MPD2    H7 9757   4.728   2.101  15.806 -2.5235  0.3310  1.4892
  656TMC3    C1 9758   4.714   2.235  16.012 -0.2200 -0.3287 -0.0152
  656TMC3    C2 9759   4.653   2.275  16.132  0.5096  0.6189  0.2114
  656TMC3    C3 9760   4.594   2.398  16.135  0.1410  0.0121 -0.2977
  656TMC3    C4 9761   4.709   2.325  15.910  0.9532 -0.0991  0.6639
  656TMC3    C5 9762   4.635   2.442  15.911  0.6764  0.2602  0.6453
  656TMC3    C6 9763   4.576   2.477  16.027  0.3256 -0.0583 -0.2687
  656TMC3     C 9764   0.038   2.111  16.013 -1.2772  0.0725  0.0580
  656TMC3     O 9765   0.072   2.058  16.115 -0.2859  0.0890  0.6505
  656TMC3     H 9766   4.638   2.209  16.217  0.8016  1.7864  1.1687
  656TMC3    H1 9767   0.025   2.298  15.821  1.4194 -0.4546  1.0688
  656TMC3    H2 9768   4.520   2.570  16.034  2.0876  1.0055 -0.4501
  656TMC3    C7 9769   4.593   2.504  15.781 -0.6306  0.3425  0.7213
  656TMC3    C8 9770   4.488   2.416  16.225 -0.2363 -0.0024  0.4662
  656TMC3    O1 9771   4.659   2.471  15.683 -0.2144 -0.2132 -0.2969
  656TMC3    O2 9772   4.424   2.319  16.272  0.5058  0.1834 -0.3417
  657TMC3    C1 9773   3.943   1.540  15.479  0.1639  0.2690  0.1532
  657TMC3    C2 9774   3.937   1.613  15.593  0.2036  0.2803  0.6602
  657TMC3    C3 9775   3.884   1.738  15.585  0.0170  0.1656  0.3707
  657TMC3    C4 9776   3.886   1.582  15.362  0.1306  0.4998  0.3233
  657TMC3    C5 9777   3.812   1.701  15.363  0.2354  0.4659  0.8659
  657TMC3    C6 9778   3.817   1.783  15.475  0.0410 -0.0856 -0.1967
  657TMC3     C 9779   3.954   1.402  15.506 -0.1928  0.7917 -0.8423
  657TMC3     O 9780   3.911   1.371  15.615 -0.8211  0.3037 -0.1727
  657TMC3     H 9781   4.003   1.584  15.674  0.8823  0.0353  0.0190
  657TMC3    H1 9782   3.884   1.506  15.285 -0.1523 -1.1812  1.9795
  657TMC3    H2 9783   3.758   1.874  15.483  2.2938  1.3648 -0.2833
  657TMC3    C7 9784   3.753   1.753  15.242  0.3308 -0.3763  0.2923
  657TMC3    C8 9785   3.859   1.810  15.712 -0.4095  0.3047 -0.8155
  657TMC3    O1 9786   3.734   1.872  15.251  0.4122 -0.6794 -0.1153
  657TMC3    O2 9787   3.820   1.927  15.707  0.5825  0.2252  0.2693
  658MPD2     C 9788   0.661   1.671  15.070  0.3840  0.1585  0.0796
  658MPD2    C1 9789   0.550   1.745  15.024  0.8184 -0.0495 -0.4120
  658MPD2    C2 9790   0.579   1.831  14.919 -0.7785  0.5017 -0.0676
  658MPD2    C3 9791   0.695   1.831  14.842 -0.6814 -0.2028  0.3860
  658MPD2    C4 9792   0.795   1.748  14.886  0.5940 -0.0209  0.0364
  658MPD2    C5 9793   0.777   1.675  14.997  0.0275 -0.1695 -0.4195
  658MPD2     H 9794   0.503   1.900  14.882 -1.2093  0.2583  0.3647
  658MPD2    H1 9795   0.882   1.722  14.827  1.6432  1.0434  1.1270
  658MPD2    H2 9796   0.657   1.604  15.155 -0.4199  0.9334  0.6584
  658MPD2    H3 9797   0.857   1.604  15.017  1.1575  1.0467 -0.6819
  658MPD2     N 9798   0.709   1.918  14.737  0.1927 -0.5315  0.0824
  658MPD2    H5 9799   0.623   1.965  14.710  0.7375  0.9083  0.8518
  658MPD2    N1 9800   0.429   1.733  15.096 -0.4664  0.6337  0.1391
  658MPD2    H7 9801   0.429   1.679  15.182 -1.0530  1.9133  0.9538
  659TMC3    C1 9802   0.188   1.761  15.125  0.1783 -0.6297  0.3343
  659TMC3    C2 9803   0.185   1.746  15.264  0.1546 -0.4003  0.1931
  659TMC3    C3 9804   0.067   1.727  15.324  0.3937 -1.2237 -0.4086
  659TMC3    C4 9805   0.072   1.771  15.055  0.5767 -0.5088  0.5492
  659TMC3    C5 9806   4.695   1.764  15.124 -0.4986  0.0356 -0.0606
  659TMC3    C6 9807   4.687   1.737  15.258  0.2804 -0.2335 -0.2653
  659TMC3     C 9808   0.310   1.795  15.052  0.3321  0.0731  0.1111
  659TMC3     O 9809   0.295   1.836  14.937  0.1664  0.7317 -0.0696
  659TMC3     H 9810   0.273   1.762  15.324 -1.0488  1.6123  1.4504
  659TMC3    H1 9811   0.083   1.778  14.948 -2.3300  0.0462  0.2647
  659TMC3    H2 9812   4.595   1.720  15.312  2.2148 -0.4340  3.0277
  659TMC3    C7 9813   4.572   1.793  15.055 -0.1026 -0.2314 -0.2244
  659TMC3    C8 9814   0.062   1.789  15.448  0.0281 -0.2704 -0.1441
  659TMC3    O1 9815   4.481   1.832  15.124  0.4742 -0.4145  0.2093
  659TMC3    O2 9816   4.699   1.855  15.465  0.6640  0.1006  0.6407
  660MPD2     C 9817   2.924   0.877  12.610 -0.4898 -0.6030 -0.5506
  660MPD2    C1 9818   2.842   0.959  12.686 -0.5355 -0.0757  0.8507
  660MPD2    C2 9819   2.774   0.896  12.792 -0.2845 -0.2508  0.0052
  660MPD2    C3 9820   2.795   0.759  12.815 -0.0434 -0.3891 -0.0282
  660MPD2    C4 9821   2.881   0.689  12.740  0.5191 -0.2823  0.5836
  660MPD2    C5 9822   2.948   0.746  12.633  0.0407 -0.0622  1.2181
  660MPD2     H 9823   2.708   0.947  12.861  2.2910  2.0437  0.7708
  660MPD2    H1 9824   2.885   0.584  12.767 -1.9339 -0.7193 -0.7804
  660MPD2    H2 9825   2.992   0.913  12.534  0.6166  0.1117  0.7706
  660MPD2    H3 9826   3.014   0.691  12.565 -0.0568 -0.4540  1.4412
  660MPD2     N 9827   2.722   0.674  12.903  0.2443 -0.5749  0.3528
  660MPD2    H5 9828   2.750   0.576  12.898 -0.4115 -0.7974  0.8742
  660MPD2    N1 9829   2.827   1.091  12.634 -0.3568  0.8568  0.3086
  660MPD2    H7 9830   2.875   1.128  12.553 -0.6217  1.8909  0.6237
  661TMC3    C1 9831   2.730   1.302  12.619  0.1188 -0.0630 -0.2215
  661TMC3    C2 9832   2.809   1.335  12.510 -0.4526 -0.9093  0.7374
  661TMC3    C3 9833   2.763   1.429  12.421 -0.3111  0.3698  0.1081
  661TMC3    C4 9834   2.610   1.360  12.641 -1.1200  0.1139 -0.1570
  661TMC3    C5 9835   2.562   1.444  12.545 -0.1213  1.4162  0.0246
  661TMC3    C6 9836   2.639   1.486  12.437 -0.6574 -0.2568  0.3826
  661TMC3     C 9837   2.755   1.184  12.702 -0.3999 -0.8167  1.1208
  661TMC3     O 9838   2.695   1.175  12.810  0.7929  0.1525  0.4957
  661TMC3     H 9839   2.908   1.293  12.494 -0.3432 -0.1040 -0.6150
  661TMC3    H1 9840   2.557   1.333  12.732 -0.8296  1.1980  0.3431
  661TMC3    H2 9841   2.598   1.562  12.372  0.3831  1.7939  2.1093
  661TMC3    C7 9842   2.414   1.434  12.536  0.0537 -0.2465  0.2064
  661TMC3    C8 9843   2.864   1.462  12.320  0.0139 -0.6610 -0.9243
  661TMC3    O1 9844   2.370   1.437  12.652 -0.2095  0.5042 -0.0848
  661TMC3    O2 9845   2.964   1.396  12.289 -0.0470  0.1835 -0.4525
  662MPD2     C 9846   2.565   0.371  16.803  0.2491  0.0198 -0.8246
  662MPD2    C1 9847   2.596   0.299  16.908 -0.8698 -0.2350  0.0669
  662MPD2    C2 9848   2.611   0.360  17.029 -0.1893 -0.5391 -0.5595
  662MPD2    C3 9849   2.592   0.493  17.045  0.4344 -1.0713 -0.7679
  662MPD2    C4 9850   2.536   0.567  16.937  0.6788  0.3758 -0.7916
  662MPD2    C5 9851   2.533   0.504  16.815 -0.2460 -0.3826 -0.6755
  662MPD2     H 9852   2.642   0.290  17.106 -0.0466  2.6406  2.2187
  662MPD2    H1 9853   2.503   0.669  16.952 -1.9180 -0.3670 -1.4409
  662MPD2    H2 9854   2.556   0.336  16.701 -2.0268  0.5746 -0.8221
  662MPD2    H3 9855   2.514   0.560  16.724  2.0092  1.3726 -0.0814
  662MPD2     N 9856   2.600   0.552  17.176 -0.0851 -0.5076  0.4375
  662MPD2    H5 9857   2.561   0.645  17.187  0.4648 -0.1698 -0.5551
  662MPD2    N1 9858   2.623   0.155  16.906 -0.0829 -0.4605 -0.3615
  662MPD2    H7 9859   2.647   0.106  16.992 -1.5945 -1.1171 -0.3157
  663TMC3    C1 9860   2.671   4.685  16.816 -0.7388 -0.5102  0.6654
  663TMC3    C2 9861   2.692   4.658  16.952  0.1651  0.1314  0.3721
  663TMC3    C3 9862   2.711   4.529  16.987  0.4442 -0.1460  0.4063
  663TMC3    C4 9863   2.650   4.585  16.725 -0.2554 -0.1284 -0.7750
  663TMC3    C5 9864   2.672   4.453  16.762 -0.1433 -0.2228 -0.1874
  663TMC3    C6 9865   2.693   4.420  16.899  0.6744 -0.2267  0.0119
  663TMC3     C 9866   2.634   0.083  16.786 -0.0827  0.3326  0.1269
  663TMC3     O 9867   2.576   0.110  16.680 -0.0479 -0.3146  0.4895
  663TMC3     H 9868   2.745   4.730  17.013 -1.2089  1.7094 -0.3113
  663TMC3    H1 9869   2.646   4.609  16.620 -1.7167  1.7381 -0.3126
  663TMC3    H2 9870   2.726   4.321  16.925  0.8708  0.1540  1.1929
  663TMC3    C7 9871   2.657   4.351  16.665  0.9756 -0.1383  0.2608
  663TMC3    C8 9872   2.831   4.516  17.065 -0.1157  0.2079  0.1949
  663TMC3    O1 9873   2.651   4.389  16.549 -0.3128 -0.4794  0.2878
  663TMC3    O2 9874   2.907   4.422  17.039 -0.0013 -0.0968 -0.1819
  664MPD2     C 9875   1.899   2.976   0.217 -0.0450  0.3486  0.0060
  664MPD2    C1 9876   1.929   3.112   0.223 -0.0016 -0.2350 -0.2381
  664MPD2    C2 9877   1.896   3.189   0.336 -0.1331  0.1488 -0.3239
  664MPD2    C3 9878   1.837   3.131   0.444 -0.2480 -0.1861  0.0576
  664MPD2    C4 9879   1.820   2.995   0.447  0.0485  0.6213 -0.2447
  664MPD2    C5 9880   1.854   2.919   0.336  1.0093 -0.5302  0.0063
  664MPD2     H 9881   1.901   3.297   0.343 -1.7839  0.1984 -0.0596
  664MPD2    H1 9882   1.799   2.948   0.542  1.7423 -0.5123 -0.4242
  664MPD2    H2 9883   1.941   2.922   0.132 -1.2846 -0.8847  0.1740
  664MPD2    H3 9884   1.855   2.811   0.342 -0.5737 -0.5234  0.3951
  664MPD2     N 9885   1.777   3.220   0.543  0.4090 -0.4624  0.4212
  664MPD2    H5 9886   1.791   3.320   0.529 -0.6359 -0.6719 -2.0068
  664MPD2    N1 9887   1.997   3.187   0.121  0.3209 -0.0701 -0.7625
  664MPD2    H7 9888   2.029   3.281   0.142 -3.1069  1.2448 -1.4060
  665TMC3    C1 9889   1.652   3.292   0.720 -0.6564 -0.5816  0.2803
  665TMC3    C2 9890   1.521   3.306   0.724  0.2373  0.1028  0.5792
  665TMC3    C3 9891   1.466   3.428   0.752  0.5211  0.1049 -0.4281
  665TMC3    C4 9892   1.739   3.397   0.730  0.0965 -0.5620 -0.2731
  665TMC3    C5 9893   1.683   3.512   0.774  0.0959 -0.0433 -0.7510
  665TMC3    C6 9894   1.543   3.535   0.792 -0.3297 -0.0360  0.2979
  665TMC3     C 9895   1.698   3.182   0.643 -0.5228 -0.8104  0.3879
  665TMC3     O 9896   1.656   3.070   0.672 -0.0664  0.2639  0.0621
  665TMC3     H 9897   1.461   3.219   0.698  1.5029 -0.5126 -0.2672
  665TMC3    H1 9898   1.846   3.386   0.718  0.4398  0.4552  1.8792
  665TMC3    H2 9899   1.498   3.631   0.816 -2.4084 -0.9421 -0.0651
  665TMC3    C7 9900   1.779   3.625   0.774 -0.8492  0.7899  0.2290
  665TMC3    C8 9901   1.325   3.458   0.718 -1.3078 -0.2113  0.4632
  665TMC3    O1 9902   1.889   3.616   0.724  0.1745  0.5251  0.2499
  665TMC3    O2 9903   1.263   3.534   0.785  0.7103 -0.3667  0.0492
  666TMC3    C1 9904   0.385   3.299  10.404 -0.1687  0.4907  0.4918
  666TMC3    C2 9905   0.357   3.226  10.293 -0.2541 -0.5175 -0.0564
  666TMC3    C3 9906   0.364   3.294  10.175 -0.2443  0.4165 -0.0924
  666TMC3    C4 9907   0.416   3.428  10.411  0.7110 -0.9598 -0.2572
  666TMC3    C5 9908   0.408   3.494  10.291 -0.5208 -0.5933 -0.6752
  666TMC3    C6 9909   0.383   3.434  10.175 -0.2168  0.1383  0.1504
  666TMC3     C 9910   0.373   3.234  10.534 -0.2697  0.3418  0.0308
  666TMC3     O 9911   0.415   3.291  10.633  0.3339 -0.0478 -0.4359
  666TMC3     H 9912   0.343   3.119  10.288 -0.4779 -0.4334 -1.3037
  666TMC3    H1 9913   0.444   3.489  10.496 -0.8350  0.2878 -0.6181
  666TMC3    H2 9914   0.379   3.493  10.084 -2.0597 -0.5991 -0.2621
  666TMC3    C7 9915   0.467   3.630  10.302 -0.2756 -0.5414 -0.3396
  666TMC3    C8 9916   0.339   3.218  10.054 -0.2522 -0.1451 -0.7383
  666TMC3    O1 9917   0.545   3.655  10.392  0.5776  0.1428 -0.5229
  666TMC3    O2 9918   0.256   3.134  10.069  0.1411  0.1579 -0.0100
  667MPD2     C 9919   2.509   3.626  14.728  0.2531 -0.1779  0.0344
  667MPD2    C1 9920   2.446   3.636  14.853 -0.0787 -0.2690 -0.5133
  667MPD2    C2 9921   2.383   3.519  14.899  0.0314 -0.0095  0.2859
  667MPD2    C3 9922   2.387   3.399  14.830 -0.7472 -0.2378 -0.9517
  667MPD2    C4 9923   2.444   3.396  14.705 -0.7352 -0.5948 -0.2996
  667MPD2    C5 9924   2.500   3.506  14.660  0.5322 -0.0718  0.3293
  667MPD2     H 9925   2.337   3.519  14.997 -2.2179  1.0125 -0.7733
  667MPD2    H1 9926   2.436   3.306  14.645 -1.5199 -1.8306  1.6494
  667MPD2    H2 9927   2.569   3.700  14.677 -0.8534  1.0566  0.5268
  667MPD2    H3 9928   2.532   3.501  14.557 -1.3368 -0.6989 -0.2363
  667MPD2     N 9929   2.309   3.284  14.868 -0.3491  0.2826 -0.4006
  667MPD2    H5 9930   2.307   3.202  14.809 -0.1934 -0.3229  0.4387
  667MPD2    N1 9931   2.428   3.755  14.927 -0.5262  0.1647  0.0722
  667MPD2    H7 9932   2.409   3.740  15.026  1.8285  0.6727  0.5795
  668TMC3    C1 9933   2.475   3.976  15.008 -0.7380  0.7903 -0.2921
  668TMC3    C2 9934   2.555   4.086  15.004  0.2831  0.7924  0.2067
  668TMC3    C3 9935   2.571   4.166  15.111  0.1303 -0.3342 -0.4107
  668TMC3    C4 9936   2.394   3.950  15.118 -0.0213  0.1364 -0.4544
  668TMC3    C5 9937   2.409   4.027  15.227  0.4839 -0.3676 -0.0541
  668TMC3    C6 9938   2.500   4.132  15.228  0.4359  0.1879  0.1876
  668TMC3     C 9939   2.469   3.880  14.889 -0.2603  0.1154  0.3415
  668TMC3     O 9940   2.513   3.915  14.781  0.1288 -0.2708 -0.0858
  668TMC3     H 9941   2.617   4.101  14.916 -0.3289 -1.3586 -0.5931
  668TMC3    H1 9942   2.314   3.877  15.117  0.0832  0.0126  0.7221
  668TMC3    H2 9943   2.503   4.198  15.314  0.4206  0.8555 -0.3211
  668TMC3    C7 9944   2.390   3.973  15.361 -0.1219  0.8888  0.1084
  668TMC3    C8 9945   2.584   4.307  15.094  0.6726  0.5447 -0.8753
  668TMC3    O1 9946   2.467   4.006  15.446 -0.1206  0.2570  0.4099
  668TMC3    O2 9947   2.559   4.374  15.192  0.0806 -0.0670  0.1682
  669TMC3    C1 9948   0.498   3.691  15.003 -0.4495  0.7666 -0.2732
  669TMC3    C2 9949   0.380   3.749  14.964  0.3255 -0.3062 -0.5904
  669TMC3    C3 9950   0.387   3.855  14.877  0.6809  0.2046 -0.1905
  669TMC3    C4 9951   0.625   3.722  14.960  0.6266  0.0931 -0.3502
  669TMC3    C5 9952   0.625   3.831  14.877  0.6397  0.2929 -0.2907
  669TMC3    C6 9953   0.513   3.899  14.838  0.3565 -0.0056 -0.2729
  669TMC3     C 9954   0.479   3.592  15.109 -0.2081 -0.5199 -0.0207
  669TMC3     O 9955   0.389   3.596  15.190 -0.1145  0.0666  0.0396
  669TMC3     H 9956   0.287   3.715  15.008 -0.5674  0.3517 -1.9695
  669TMC3    H1 9957   0.711   3.699  15.021 -0.2127 -0.2248  0.7257
  669TMC3    H2 9958   0.521   3.967  14.754  2.4260 -1.0863 -0.9424
  669TMC3    C7 9959   0.743   3.912  14.857  0.3133 -0.6750 -0.4224
  669TMC3    C8 9960   0.268   3.935  14.850 -0.4874  0.5161  0.5319
  669TMC3    O1 9961   0.725   4.024  14.813 -0.2427 -0.3248 -0.2106
  669TMC3    O2 9962   0.267   4.058  14.844  0.2195 -0.2111  0.7628
  670MPD2     C 9963   3.952   1.455  13.560  0.8718  0.1970 -0.7417
  670MPD2    C1 9964   3.921   1.504  13.688  0.3905 -0.2313  0.2343
  670MPD2    C2 9965   3.806   1.466  13.754 -1.1168  0.2187  0.1411
  670MPD2    C3 9966   3.718   1.375  13.695 -0.2201  0.5146 -0.2878
  670MPD2    C4 9967   3.748   1.320  13.571 -0.0859 -0.3759  0.3334
  670MPD2    C5 9968   3.870   1.352  13.521 -0.2411 -0.2978  0.3532
  670MPD2     H 9969   3.788   1.515  13.848  0.6259 -0.6072  0.9134
  670MPD2    H1 9970   3.688   1.243  13.526  0.2455  0.3871 -1.4174
  670MPD2    H2 9971   4.043   1.478  13.506  1.7627  0.3715  0.8518
  670MPD2    H3 9972   3.892   1.298  13.429 -2.4282  1.2042 -1.0610
  670MPD2     N 9973   3.599   1.342  13.768  0.0675  0.0634 -0.2955
  670MPD2    H5 9974   3.591   1.373  13.864  1.4734  0.1906 -0.2225
  670MPD2    N1 9975   4.005   1.598  13.749 -0.3579 -0.1408  0.1879
  670MPD2    H7 9976   4.001   1.611  13.849  2.6819  1.6097  0.0911
  671TMC3    C1 9977   3.393   1.253  13.811  0.2024 -0.0032  0.6805
  671TMC3    C2 9978   3.425   1.257  13.942  0.1674  0.0567 -0.2382
  671TMC3    C3 9979   3.332   1.219  14.036 -0.1814  0.1340 -0.5267
  671TMC3    C4 9980   3.272   1.210  13.774  0.3520  0.2456  0.2480
  671TMC3    C5 9981   3.181   1.174  13.869  0.1893  0.2574 -0.4680
  671TMC3    C6 9982   3.203   1.187  14.000  0.1444 -0.0765 -0.0980
  671TMC3     C 9983   3.489   1.276  13.715  0.9913  0.7804  0.6522
  671TMC3     O 9984   3.459   1.275  13.596 -0.2819  0.0532  0.4695
  671TMC3     H 9985   3.528   1.259  13.974  0.0324  0.0572  0.2086
  671TMC3    H1 9986   3.252   1.209  13.668  0.2137  2.1562  0.2423
  671TMC3    H2 9987   3.138   1.141  14.072  0.0634 -2.0255 -1.4199
  671TMC3    C7 9988   3.066   1.096  13.821 -0.1389  0.3281 -0.2900
  671TMC3    C8 9989   3.392   1.121  14.117  0.1900 -0.4667 -0.2519
  671TMC3    O1 9990   3.072   1.057  13.706  0.3852 -0.4322  0.4402
  671TMC3    O2 9991   3.484   1.054  14.074  0.0720  0.7964 -0.2241
  672MPD2     C 9992   3.334   1.903   1.176  0.3734 -0.5016 -0.6091
  672MPD2    C1 9993   3.434   1.821   1.128 -0.3534  0.7687 -0.7253
  672MPD2    C2 9994   3.564   1.849   1.175 -0.0672  0.1587  0.5403
  672MPD2    C3 9995   3.595   1.959   1.250 -0.5764 -0.1535 -0.4423
  672MPD2    C4 9996   3.493   2.041   1.284 -0.3495  0.5550  0.0569
  672MPD2    C5 9997   3.360   2.012   1.257  0.5167 -0.6412 -0.6114
  672MPD2     H 9998   3.638   1.780   1.135 -1.3349 -1.5499  1.1578
  672MPD2    H1 9999   3.512   2.131   1.342 -3.4341  0.8188  0.6866
  672MPD2    H210000   3.230   1.878   1.160  0.0304  0.5714  0.0012
  672MPD2    H310001   3.272   2.069   1.286 -0.1172 -1.0687 -1.6781
  672MPD2     N10002   3.723   2.012   1.264 -0.0956  0.3747  0.0530
  672MPD2    H510003   3.741   2.101   1.308 -0.0564 -0.0370  0.8730
  672MPD2    N110004   3.411   1.707   1.049  0.1073  0.2744 -0.0863
  672MPD2    H710005   3.488   1.670   0.994  0.5613 -1.5874  1.7898
  673TMC3    C110006   3.313   1.595   0.869  0.0363 -0.0364  0.3774
  673TMC3    C210007   3.391   1.480   0.877 -0.0358  0.6928 -0.2036
  673TMC3    C310008   3.383   1.405   0.763 -0.7361 -0.3642 -0.3350
  673TMC3    C410009   3.245   1.630   0.763  0.1859  0.2320 -0.0854
  673TMC3    C510010   3.265   1.564   0.650  0.4349 -0.3779 -0.2342
  673TMC3    C610011   3.321   1.446   0.647 -0.3770 -0.9444 -0.0187
  673TMC3     C10012   3.296   1.682   0.982 -0.4776 -0.2912  0.1301
  673TMC3     O10013   3.188   1.730   1.008  0.5324 -0.3740  0.4742
  673TMC3     H10014   3.434   1.440   0.969 -2.5401  1.5032  1.3163
  673TMC3    H110015   3.181   1.716   0.775 -0.1194 -0.3441  2.2381
  673TMC3    H210016   3.321   1.385   0.557  1.5386 -0.6147 -0.2343
  673TMC3    C710017   3.223   1.621   0.519  0.1822  0.3120 -0.0405
  673TMC3    C810018   3.447   1.271   0.747 -0.6396  0.1904 -0.6417
  673TMC3    O110019   3.255   1.561   0.419 -0.4537 -0.1422  0.1258
  673TMC3    O210020   3.412   1.206   0.649 -0.7281 -0.2509 -0.1537
  674MPD2     C10021   3.396   0.564  17.446  0.2584  0.6246 -0.1629
  674MPD2    C110022   3.384   0.516  17.568  0.1021 -0.2427 -0.1027
  674MPD2    C210023   3.354   0.600  17.675  0.3560  0.1660  0.4859
  674MPD2    C310024   3.333   0.732  17.655 -0.2159  0.2372  0.3198
  674MPD2    C410025   3.351   0.784  17.531 -0.5960 -0.2314  0.3071
  674MPD2    C510026   3.375   0.701  17.426  0.2885  0.1347 -0.0512
  674MPD2     H10027   3.346   0.560   0.015 -0.6142 -0.3250  0.2101
  674MPD2    H110028   3.344   0.889  17.503 -2.1307 -0.7591 -1.2464
  674MPD2    H210029   3.423   0.500  17.364 -1.1775  1.8820 -1.6123
  674MPD2    H310030   3.386   0.745  17.328 -0.1768 -0.5822 -0.4259
  674MPD2     N10031   3.318   0.808   0.014  0.3590  0.1508 -0.0573
  674MPD2    H510032   3.299   0.759   0.100 -0.3378  0.1012 -0.2377
  674MPD2    N110033   3.410   0.376  17.582  0.0360 -0.1511  0.0175
  674MPD2    H710034   3.406   0.323  17.495 -2.1228  2.3239 -1.3863
  675TMC3    C110035   3.480   0.368   0.052 -0.4527 -0.2577  0.2590
  675TMC3    C210036   3.435   0.335   0.176  0.7592  1.0426 -0.1161
  675TMC3    C310037   3.480   0.396   0.289 -0.4047  0.0121  0.2204
  675TMC3    C410038   3.586   0.456   0.042 -0.1351 -0.0267 -0.2533
  675TMC3    C510039   3.639   0.505   0.154  0.7050 -0.0138 -0.2862
  675TMC3    C610040   3.587   0.479   0.277 -0.2053  0.1089 -0.7532
  675TMC3     C10041   3.427   0.303  17.693  0.3014  0.3878  0.5838
  675TMC3     O10042   3.428   0.181  17.709 -0.0967  0.0960 -0.1037
  675TMC3     H10043   3.354   0.263   0.187  2.2148 -0.6335 -0.4418
  675TMC3    H110044   3.635   0.475  17.706  0.4578 -0.2541  0.0084
  675TMC3    H210045   3.620   0.532   0.366  1.7829 -0.0329 -1.4031
  675TMC3    C710046   3.682   0.643   0.125  0.1258 -0.7918  0.2741
  675TMC3    C810047   3.377   0.448   0.381  0.1885  0.1299 -0.0106
  675TMC3    O110048   3.668   0.685   0.014  0.0306  0.1812 -0.4253
  675TMC3    O210049   3.261   0.429   0.357 -0.6418  0.2347  0.2964
  676MPD2     C10050   1.877   4.541  11.228 -0.3130  0.9859 -0.1867
  676MPD2    C110051   1.740   4.510  11.230  0.0638 -0.5865  0.5373
  676MPD2    C210052   1.708   4.376  11.240 -0.5946 -0.2535  0.2448
  676MPD2    C310053   1.810   4.280  11.259  1.1468  0.4640  0.0504
  676MPD2    C410054   1.945   4.312  11.265  0.2037 -0.8408  0.3323
  676MPD2    C510055   1.979   4.445  11.242 -0.3267 -0.1305 -0.1646
  676MPD2     H10056   1.603   4.350  11.233 -0.6350  0.1853 -0.7501
  676MPD2    H110057   2.024   4.242  11.290  0.6291 -0.6781 -0.5494
  676MPD2    H210058   1.906   4.644  11.210  2.6600  0.5326  1.8018
  676MPD2    H310059   2.080   4.478  11.261  0.2818 -1.2064 -1.5328
  676MPD2     N10060   1.778   4.140  11.267  0.0917 -0.3771 -1.2370
  676MPD2    H510061   1.860   4.087  11.239  0.8491  0.7478 -1.1479
  676MPD2    N110062   1.635   4.604  11.208 -0.4270  0.1121 -0.2443
  676MPD2    H710063   1.540   4.576  11.231 -1.2752  2.9027 -0.3293
  677TMC3    C110064   1.530   0.069  11.181  0.3152 -0.2611  0.0895
  677TMC3    C210065   1.411   0.015  11.141 -0.3030 -0.6510 -0.0318
  677TMC3    C310066   1.302   0.048  11.213  0.3317 -0.9793  0.4529
  677TMC3    C410067   1.547   0.132  11.300  0.0118  0.6386  0.5599
  677TMC3    C510068   1.428   0.171  11.360 -0.0421  0.4985  0.4142
  677TMC3    C610069   1.304   0.134  11.321 -0.0420  0.1053  0.3702
  677TMC3     C10070   1.654   4.731  11.157 -0.4507 -0.2849 -0.2615
  677TMC3     O10071   1.747   0.041  11.101  0.8674  0.1215  0.5236
  677TMC3     H10072   1.399   4.687  11.058 -1.5133 -0.2479 -0.1864
  677TMC3    H110073   1.645   0.153  11.340  0.6552 -0.9157 -0.1731
  677TMC3    H210074   1.212   0.177  11.358 -0.1672  0.0075  0.1723
  677TMC3    C710075   1.425   0.220  11.494  0.1191 -0.0155 -0.7473
  677TMC3    C810076   1.178   0.034  11.141 -0.2851 -0.6032  0.3066
  677TMC3    O110077   1.339   0.181  11.571 -0.3834 -0.0422  0.5085
  677TMC3    O210078   1.203   0.048  11.021 -0.3594 -0.1746  0.4105
  678MPD2     C10079   2.898   4.676   1.428 -0.5720 -0.9260 -0.0494
  678MPD2    C110080   2.833   4.612   1.322  0.4857 -0.7453  0.0788
  678MPD2    C210081   2.700   4.642   1.289  0.3215  0.0116  0.5183
  678MPD2    C310082   2.632   4.734   1.366 -0.4277  0.1984  0.2394
  678MPD2    C410083   2.697   0.063   1.467  0.2001  0.1040 -0.4997
  678MPD2    C510084   2.829   0.033   1.496  0.3696 -0.6765  0.5134
  678MPD2     H10085   2.652   4.594   1.205  2.2133 -0.4488 -0.3188
  678MPD2    H110086   2.644   0.147   1.511 -0.4140 -0.8284  0.5417
  678MPD2    H210087   2.994   4.638   1.460 -0.3888  1.2617  2.0646
  678MPD2    H310088   2.885   0.093   1.567 -1.8124  0.6191  1.1290
  678MPD2     N10089   2.495   0.028   1.324  0.2900 -0.0771  0.7849
  678MPD2    H510090   2.457   4.725   1.241 -3.1424 -0.1001  2.3829
  678MPD2    N110091   2.899   4.513   1.246 -0.1446 -0.2755 -0.4712
  678MPD2    H710092   2.863   4.509   1.151  0.9077 -0.0226 -0.8826
  679TMC3    C110093   3.148   4.206   1.053 -0.0528  0.5213  0.2435
  679TMC3    C210094   3.102   4.256   1.170 -0.0332  0.0800 -0.5250
  679TMC3    C310095   3.063   4.387   1.168 -0.1595 -0.0382  0.0325
  679TMC3    C410096   3.169   4.275   0.937  0.5867  0.8943  0.6192
  679TMC3    C510097   3.123   4.400   0.939  0.5247  0.0372  0.0263
  679TMC3    C610098   3.075   4.461   1.051 -0.5144  0.1078  0.3323
  679TMC3     C10099   3.206   4.071   1.053 -0.8503  0.1878  0.6008
  679TMC3     O10100   3.258   4.034   0.949  0.0561  0.0244  0.7541
  679TMC3     H10101   3.077   4.203   1.262  0.5452  0.9728  0.1462
  679TMC3    H110102   3.196   4.217   0.849 -2.5607  0.2445  0.0744
  679TMC3    H210103   3.036   4.561   1.042 -3.5392 -0.9439  1.7975
  679TMC3    C710104   3.112   4.472   0.811 -0.2658  0.3276 -0.6621
  679TMC3    C810105   3.012   4.446   1.287  0.7152 -0.4782 -0.5472
  679TMC3    O110106   3.045   4.574   0.802 -0.2137  0.1563  0.3257
  679TMC3    O210107   3.055   4.417   1.397 -0.1038 -0.4541  0.1229
  680MPD2     C10108   2.880   3.415  14.015  0.0150  0.2088 -0.7185
  680MPD2    C110109   2.957   3.351  14.108 -0.5311 -0.4455  0.6468
  680MPD2    C210110   3.068   3.413  14.163 -0.0027 -1.0397 -0.0401
  680MPD2    C310111   3.098   3.544  14.128  0.0149  0.3844  0.1314
  680MPD2    C410112   3.012   3.608  14.043  0.0079 -0.0375  0.7282
  680MPD2    C510113   2.904   3.544  13.992 -0.3040  0.4823 -0.2736
  680MPD2     H10114   3.130   3.365  14.238 -0.7728 -0.7570  0.7828
  680MPD2    H110115   3.031   3.713  14.024 -0.1527 -0.2411 -0.6016
  680MPD2    H210116   2.794   3.369  13.967 -1.1078  0.7706  0.7369
  680MPD2    H310117   2.833   3.603  13.935 -0.1040  0.6401 -0.3620
  680MPD2     N10118   3.203   3.625  14.178 -0.2679 -0.0041  0.2656
  680MPD2    H510119   3.207   3.717  14.136  1.0509 -0.4697 -0.6347
  680MPD2    N110120   2.951   3.216  14.143 -0.0088  0.5565  0.5075
  680MPD2    H710121   3.025   3.181  14.204  0.3853  1.0097  0.2882
  681TMC3    C110122   2.881   2.995  14.126 -0.3428  0.2618 -0.6860
  681TMC3    C210123   2.788   2.919  14.193 -0.1724  0.6516 -0.5161
  681TMC3    C310124   2.828   2.793  14.217  0.2752 -0.5429 -0.3713
  681TMC3    C410125   3.008   2.952  14.089  0.3681 -0.2365 -0.1453
  681TMC3    C510126   3.039   2.823  14.102  0.3334 -0.0704 -0.1293
  681TMC3    C610127   2.948   2.748  14.173  0.3149 -0.5095 -0.7396
  681TMC3     C10128   2.851   3.133  14.099 -0.0438 -0.3825 -0.4780
  681TMC3     O10129   2.730   3.155  14.095 -0.0627  0.3689  0.2004
  681TMC3     H10130   2.694   2.963  14.224 -0.5912  0.4611 -1.5098
  681TMC3    H110131   3.077   3.018  14.039  1.8443 -0.9012  1.0037
  681TMC3    H210132   2.974   2.643  14.183 -0.5085 -0.8092 -1.7526
  681TMC3    C710133   3.129   2.752  14.005 -0.5747  0.2992 -0.3214
  681TMC3    C810134   2.755   2.738  14.331  0.0920 -0.6942 -0.5970
  681TMC3    O110135   3.101   2.635  13.990  0.1082 -0.1811  0.1852
  681TMC3    O210136   2.634   2.761  14.345 -0.6461  0.8902  0.3359
  682MPD2     C10137   0.958   4.100  10.949  0.4150 -0.3628  0.7708
  682MPD2    C110138   0.832   4.157  10.950  0.3736  0.3468  0.6775
  682MPD2    C210139   0.735   4.134  11.047 -0.4726 -0.4776  0.0161
  682MPD2    C310140   0.762   4.051  11.152  0.5225  0.4704  0.2982
  682MPD2    C410141   0.884   3.984  11.146  0.1766 -0.0596  0.0935
  682MPD2    C510142   0.981   4.020  11.053 -0.0313  0.7089  0.2758
  682MPD2     H10143   0.637   4.180  11.044  0.9342  2.6372  0.9547
  682MPD2    H110144   0.908   3.922  11.231 -1.0215  1.4670  1.5544
  682MPD2    H210145   1.043   4.129  10.888 -1.8247  0.5159 -1.9485
  682MPD2    H310146   1.082   3.993  11.080 -0.0241  1.0021  0.5394
  682MPD2     N10147   0.672   4.022  11.252 -0.4434 -0.2817 -0.1002
  682MPD2    H510148   0.699   3.948  11.316 -1.1443 -1.3174 -1.0045
  682MPD2    N110149   0.798   4.260  10.859 -0.6070 -0.3167 -0.3075
  682MPD2    H710150   0.711   4.311  10.868  1.4941  3.1508  0.1953
  683TMC3    C110151   0.481   4.112  11.638  0.0858  0.3945 -0.3730
  683TMC3    C210152   0.450   3.977  11.662  0.4951 -0.6944 -0.8401
  683TMC3    C310153   0.456   3.883  11.562 -0.4135  0.7701  0.0706
  683TMC3    C410154   0.509   4.151  11.512  0.5649 -0.2136  0.1318
  683TMC3    C510155   0.512   4.054  11.416 -0.8771 -0.1847 -0.0357
  683TMC3    C610156   0.488   3.920  11.432  0.6723 -0.7090 -0.2726
  683TMC3     C10157   0.450   4.219  11.724 -0.6012 -0.4917  0.0925
  683TMC3     O10158   0.418   4.328  11.674  0.0413  0.7419  0.5854
  683TMC3     H10159   0.392   3.949  11.750  1.6236 -0.3465  0.0115
  683TMC3    H110160   0.527   4.254  11.484 -1.4632  0.2368  0.4533
  683TMC3    H210161   0.479   3.842  11.356 -2.6887 -0.2986 -0.3008
  683TMC3    C710162   0.573   4.101  11.297  0.5569 -0.0298  0.2221
  683TMC3    C810163   0.395   3.751  11.594  0.8397 -0.5034  0.3455
  683TMC3    O110164   0.552   4.217  11.263 -0.6795  0.7919  0.3887
  683TMC3    O210165   0.336   3.695  11.503  0.1452 -0.1690 -0.1150
  684MPD2     C10166   3.244   3.786  16.602 -0.1291 -0.4153  0.1801
  684MPD2    C110167   3.172   3.848  16.502  1.0960 -0.1590  0.0790
  684MPD2    C210168   3.135   3.985  16.510  0.0315  0.5392  0.2966
  684MPD2    C310169   3.162   4.054  16.626 -0.0069 -0.1515  0.4830
  684MPD2    C410170   3.228   3.991  16.727  0.4765 -0.9101 -0.0553
  684MPD2    C510171   3.272   3.859  16.714  0.0573 -0.1761 -0.7037
  684MPD2     H10172   3.095   4.039  16.425  3.9165  0.3384 -1.6877
  684MPD2    H110173   3.249   4.038  16.823 -1.5469  1.6891 -0.8806
  684MPD2    H210174   3.279   3.684  16.590 -3.2028 -1.5312  0.7247
  684MPD2    H310175   3.324   3.806  16.793 -0.7149  0.7098  0.3851
  684MPD2     N10176   3.145   4.192  16.639  0.4439  0.1684  0.1330
  684MPD2    H510177   3.180   4.227  16.727 -0.7633  2.6310 -0.3448
  684MPD2    N110178   3.140   3.789  16.379  0.4857 -0.7654 -0.7271
  684MPD2    H710179   3.106   3.845  16.301  1.7515 -0.9478 -1.4082
  685TMC3    C110180   3.131   3.619  16.212  0.2888 -0.1590 -0.2510
  685TMC3    C210181   3.063   3.711  16.140  0.0375  0.6549 -0.1748
  685TMC3    C310182   3.081   3.720  16.008 -0.4513 -0.7433 -0.3642
  685TMC3    C410183   3.228   3.553  16.146  0.5283 -0.0179 -0.1645
  685TMC3    C510184   3.264   3.589  16.019 -0.1842  0.0236 -0.4863
  685TMC3    C610185   3.193   3.670  15.947 -0.4696  0.1720  0.2945
  685TMC3     C10186   3.165   3.658  16.348 -0.1606 -0.0441 -0.3399
  685TMC3     O10187   3.193   3.566  16.425 -0.6510 -0.3483 -0.6729
  685TMC3     H10188   2.980   3.767  16.181  0.0016 -0.1886  0.9102
  685TMC3    H110189   3.280   3.485  16.212 -0.3234  0.3038  0.8570
  685TMC3    H210190   3.211   3.681  15.841  0.2377 -0.6087  0.3421
  685TMC3    C710191   3.408   3.579  15.998  0.5217  0.1674  1.1143
  685TMC3    C810192   2.971   3.744  15.921 -0.0443 -0.3997  0.3761
  685TMC3    O110193   3.473   3.520  16.080 -0.0531 -0.4614  0.5717
  685TMC3    O210194   2.990   3.791  15.809  0.0112  0.1142 -0.1704
  686MPD2     C10195   4.697   4.217  15.742 -0.0805  0.0823 -1.0099
  686MPD2    C110196   0.000   4.094  15.796  0.4944 -0.2462  0.3775
  686MPD2    C210197   0.122   4.043  15.755 -0.4139 -0.1894  0.0715
  686MPD2    C310198   0.195   4.107  15.649 -0.4847 -0.3752  0.3796
  686MPD2    C410199   0.147   4.223  15.599 -0.0431  0.7212 -0.3261
  686MPD2    C510200   0.028   4.270  15.641  0.6950  0.0076  0.5854
  686MPD2     H10201   0.155   3.956  15.810 -3.0005 -2.9706 -2.7204
  686MPD2    H110202   0.192   4.271  15.513  0.9952 -2.0851 -1.3516
  686MPD2    H210203   4.603   4.262  15.770 -0.3800 -1.1033 -0.0941
  686MPD2    H310204   4.730   4.364  15.602  2.0633  0.3844  0.1437
  686MPD2     N10205   0.309   4.055  15.576  0.3296 -0.3893  0.7201
  686MPD2    H510206   0.338   4.120  15.505  0.6388 -0.2631  0.9629
  686MPD2    N110207   4.660   4.040  15.898 -0.7306 -0.2922 -0.3595
  686MPD2    H710208   4.572   4.082  15.927  0.5525  0.8061  1.9507
  687TMC3    C110209   0.318   3.833  15.671 -0.8549 -0.5350  0.1438
  687TMC3    C210210   0.205   3.765  15.647  0.0464 -0.8315 -0.0385
  687TMC3    C310211   0.179   3.657  15.729 -0.6137 -0.3561  0.1530
  687TMC3    C410212   0.409   3.795  15.768  0.7098  0.0043  0.0248
  687TMC3    C510213   0.391   3.681  15.840 -0.0963 -0.4668 -0.5419
  687TMC3    C610214   0.272   3.622  15.828 -0.0040  0.1839 -0.6117
  687TMC3     C10215   0.356   3.930  15.568 -0.3700 -0.5001  0.9965
  687TMC3     O10216   0.458   3.898  15.506 -0.2955 -0.2380 -0.7349
  687TMC3     H10217   0.139   3.813  15.575 -2.0067 -2.3689  0.7983
  687TMC3    H110218   0.487   3.869  15.788 -0.6579  1.5825 -0.5111
  687TMC3    H210219   0.252   3.547  15.904  4.1080  0.4502  0.7158
  687TMC3    C710220   0.475   3.665  15.956 -0.0097  0.3819  0.2043
  687TMC3    C810221   0.046   3.615  15.771  0.0692  0.6641  0.0315
  687TMC3    O110222   0.546   3.755  15.990 -0.4726 -0.1719 -0.4770
  687TMC3    O210223   0.037   3.526  15.853 -0.1244 -0.2126 -0.3856
  688MPD2     C10224   3.663   2.651  17.226 -0.2368  0.5479  0.6428
  688MPD2    C110225   3.733   2.578  17.319  0.3872  0.9053 -0.2563
  688MPD2    C210226   3.867   2.565  17.313  0.5831  0.4460  0.7702
  688MPD2    C310227   3.939   2.620  17.212 -1.1192  1.5153  0.3333
  688MPD2    C410228   3.874   2.691  17.114  0.1125 -0.5965 -0.1158
  688MPD2    C510229   3.740   2.716  17.125  0.0063  0.1469  0.0140
  688MPD2     H10230   3.912   2.510  17.394  0.6954 -0.1469  0.3023
  688MPD2    H110231   3.924   2.742  17.033  3.4876 -0.7092  1.9264
  688MPD2    H210232   3.556   2.663  17.233 -0.4957 -0.9868 -0.7633
  688MPD2    H310233   3.688   2.781  17.056  1.7246  0.3888 -1.0739
  688MPD2     N10234   4.084   2.595  17.196  0.0561 -0.0665  0.3923
  688MPD2    H510235   4.143   2.649  17.133  1.6063 -0.8668  1.1532
  688MPD2    N110236   3.662   2.528  17.432 -0.1460 -0.5449 -0.1780
  688MPD2    H710237   3.710   2.459  17.488  0.8815  0.2342 -0.0905
  689TMC3    C110238   3.503   2.519  17.604 -0.5559 -0.3810  0.4070
  689TMC3    C210239   3.474   2.608  17.706 -0.1610  0.2534 -0.2845
  689TMC3    C310240   3.432   2.552   0.064 -0.3944 -0.0069  0.0850
  689TMC3    C410241   3.499   2.384  17.611 -0.0132 -0.1123  0.0239
  689TMC3    C510242   3.452   2.333  17.728  1.1074 -0.2534 -0.3538
  689TMC3    C610243   3.424   2.410   0.074  0.5952  0.5585  0.1800
  689TMC3     C10244   3.543   2.578  17.484 -0.6347 -0.2069 -0.2357
  689TMC3     O10245   3.489   2.683  17.459  0.0991 -0.2529  0.5903
  689TMC3     H10246   3.479   2.715  17.688 -0.2558  0.1124 -1.1276
  689TMC3    H110247   3.523   2.326  17.523 -1.4580  0.5424 -0.8015
  689TMC3    H210248   3.403   2.361   0.168 -0.0993  1.9306  0.7485
  689TMC3    C710249   3.390   2.198  17.731  0.4519 -0.8159 -0.1167
  689TMC3    C810250   3.418   2.630   0.188  0.6356 -0.3599  1.4088
  689TMC3    O110251   3.372   2.153   0.082  0.2673 -0.2851  0.6376
  689TMC3    O210252   3.409   2.566   0.297  0.0271 -0.5474 -0.3594
  690MPD2     C10253   1.396   4.197  16.097  0.2344  0.3420  0.1560
  690MPD2    C110254   1.329   4.231  15.987  0.7448 -0.5984 -0.4964
  690MPD2    C210255   1.374   4.340  15.915 -0.4130  0.0577  0.5481
  690MPD2    C310256   1.497   4.410  15.952 -0.4255 -0.0778  0.3511
  690MPD2    C410257   1.566   4.373  16.065  0.0858  0.2591  0.3093
  690MPD2    C510258   1.511   4.271  16.134  0.5427  0.4414 -0.4729
  690MPD2     H10259   1.343   4.358  15.813  0.8004 -0.9474  0.0075
  690MPD2    H110260   1.642   4.429  16.119 -0.5207  0.9961  0.3979
  690MPD2    H210261   1.357   4.124  16.167  2.5504 -0.4760  0.5938
  690MPD2    H310262   1.553   4.248  16.231  0.4769  0.3868 -0.4572
  690MPD2     N10263   1.535   4.504  15.855  0.7959 -0.1249 -0.3100
  690MPD2    H510264   1.463   4.522  15.786 -1.0150 -0.7558  1.4289
  690MPD2    N110265   1.222   4.158  15.930  1.1866  0.8322  0.1140
  690MPD2    H710266   1.182   4.187  15.841 -0.3296 -0.9789  0.2057
  691TMC3    C110267   1.057   3.993  15.913  0.1006  0.3511 -0.0608
  691TMC3    C210268   0.950   4.076  15.900  0.8259 -0.2184 -0.8649
  691TMC3    C310269   0.822   4.027  15.888 -0.4988 -0.6353 -0.1784
  691TMC3    C410270   1.049   3.861  15.912 -0.0505 -0.0011  0.6338
  691TMC3    C510271   0.924   3.816  15.888  0.4197  0.4894  0.3496
  691TMC3    C610272   0.809   3.893  15.877 -0.1079  0.3259  0.3956
  691TMC3     C10273   1.180   4.038  15.968 -0.9753 -0.0919 -0.6443
  691TMC3     O10274   1.222   3.965  16.057  0.4424  0.1282 -0.1182
  691TMC3     H10275   0.958   4.180  15.927 -0.8076 -0.2890 -0.0777
  691TMC3    H110276   1.140   3.803  15.918  0.9170  1.4264 -0.3404
  691TMC3    H210277   0.717   3.858  15.833 -0.0626  1.1302 -0.3560
  691TMC3    C710278   0.930   3.680  15.853  0.7184 -0.1451  0.5493
  691TMC3    C810279   0.709   4.110  15.898  0.5168 -0.1496 -0.4511
  691TMC3    O110280   0.978   3.601  15.933 -0.3671  0.2263  0.2099
  691TMC3    O210281   0.721   4.231  15.874  0.1529 -0.2412 -0.4207
  692TMC3    C110282   2.771   0.712  15.919 -0.2419 -0.6472  0.5777
  692TMC3    C210283   2.889   0.779  15.935  0.0547 -0.2254  0.2598
  692TMC3    C310284   3.005   0.711  15.961  0.6494 -0.1331  0.3928
  692TMC3    C410285   2.753   0.580  15.936 -0.1785 -0.2966 -0.2771
  692TMC3    C510286   2.865   0.518  15.974  0.2951  0.1959  0.4392
  692TMC3    C610287   2.990   0.578  15.992  0.6306  0.3503 -0.5800
  692TMC3     C10288   2.654   0.801  15.896 -0.1456 -0.6439 -0.6363
  692TMC3     O10289   2.544   0.747  15.892  0.2253 -0.2889 -0.9000
  692TMC3     H10290   2.880   0.881  15.971 -0.2604 -0.3673  0.5811
  692TMC3    H110291   2.663   0.522  15.922 -0.8528  0.6985 -0.0504
  692TMC3    H210292   3.075   0.514  16.012  2.5176  2.7882 -0.8652
  692TMC3    C710293   2.863   0.376  15.958  0.2248  0.3236 -0.3544
  692TMC3    C810294   3.109   0.771  16.047 -0.1104  0.5234  1.0525
  692TMC3    O110295   2.806   0.332  15.857  0.0675 -0.4568 -0.1916
  692TMC3    O210296   3.171   0.709  16.135  0.1338 -0.1930  0.3634
  693MPD2     C10297   2.602   3.713  10.835 -0.3388  0.3613 -0.0494
  693MPD2    C110298   2.532   3.648  10.932 -0.2156 -0.2710 -0.5625
  693MPD2    C210299   2.597   3.568  11.023  0.0405  0.2958  0.1784
  693MPD2    C310300   2.728   3.518  11.000  0.5175 -0.8689  0.1563
  693MPD2    C410301   2.786   3.565  10.881 -0.3682 -0.3458 -0.0096
  693MPD2    C510302   2.728   3.663  10.808 -0.1255  0.1485 -0.0765
  693MPD2     H10303   2.544   3.530  11.110 -1.2510  1.9729  0.1149
  693MPD2    H110304   2.885   3.537  10.847 -0.5516 -0.5592 -0.3639
  693MPD2    H210305   2.561   3.792  10.773 -1.7060 -1.6144 -1.6542
  693MPD2    H310306   2.789   3.710  10.732  0.9411 -2.4585 -0.8466
  693MPD2     N10307   2.799   3.425  11.075 -0.0515  0.2717 -0.1513
  693MPD2    H510308   2.881   3.375  11.042 -0.2805 -0.5153  0.4565
  693MPD2    N110309   2.396   3.679  10.956 -0.3593 -0.2025 -0.0274
  693MPD2    H710310   2.362   3.640  11.043 -1.2576  0.2327 -0.1852
  694TMC3    C110311   2.185   3.733  10.942 -0.2167 -0.2267  0.1097
  694TMC3    C210312   2.115   3.653  10.858 -0.5152  0.5364  0.5692
  694TMC3    C310313   2.061   3.542  10.916  0.2335 -0.2596  0.4137
  694TMC3    C410314   2.193   3.709  11.080  0.0255  0.4981  0.3335
  694TMC3    C510315   2.151   3.591  11.130  0.2776  0.6284 -1.4081
  694TMC3    C610316   2.088   3.501  11.049  0.7129 -0.4623  0.5292
  694TMC3     C10317   2.318   3.762  10.887 -0.0529 -0.2611  0.0701
  694TMC3     O10318   2.324   3.780  10.766 -0.4094  0.7849  0.3363
  694TMC3     H10319   2.120   3.665  10.751 -0.2805 -0.1879  0.5008
  694TMC3    H110320   2.247   3.777  11.145  0.9921  2.0754 -2.1122
  694TMC3    H210321   2.029   3.417  11.085  0.0593 -0.4393 -0.4925
  694TMC3    C710322   2.148   3.568  11.276 -0.5233 -0.7076 -0.5740
  694TMC3    C810323   1.953   3.465  10.854  0.0815 -0.1872  0.0385
  694TMC3    O110324   2.170   3.665  11.343  0.4267 -0.0693 -0.3100
  694TMC3    O210325   1.915   3.359  10.901 -0.0869 -0.1486 -0.0776
  695MPD2     C10326   3.281   0.202  13.650 -0.5941 -0.2072  0.2736
  695MPD2    C110327   3.214   0.294  13.730  0.4707 -0.4334  0.1621
  695MPD2    C210328   3.114   0.374  13.680 -0.4238  0.0545 -0.5690
  695MPD2    C310329   3.080   0.357  13.545 -0.4539 -0.0005  0.2818
  695MPD2    C410330   3.142   0.271  13.458 -0.6762 -0.5485 -0.0444
  695MPD2    C510331   3.239   0.193  13.516 -0.2933  0.4533  0.3737
  695MPD2     H10332   3.056   0.443  13.741  2.1535  0.9371  0.9191
  695MPD2    H110333   3.117   0.255  13.354 -0.9514  0.6598 -0.1650
  695MPD2    H210334   3.364   0.140  13.682  0.1901  1.6647  1.7966
  695MPD2    H310335   3.292   0.120  13.457  0.3960  1.0277  0.2879
  695MPD2     N10336   2.968   0.442  13.513 -0.3137  0.5752  0.0544
  695MPD2    H510337   2.919   0.487  13.590  0.8933 -0.3074  1.3233
  695MPD2    N110338   3.244   0.307  13.869  0.7621  0.3304 -0.0148
  695MPD2    H710339   3.186   0.367  13.927  0.2909  0.5082 -0.6745
  696TMC3    C110340   2.867   0.601  13.382 -0.4135  0.3771 -0.0803
  696TMC3    C210341   2.762   0.621  13.473 -0.1617  0.0657  0.0022
  696TMC3    C310342   2.678   0.728  13.455 -0.3641  0.3572  0.0686
  696TMC3    C410343   2.883   0.685  13.273  0.4482  0.1897  0.4779
  696TMC3    C510344   2.793   0.788  13.257 -0.9561  0.3006 -0.0057
  696TMC3    C610345   2.691   0.804  13.342 -0.2860 -0.5791  0.1812
  696TMC3     C10346   2.947   0.480  13.386 -0.4069  0.0764 -0.5042
  696TMC3     O10347   3.003   0.449  13.282 -0.1456 -0.0504  0.1986
  696TMC3     H10348   2.742   0.555  13.557  1.2276 -0.1071  0.2095
  696TMC3    H110349   2.957   0.670  13.195  1.9323 -0.4915  2.0322
  696TMC3    H210350   2.626   0.890  13.327  0.6746  0.2516  0.8119
  696TMC3    C710351   2.846   0.914  13.210 -0.3250  0.1470  0.2947
  696TMC3    C810352   2.667   0.820  13.570 -0.9293 -0.6868  0.8488
  696TMC3    O110353   2.913   0.905  13.108 -0.2725 -0.1625 -0.2525
  696TMC3    O210354   2.685   0.938  13.542 -0.0220 -0.9255  0.0873
  697MPD2     C10355   2.585   2.030  15.690  0.7314  0.2757  0.0748
  697MPD2    C110356   2.563   1.994  15.559  0.2720 -0.2754  0.1500
  697MPD2    C210357   2.557   2.101  15.471  0.6785  0.0689  0.0331
  697MPD2    C310358   2.570   2.232  15.511 -0.8228  0.8288 -0.4878
  697MPD2    C410359   2.605   2.255  15.640 -0.3560  0.3544 -0.1644
  697MPD2    C510360   2.613   2.154  15.725  0.3848  0.5099 -0.8768
  697MPD2     H10361   2.551   2.078  15.365  1.0122  0.6558 -0.1147
  697MPD2    H110362   2.610   2.355  15.681 -0.5710 -0.1638  1.0998
  697MPD2    H210363   2.599   1.946  15.756 -0.0141 -1.3736 -1.8634
  697MPD2    H310364   2.625   2.178  15.830  0.0259 -1.4194 -0.3938
  697MPD2     N10365   2.543   2.329  15.413  0.0458 -0.1491 -0.1678
  697MPD2    H510366   2.494   2.303  15.329  0.2764  0.1414 -0.3925
  697MPD2    N110367   2.541   1.865  15.513 -0.3745 -0.3029 -0.7336
  697MPD2    H710368   2.541   1.861  15.411 -1.3008  1.8866 -0.8226
  698TMC3    C110369   2.555   2.534  15.306 -0.3706  0.2260 -0.4379
  698TMC3    C210370   2.552   2.670  15.333 -0.5989  0.9009 -0.7326
  698TMC3    C310371   2.483   2.743  15.236  0.2187 -0.2283 -0.2014
  698TMC3    C410372   2.503   2.471  15.193  0.4415  0.1317 -0.4491
  698TMC3    C510373   2.441   2.554  15.107  0.0183 -0.5916  1.2958
  698TMC3    C610374   2.414   2.683  15.127  0.1963 -0.1031 -0.7171
  698TMC3     C10375   2.596   2.454  15.419 -0.9602 -0.1893  0.3676
  698TMC3     O10376   2.655   2.510  15.511  0.2014 -0.5324 -0.4698
  698TMC3     H10377   2.611   2.713  15.412 -2.0172 -0.9482  1.3384
  698TMC3    H110378   2.494   2.364  15.175  1.4408 -0.3445  1.8204
  698TMC3    H210379   2.372   2.737  15.043  4.6299  2.3353 -1.4059
  698TMC3    C710380   2.455   2.511  14.970  0.1198  0.5809 -0.4867
  698TMC3    C810381   2.490   2.885  15.232  0.2884 -0.4255  0.1751
  698TMC3    O110382   2.376   2.549  14.885 -0.1099  0.0015 -0.0012
  698TMC3    O210383   2.444   2.930  15.129 -0.0102  0.1289 -0.0533
  699TMC3    C110384   2.562   0.604  13.058 -0.1303 -0.5331 -0.4846
  699TMC3    C210385   2.638   0.511  13.129 -0.4131 -0.4930 -1.0793
  699TMC3    C310386   2.570   0.435  13.221  0.2363 -0.8461 -0.5522
  699TMC3    C410387   2.434   0.616  13.086 -0.0078 -0.4094 -0.1475
  699TMC3    C510388   2.373   0.550  13.195  0.4288  0.3838  0.1570
  699TMC3    C610389   2.446   0.461  13.261  0.5933 -0.2371  0.2891
  699TMC3     C10390   2.628   0.713  12.996 -0.2531  0.2368 -0.1931
  699TMC3     O10391   2.582   0.822  13.020 -0.6648 -0.2424 -0.2648
  699TMC3     H10392   2.743   0.494  13.105 -0.6461 -2.3169 -0.8167
  699TMC3    H110393   2.388   0.698  13.031  2.6326 -0.0105 -1.7454
  699TMC3    H210394   2.403   0.404  13.342  1.6533 -0.8862  0.3856
  699TMC3    C710395   2.228   0.563  13.234  0.5901  0.0615 -0.1626
  699TMC3    C810396   2.637   0.342  13.300 -0.0691  0.0484  0.2843
  699TMC3    O110397   2.210   0.537  13.354 -0.0296  0.2360  0.0139
  699TMC3    O210398   2.617   0.349  13.420 -0.3016 -0.3321 -0.0562
  700TMC3    C110399   1.747   2.440  17.632 -0.5950 -0.0916  0.0046
  700TMC3    C210400   1.768   2.306  17.642 -0.1626  0.3608  0.1708
  700TMC3    C310401   1.834   2.255  17.753  0.1186  0.1146  0.4049
  700TMC3    C410402   1.792   2.533  17.722  0.6238 -0.0428 -0.4129
  700TMC3    C510403   1.854   2.481   0.077  0.3165  0.4156 -0.0775
  700TMC3    C610404   1.878   2.341   0.089 -0.1628 -0.1309  0.6362
  700TMC3     C10405   1.656   2.492  17.520 -0.1282  0.3642  0.0637
  700TMC3     O10406   1.577   2.419  17.465  0.0922 -0.0906  0.5462
  700TMC3     H10407   1.723   2.237  17.572  0.5424 -1.1981  1.2624
  700TMC3    H110408   1.757   2.635  17.722 -0.9589 -0.5841  0.6591
  700TMC3    H210409   1.932   2.300   0.173  0.5374 -2.6633 -1.0330
  700TMC3    C710410   1.926   2.566   0.157 -0.3761 -0.5000  0.7574
  700TMC3    C810411   1.906   2.133  17.729 -0.0502 -0.5994 -0.2398
  700TMC3    O110412   1.994   2.661   0.109 -0.0534 -0.4443 -0.0732
  700TMC3    O210413   1.930   2.073   0.078  0.0175  0.3104 -0.0405
  701TMC3    C110414   1.828   1.413  15.386  0.0078  0.4255  1.2255
  701TMC3    C210415   1.832   1.401  15.251  0.0744 -0.1885 -0.0935
  701TMC3    C310416   1.926   1.481  15.185  0.1980 -0.1694 -0.3659
  701TMC3    C410417   1.913   1.491  15.459  0.4837 -0.0520  0.5674
  701TMC3    C510418   1.999   1.564  15.384  0.0244  0.7314 -0.2197
  701TMC3    C610419   2.008   1.560  15.248 -0.4774 -0.0304 -0.3160
  701TMC3     C10420   1.694   1.391  15.440  0.4558  1.0145 -0.0648
  701TMC3     O10421   1.652   1.480  15.514 -0.3420  0.5787  0.0334
  701TMC3     H10422   1.746   1.359  15.199  0.2839  0.2731 -0.8090
  701TMC3    H110423   1.906   1.503  15.566  0.9362 -1.7223  0.7819
  701TMC3    H210424   2.079   1.612  15.185 -0.0927 -1.6843 -1.2469
  701TMC3    C710425   2.084   1.669  15.451 -0.1583 -0.6037 -0.2471
  701TMC3    C810426   1.908   1.528  15.048 -0.0751  0.3535 -0.1492
  701TMC3    O110427   2.170   1.720  15.377  0.2221 -0.0751  0.7630
  701TMC3    O210428   1.937   1.641  15.012  0.4025 -0.1652  0.3659
  702MPD2     C10429   1.630   3.900  10.666 -0.4242  1.2369 -0.0565
  702MPD2    C110430   1.635   3.982  10.771 -1.2713  0.6888  0.3917
  702MPD2    C210431   1.630   4.120  10.750  0.2011 -0.2080 -0.0801
  702MPD2    C310432   1.618   4.171  10.624  0.4452  0.1744 -0.0857
  702MPD2    C410433   1.605   4.085  10.516  0.1777 -0.7710 -0.6513
  702MPD2    C510434   1.618   3.948  10.541 -0.4214  0.0863 -0.3827
  702MPD2     H10435   1.650   4.186  10.834  1.9372 -2.3837  1.1974
  702MPD2    H110436   1.603   4.123  10.415  2.7629  1.0534 -0.0034
  702MPD2    H210437   1.642   3.793  10.682 -1.0897  0.9891 -1.2295
  702MPD2    H310438   1.635   3.873  10.464 -1.2459 -0.4753 -0.0176
  702MPD2     N10439   1.604   4.311  10.612 -0.1327 -0.0715 -0.0726
  702MPD2    H510440   1.624   4.362  10.698 -0.8991 -0.8335  0.5606
  702MPD2    N110441   1.645   3.934  10.900 -0.2603 -0.2438 -0.4130
  702MPD2    H710442   1.626   3.998  10.976 -2.5085  0.2148 -1.3522
  703TMC3    C110443   1.605   4.522  10.527  0.6596  0.2082  0.1096
  703TMC3    C210444   1.517   4.538  10.627 -0.0087  0.0931  0.6700
  703TMC3    C310445   1.563   4.592  10.745 -0.3604 -0.6277  0.7290
  703TMC3    C410446   1.733   4.558  10.544  0.3448 -0.4532  0.5402
  703TMC3    C510447   1.785   4.600  10.660  0.9588 -0.6932 -0.2298
  703TMC3    C610448   1.695   4.622  10.759  0.0987  0.3540 -0.0895
  703TMC3     C10449   1.607   4.381  10.493 -0.3581 -0.6243 -0.4756
  703TMC3     O10450   1.645   4.346  10.380 -0.3626 -0.5541  0.3342
  703TMC3     H10451   1.415   4.502  10.617 -1.0465  3.1546  0.1832
  703TMC3    H110452   1.790   4.527  10.457 -0.0200  1.0654 -0.2516
  703TMC3    H210453   1.728   4.676  10.847  0.7863 -0.5136  0.1782
  703TMC3    C710454   1.926   4.624  10.663  0.6019  0.6362  0.0651
  703TMC3    C810455   1.520   4.512  10.863  0.6352 -0.0930 -0.0667
  703TMC3    O110456   1.984   4.643  10.551  0.1456 -0.1610 -0.6301
  703TMC3    O210457   1.612   4.462  10.923 -0.1073 -0.1603  0.0642
  704TMC3    C110458   3.872   2.722  12.639  0.4790  0.1140  0.2843
  704TMC3    C210459   3.885   2.707  12.503 -0.1682 -0.0163 -0.1956
  704TMC3    C310460   3.933   2.583  12.457  0.6801 -0.5416  0.2447
  704TMC3    C410461   3.910   2.625  12.725 -0.9914  0.2012 -0.1057
  704TMC3    C510462   3.967   2.513  12.676  0.0983 -0.0440 -0.3740
  704TMC3    C610463   3.978   2.487  12.544  0.4692  0.2898  0.0536
  704TMC3     C10464   3.762   2.804  12.687 -0.3513  0.4267 -0.6038
  704TMC3     O10465   3.761   2.858  12.794 -0.4711 -0.4937 -0.5262
  704TMC3     H10466   3.874   2.791  12.436 -0.9783 -0.1770 -0.2695
  704TMC3    H110467   3.876   2.626  12.828  0.8838  0.7221  0.4952
  704TMC3    H210468   4.003   2.386  12.513 -0.4808  0.2445 -0.5694
  704TMC3    C710469   3.959   2.387  12.758  0.2829  0.0303 -0.9658
  704TMC3    C810470   3.924   2.556  12.315  0.8569 -0.2910 -0.9577
  704TMC3    O110471   3.928   2.281  12.706  0.3433  0.2307 -0.3966
  704TMC3    O210472   3.840   2.619  12.253 -0.5496  0.4895 -0.3881
  705MPD2     C10473   3.058   0.398  16.749 -0.1388  0.4900  0.3679
  705MPD2    C110474   3.062   0.496  16.654 -0.0472 -0.9205 -0.3545
  705MPD2    C210475   2.992   0.613  16.689  0.6203  0.1369 -0.9492
  705MPD2    C310476   2.906   0.625  16.802 -0.5065 -0.4799  0.5110
  705MPD2    C410477   2.906   0.519  16.896  0.6371  0.2202 -1.0023
  705MPD2    C510478   2.978   0.404  16.858 -0.4337  0.0923 -0.0737
  705MPD2     H10479   3.005   0.697  16.621 -0.4962  2.1936  1.3635
  705MPD2    H110480   2.863   0.534  16.994 -0.2876 -2.1711 -1.0435
  705MPD2    H210481   3.132   0.319  16.748  0.8948  1.5079 -2.0667
  705MPD2    H310482   2.989   0.318  16.924  4.0490  0.4434 -0.3616
  705MPD2     N10483   2.826   0.741  16.832  0.0201  0.1526  0.0805
  705MPD2    H510484   2.787   0.752  16.925 -2.3701  1.0037 -1.0370
  705MPD2    N110485   3.137   0.484  16.537 -0.6922 -0.4154 -0.3364
  705MPD2    H710486   3.121   0.553  16.464 -0.7749 -1.6055 -1.4523
  706TMC3    C110487   3.310   0.209  16.193 -0.8052  0.2612 -0.0528
  706TMC3    C210488   3.362   0.317  16.128  0.0662 -0.6579 -0.0895
  706TMC3    C310489   3.349   0.442  16.183 -0.1597  0.0942  0.1786
  706TMC3    C410490   3.240   0.232  16.306  0.1939  0.5445  0.0956
  706TMC3    C510491   3.225   0.362  16.353  0.3509  0.6002  0.2846
  706TMC3    C610492   3.280   0.467  16.295 -0.1011 -0.3005 -0.3718
  706TMC3     C10493   3.308   0.078  16.138 -0.3760 -0.5483  0.3138
  706TMC3     O10494   3.287   4.727  16.220 -0.2250  0.4749  0.1671
  706TMC3     H10495   3.409   0.297  16.033 -2.4122  2.9764 -2.0647
  706TMC3    H110496   3.192   0.150  16.358  0.4910  1.0423  1.1616
  706TMC3    H210497   3.283   0.572  16.322 -0.2539 -0.1111 -1.1170
  706TMC3    C710498   3.203   0.366  16.498  0.1503  0.0691  0.0254
  706TMC3    C810499   3.416   0.545  16.109  0.3807 -0.4943  0.0298
  706TMC3    O110500   3.218   0.260  16.558  0.0848 -0.5449  0.2033
  706TMC3    O210501   3.411   0.549  15.986  0.0928  0.7161 -0.0818
  707TMC3    C110502   0.211   4.533  17.671  0.0956  0.3464  0.2206
  707TMC3    C210503   0.257   4.402  17.684 -0.6506 -0.8039 -0.0978
  707TMC3    C310504   0.225   4.313  17.585 -0.4504  0.3825 -0.2594
  707TMC3    C410505   0.149   4.578  17.555 -0.3598  0.4087  0.0314
  707TMC3    C510506   0.118   4.480  17.463 -0.2214 -0.7175  0.2032
  707TMC3    C610507   0.150   4.347  17.480 -0.6563  0.1061 -0.1597
  707TMC3     C10508   0.262   4.645  17.744  0.5582 -0.0807  0.0806
  707TMC3     O10509   0.283   0.011  17.686  0.1905 -0.2505 -0.4826
  707TMC3     H10510   0.348   4.403  17.744 -0.1797 -1.9464 -0.8017
  707TMC3    H110511   0.131   4.683  17.531 -0.0194  0.3492 -0.4868
  707TMC3    H210512   0.130   4.270  17.407  0.1902 -0.3895  0.1269
  707TMC3    C710513   0.066   4.512  17.329  0.3118 -0.5537  0.3616
  707TMC3    C810514   0.268   4.173  17.602  0.6934 -0.0014  0.1268
  707TMC3    O110515   4.739   4.426  17.273 -0.3718 -0.0846 -0.7639
  707TMC3    O210516   0.266   4.103  17.504  0.6164 -0.5719  0.6057
  708MPD2     C10517   1.661   3.301  14.501 -0.6250 -1.1643 -0.1003
  708MPD2    C110518   1.742   3.415  14.510 -0.3559  0.6285  0.2770
  708MPD2    C210519   1.815   3.440  14.622  0.0941  0.0493 -0.1321
  708MPD2    C310520   1.806   3.358  14.726  0.0520 -0.4439  0.1193
  708MPD2    C410521   1.719   3.245  14.726  0.2538  0.3866  0.1462
  708MPD2    C510522   1.650   3.219  14.611 -0.4485  0.5463  0.1004
  708MPD2     H10523   1.866   3.532  14.646  1.5356 -0.9103  0.4664
  708MPD2    H110524   1.703   3.182  14.812 -0.1133 -0.5520 -0.6132
  708MPD2    H210525   1.596   3.285  14.416 -0.1731 -1.2133 -0.4333
  708MPD2    H310526   1.584   3.133  14.608 -1.4787  1.2435  2.3845
  708MPD2     N10527   1.874   3.401  14.841  0.0596  0.2693 -0.2826
  708MPD2    H510528   1.922   3.489  14.826  2.2047 -0.5794  1.7267
  708MPD2    N110529   1.735   3.515  14.405 -0.0546  0.2607  0.8677
  708MPD2    H710530   1.654   3.502  14.345  0.7386 -0.5485 -0.0237
  709TMC3    C110531   1.734   3.741  14.372 -0.2742 -0.1600  1.1804
  709TMC3    C210532   1.651   3.723  14.266  0.0502 -0.2928  0.3129
  709TMC3    C310533   1.521   3.760  14.285  0.0326 -0.0911 -0.3818
  709TMC3    C410534   1.699   3.805  14.485 -0.0046 -0.3635  0.0219
  709TMC3    C510535   1.566   3.849  14.501 -0.7368  0.1210 -0.2402
  709TMC3    C610536   1.470   3.813  14.407  0.5611 -0.2420  0.1908
  709TMC3     C10537   1.815   3.632  14.410  0.8345  0.3476 -0.2236
  709TMC3     O10538   1.908   3.670  14.481 -0.8474 -0.2950 -0.1027
  709TMC3     H10539   1.680   3.652  14.189  1.0012  0.2265  0.1935
  709TMC3    H110540   1.755   3.805  14.578 -1.3865  0.0916  0.8639
  709TMC3    H210541   1.368   3.850  14.414  0.6910  0.7876 -3.4275
  709TMC3    C710542   1.519   3.826  14.635  0.9883  0.0871 -0.7742
  709TMC3    C810543   1.418   3.724  14.191  0.4018  0.6090  0.5638
  709TMC3    O110544   1.581   3.880  14.727 -0.3387 -0.2986  0.6868
  709TMC3    O210545   1.304   3.703  14.233 -0.0917 -0.5134 -0.2751
  710TMC3    C110546   2.646   0.163   0.198  0.0352  0.2171 -0.0161
  710TMC3    C210547   2.672   0.154   0.066  0.3346  0.1733  0.2653
  710TMC3    C310548   2.773   0.068   0.035 -0.5991  0.2321 -0.3937
  710TMC3    C410549   2.712   0.107   0.298  0.5201  0.2841 -0.9258
  710TMC3    C510550   2.817   0.022   0.266  0.1981  0.4644 -0.0401
  710TMC3    C610551   2.839   4.735   0.132  0.3652  0.4303  0.3224
  710TMC3     C10552   2.532   0.240   0.235  0.7896  0.1411  0.0614
  710TMC3     O10553   2.453   0.252   0.145  0.8125  0.4255  0.1742
  710TMC3     H10554   2.608   0.201  17.752  0.3248  0.8739  0.7246
  710TMC3    H110555   2.684   0.109   0.403  1.8965  0.0158 -0.5480
  710TMC3    H210556   2.913   4.666   0.095  0.5154  0.1391  1.1595
  710TMC3    C710557   2.884   4.688   0.363  0.2488 -0.0327  0.4029
  710TMC3    C810558   2.790   0.040  17.655 -0.3273 -0.5438 -0.1463
  710TMC3    O110559   2.853   4.708   0.477  0.0434  0.4168 -0.3508
  710TMC3    O210560   2.698   0.067  17.583  0.1606 -0.3828 -0.5018
  711TMC3    C110561   2.305   0.907  14.862  0.1979 -0.0907 -0.0388
  711TMC3    C210562   2.283   0.929  14.993  0.2724 -0.4564  0.2924
  711TMC3    C310563   2.368   1.017  15.064  0.5345 -0.0404 -0.5990
  711TMC3    C410564   2.415   0.966  14.801 -0.3308 -0.7896 -0.4336
  711TMC3    C510565   2.501   1.044  14.867 -0.3911 -0.3480  0.8539
  711TMC3    C610566   2.471   1.084  14.995 -0.4463  0.5609 -0.1060
  711TMC3     C10567   2.236   0.794  14.801  0.6518  0.4635  0.9257
  711TMC3     O10568   2.142   0.736  14.861 -0.3423  0.3422  0.1985
  711TMC3     H10569   2.191   0.889  15.034 -0.2772 -0.6823 -1.1601
  711TMC3    H110570   2.418   0.962  14.692 -1.9285 -0.2177 -0.5089
  711TMC3    H210571   2.542   1.152  15.042 -1.7467  2.0201 -0.2732
  711TMC3    C710572   2.633   0.985  14.872  0.4890 -0.3670  0.4023
  711TMC3    C810573   2.395   0.980  15.203 -0.0574 -0.4191 -0.1554
  711TMC3    O110574   2.717   1.045  14.944 -0.2988 -0.0771 -0.0948
  711TMC3    O210575   2.320   0.896  15.250 -0.3076 -0.4550 -0.2978
  712MPD2     C10576   4.301   2.245  13.736 -0.1318 -0.4046  0.3740
  712MPD2    C110577   4.186   2.317  13.727  0.4945  0.4476 -0.5436
  712MPD2    C210578   4.202   2.450  13.756  0.0027  0.3291 -0.4189
  712MPD2    C310579   4.316   2.511  13.807 -0.3268  0.5562 -0.1601
  712MPD2    C410580   4.427   2.432  13.835  0.6687 -0.1044 -0.3490
  712MPD2    C510581   4.418   2.303  13.791 -0.2415 -0.0996  0.3858
  712MPD2     H10582   4.106   2.500  13.762  0.8167  2.2082 -3.2050
  712MPD2    H110583   4.523   2.469  13.867 -0.4654 -0.3359  3.2962
  712MPD2    H210584   4.308   2.140  13.707  2.9213  0.3832 -1.7416
  712MPD2    H310585   4.512   2.251  13.801 -1.1805 -1.8477  0.0284
  712MPD2     N10586   4.320   2.648  13.852  0.3185 -0.2315  0.0875
  712MPD2    H510587   4.401   2.673  13.908  1.3468 -0.4991 -1.2892
  712MPD2    N110588   4.056   2.268  13.700  0.4006 -0.2648  0.5189
  712MPD2    H710589   3.984   2.339  13.706 -0.4304 -0.9695 -1.3264
  713TMC3    C110590   4.258   2.880  13.839 -0.0126  0.2034 -0.2782
  713TMC3    C210591   4.387   2.905  13.861  0.3455 -0.3229  0.6667
  713TMC3    C310592   4.418   3.026  13.914  0.2035  0.6351 -0.1099
  713TMC3    C410593   4.155   2.969  13.869 -0.0674 -0.2741  0.0627
  713TMC3    C510594   4.194   3.085  13.918 -0.2879  0.0035 -0.4001
  713TMC3    C610595   4.326   3.115  13.944 -0.1715 -0.6495  0.1081
  713TMC3     C10596   4.222   2.738  13.811 -0.4287  0.5112  1.2187
  713TMC3     O10597   4.115   2.720  13.758  0.3878 -0.1444  0.3997
  713TMC3     H10598   4.468   2.840  13.832  0.3819  0.0089  0.0383
  713TMC3    H110599   4.049   2.954  13.852 -0.5029  3.4237 -0.5615
  713TMC3    H210600   4.346   3.216  13.978 -0.1157  0.3049 -2.7159
  713TMC3    C710601   4.097   3.174  13.977  0.2650  0.9189 -0.1432
  713TMC3    C810602   4.556   3.066  13.898 -0.2227  0.1206 -0.0692
  713TMC3    O110603   4.133   3.269  14.051 -0.4773  0.6321  0.3122
  713TMC3    O210604   4.569   3.180  13.863  0.5328 -0.0877 -0.0004
  714MPD2     C10605   1.381   1.341   1.169 -0.2465 -0.0559  0.6194
  714MPD2    C110606   1.385   1.206   1.176 -0.2670 -0.3419  0.3354
  714MPD2    C210607   1.265   1.135   1.174  0.1353 -0.3254 -0.4234
  714MPD2    C310608   1.149   1.201   1.142 -0.6817 -0.6414  0.2031
  714MPD2    C410609   1.143   1.341   1.140 -0.3248 -0.1227 -0.2204
  714MPD2    C510610   1.258   1.405   1.162 -0.0587 -0.2077 -0.3422
  714MPD2     H10611   1.264   1.028   1.192 -1.2460 -0.2897 -0.3001
  714MPD2    H110612   1.049   1.393   1.128  0.2924  0.5331 -2.1387
  714MPD2    H210613   1.469   1.404   1.164 -1.2927  1.1715 -2.0222
  714MPD2    H310614   1.255   1.514   1.160 -0.0157 -0.2598 -2.5030
  714MPD2     N10615   1.033   1.122   1.126  1.0001  0.3284  0.5596
  714MPD2    H510616   1.044   1.022   1.138  0.9341  0.2983  0.3713
  714MPD2    N110617   1.513   1.154   1.186  0.5834  0.4910  0.0371
  714MPD2    H710618   1.591   1.217   1.170 -0.3395  1.1788 -1.7511
  715TMC3    C110619   1.694   1.015   1.194 -0.4555 -0.0320 -0.4152
  715TMC3    C210620   1.751   0.902   1.144 -0.2323 -0.0910 -0.0608
  715TMC3    C310621   1.890   0.908   1.147  0.2327 -1.2448  0.3823
  715TMC3    C410622   1.763   1.113   1.253 -0.5392 -0.0115  0.2439
  715TMC3    C510623   1.899   1.111   1.265  0.4199 -0.3404 -0.6689
  715TMC3    C610624   1.969   1.007   1.207  0.6613 -1.4052 -0.4637
  715TMC3     C10625   1.546   1.018   1.186 -0.0888 -0.0524 -0.2558
  715TMC3     O10626   1.471   0.920   1.191 -0.2759  0.1550  0.9370
  715TMC3     H10627   1.692   0.825   1.096  0.2856  0.5547 -1.7359
  715TMC3    H110628   1.719   1.205   1.291 -1.4703 -0.5370  0.4441
  715TMC3    H210629   2.076   0.990   1.219  1.1159  0.5010 -1.9516
  715TMC3    C710630   1.984   1.206   1.336  0.2724  0.7229  0.3613
  715TMC3    C810631   1.958   0.792   1.081 -0.3137 -0.2020  0.0812
  715TMC3    O110632   2.100   1.184   1.335  0.1753 -0.3512  0.1308
  715TMC3    O210633   1.895   0.739   0.991 -0.2531 -0.2080  0.6532
  716MPD2     C10634   1.720   4.418   9.580 -0.0446  1.0979  0.0440
  716MPD2    C110635   1.599   4.417   9.652  1.0675  0.0820 -0.4926
  716MPD2    C210636   1.529   4.299   9.670  0.2368  0.2289 -0.3659
  716MPD2    C310637   1.588   4.183   9.628 -0.2842  0.1591 -0.9894
  716MPD2    C410638   1.703   4.184   9.555 -0.2663 -0.2722  0.1046
  716MPD2    C510639   1.763   4.300   9.517  0.2093  0.4785 -0.0043
  716MPD2     H10640   1.448   4.296   9.741 -0.4382 -1.7682 -1.2094
  716MPD2    H110641   1.748   4.095   9.510  2.9766  0.2117  2.4190
  716MPD2    H210642   1.766   4.512   9.550  1.4276  0.1563 -0.6289
  716MPD2    H310643   1.853   4.274   9.463 -0.0371 -0.8823  0.2260
  716MPD2     N10644   1.523   4.065   9.655 -0.2255 -0.0322 -0.4561
  716MPD2    H510645   1.439   4.077   9.710  0.8918  0.8685  1.0636
  716MPD2    N110646   1.552   4.543   9.698 -0.3964  0.6062 -0.5761
  716MPD2    H710647   1.598   4.624   9.656  1.0784  0.6924  1.1660
  717TMC3    C110648   1.451   3.845   9.658 -0.6069 -0.0853 -0.4964
  717TMC3    C210649   1.323   3.893   9.656 -0.4261  0.4526  0.4638
  717TMC3    C310650   1.223   3.812   9.714  0.2426  1.0125  0.1200
  717TMC3    C410651   1.490   3.728   9.716  0.0263  0.5109  0.1092
  717TMC3    C510652   1.391   3.655   9.777 -0.3412  0.1878  0.3395
  717TMC3    C610653   1.256   3.696   9.778 -0.5160  0.3334  0.2303
  717TMC3     C10654   1.563   3.937   9.641  0.1910 -0.3260 -0.2059
  717TMC3     O10655   1.682   3.904   9.619 -0.0125 -0.5677  0.0526
  717TMC3     H10656   1.303   3.973   9.586  0.4080 -1.3635 -1.8476
  717TMC3    H110657   1.594   3.702   9.728 -0.5191 -1.4520  0.5276
  717TMC3    H210658   1.177   3.646   9.833  0.4400  0.5849  1.8270
  717TMC3    C710659   1.416   3.544   9.865 -0.8802  0.2052 -0.3047
  717TMC3    C810660   1.082   3.837   9.688 -0.3049  0.0317  0.4314
  717TMC3    O110661   1.341   3.542   9.964 -0.3844  0.1431 -0.4451
  717TMC3    O210662   1.014   3.737   9.696  0.2286 -0.4201  0.3013
  718MPD2     C10663   0.338   2.802  12.513 -0.3059 -0.0236 -0.7143
  718MPD2    C110664   0.401   2.679  12.530  0.9514  0.0549  0.3547
  718MPD2    C210665   0.412   2.625  12.663  0.1548  0.2665  0.6354
  718MPD2    C310666   0.338   2.685  12.765 -0.7259  0.1370 -0.8387
  718MPD2    C410667   0.278   2.804  12.742 -0.0576  0.1023 -0.0916
  718MPD2    C510668   0.279   2.867  12.620  0.1566  0.4774 -0.2341
  718MPD2     H10669   0.459   2.527  12.674 -0.0107 -0.0468 -1.6034
  718MPD2    H110670   0.224   2.855  12.821  0.7181 -1.1708  1.2492
  718MPD2    H210671   0.345   2.856  12.419 -0.1036  0.8115 -0.2183
  718MPD2    H310672   0.227   2.960  12.602 -1.5497 -0.4804 -0.2518
  718MPD2     N10673   0.343   2.623  12.887 -0.2849 -0.4522  0.2054
  718MPD2    H510674   0.385   2.530  12.882  1.4570  0.3034  0.7992
  718MPD2    N110675   0.456   2.618  12.414  0.1607  0.4673 -0.4835
  718MPD2    H710676   0.472   2.676  12.332 -3.2400  0.3494 -1.2314
  719TMC3    C110677   0.617   2.465  12.319  0.6568 -0.1963 -0.0526
  719TMC3    C210678   0.659   2.336  12.326  0.2876  0.4522 -0.9383
  719TMC3    C310679   0.797   2.316  12.317  0.6149  0.5012 -0.5022
  719TMC3    C410680   0.705   2.570  12.285  0.1829  0.5886 -0.4515
  719TMC3    C510681   0.837   2.541  12.256  0.3050  0.1008 -0.0859
  719TMC3    C610682   0.887   2.412  12.280  0.5563 -1.0226  0.5358
  719TMC3     C10683   0.505   2.489  12.405 -0.4145  0.5214  0.2491
  719TMC3     O10684   0.479   2.397  12.481 -0.7929  0.4431  0.2576
  719TMC3     H10685   0.589   2.255  12.308  1.2532 -0.2913 -1.3691
  719TMC3    H110686   0.683   2.676  12.294  3.1927  1.2378 -0.7367
  719TMC3    H210687   0.992   2.389  12.264  0.1428 -0.8508 -2.3603
  719TMC3    C710688   0.925   2.654  12.267  0.7937  0.2533  0.3250
  719TMC3    C810689   0.841   2.253  12.438 -0.0456 -0.3770  0.1323
  719TMC3    O110690   1.030   2.652  12.208 -0.0797 -0.1245 -0.0897
  719TMC3    O210691   0.960   2.237  12.450  0.2875  0.0811 -0.1853
  720MPD2     C10692   3.931   4.006  13.992  0.1273  0.1642  0.0801
  720MPD2    C110693   4.007   4.085  13.907  0.5111 -0.4664  0.0036
  720MPD2    C210694   4.106   4.167  13.955 -0.0125 -0.1094  0.3521
  720MPD2    C310695   4.127   4.170  14.087  0.6140 -0.2533  0.1958
  720MPD2    C410696   4.053   4.098  14.178  0.3184 -0.2509  0.0817
  720MPD2    C510697   3.963   4.010  14.124  0.5683  0.3207  0.4541
  720MPD2     H10698   4.173   4.226  13.894 -0.2450  0.8127  0.9850
  720MPD2    H110699   4.073   4.096  14.284 -1.2213 -0.3554  0.3693
  720MPD2    H210700   3.853   3.940  13.957 -0.4192  0.2776  1.0894
  720MPD2    H310701   3.908   3.944  14.189 -1.3354  1.1656 -0.3058
  720MPD2     N10702   4.236   4.251  14.124 -0.1041 -0.4114  0.6519
  720MPD2    H510703   4.287   4.302  14.053  3.5596 -1.3465  2.6266
  720MPD2    N110704   3.985   4.092  13.765 -0.3204  0.0292 -0.2337
  720MPD2    H710705   4.046   4.152  13.709 -0.1101 -0.3012 -0.3538
  721TMC3    C110706   4.389   4.370  14.262  0.0786 -0.3804  0.2733
  721TMC3    C210707   4.399   4.416  14.390  0.4865  0.1360  0.5144
  721TMC3    C310708   4.523   4.442  14.442  0.4006  0.4846  0.0630
  721TMC3    C410709   4.503   4.318  14.201  0.5690 -0.7263  0.0688
  721TMC3    C510710   4.625   4.342  14.256 -0.4243 -0.3814 -0.9863
  721TMC3    C610711   4.634   4.410  14.376 -0.5510 -0.1518 -0.5274
  721TMC3     C10712   4.272   4.287  14.248 -0.1231 -0.0053  0.3798
  721TMC3     O10713   4.208   4.268  14.348  0.3645  0.3733  0.7620
  721TMC3     H10714   4.305   4.451  14.432  0.3529  1.5004 -0.9366
  721TMC3    H110715   4.502   4.259  14.110 -2.4614 -3.2285  1.7318
  721TMC3    H210716   4.727   4.404  14.433 -1.3578 -1.7843  0.6026
  721TMC3    C710717   4.738   4.265  14.215  0.2203 -0.0582  0.0336
  721TMC3    C810718   4.544   4.463  14.585 -0.7420 -0.8197  0.4693
  721TMC3    O110719   0.036   4.261  14.098 -0.1622 -0.3271  0.2699
  721TMC3    O210720   4.637   4.537  14.617  0.2691  1.0822 -0.0994
  722MPD2     C10721   2.862   2.903  13.759  0.1922 -0.4006  0.4831
  722MPD2    C110722   2.821   3.037  13.755 -0.1236  0.0724  0.1245
  722MPD2    C210723   2.688   3.070  13.741 -0.3048  0.1033 -0.3971
  722MPD2    C310724   2.599   2.970  13.706  0.4760  0.3574 -0.5153
  722MPD2    C410725   2.640   2.840  13.712  0.4507  0.0152 -0.3169
  722MPD2    C510726   2.771   2.807  13.753 -0.1624 -0.1949  0.6293
  722MPD2     H10727   2.649   3.170  13.757  2.6658  1.2553 -0.3687
  722MPD2    H110728   2.570   2.762  13.683 -0.8000  0.2960  1.9259
  722MPD2    H210729   2.968   2.882  13.769  0.6327  1.2827 -0.6791
  722MPD2    H310730   2.813   2.708  13.766  0.5394  0.0698  0.3930
  722MPD2     N10731   2.473   3.009  13.668 -0.2178  0.2622 -0.3435
  722MPD2    H510732   2.457   3.109  13.664  3.2271  0.8246 -0.3745
  722MPD2    N110733   2.903   3.151  13.770 -0.1698 -0.1529 -0.1537
  722MPD2    H710734   2.869   3.246  13.769 -0.0375 -0.1626 -3.4334
  723TMC3    C110735   2.281   3.009  13.549  0.2286  0.0060  0.0733
  723TMC3    C210736   2.239   2.971  13.422  0.6122 -0.1892 -0.0516
  723TMC3    C310737   2.103   2.983  13.402 -0.1562  0.9924  0.8048
  723TMC3    C410738   2.199   3.072  13.641 -0.3566 -0.0802 -0.1162
  723TMC3    C510739   2.072   3.086  13.603 -0.3633  0.2595 -0.3192
  723TMC3    C610740   2.016   3.038  13.491 -0.0404 -0.4361  0.6263
  723TMC3     C10741   2.394   2.933  13.590 -0.4176 -1.1767  0.0931
  723TMC3     O10742   2.422   2.819  13.543 -0.3987  0.2613  0.2125
  723TMC3     H10743   2.308   2.930  13.349 -1.2291 -2.0522 -0.7626
  723TMC3    H110744   2.235   3.122  13.730  1.6652 -2.2743  0.3047
  723TMC3    H210745   1.913   3.055  13.463  0.3685 -4.1209 -3.1022
  723TMC3    C710746   1.974   3.130  13.700  0.5989  0.0686 -0.0951
  723TMC3    C810747   2.042   2.938  13.278  0.4715  0.2715  0.1141
  723TMC3    O110748   1.879   3.053  13.716  0.5225 -0.3931 -0.0689
  723TMC3    O210749   1.934   2.984  13.250 -0.5404  0.2292  0.4429
  724TMC3    C110750   2.892   0.842  10.351  0.3931  0.4869 -0.0598
  724TMC3    C210751   2.903   0.896  10.226 -0.0091  0.6674 -0.2062
  724TMC3    C310752   2.896   1.029  10.217  0.4055  0.5165  0.1275
  724TMC3    C410753   2.882   0.921  10.461 -0.3506  0.0016 -0.5494
  724TMC3    C510754   2.874   1.057  10.449 -0.7701 -0.5063 -0.6861
  724TMC3    C610755   2.880   1.107  10.324  0.2310  0.3143 -0.3098
  724TMC3     C10756   2.863   0.692  10.345  0.2311 -0.2666 -0.3091
  724TMC3     O10757   2.849   0.640  10.235  0.5326 -0.2114 -0.3957
  724TMC3     H10758   2.908   0.836  10.136 -0.5463  0.4327 -0.0834
  724TMC3    H110759   2.870   0.864  10.552  0.3677  2.5093  1.1308
  724TMC3    H210760   2.865   1.213  10.308 -4.1740 -0.1381  0.8855
  724TMC3    C710761   2.915   1.145  10.558  0.3017  0.3819  0.1234
  724TMC3    C810762   2.914   1.092  10.087  0.0302 -0.0753 -0.2239
  724TMC3    O110763   2.910   1.264  10.530  0.0421  0.4085 -0.3008
  724TMC3    O210764   2.894   1.019   9.992  0.1599 -0.4152  0.0785
  725TMC3    C110765   4.632   4.660  12.676  0.1687  0.9809 -0.1879
  725TMC3    C210766   4.651   4.647  12.537 -0.6823  1.0765  0.5860
  725TMC3    C310767   4.693   4.525  12.499  0.1536 -0.2020  0.1537
  725TMC3    C410768   4.659   4.556  12.764  0.5021  0.5939  0.4116
  725TMC3    C510769   4.720   4.443  12.711  0.0747 -0.0187 -0.0456
  725TMC3    C610770   4.729   4.420  12.579  0.1016 -0.2983 -0.4680
  725TMC3     C10771   4.625   0.050  12.735 -0.8015 -0.4238 -0.6819
  725TMC3     O10772   4.588   0.055  12.852  0.2472  0.5186 -0.0453
  725TMC3     H10773   4.617   4.719  12.463  2.6235 -0.5623 -2.5694
  725TMC3    H110774   4.666   4.570  12.871 -3.9154 -1.6848  1.0359
  725TMC3    H210775   0.029   4.329  12.536 -0.4817 -0.2625 -1.1127
  725TMC3    C710776   4.729   4.320  12.787 -0.1289 -0.3653 -0.4850
  725TMC3    C810777   4.676   4.488  12.365 -0.1682  0.0292 -0.4722
  725TMC3    O110778   4.693   4.218  12.727  0.7550 -0.2777 -0.3953
  725TMC3    O210779   4.656   4.374  12.341  0.5610  0.1207  0.0501
  726MPD2     C10780   2.201   1.649   9.953 -0.0343  0.4476  1.1483
  726MPD2    C110781   2.150   1.718  10.054  0.1412 -0.3357  0.5967
  726MPD2    C210782   2.130   1.651  10.173 -0.2266 -0.0922  0.1581
  726MPD2    C310783   2.172   1.518  10.195 -0.0034 -0.4848  0.6491
  726MPD2    C410784   2.234   1.458  10.091 -0.0027 -0.1598  0.1527
  726MPD2    C510785   2.246   1.526   9.973 -0.5984  0.2526  0.2322
  726MPD2     H10786   2.087   1.697  10.260  1.1728  1.0865  0.2101
  726MPD2    H110787   2.275   1.358  10.096 -1.3750 -0.8085 -1.5672
  726MPD2    H210788   2.220   1.706   9.863 -1.0025  0.6172  1.0591
  726MPD2    H310789   2.285   1.472   9.888 -1.6963 -0.3641  0.1328
  726MPD2     N10790   2.136   1.439  10.306 -0.0783 -0.5033 -0.1870
  726MPD2    H510791   2.161   1.341  10.298  3.9840  0.6335 -1.5062
  726MPD2    N110792   2.098   1.849  10.041 -0.3138  0.2816  0.5211
  726MPD2    H710793   2.069   1.896  10.126  0.3009  0.8097  0.4381
  727TMC3    C110794   2.091   2.071   9.948 -0.3687  0.7574  0.2412
  727TMC3    C210795   2.116   2.114  10.074 -0.0999 -0.2046  0.9123
  727TMC3    C310796   2.093   2.243  10.099  0.2951 -0.1261  0.0803
  727TMC3    C410797   2.036   2.150   9.851 -0.4544  0.5570  0.4419
  727TMC3    C510798   2.009   2.275   9.889  0.1202  0.0653 -0.1406
  727TMC3    C610799   2.030   2.328  10.012 -0.1224 -0.0340  0.8784
  727TMC3     C10800   2.081   1.924   9.925  0.1426 -0.0428  0.2854
  727TMC3     O10801   2.067   1.882   9.810  0.1433  0.0591  0.0561
  727TMC3     H10802   2.147   2.060  10.163  1.2203  1.9799  1.7656
  727TMC3    H110803   2.030   2.105   9.753 -0.3998 -2.2331  1.7252
  727TMC3    H210804   2.032   2.436  10.021 -0.0554 -0.0076  0.5454
  727TMC3    C710805   1.982   2.374   9.785  0.7390  0.1168  0.2148
  727TMC3    C810806   2.135   2.291  10.230 -0.2795 -0.7684 -0.1812
  727TMC3    O110807   2.000   2.493   9.810  0.7018 -0.1330 -0.3537
  727TMC3    O210808   2.200   2.217  10.300  0.1716  0.2579 -0.4457
  728TMC3    C110809   1.671   4.666  15.763 -0.1906  0.2075 -0.7773
  728TMC3    C210810   1.753   0.026  15.790  0.0793  0.5237 -0.3756
  728TMC3    C310811   1.758   0.134  15.700  0.6915  0.3402 -0.3009
  728TMC3    C410812   1.606   4.665  15.644 -0.0924 -0.6352  0.0464
  728TMC3    C510813   1.613   0.026  15.559  0.1682  0.8226 -0.0237
  728TMC3    C610814   1.684   0.137  15.587  0.5322 -0.1933  0.3864
  728TMC3     C10815   1.655   4.571  15.865  0.4413 -0.0184  0.0130
  728TMC3     O10816   1.740   4.568  15.953 -0.1940  0.4108 -0.7257
  728TMC3     H10817   1.823   0.011  15.872 -0.1840 -0.3415 -0.3118
  728TMC3    H110818   1.548   4.581  15.608 -1.9682  0.3489  0.7517
  728TMC3    H210819   1.688   0.230  15.532 -2.0863  0.2346  0.9200
  728TMC3    C710820   1.519   0.024  15.449 -0.2487  0.6373  0.2671
  728TMC3    C810821   1.814   0.255  15.740  0.2159  0.5650 -0.1806
  728TMC3    O110822   1.440   4.671  15.438  0.1893 -1.2325 -0.2678
  728TMC3    O210823   1.853   0.324  15.642  0.1640 -0.2594 -0.1771
  729MPD2     C10824   3.698   1.316  16.323  1.0100  0.7450 -0.6996
  729MPD2    C110825   3.809   1.257  16.387  0.1797 -0.0573  0.0046
  729MPD2    C210826   3.793   1.214  16.520 -0.2176  0.1702  0.3893
  729MPD2    C310827   3.680   1.236  16.593 -0.1697  0.1959 -0.2426
  729MPD2    C410828   3.566   1.278  16.526  0.3033 -0.3003 -0.7414
  729MPD2    C510829   3.580   1.318  16.393  0.0895  0.3475 -0.2536
  729MPD2     H10830   3.881   1.194  16.581 -0.4439 -1.2772  0.2337
  729MPD2    H110831   3.469   1.282  16.574  1.6716  0.8914  1.8846
  729MPD2    H210832   3.702   1.348  16.219  0.9555  0.2318 -0.8599
  729MPD2    H310833   3.490   1.347  16.339  1.8157  1.8963 -2.3108
  729MPD2     N10834   3.678   1.212  16.729 -0.5083 -0.3344 -0.7114
  729MPD2    H510835   3.619   1.274  16.782 -0.8122 -0.8637 -0.4261
  729MPD2    N110836   3.937   1.247  16.326 -0.0635 -0.1193 -0.0087
  729MPD2    H710837   3.948   1.285  16.232  0.9205  1.9433  0.9334
  730TMC3    C110838   3.776   1.153  16.940  0.2049  0.0071  0.2402
  730TMC3    C210839   3.895   1.110  16.993 -0.1002  0.2512  0.3737
  730TMC3    C310840   3.928   1.172  17.115 -0.1260  0.1172 -0.1632
  730TMC3    C410841   3.699   1.252  16.992 -1.2993  0.8522 -0.2950
  730TMC3    C510842   3.720   1.293  17.118  0.3563 -0.6735 -0.4154
  730TMC3    C610843   3.835   1.246  17.182  0.1713 -0.6435 -0.7421
  730TMC3     C10844   3.765   1.130  16.796  0.5258  0.2354  0.3805
  730TMC3     O10845   3.833   1.035  16.754  0.3246 -0.1155  0.1394
  730TMC3     H10846   3.950   1.032  16.941  0.4635  2.3276 -2.1452
  730TMC3    H110847   3.615   1.301  16.944 -0.2165  1.6598 -1.4064
  730TMC3    H210848   3.853   1.281  17.283  2.2044 -2.5670 -0.4375
  730TMC3    C710849   3.718   1.430  17.127 -0.6550  0.4583  0.4517
  730TMC3    C810850   4.046   1.253  17.103 -0.2282 -0.0742 -0.7012
  730TMC3    O110851   3.738   1.496  17.024 -0.3245 -0.2441  0.2289
  730TMC3    O210852   4.103   1.259  16.991  0.1614 -0.3710  0.1660
  731MPD2     C10853   3.833   4.012  12.863 -0.1320 -0.1535  0.5314
  731MPD2    C110854   3.948   3.942  12.825  0.0646 -0.2068  0.0971
  731MPD2    C210855   4.025   3.874  12.925 -0.3189 -0.5686  0.0185
  731MPD2    C310856   3.986   3.883  13.058  0.3147 -0.1377  0.4963
  731MPD2    C410857   3.882   3.962  13.095  0.2530 -0.6689 -0.1219
  731MPD2    C510858   3.801   4.019  12.999 -0.3477 -0.8078  0.3535
  731MPD2     H10859   4.107   3.809  12.898 -1.2075 -1.0406 -1.5857
  731MPD2    H110860   3.858   3.977  13.199  0.1459  1.6290 -0.4767
  731MPD2    H210861   3.754   4.041  12.794  0.5703 -0.5224 -0.4142
  731MPD2    H310862   3.714   4.075  13.030  1.7731  1.6505  1.9239
  731MPD2     N10863   4.054   3.805  13.153  0.8619 -0.7270 -0.0387
  731MPD2    H510864   4.139   3.763  13.118  0.9864  1.8168 -2.7431
  731MPD2    N110865   3.993   3.927  12.687  0.7333 -0.4044 -0.0737
  731MPD2    H710866   4.079   3.877  12.666 -0.6444 -1.5506 -2.9694
  732TMC3    C110867   3.978   3.955  12.449  0.3526  0.8768  0.4583
  732TMC3    C210868   3.904   4.003  12.344 -0.4361 -0.5317 -0.1796
  732TMC3    C310869   3.925   3.952  12.220 -0.2037  0.0961 -0.0431
  732TMC3    C410870   4.080   3.863  12.432  0.2842 -0.2722  0.3031
  732TMC3    C510871   4.112   3.831  12.301  0.0185 -0.3242  0.4342
  732TMC3    C610872   4.029   3.866  12.199 -0.2487  0.0765  0.4937
  732TMC3     C10873   3.928   3.986  12.582 -0.0489  0.2801 -0.0669
  732TMC3     O10874   3.831   4.063  12.583  0.0491 -0.5960  0.2749
  732TMC3     H10875   3.842   4.091  12.356  0.5018  0.2774 -1.2939
  732TMC3    H110876   4.144   3.834  12.515  1.4960  0.5006 -0.3449
  732TMC3    H210877   4.061   3.837  12.100 -1.9381  0.2339 -0.1046
  732TMC3    C710878   4.214   3.731  12.276 -0.4506  0.0645  0.4939
  732TMC3    C810879   3.838   3.984  12.110 -0.3229  0.3033  0.2139
  732TMC3    O110880   4.203   3.672  12.171  0.1356 -0.2231 -0.1803
  732TMC3    O210881   3.900   3.987  12.005 -0.0549  0.8277 -0.3679
  733TMC3    C110882   0.302   2.451  13.286  0.2862 -0.0307  0.7057
  733TMC3    C210883   0.290   2.572  13.217  0.4034 -0.0874  0.4686
  733TMC3    C310884   0.363   2.587  13.109  0.7868  0.2269  0.3634
  733TMC3    C410885   0.392   2.349  13.250  0.1253  0.0511  0.6250
  733TMC3    C510886   0.471   2.378  13.147 -0.5137 -0.7109 -0.8760
  733TMC3    C610887   0.463   2.494  13.076 -0.4208  0.0070 -0.0699
  733TMC3     C10888   0.188   2.405  13.356 -0.4169  0.3313  0.1773
  733TMC3     O10889   0.170   2.283  13.360 -0.0422 -0.1023 -0.4736
  733TMC3     H10890   0.213   2.646  13.234 -1.1097 -1.2400 -1.3909
  733TMC3    H110891   0.390   2.250  13.293  1.2732 -0.6764 -0.9901
  733TMC3    H210892   0.551   2.531  13.025  0.1441 -0.8926  0.2435
  733TMC3    C710893   0.562   2.273  13.099  0.1364 -0.1340  0.1860
  733TMC3    C810894   0.322   2.677  13.009 -0.3420 -0.1184  0.2120
  733TMC3    O110895   0.621   2.205  13.179 -0.2423 -0.0562 -0.1596
  733TMC3    O210896   0.253   2.775  13.038  0.2034  0.2462 -0.1422
  734MPD2     C10897   2.379   4.578  12.640  0.4504 -0.4154  0.0120
  734MPD2    C110898   2.246   4.595  12.609  0.5429 -0.3097  0.7921
  734MPD2    C210899   2.198   4.706  12.544 -0.0050  0.1366  0.0996
  734MPD2    C310900   2.279   0.068  12.501 -0.3344  0.0127  0.3642
  734MPD2    C410901   2.412   0.062  12.549 -0.3759 -0.0186  0.9321
  734MPD2    C510902   2.463   4.685  12.613 -0.2083  0.3619  0.1219
  734MPD2     H10903   2.095   4.706  12.508 -0.3230  1.8865  1.0129
  734MPD2    H110904   2.483   0.143  12.543 -0.7086  0.1597 -0.6614
  734MPD2    H210905   2.412   4.492  12.697  1.0878 -1.8356 -2.5115
  734MPD2    H310906   2.568   4.676  12.640 -0.5262  3.1911  2.3062
  734MPD2     N10907   2.227   0.172  12.421  0.2992  0.2118  0.2510
  734MPD2    H510908   2.128   0.177  12.401  0.4524 -0.1633 -0.6162
  734MPD2    N110909   2.152   4.493  12.626 -0.3827 -0.2101  0.0684
  734MPD2    H710910   2.055   4.522  12.615  0.1468  1.0801 -1.1326
  735TMC3    C110911   2.052   4.299  12.690  0.1272  0.0118  0.9293
  735TMC3    C210912   1.947   4.336  12.611 -0.3883  0.3250  0.0068
  735TMC3    C310913   1.882   4.240  12.540  0.2666 -0.1111  0.6108
  735TMC3    C410914   2.082   4.166  12.707 -0.4324 -0.2706 -0.1302
  735TMC3    C510915   2.016   4.075  12.628 -0.2976 -0.5018  0.2865
  735TMC3    C610916   1.916   4.106  12.543 -0.1183 -0.6800  0.4504
  735TMC3     C10917   2.167   4.386  12.702 -0.1961 -0.2512  0.6444
  735TMC3     O10918   2.266   4.340  12.761  0.3528 -0.1552  0.0336
  735TMC3     H10919   1.909   4.437  12.619 -0.3456  0.2626  0.9683
  735TMC3    H110920   2.162   4.133  12.772 -0.3852  1.0499  0.4850
  735TMC3    H210921   1.876   4.037  12.470 -3.2351  0.6120  0.9300
  735TMC3    C710922   2.112   3.988  12.562 -0.3792 -0.6750  0.0090
  735TMC3    C810923   1.847   4.274  12.408 -0.7539 -0.2067 -0.0441
  735TMC3    O110924   2.102   3.994  12.438  0.0612  0.3511  0.0286
  735TMC3    O210925   1.768   4.204  12.347  0.3417 -0.6188  0.1544
  736MPD2     C10926   2.411   3.814  12.647  0.3867  0.5128 -0.9145
  736MPD2    C110927   2.329   3.895  12.576 -0.4891 -0.5675 -0.8095
  736MPD2    C210928   2.383   3.955  12.460  0.5697  0.2870  0.6716
  736MPD2    C310929   2.508   3.938  12.422 -0.5069 -0.4590  0.3677
  736MPD2    C410930   2.587   3.846  12.490  0.0519 -0.3156 -0.0512
  736MPD2    C510931   2.534   3.783  12.600  0.2826 -0.0078  0.3956
  736MPD2     H10932   2.336   4.042  12.416  0.3744  0.1063  0.5198
  736MPD2    H110933   2.692   3.830  12.468  0.2699  0.6069  0.2776
  736MPD2    H210934   2.387   3.781  12.748  1.7227  1.5260 -0.2556
  736MPD2    H310935   2.598   3.717  12.657 -0.1312 -1.0206 -0.3176
  736MPD2     N10936   2.569   3.991  12.311  0.1782  0.0527 -0.6041
  736MPD2    H510937   2.662   3.952  12.298  0.1895  0.5396 -2.0023
  736MPD2    N110938   2.207   3.924  12.634  0.1498 -0.2363  0.0625
  736MPD2    H710939   2.181   3.897  12.728 -0.7709  1.7558  0.3807
  737TMC3    C110940   2.634   4.149  12.147 -0.2851 -0.0860 -0.0880
  737TMC3    C210941   2.645   4.286  12.139  0.2685 -0.2141  0.2163
  737TMC3    C310942   2.747   4.327  12.060 -0.1921  0.8275  0.7345
  737TMC3    C410943   2.725   4.064  12.096 -0.4192 -0.3784 -0.4741
  737TMC3    C510944   2.826   4.112  12.019 -0.2861 -0.5048  0.6041
  737TMC3    C610945   2.839   4.246  11.994  0.1597 -0.2191  0.7160
  737TMC3     C10946   2.531   4.096  12.234 -0.0481  0.3131  0.1451
  737TMC3     O10947   2.430   4.163  12.246  0.0387  0.4849 -0.1626
  737TMC3     H10948   2.560   4.345  12.170  0.4817 -0.2454  0.8596
  737TMC3    H110949   2.707   3.957  12.104 -1.2913 -0.4683 -3.4141
  737TMC3    H210950   2.920   4.273  11.927 -0.1065 -1.0505  0.0665
  737TMC3    C710951   2.885   4.011  11.927  0.0368 -0.4539  0.1277
  737TMC3    C810952   2.755   4.470  12.051  0.6722 -0.3612 -0.0121
  737TMC3    O110953   2.836   3.899  11.934 -0.2902  0.0499  0.1670
  737TMC3    O210954   2.680   4.537  12.121 -0.1348  0.3079  0.4213
  738MPD2     C10955   2.517   3.170  15.256  0.3938  0.7464  0.2227
  738MPD2    C110956   2.597   3.076  15.312  1.1286  0.5299 -0.3561
  738MPD2    C210957   2.720   3.119  15.357  0.1964  0.6938 -0.3073
  738MPD2    C310958   2.762   3.255  15.350  0.1825 -0.3484 -0.2647
  738MPD2    C410959   2.680   3.344  15.285 -0.5701 -0.2941  0.0054
  738MPD2    C510960   2.557   3.298  15.241 -0.0637  0.2051 -0.2270
  738MPD2     H10961   2.793   3.046  15.391  0.6556  2.0700  1.6261
  738MPD2    H110962   2.705   3.446  15.260  0.8928 -0.1638  1.9908
  738MPD2    H210963   2.414   3.152  15.228  0.4198  0.8198  0.0766
  738MPD2    H310964   2.484   3.363  15.194 -0.0411  0.6801  0.4073
  738MPD2     N10965   2.892   3.294  15.385 -0.3541 -0.0154  0.1416
  738MPD2    H510966   2.929   3.383  15.351  0.3253 -0.5571 -0.5466
  738MPD2    N110967   2.579   2.941  15.321  0.0440  0.5323  0.9160
  738MPD2    H710968   2.652   2.891  15.370 -0.9696 -0.1473  1.7478
  739TMC3    C110969   3.110   3.283  15.449  0.4198  0.4650  0.1591
  739TMC3    C210970   3.141   3.328  15.322  0.6674  0.0742 -0.3451
  739TMC3    C310971   3.271   3.362  15.294  0.6105 -0.3614 -0.6170
  739TMC3    C410972   3.202   3.278  15.545  0.4058 -0.4102 -0.2038
  739TMC3    C510973   3.326   3.331  15.519 -0.2450  0.3200 -0.6358
  739TMC3    C610974   3.366   3.373  15.395 -0.0990 -0.6075 -0.0162
  739TMC3     C10975   2.983   3.215  15.454 -0.0298 -0.7100 -0.7611
  739TMC3     O10976   2.969   3.128  15.541 -0.3266  0.5279 -0.2665
  739TMC3     H10977   3.078   3.316  15.234  1.0161 -3.0519 -0.1800
  739TMC3    H110978   3.174   3.227  15.637 -0.0885 -0.1233 -0.1950
  739TMC3    H210979   3.463   3.419  15.379 -0.6392  0.5324 -0.0154
  739TMC3    C710980   3.410   3.310  15.630  0.1607  0.2152 -1.2411
  739TMC3    C810981   3.310   3.399  15.155 -0.2917  0.1444 -0.6856
  739TMC3    O110982   3.349   3.309  15.737 -0.1325  0.5384  0.2890
  739TMC3    O210983   3.221   3.420  15.071 -0.3589 -0.0792 -0.2379
  740TMC3    C110984   3.625   0.110  14.608 -0.7452 -0.3857 -0.3643
  740TMC3    C210985   3.674   0.089  14.737 -0.2711  0.3137  0.1094
  740TMC3    C310986   3.798   0.029  14.754  0.3523 -0.3143 -0.1976
  740TMC3    C410987   3.690   0.062  14.493  0.4473  0.2863 -0.0950
  740TMC3    C510988   3.819   0.005  14.519  0.4006  0.0739  0.4293
  740TMC3    C610989   3.875   0.004  14.647  0.6417 -1.1103  0.1881
  740TMC3     C10990   3.486   0.155  14.596  0.2690  0.4928  0.1870
  740TMC3     O10991   3.453   0.245  14.520  0.0778 -0.9069  0.2018
  740TMC3     H10992   3.615   0.102  14.827 -0.3114  0.5094  0.0541
  740TMC3    H110993   3.644   0.082  14.396  2.6072  1.0053 -0.9657
  740TMC3    H210994   3.982   4.726  14.654  1.1377  1.4717 -0.2759
  740TMC3    C710995   3.900   4.693  14.412  0.1168 -0.3042 -0.0371
  740TMC3    C810996   3.840   4.726  14.885  0.5028 -0.6197  0.7965
  740TMC3    O110997   4.014   4.657  14.441 -0.1111  0.0026  0.4048
  740TMC3    O210998   3.761   0.008  14.977 -0.3023  0.5051 -0.2209
  741TMC3    C110999   3.177   3.943  14.845 -0.1220  0.7066  0.8611
  741TMC3    C211000   3.112   3.862  14.766 -0.1262  0.0996  0.3085
  741TMC3    C311001   3.067   3.741  14.820  0.6565  0.7176  0.3462
  741TMC3    C411002   3.236   3.899  14.957 -0.1068  0.3354 -0.4898
  741TMC3    C511003   3.208   3.778  15.002  0.1023  0.1330  0.3054
  741TMC3    C611004   3.112   3.698  14.943 -0.6478  0.0347  0.1648
  741TMC3     C11005   3.208   4.077  14.794 -0.2211 -0.2226  0.0280
  741TMC3     O11006   3.113   4.128  14.736 -0.5800  0.0204 -0.1740
  741TMC3     H11007   3.077   3.904  14.672 -0.3455 -0.0432  0.3253
  741TMC3    H111008   3.291   3.967  15.021 -2.0350  0.1702  1.3297
  741TMC3    H211009   3.078   3.603  14.982  1.8170 -0.7804  0.3394
  741TMC3    C711010   3.251   3.753  15.138  0.4897 -0.3049 -0.7079
  741TMC3    C811011   3.015   3.640  14.723  0.2279  0.0859 -0.3573
  741TMC3    O111012   3.161   3.727  15.218  0.0940 -0.1237 -0.3175
  741TMC3    O211013   3.007   3.695  14.613  0.4632 -0.6162  0.4274
  742TMC3    C111014   3.088   2.108  15.560  0.7449  0.2606  0.7897
  742TMC3    C211015   2.987   2.162  15.476  0.2608 -0.7967 -0.3511
  742TMC3    C311016   3.033   2.204  15.357 -0.5910  0.2635 -1.0976
  742TMC3    C411017   3.223   2.114  15.534  0.2284  0.4614 -0.5654
  742TMC3    C511018   3.260   2.196  15.432  0.1530 -0.5431  0.6769
  742TMC3    C611019   3.167   2.237  15.342  0.0964 -0.1380 -0.6585
  742TMC3     C11020   3.032   2.003  15.640 -0.3108 -0.3242  0.2834
  742TMC3     O11021   2.927   1.956  15.602 -0.2735 -0.2693 -0.6597
  742TMC3     H11022   2.882   2.158  15.505  0.5372  0.0239  0.7643
  742TMC3    H111023   3.291   2.062  15.601  0.1926  1.7490  0.4847
  742TMC3    H211024   3.203   2.284  15.251  1.1824 -0.3483 -0.3412
  742TMC3    C711025   3.403   2.218  15.419 -0.3308 -0.3034 -0.3566
  742TMC3    C811026   2.993   2.117  15.243 -0.2468  0.6522 -0.3206
  742TMC3    O111027   3.432   2.237  15.301  0.3219  0.1502 -0.1034
  742TMC3    O211028   3.036   2.151  15.138  0.5348  0.1291 -0.4187
  743MPD2     C11029   0.323   4.210   0.930 -0.5298  0.0517 -0.0972
  743MPD2    C111030   0.429   4.123   0.956 -0.4447 -0.5603  0.2728
  743MPD2    C211031   0.504   4.132   1.072  0.7953 -0.0714 -0.0031
  743MPD2    C311032   0.488   4.233   1.160  0.2223  0.1588 -0.2527
  743MPD2    C411033   0.390   4.329   1.132  0.8616  0.6895  0.5496
  743MPD2    C511034   0.304   4.313   1.023 -0.3179 -0.3146 -0.7052
  743MPD2     H11035   0.577   4.053   1.082 -0.8960 -1.4993  1.0932
  743MPD2    H111036   0.360   4.406   1.202 -1.5216  1.2845 -1.1348
  743MPD2    H211037   0.271   4.207   0.835  0.4467  0.9758 -0.6527
  743MPD2    H311038   0.222   4.383   1.008  0.5247  0.7836 -0.2047
  743MPD2     N11039   0.575   4.242   1.268 -0.1577  0.3764 -0.4102
  743MPD2    H511040   0.638   4.164   1.280 -0.9751 -0.0470  1.1885
  743MPD2    N111041   0.439   4.017   0.865 -0.0843 -0.2085  0.3798
  743MPD2    H711042   0.382   4.017   0.782 -0.2728  0.3287  0.5095
  744TMC3    C111043   0.529   3.813   0.754  0.2060  0.5672 -0.1467
  744TMC3    C211044   0.459   3.841   0.634  0.0145  0.4821 -0.4754
  744TMC3    C311045   0.515   3.800   0.520  0.2467  0.4700  0.0749
  744TMC3    C411046   0.645   3.741   0.756 -0.2202 -0.5988  0.8089
  744TMC3    C511047   0.690   3.695   0.632 -0.2560 -0.0857  0.2599
  744TMC3    C611048   0.631   3.725   0.512 -0.0137 -0.2828  0.0405
  744TMC3     C11049   0.533   3.917   0.860  0.9336 -0.5231  0.0564
  744TMC3     O11050   0.628   3.897   0.936 -0.1611  0.7858 -0.1978
  744TMC3     H11051   0.371   3.904   0.623 -1.0758 -1.0987 -0.8457
  744TMC3    H111052   0.693   3.714   0.849 -0.7940 -2.3102  0.6085
  744TMC3    H211053   0.688   3.725   0.419  1.5269  2.7905  0.9870
  744TMC3    C711054   0.808   3.613   0.640 -0.2627  0.0954  0.3199
  744TMC3    C811055   0.463   3.875   0.403 -0.2548  0.0016 -0.3220
  744TMC3    O111056   0.881   3.623   0.736 -0.4318  0.0115 -0.3191
  744TMC3    O211057   0.368   3.950   0.417  0.1310 -0.3122  0.3670
  745TMC3    C111058   3.892   2.119  13.647 -0.0624  0.2559 -0.5644
  745TMC3    C211059   3.810   2.186  13.739 -0.3437  0.1284 -0.6280
  745TMC3    C311060   3.683   2.207  13.682  0.2666  0.2214  0.3971
  745TMC3    C411061   3.860   2.083  13.518  0.4747  0.7043 -0.7614
  745TMC3    C511062   3.738   2.110  13.473  0.3160  0.1066 -0.2489
  745TMC3    C611063   3.641   2.163  13.558 -0.5076  0.2357  0.4228
  745TMC3     C11064   4.035   2.141  13.663 -0.0042 -0.0944  0.4461
  745TMC3     O11065   4.116   2.053  13.622  0.1115  0.6646  0.2802
  745TMC3     H11066   3.848   2.199  13.839 -0.3951 -1.5575 -0.4005
  745TMC3    H111067   3.938   2.042  13.456  0.4933  1.9765 -1.5701
  745TMC3    H211068   3.538   2.175  13.529 -0.4727  2.5157  1.2630
  745TMC3    C711069   3.724   2.170  13.347 -0.1418 -0.3565  0.3138
  745TMC3    C811070   3.582   2.258  13.772 -0.0704 -0.0265  0.7147
  745TMC3    O111071   3.615   2.163  13.292 -0.4221  0.4047 -0.4955
  745TMC3    O211072   3.467   2.242  13.753  0.3230  0.2530  0.5214
  746TMC3    C111073   1.633   3.947  11.255 -0.2952  0.2048  0.1044
  746TMC3    C211074   1.692   3.899  11.146 -0.5194  0.2694  0.6879
  746TMC3    C311075   1.640   3.794  11.086 -0.2746 -0.2190 -0.0962
  746TMC3    C411076   1.527   3.886  11.308 -0.0760  0.2279 -0.5008
  746TMC3    C511077   1.482   3.770  11.253  0.0360  0.2408  0.5882
  746TMC3    C611078   1.539   3.731  11.136 -0.0263 -0.4873 -0.1196
  746TMC3     C11079   1.653   4.084  11.296  0.0245 -0.5047 -1.5887
  746TMC3     O11080   1.558   4.139  11.354  0.5848  0.0718  0.1026
  746TMC3     H11081   1.777   3.946  11.098  0.2516 -1.7584  0.0851
  746TMC3    H111082   1.477   3.934  11.392 -1.0092  1.2720 -1.6703
  746TMC3    H211083   1.481   3.653  11.087  1.4233 -2.8488  1.9427
  746TMC3    C711084   1.345   3.755  11.255 -0.0761  0.4653  0.4120
  746TMC3    C811085   1.643   3.804  10.945 -0.2819  0.5198  0.1758
  746TMC3    O111086   1.276   3.799  11.166  0.1983  0.2496  0.1436
  746TMC3    O211087   1.596   3.703  10.885 -0.0171 -0.1790  0.2358
  747TMC3    C111088   3.640   4.145  11.184 -0.2355  0.0966 -0.8667
  747TMC3    C211089   3.512   4.120  11.233 -0.0211  0.1941 -0.0342
  747TMC3    C311090   3.501   4.094  11.370 -0.2940 -0.4417 -0.7767
  747TMC3    C411091   3.748   4.152  11.263  0.1561 -0.4245 -0.4581
  747TMC3    C511092   3.730   4.120  11.395  0.2434  0.4262 -0.5354
  747TMC3    C611093   3.607   4.097  11.453  0.7997 -0.5263  0.2497
  747TMC3     C11094   3.666   4.174  11.043 -0.3929  0.0895 -0.2966
  747TMC3     O11095   3.742   4.266  11.012 -0.2852 -0.2434 -0.2130
  747TMC3     H11096   3.425   4.113  11.169 -0.8547 -0.6740  1.2044
  747TMC3    H111097   3.843   4.174  11.216  0.0756 -0.0252 -0.4327
  747TMC3    H211098   3.588   4.069  11.556  2.1923  0.3713  0.7582
  747TMC3    C711099   3.848   4.107  11.475 -0.7735 -0.7278 -0.1032
  747TMC3    C811100   3.399   4.001  11.404  0.3703  0.3420 -0.1083
  747TMC3    O111101   3.848   4.148  11.586  0.2910  0.4179  0.0217
  747TMC3    O211102   3.387   3.901  11.337 -0.1592  0.2648 -0.0766
  748MPD2     C11103   4.491   0.086   1.033  0.2657  0.6408  0.6491
  748MPD2    C111104   4.566   4.725   0.974  0.2591  1.8065 -1.0823
  748MPD2    C211105   4.703   0.002   0.954  0.2309 -0.7616  0.7327
  748MPD2    C311106   0.032   0.114   1.001 -0.2156  0.0972 -0.4136
  748MPD2    C411107   4.694   0.204   1.070 -0.5273  0.1744  0.1994
  748MPD2    C511108   4.563   0.190   1.088  0.4417 -0.2892  0.1369
  748MPD2     H11109   0.019   4.676   0.889  2.3142  0.2361  1.5169
  748MPD2    H111110   4.734   0.298   1.107 -0.5142  1.5085 -3.1911
  748MPD2    H211111   4.386   0.076   1.059 -0.4926 -0.5674 -2.8990
  748MPD2    H311112   4.504   0.267   1.135 -2.4556 -1.5347 -1.4274
  748MPD2     N11113   0.169   0.118   0.990 -0.2147 -0.1485 -0.9334
  748MPD2    H511114   0.208   0.037   0.942  2.5551  1.1357 -0.8370
  748MPD2    N111115   4.491   4.629   0.900  0.1291  0.6611 -0.0560
  748MPD2    H711116   4.390   4.639   0.899  0.0446 -0.0727  1.2882
  749TMC3    C111117   0.390   0.183   1.010 -0.1616 -0.3848  0.1924
  749TMC3    C211118   0.423   0.051   1.036  0.3314 -0.5699 -0.4069
  749TMC3    C311119   0.554   0.023   1.046 -0.2049 -0.7643  0.2995
  749TMC3    C411120   0.479   0.285   0.997  0.9655  0.0841 -0.2740
  749TMC3    C511121   0.609   0.252   0.988 -0.4891  0.2889  0.1856
  749TMC3    C611122   0.648   0.124   1.023  0.0490  0.6559 -0.3533
  749TMC3     C11123   0.251   0.218   1.039  0.7231  0.2887 -0.1786
  749TMC3     O11124   0.227   0.319   1.101  0.1861 -0.2616 -0.9258
  749TMC3     H11125   0.355   4.715   1.071 -0.6540  0.3984 -0.1938
  749TMC3    H111126   0.447   0.389   0.989  1.0416  0.1717  0.5698
  749TMC3    H211127   0.752   0.096   1.015  0.4970  2.1995  0.1663
  749TMC3    C711128   0.707   0.353   0.954  0.2219  0.0569  0.0285
  749TMC3    C811129   0.587   4.636   1.004 -0.1752 -0.1588 -0.5323
  749TMC3    O111130   0.671   0.469   0.953  0.3286 -0.5157  0.2687
  749TMC3    O211131   0.534   4.605   0.896  0.0381  0.1338  0.0581
  750MPD2     C11132   1.464   1.188  11.390 -0.0415  0.0847  0.8480
  750MPD2    C111133   1.395   1.114  11.482 -0.1001 -0.0136  0.0851
  750MPD2    C211134   1.369   0.976  11.465 -0.0472  0.6148  0.2002
  750MPD2    C311135   1.411   0.912  11.348  0.1754  0.2526 -0.1998
  750MPD2    C411136   1.478   0.983  11.250  0.1441 -0.9512 -0.2793
  750MPD2    C511137   1.509   1.117  11.278 -0.5100 -0.1785  0.1122
  750MPD2     H11138   1.323   0.914  11.540 -1.8322 -0.3519 -1.6907
  750MPD2    H111139   1.517   0.944  11.156  1.8756 -3.5274  1.5154
  750MPD2    H211140   1.494   1.292  11.400  0.5987  0.1042 -1.2518
  750MPD2    H311141   1.573   1.173  11.211 -0.2985 -0.1391  0.3474
  750MPD2     N11142   1.398   0.775  11.328 -0.7135 -0.6783  0.0623
  750MPD2    H511143   1.454   0.728  11.257 -1.2801  1.3199 -1.7105
  750MPD2    N111144   1.339   1.190  11.591  0.7701  0.4410  0.1931
  750MPD2    H711145   1.345   1.291  11.594 -1.2358  0.5831 -0.2218
  751TMC3    C111146   1.279   0.574  11.313 -0.1238  1.1813  0.4566
  751TMC3    C211147   1.144   0.536  11.308 -0.4468  0.4580 -0.2984
  751TMC3    C311148   1.103   0.447  11.208 -0.2066  0.0994 -0.0712
  751TMC3    C411149   1.365   0.533  11.215 -0.8494 -0.5938  0.0055
  751TMC3    C511150   1.320   0.445  11.117 -0.2445 -0.7450 -0.1018
  751TMC3    C611151   1.188   0.401  11.115  0.4589  0.0804  0.5836
  751TMC3     C11152   1.304   0.698  11.384 -0.0923 -0.5862  0.6696
  751TMC3     O11153   1.218   0.731  11.467 -0.0729  0.7889 -0.3954
  751TMC3     H11154   1.076   0.575  11.383  0.8333 -0.2920  1.2672
  751TMC3    H111155   1.470   0.551  11.232 -0.8000 -0.4570 -0.4375
  751TMC3    H211156   1.154   0.338  11.033  0.4580  0.5752  0.2043
  751TMC3    C711157   1.417   0.391  11.028  0.1977 -0.8282  0.1848
  751TMC3    C811158   0.971   0.385  11.210  0.1545  0.5451 -0.4848
  751TMC3    O111159   1.517   0.453  11.011 -0.3662 -0.3744  0.3802
  751TMC3    O211160   0.963   0.284  11.134  0.1568 -0.0205  0.5193
  752TMC3    C111161   4.511   1.026  17.250 -0.4421 -0.1435  0.4817
  752TMC3    C211162   4.586   0.950  17.339 -0.2935  0.2705 -0.2913
  752TMC3    C311163   4.528   0.930  17.463  0.2468 -0.5793 -0.2078
  752TMC3    C411164   4.396   1.088  17.275  0.4494  0.2595 -0.0010
  752TMC3    C511165   4.359   1.072  17.403  0.2818 -0.2819 -1.1186
  752TMC3    C611166   4.410   0.987  17.498  0.2673  0.2531 -0.5512
  752TMC3     C11167   4.591   1.083  17.139  0.5124 -0.2680  0.7498
  752TMC3     O11168   4.706   1.099  17.171  0.6238 -0.4716 -0.0010
  752TMC3     H11169   4.683   0.914  17.308  0.2403  0.1949  1.4586
  752TMC3    H111170   4.350   1.145  17.195 -2.7125  0.6150  2.0600
  752TMC3    H211171   4.366   0.964  17.594  2.4721  2.1923  0.9281
  752TMC3    C711172   4.245   1.148  17.445 -0.5132  0.0818  0.2619
  752TMC3    C811173   4.601   0.884  17.579  0.5556  0.9145 -0.2911
  752TMC3    O111174   4.259   1.249  17.507  0.1012 -0.4868  0.0674
  752TMC3    O211175   4.569   0.931  17.687 -0.5910 -0.3755 -0.0633
  753TMC3    C111176   2.015   1.874  13.269  0.0200 -0.0848 -0.0625
  753TMC3    C211177   2.060   1.849  13.397 -0.4061  0.0620 -0.0750
  753TMC3    C311178   2.111   1.731  13.430  0.0112 -0.0741  0.1807
  753TMC3    C411179   2.002   1.774  13.187  0.0273 -0.2767  0.2590
  753TMC3    C511180   2.027   1.650  13.236 -0.1086 -0.2283 -0.1562
  753TMC3    C611181   2.089   1.624  13.353 -0.0597  0.1007 -0.7248
  753TMC3     C11182   1.952   2.000  13.225 -0.4684 -0.2826  0.0695
  753TMC3     O11183   1.874   1.997  13.131 -0.8914  0.3249 -0.1162
  753TMC3     H11184   2.046   1.920  13.477 -0.2445 -1.5456  1.3845
  753TMC3    H111185   1.963   1.783  13.086  0.6605 -0.4854 -0.0020
  753TMC3    H211186   2.123   1.526  13.384 -1.0265  0.1244  0.4083
  753TMC3    C711187   1.955   1.542  13.166  0.1993 -0.1515  0.7910
  753TMC3    C811188   2.141   1.706  13.568 -0.0590 -0.6179  0.8425
  753TMC3    O111189   1.905   1.573  13.058 -0.1096  0.1441  0.0146
  753TMC3    O211190   2.132   1.598  13.614 -0.1068  0.4691 -0.5078
  754MPD2     C11191   0.961   0.680  13.456 -0.0793  0.3807  0.1587
  754MPD2    C111192   0.895   0.562  13.450  0.2546  1.4670  0.5698
  754MPD2    C211193   0.785   0.561  13.365 -0.2566 -0.2223  0.6936
  754MPD2    C311194   0.736   0.673  13.310 -0.3566 -0.5721 -0.3700
  754MPD2    C411195   0.803   0.787  13.321  0.1835 -0.9450  0.0057
  754MPD2    C511196   0.923   0.790  13.390  0.6159  0.3277 -0.9157
  754MPD2     H11197   0.743   0.464  13.341  1.4708 -0.7115 -0.3762
  754MPD2    H111198   0.764   0.882  13.287 -0.7899 -1.8185 -1.3613
  754MPD2    H211199   1.058   0.683  13.504 -0.7410  1.1915  1.4527
  754MPD2    H311200   0.979   0.883  13.400 -1.6055  1.5394  0.3707
  754MPD2     N11201   0.610   0.677  13.245 -0.4165  0.4914 -0.1576
  754MPD2    H511202   0.569   0.767  13.221 -0.1943  0.2863 -1.3049
  754MPD2    N111203   0.952   0.448  13.515  0.3459  0.3620 -0.0686
  754MPD2    H711204   1.052   0.459  13.527  0.6519 -0.7907 -1.5065
  755MPD2     C11205   0.118   1.236  13.544  0.2008 -0.5859 -0.1788
  755MPD2    C111206   0.060   1.129  13.606 -0.0760  0.1026  0.0409
  755MPD2    C211207   0.098   1.001  13.570  0.5558 -0.2048  0.4810
  755MPD2    C311208   0.192   0.988  13.472  0.7222 -0.3220 -0.2680
  755MPD2    C411209   0.262   1.097  13.425  0.1340  0.0660  0.4032
  755MPD2    C511210   0.223   1.224  13.456  0.1581  0.4743  0.8233
  755MPD2     H11211   0.033   0.921  13.603  0.1124 -0.3927 -0.8371
  755MPD2    H111212   0.345   1.088  13.356 -1.7692 -0.9516 -1.7462
  755MPD2    H211213   0.097   1.340  13.565 -2.7272 -0.9600 -1.2021
  755MPD2    H311214   0.270   1.313  13.416  0.5647 -0.3709 -0.5824
  755MPD2     N11215   0.218   0.861  13.412 -0.0271  0.2135  0.5078
  755MPD2    H511216   0.292   0.858  13.342  0.2521  2.6850  0.6856
  755MPD2    N111217   4.705   1.141  13.706  0.3986  0.0017 -0.6799
  755MPD2    H711218   4.658   1.057  13.737 -1.2579  1.6372  1.1760
  756MPD2     C11219   0.692   1.995  10.139  0.6811  0.0953 -0.3938
  756MPD2    C111220   0.630   1.930  10.243  0.2890  0.0911 -0.3240
  756MPD2    C211221   0.505   1.880  10.220  0.0211  0.5893  0.0410
  756MPD2    C311222   0.434   1.900  10.103 -0.0005 -0.6748 -0.3124
  756MPD2    C411223   0.496   1.962  10.001 -0.6961  0.7474  0.2696
  756MPD2    C511224   0.625   2.008  10.017 -0.3630  0.3066  0.3727
  756MPD2     H11225   0.453   1.837  10.305 -2.2677  2.6080 -0.3432
  756MPD2    H111226   0.458   1.968   9.900  3.6767  0.3298 -1.4231
  756MPD2    H211227   0.792   2.036  10.146  0.5192  0.7781 -2.0083
  756MPD2    H311228   0.669   2.047   9.926 -2.7385  0.4794 -0.7008
  756MPD2     N11229   0.304   1.841  10.086  1.0108 -0.4196 -0.0064
  756MPD2    H511230   0.281   1.769  10.155  1.5456 -0.4948  0.0965
  756MPD2    N111231   0.687   1.905  10.366 -0.2579 -0.5873 -0.0736
  756MPD2    H711232   0.635   1.838  10.421 -1.8157  1.0782  0.4673
  757MPD2     C11233   0.085   1.065  10.353  0.7059 -0.2084 -0.0531
  757MPD2    C111234   0.199   1.137  10.335  0.3727 -0.0970  0.0177
  757MPD2    C211235   0.195   1.277  10.313 -0.5988 -0.5553 -0.2522
  757MPD2    C311236   0.069   1.330  10.295  0.0650 -0.1013 -0.3149
  757MPD2    C411237   4.691   1.258  10.314  0.3528  0.0798 -0.1408
  757MPD2    C511238   4.702   1.125  10.334  0.3625 -0.5891  0.1572
  757MPD2     H11239   0.283   1.339  10.296 -1.0052  0.4017  1.1423
  757MPD2    H111240   4.592   1.300  10.296  0.9538  0.3414 -2.8900
  757MPD2    H211241   0.084   0.964  10.391  1.4827 -0.9546 -2.0328
  757MPD2    H311242   4.614   1.063  10.350  0.0555 -0.2264 -0.1339
  757MPD2     N11243   0.060   1.465  10.253 -0.0389 -0.4946 -0.5993
  757MPD2    H511244   0.141   1.526  10.261 -1.6292  1.3548  1.5000
  757MPD2    N111245   0.316   1.064  10.336 -0.0537 -0.3437 -0.0260
  757MPD2    H711246   0.316   0.963  10.350 -0.3031 -0.2203  0.8831
  758MPD2     C11247   0.652   0.011  16.023  0.0873  0.0080 -0.1036
  758MPD2    C111248   0.699   4.697  16.137 -0.5654 -0.2375  0.3025
  758MPD2    C211249   0.707   0.036  16.246  0.0983  0.3763  0.2255
  758MPD2    C311250   0.654   0.163  16.254  0.5601  0.4179 -0.3551
  758MPD2    C411251   0.606   0.215  16.139 -0.1876  0.0899 -0.6995
  758MPD2    C511252   0.612   0.145  16.023  0.8363  0.2011  0.5102
  758MPD2     H11253   0.756   4.733  16.332  1.6822  0.1130 -0.8112
  758MPD2    H111254   0.577   0.320  16.135 -0.0189  0.1799  0.4283
  758MPD2    H211255   0.669   4.706  15.926 -3.4467 -0.7498 -0.3762
  758MPD2    H311256   0.577   0.186  15.929 -1.5282  2.3463  2.3591
  758MPD2     N11257   0.649   0.244  16.366 -0.1415 -0.3186 -0.1515
  758MPD2    H511258   0.613   0.339  16.363 -1.8076 -0.9290  0.3843
  758MPD2    N111259   0.754   4.563  16.134 -0.0865 -0.5112  0.0317
  758MPD2    H711260   0.765   4.520  16.043 -0.2238 -0.8702  0.1844
  759MPD2     C11261   4.050   3.547  10.998 -0.4917 -0.1062  0.5448
  759MPD2    C111262   4.089   3.417  10.958  0.4699  0.7906 -0.1609
  759MPD2    C211263   4.219   3.383  10.931 -0.2764  0.3367  0.2465
  759MPD2    C311264   4.313   3.485  10.949  0.0150 -1.2114  0.1100
  759MPD2    C411265   4.282   3.614  10.996  0.2902 -0.1245  1.0714
  759MPD2    C511266   4.149   3.635  11.025 -0.5208  0.3133 -0.6397
  759MPD2     H11267   4.244   3.287  10.886 -0.4181  1.0950 -1.4538
  759MPD2    H111268   4.356   3.692  11.000  0.3870 -0.1927  0.6625
  759MPD2    H211269   3.958   3.576  11.047 -0.1745 -1.6465  2.0251
  759MPD2    H311270   4.124   3.720  11.089  3.3476  0.5163  0.6543
  759MPD2     N11271   4.446   3.438  10.923 -0.0896  0.0756 -0.7613
  759MPD2    H511272   4.452   3.341  10.894 -0.6558  0.0328 -0.7244
  759MPD2    N111273   3.998   3.320  10.946  0.5120  0.8997 -0.1063
  759MPD2    H711274   4.027   3.231  10.908 -0.5512  0.7828 -0.6444
  760MPD2     C11275   4.169   0.781  11.424 -0.3434 -0.9971  0.3304
  760MPD2    C111276   4.210   0.763  11.548 -0.0669  0.5089 -0.3003
  760MPD2    C211277   4.310   0.675  11.569  0.2274 -0.1367  0.2517
  760MPD2    C311278   4.375   0.613  11.466  0.3685  0.5494  0.1323
  760MPD2    C411279   4.337   0.637  11.336 -0.1211  0.5970 -0.3380
  760MPD2    C511280   4.228   0.723  11.313 -1.0744 -0.1280  0.1431
  760MPD2     H11281   4.350   0.653  11.667  2.4098  1.1281 -0.3694
  760MPD2    H111282   4.389   0.591  11.253 -0.5030 -0.2854 -0.0991
  760MPD2    H211283   4.088   0.851  11.406  0.9323  0.9512  2.1446
  760MPD2    H311284   4.190   0.739  11.213  0.9615  0.0642 -0.5863
  760MPD2     N11285   4.489   0.528  11.483 -0.6903  0.2953 -0.0600
  760MPD2    H511286   4.544   0.490  11.406 -1.4395  1.5334 -1.2070
  760MPD2    N111287   4.149   0.841  11.648  0.6026  0.2663  0.5395
  760MPD2    H711288   4.060   0.885  11.623  0.3750 -0.6717 -0.2959
  761MPD2     C11289   0.608   0.212  11.515  0.0624 -0.4775 -0.6517
  761MPD2    C111290   0.627   0.193  11.382  0.1438  0.8968 -0.1580
  761MPD2    C211291   0.712   0.273  11.304 -0.2479  0.0614 -0.3903
  761MPD2    C311292   0.782   0.372  11.366 -0.4887 -0.1451 -0.6530
  761MPD2    C411293   0.751   0.398  11.493 -0.8168  0.0426  0.1645
  761MPD2    C511294   0.663   0.318  11.571 -0.0091 -0.1185  0.2467
  761MPD2     H11295   0.727   0.255  11.198 -1.6315 -3.2054 -0.0144
  761MPD2    H111296   0.798   0.486  11.535 -1.4713  0.0787  0.8254
  761MPD2    H211297   0.561   0.136  11.577 -1.4201 -0.9679 -2.3624
  761MPD2    H311298   0.647   0.327  11.678  1.9869  0.6214  0.4720
  761MPD2     N11299   0.888   0.444  11.306 -0.0338 -0.2450  0.8755
  761MPD2    H511300   0.913   0.533  11.348 -0.3880  0.9088 -1.3732
  761MPD2    N111301   0.585   0.076  11.337 -0.5644  0.6402 -0.3900
  761MPD2    H711302   0.553   0.013  11.410 -1.2041  1.0639 -0.3036
  762MPD2     C11303   1.189   4.247  11.155  0.2426 -0.2373  0.2881
  762MPD2    C111304   1.119   4.359  11.106 -0.2938 -0.7114 -0.0995
  762MPD2    C211305   1.189   4.435  11.008  0.2712 -0.9980  0.0806
  762MPD2    C311306   1.319   4.405  10.970  1.0630 -0.5666 -0.2420
  762MPD2    C411307   1.381   4.297  11.034  0.5446 -0.6147  0.1663
  762MPD2    C511308   1.319   4.220  11.127  0.4116  0.8187 -0.5298
  762MPD2     H11309   1.147   4.523  10.960 -0.7244 -2.4169 -1.6726
  762MPD2    H111310   1.480   4.264  11.003  1.1693  2.6978 -1.3268
  762MPD2    H211311   1.136   4.179  11.220  2.0958 -1.5319  0.4370
  762MPD2    H311312   1.365   4.125  11.152  1.4173  1.9849  2.0331
  762MPD2     N11313   1.382   4.500  10.881 -0.1953  0.4517 -0.6445
  762MPD2    H511314   1.320   4.558  10.826  1.1301  1.5308 -0.9980
  762MPD2    N111315   0.989   4.384  11.151 -0.2847  0.5134 -0.1748
  762MPD2    H711316   0.948   4.320  11.218  0.0703  2.0595  1.5364
  763MPD2     C11317   2.233   0.749  16.302  0.1468  0.1638  0.5146
  763MPD2    C111318   2.326   0.772  16.202 -0.2683  0.1557 -0.3128
  763MPD2    C211319   2.381   0.897  16.203 -0.2645  0.1932 -0.1971
  763MPD2    C311320   2.351   1.003  16.291  0.0023  0.3548  0.3090
  763MPD2    C411321   2.256   0.973  16.391 -0.0346  0.9106  0.2838
  763MPD2    C511322   2.211   0.848  16.394  0.4232  0.0771  0.7114
  763MPD2     H11323   2.446   0.919  16.119  0.3412 -0.0253  0.2091
  763MPD2    H111324   2.215   1.045  16.461 -0.2518 -0.2310  1.3416
  763MPD2    H211325   2.183   0.653  16.312  1.4287 -0.5943 -0.4272
  763MPD2    H311326   2.134   0.819  16.465  1.7127 -3.0700  0.8426
  763MPD2     N11327   2.406   1.136  16.296  0.1887 -0.1604 -0.0362
  763MPD2    H511328   2.365   1.202  16.361  1.2602  1.6659 -1.2216
  763MPD2    N111329   2.369   0.674  16.109  0.3134  0.7041  0.5734
  763MPD2    H711330   2.428   0.715  16.037  0.2118  3.0779  1.8284
  764MPD2     C11331   0.650   1.844  17.381 -0.1113 -0.0148 -0.6840
  764MPD2    C111332   0.517   1.879  17.404 -0.6645 -0.4808 -0.9412
  764MPD2    C211333   0.462   1.879  17.534  0.2252 -0.1808  0.2206
  764MPD2    C311334   0.545   1.826  17.639 -0.7894  0.1903 -0.5412
  764MPD2    C411335   0.678   1.790  17.610  0.3972 -0.4530 -0.5003
  764MPD2    C511336   0.737   1.805  17.486  0.3331 -0.5018 -1.2037
  764MPD2     H11337   0.366   1.926  17.552  1.1242  0.9848  1.9263
  764MPD2    H111338   0.752   1.748  17.677  1.5779  2.1474 -0.2179
  764MPD2    H211339   0.695   1.863  17.284 -1.1663 -1.4034 -1.4442
  764MPD2    H311340   0.837   1.764  17.482  0.5057 -0.3799  1.4054
  764MPD2     N11341   0.491   1.808   0.008  0.0256  0.3002 -0.1191
  764MPD2    H511342   0.398   1.842   0.027  0.6703  2.6342 -1.1820
  764MPD2    N111343   0.446   1.924  17.293 -0.7665  0.4345 -0.4538
  764MPD2    H711344   0.496   1.915  17.205 -0.7953 -2.7862 -0.1578
  765MPD2     C11345   0.227   4.204  16.051  1.0578  0.3460 -0.6040
  765MPD2    C111346   0.316   4.290  15.997  0.3695  0.1423 -0.1756
  765MPD2    C211347   0.448   4.248  15.974 -0.4857 -0.1112 -0.1991
  765MPD2    C311348   0.477   4.113  15.992 -0.7146  0.4555  0.7317
  765MPD2    C411349   0.378   4.027  16.038 -0.5691 -0.0758  0.2774
  765MPD2    C511350   0.260   4.074  16.082  0.6843  0.0693 -0.2491
  765MPD2     H11351   0.517   4.317  15.929  0.9261  0.3706  2.6784
  765MPD2    H111352   0.386   3.919  16.044  2.5500 -0.0063 -2.7225
  765MPD2    H211353   0.135   4.248  16.087  1.5912  1.7391 -0.9245
  765MPD2    H311354   0.181   4.004  16.107  0.1290  0.4347 -0.9721
  765MPD2     N11355   0.602   4.053  15.958 -0.1471 -0.2994 -0.0753
  765MPD2    H511356   0.605   3.957  15.991 -2.3401  0.2376  1.6990
  765MPD2    N111357   0.259   4.416  15.960 -0.2080 -0.2168  0.1266
  765MPD2    H711358   0.161   4.425  15.983 -0.2078 -0.0974  0.0778
  766MPD2     C11359   4.501   4.696  15.455 -0.2619 -0.5129  0.1294
  766MPD2    C111360   4.639   4.683  15.445  0.4726  0.4234 -0.0096
  766MPD2    C211361   4.696   4.688  15.320 -0.0965  0.0017  1.1368
  766MPD2    C311362   4.626   4.684  15.203 -0.0236 -0.1395 -0.3755
  766MPD2    C411363   4.490   4.692  15.214  0.2200 -0.0513 -0.3342
  766MPD2    C511364   4.431   4.701  15.337  0.0947  0.6393  0.4937
  766MPD2     H11365   0.064   4.687  15.323 -0.0466 -1.4726 -1.2717
  766MPD2    H111366   4.419   4.694  15.132  1.0892  2.0688 -1.0482
  766MPD2    H211367   4.446   4.697  15.549  1.8865  0.5181  1.3638
  766MPD2    H311368   4.323   4.705  15.346 -0.2827 -1.9197 -3.0424
  766MPD2     N11369   4.697   4.695  15.077  0.3774 -0.0811 -0.1680
  766MPD2    H511370   4.638   4.723  14.999 -0.0590 -1.5982 -0.3818
  766MPD2    N111371   4.726   4.690  15.557  0.1894  0.0886 -0.6026
  766MPD2    H711372   0.081   4.723  15.549 -0.4217  1.5010 -2.0577
  767MPD2     C11373   4.291   0.222  15.175  0.0357  0.6489 -0.2720
  767MPD2    C111374   4.413   0.275  15.134  0.2937 -0.4874 -0.1372
  767MPD2    C211375   4.433   0.281  14.999 -0.3075  0.3973 -0.4817
  767MPD2    C311376   4.335   0.237  14.910  0.1138  0.2141 -0.3434
  767MPD2    C411377   4.218   0.184  14.952 -0.4312 -0.1943  0.3402
  767MPD2    C511378   4.198   0.174  15.089 -0.4367  0.3876 -0.8480
  767MPD2     H11379   4.528   0.318  14.961 -2.0038  1.7231 -3.4655
  767MPD2    H111380   4.153   0.138  14.879 -0.1898  2.2143 -1.4058
  767MPD2    H211381   4.272   0.203  15.280  1.3037  0.7496 -0.0284
  767MPD2    H311382   4.108   0.124  15.121 -1.2347  2.3613 -0.0118
  767MPD2     N11383   4.371   0.239  14.771  0.9449  0.2452  0.3392
  767MPD2    H511384   4.467   0.266  14.753  0.2945  2.6052  0.3095
  767MPD2    N111385   4.508   0.322  15.230 -0.4114 -0.4651  0.4436
  767MPD2    H711386   4.487   0.314  15.329  1.1515  1.9259  0.9875
  768MPD2     C11387   1.157   3.617  10.677  0.8033 -0.1299  0.6339
  768MPD2    C111388   1.114   3.532  10.779 -0.0415  0.3263  0.0345
  768MPD2    C211389   1.207   3.448  10.845 -0.6544 -0.6108  0.7947
  768MPD2    C311390   1.338   3.473  10.824 -0.2670 -0.3260  0.4472
  768MPD2    C411391   1.380   3.564  10.725  0.7450  0.4228  0.7273
  768MPD2    C511392   1.290   3.630  10.649  0.1830  0.1332  0.0752
  768MPD2     H11393   1.177   3.382  10.926  0.6413 -1.7985  0.3145
  768MPD2    H111394   1.483   3.592  10.707  0.0757  1.8678 -0.7583
  768MPD2    H211395   1.095   3.693  10.630  2.8765  1.4136  0.3780
  768MPD2    H311396   1.323   3.710  10.584  0.2470 -0.6914 -0.9198
  768MPD2     N11397   1.441   3.421  10.899 -0.6690  0.1255 -0.0166
  768MPD2    H511398   1.531   3.461  10.876 -0.4036 -0.3530  0.1978
  768MPD2    N111399   0.975   3.525  10.813  0.0226 -0.7199 -1.0853
  768MPD2    H711400   0.954   3.459  10.888  2.8745  0.7950  1.0689
  769MPD2     C11401   1.771   1.423  14.550 -0.0095 -0.4077 -0.5585
  769MPD2    C111402   1.722   1.323  14.630 -0.5575  0.0486  0.0294
  769MPD2    C211403   1.759   1.321  14.768 -0.2442 -0.3918  0.0716
  769MPD2    C311404   1.824   1.433  14.822 -0.0382 -0.3677  0.7587
  769MPD2    C411405   1.863   1.529  14.736  0.6779  0.6089 -0.0541
  769MPD2    C511406   1.838   1.529  14.604 -0.1148  0.0068  0.4203
  769MPD2     H11407   1.726   1.250  14.844 -3.0286  0.9037  0.0594
  769MPD2    H111408   1.928   1.603  14.781 -1.0614  2.5261 -0.7047
  769MPD2    H211409   1.746   1.414  14.445 -1.3574  3.6637 -0.5804
  769MPD2    H311410   1.870   1.609  14.538 -0.6623 -0.2984 -0.2124
  769MPD2     N11411   1.844   1.434  14.968 -0.6261  0.1800 -0.2654
  769MPD2    H511412   1.823   1.354  15.028  2.1936 -0.1222  0.3312
  769MPD2    N111413   1.655   1.222  14.565  0.9674  0.3345 -0.1573
  769MPD2    H711414   1.652   1.231  14.464  0.1398 -1.7945 -0.3108
  770MPD2     C11415   1.579   0.692  15.195  0.7881 -0.7375  0.2349
  770MPD2    C111416   1.453   0.657  15.150  0.5151  0.1072  0.6116
  770MPD2    C211417   1.400   0.707  15.032  0.5373 -0.2793 -0.5548
  770MPD2    C311418   1.489   0.779  14.953  0.0395  0.5208 -0.9382
  770MPD2    C411419   1.614   0.812  14.999  0.7744  0.0539 -0.0954
  770MPD2    C511420   1.652   0.781  15.120  0.0358  0.7932  0.5309
  770MPD2     H11421   1.300   0.686  14.997 -0.4679  1.5518  1.2310
  770MPD2    H111422   1.678   0.876  14.939  2.7005 -2.1786 -0.3926
  770MPD2    H211423   1.618   0.669  15.293  0.3902 -2.2943  0.0214
  770MPD2    H311424   1.744   0.831  15.149  1.7074 -1.0801 -1.4828
  770MPD2     N11425   1.452   0.829  14.829 -0.5864 -0.6034  0.2877
  770MPD2    H511426   1.523   0.885  14.783 -0.7067  0.0907  0.9389
  770MPD2    N111427   1.380   0.577  15.245 -0.0066  0.2841 -0.0808
  770MPD2    H711428   1.433   0.542  15.324 -0.3218 -1.4098 -0.6230
  771MPD2     C11429   2.770   4.130  13.757  0.2531  0.6108  0.4259
  771MPD2    C111430   2.710   4.229  13.837 -0.3630  0.8045  0.8131
  771MPD2    C211431   2.574   4.207  13.858  0.0735  0.4750  0.0089
  771MPD2    C311432   2.496   4.110  13.794  0.0562  0.4242 -0.1348
  771MPD2    C411433   2.559   4.030  13.702 -0.1292  0.4585 -0.7430
  771MPD2    C511434   2.697   4.033  13.688  0.5908  0.1532  0.1845
  771MPD2     H11435   2.526   4.276  13.926  0.4019 -1.1645  1.8760
  771MPD2    H111436   2.506   3.950  13.651 -2.2703  0.4205  1.5245
  771MPD2    H211437   2.879   4.130  13.750  0.1994 -0.9603 -0.6187
  771MPD2    H311438   2.740   3.963  13.617 -0.4588 -1.5452  1.2154
  771MPD2     N11439   2.362   4.104  13.827 -0.1016 -0.1322 -0.5414
  771MPD2    H511440   2.325   4.185  13.874  0.6248 -0.5109  0.6824
  771MPD2    N111441   2.793   4.330  13.896 -0.1756  0.2953  0.7017
  771MPD2    H711442   2.890   4.340  13.867 -1.3930  0.2403 -3.3642
  772MPD2     C11443   2.459   0.188  13.685  0.1982  0.7851  0.3680
  772MPD2    C111444   2.448   0.138  13.812 -0.4666 -0.0233 -0.2421
  772MPD2    C211445   2.320   0.093  13.845 -0.1344  0.8535 -0.3855
  772MPD2    C311446   2.207   0.121  13.771  0.2169 -0.4935  0.1077
  772MPD2    C411447   2.222   0.188  13.651  0.8147 -0.0082 -0.1513
  772MPD2    C511448   2.351   0.211  13.605  0.5843 -0.2277 -0.1693
  772MPD2     H11449   2.310   0.039  13.938  1.2641  0.6504 -0.3505
  772MPD2    H111450   2.134   0.203  13.588  0.2907 -2.2830  0.0443
  772MPD2    H211451   2.555   0.218  13.644  0.2537 -0.1277 -0.1627
  772MPD2    H311452   2.361   0.267  13.513 -0.1162  1.7671  0.9452
  772MPD2     N11453   2.081   0.077  13.827  0.0946 -0.2476 -0.2510
  772MPD2    H511454   2.093   0.023  13.913  0.5138 -1.3820 -1.0274
  772MPD2    N111455   2.562   0.105  13.888  0.4895  0.6372  0.9887
  772MPD2    H711456   2.543   0.069  13.981  1.4047  0.4142  1.0836
  773MPD2     C11457   1.591   0.564   0.210  0.4202  0.3061 -0.5181
  773MPD2    C111458   1.563   0.485   0.101  0.2513  0.1416  0.3020
  773MPD2    C211459   1.630   0.366   0.082  0.5638  0.5090  0.0125
  773MPD2    C311460   1.740   0.325   0.160 -0.4013 -0.7491  0.2569
  773MPD2    C411461   1.768   0.404   0.270 -0.3126  0.0112 -0.6116
  773MPD2    C511462   1.691   0.518   0.299 -0.2146  0.5081  0.2737
  773MPD2     H11463   1.591   0.291   0.014 -2.0494  2.0972 -0.2124
  773MPD2    H111464   1.852   0.381   0.334  1.3513  0.9507 -2.4569
  773MPD2    H211465   1.537   0.656   0.232  0.0570  0.0573 -0.3586
  773MPD2    H311466   1.721   0.594   0.370 -1.0426  1.6722 -0.6251
  773MPD2     N11467   1.819   0.210   0.127  0.3751 -0.1067 -0.0820
  773MPD2    H511468   1.786   0.159   0.046 -0.0842 -0.6965  0.4791
  773MPD2    N111469   1.461   0.526   0.008  0.4417  0.3460 -0.1899
  773MPD2    H711470   1.448   0.458  17.694  1.9865  0.0510 -0.1885
  774MPD2     C11471   0.455   4.293  13.589 -0.9598  0.2240 -0.5297
  774MPD2    C111472   0.583   4.331  13.631 -1.1522 -0.2563  0.5359
  774MPD2    C211473   0.625   4.465  13.612  0.3093  0.1784 -0.1084
  774MPD2    C311474   0.534   4.554  13.555 -0.5062  0.4703 -0.1372
  774MPD2    C411475   0.417   4.506  13.504 -0.3552  0.3938 -0.2180
  774MPD2    C511476   0.383   4.378  13.520  0.5262 -0.2351 -0.2170
  774MPD2     H11477   0.722   4.503  13.642  0.8074 -0.3782 -1.0315
  774MPD2    H111478   0.349   4.565  13.443 -0.6378 -0.1330 -0.4108
  774MPD2    H211479   0.424   4.190  13.603 -0.8850  0.1374 -0.9982
  774MPD2    H311480   0.296   4.333  13.473 -0.4578  0.1021  1.2962
  774MPD2     N11481   0.583   4.688  13.528 -0.2076  0.0897 -0.4783
  774MPD2    H511482   0.682   4.704  13.543 -0.0721 -1.2878  0.1442
  774MPD2    N111483   0.651   4.246  13.714  0.5802  0.8226  0.7520
  774MPD2    H711484   0.614   4.155  13.739  2.7035 -0.1330  0.4542
  775MPD2     C11485   2.002   0.914  15.603  0.1607 -0.2286 -0.0724
  775MPD2    C111486   1.962   1.037  15.641 -0.4182  0.5813 -0.2388
  775MPD2    C211487   2.056   1.136  15.626  0.0266  0.4188 -0.2192
  775MPD2    C311488   2.185   1.113  15.581  0.3478 -0.5072  0.6399
  775MPD2    C411489   2.230   0.985  15.562 -0.2972 -0.1851 -0.0479
  775MPD2    C511490   2.134   0.888  15.579  0.2868 -0.0990 -0.0575
  775MPD2     H11491   2.027   1.238  15.648 -0.3358  0.0767  0.8862
  775MPD2    H111492   2.330   0.964  15.526 -0.9633 -0.7957 -1.5548
  775MPD2    H211493   1.935   0.830  15.620 -0.2982  0.2320  0.4273
  775MPD2    H311494   2.172   0.787  15.576  2.0998  0.6279 -1.3680
  775MPD2     N11495   2.274   1.223  15.552 -0.1397  0.1536  0.2944
  775MPD2    H511496   2.365   1.204  15.512 -0.7131 -0.9567 -0.4921
  775MPD2    N111497   1.826   1.060  15.687  0.5611 -0.5246 -0.6266
  775MPD2    H711498   1.757   0.985  15.685  0.2729 -0.2703  0.3499
  776MPD2     C11499   1.459   1.691  12.185  0.6671  0.3214 -0.0071
  776MPD2    C111500   1.361   1.702  12.093  0.2352  0.0100 -0.0177
  776MPD2    C211501   1.342   1.820  12.029  0.4746 -0.3486  0.2866
  776MPD2    C311502   1.415   1.933  12.067 -1.0877  0.4227 -0.3150
  776MPD2    C411503   1.503   1.931  12.161  0.0604  0.8281  0.4427
  776MPD2    C511504   1.523   1.813  12.225  0.0035 -0.3890 -1.2157
  776MPD2     H11505   1.277   1.825  11.943  2.3972 -0.8857 -1.1790
  776MPD2    H111506   1.562   2.022  12.168  2.6753 -1.1425  4.4918
  776MPD2    H211507   1.474   1.599  12.239 -2.0736 -0.4778 -0.6417
  776MPD2    H311508   1.600   1.816  12.301  0.3534 -2.1838 -1.4903
  776MPD2     N11509   1.389   2.051  11.997  0.0001 -0.7004  0.3521
  776MPD2    H511510   1.454   2.126  12.018 -2.6870  1.8063 -0.3801
  776MPD2    N111511   1.288   1.584  12.062 -0.0617  0.8887  0.1493
  776MPD2    H711512   1.296   1.500  12.119  1.5408  1.4675  0.7554
  777MPD2     C11513   1.910   4.120   0.796  0.2557  0.3236  0.3078
  777MPD2    C111514   1.778   4.108   0.831  0.4616 -0.2215  0.0710
  777MPD2    C211515   1.724   3.980   0.848  0.6724  0.0659 -0.4322
  777MPD2    C311516   1.795   3.866   0.822 -0.3280 -0.4766  0.5108
  777MPD2    C411517   1.926   3.879   0.795 -0.0679  0.6613  0.4348
  777MPD2    C511518   1.984   4.002   0.781  0.1468  0.5275  0.1421
  777MPD2     H11519   1.625   3.978   0.892  0.5384  0.0305 -0.7369
  777MPD2    H111520   1.994   3.797   0.774 -0.5149  0.7427 -1.3697
  777MPD2    H211521   1.955   4.217   0.782 -0.7560  0.5473 -1.3690
  777MPD2    H311522   2.088   3.998   0.750 -0.3175  1.7619 -1.5567
  777MPD2     N11523   1.724   3.739   0.824  0.1053  0.2879  0.0686
  777MPD2    H511524   1.641   3.740   0.883  1.5648  3.9386  2.0669
  777MPD2    N111525   1.714   4.228   0.861 -0.0325 -0.0504  0.0667
  777MPD2    H711526   1.773   4.309   0.878  0.3996  0.1211 -2.1831
  778MPD2     C11527   2.582   4.582  14.972 -0.7669 -0.9816 -0.2106
  778MPD2    C111528   2.638   4.473  14.916  0.1673  0.5861 -0.7616
  778MPD2    C211529   2.719   4.487  14.809 -0.2329  0.7801 -0.0193
  778MPD2    C311530   2.731   4.611  14.754  0.0835 -0.2801 -0.4301
  778MPD2    C411531   2.677   4.719  14.812  0.0388  0.3690 -0.6985
  778MPD2    C511532   2.596   4.709  14.916 -0.1788  0.5458  0.2998
  778MPD2     H11533   2.764   4.400  14.761 -1.1082  0.5022 -0.3302
  778MPD2    H111534   2.704   0.080  14.787 -1.0660  0.6525 -0.7200
  778MPD2    H211535   2.515   4.579  15.058  0.3074  0.0237  0.6637
  778MPD2    H311536   2.557   0.058  14.962 -0.1773  0.3145  0.7561
  778MPD2     N11537   2.810   4.623  14.639  0.4106 -0.0502  0.2503
  778MPD2    H511538   2.854   4.540  14.601  3.7540  1.9183 -0.1742
  778MPD2    N111539   2.637   4.340  14.970 -0.1034 -0.5870  0.0439
  778MPD2    H711540   2.680   4.272  14.909  0.3223 -0.1242 -0.1813
  779MPD2     C11541   2.253   2.809  13.980 -0.0085  0.2849  0.7595
  779MPD2    C111542   2.381   2.818  14.033 -0.4670 -0.0802  0.2416
  779MPD2    C211543   2.441   2.936  14.060 -0.2869 -0.2891 -0.3423
  779MPD2    C311544   2.370   3.053  14.031 -0.2668  0.0479 -0.3186
  779MPD2    C411545   2.238   3.045  13.975 -0.2111 -0.0628  0.1838
  779MPD2    C511546   2.183   2.926  13.958 -0.1726  0.0418  0.3626
  779MPD2     H11547   2.546   2.930  14.088 -0.1847  0.4590 -0.5945
  779MPD2    H111548   2.171   3.129  13.957  0.7513  0.4340 -1.1108
  779MPD2    H211549   2.208   2.713  13.959 -0.2636  0.5241  0.2063
  779MPD2    H311550   2.079   2.920  13.925  0.1294 -0.5899 -0.4786
  779MPD2     N11551   2.437   3.172  14.047 -0.6800  0.2506 -0.3362
  779MPD2    H511552   2.523   3.175  14.102 -0.2908 -0.9267 -0.8797
  779MPD2    N111553   2.456   2.699  14.068 -0.3606  0.3191 -0.1518
  779MPD2    H711554   2.541   2.697  14.124 -0.2096 -2.8183 -0.5034
  780MPD2     C11555   1.841   2.948   1.404  0.0693  0.3331 -0.3370
  780MPD2    C111556   1.886   2.848   1.314  0.1922  0.3326 -0.0432
  780MPD2    C211557   2.002   2.866   1.237  0.1832  0.1247  0.2653
  780MPD2    C311558   2.070   2.988   1.231  0.7983 -0.1123  0.2196
  780MPD2    C411559   2.020   3.086   1.320  0.7520 -0.9427  0.1413
  780MPD2    C511560   1.903   3.070   1.393 -0.3860  0.3854  0.5172
  780MPD2     H11561   2.046   2.781   1.186  1.2066  1.2682 -0.7619
  780MPD2    H111562   2.061   3.187   1.323 -1.0499 -0.1500 -1.4087
  780MPD2    H211563   1.757   2.931   1.470 -0.7552  2.6987 -0.7870
  780MPD2    H311564   1.859   3.156   1.442 -1.8344  0.0232 -0.1188
  780MPD2     N11565   2.177   3.005   1.144  0.1047  0.1329  0.3344
  780MPD2    H511566   2.184   2.929   1.077 -1.6897  1.9184 -1.9057
  780MPD2    N111567   1.814   2.728   1.328  0.4934  0.4615  1.0410
  780MPD2    H711568   1.733   2.727   1.388 -0.1031 -0.2719  0.2328
  781MPD2     C11569   4.257   0.227  12.060 -0.3010 -0.2370 -0.6629
  781MPD2    C111570   4.197   0.142  12.160  0.2795  0.4960 -0.9860
  781MPD2    C211571   4.217   0.002  12.149  0.0388 -0.0014  0.4017
  781MPD2    C311572   4.298   4.689  12.051 -0.4729  0.0083 -0.7193
  781MPD2    C411573   4.355   0.032  11.961  0.7640  0.0905  0.1141
  781MPD2    C511574   4.331   0.171  11.962 -0.6872 -0.1237 -0.2472
  781MPD2     H11575   4.166   4.681  12.221 -0.6704  0.7126  0.5058
  781MPD2    H111576   4.422   4.731  11.887  2.7374  3.1316  0.1800
  781MPD2    H211577   4.237   0.334  12.060  0.1224 -0.1587 -1.5567
  781MPD2    H311578   4.366   0.237  11.884  0.3517 -0.4628 -0.0691
  781MPD2     N11579   4.329   4.551  12.045  0.0188  0.6243  0.1739
  781MPD2    H511580   4.390   4.520  11.970 -1.7532  0.2361 -1.0972
  781MPD2    N111581   4.111   0.193  12.261 -0.4025  0.5942 -0.1446
  781MPD2    H711582   4.094   0.130  12.338  2.0504  0.7014  0.4868
  782MPD2     C11583   1.740   0.744  10.091 -0.0928 -0.1692  0.2367
  782MPD2    C111584   1.827   0.722  10.192 -0.9492 -1.2684  0.3158
  782MPD2    C211585   1.862   0.823  10.283  0.7072 -0.2892  0.1773
  782MPD2    C311586   1.816   0.946  10.258  0.2991 -0.4821  0.4058
  782MPD2    C411587   1.725   0.970  10.158 -0.7232  0.6577 -0.3922
  782MPD2    C511588   1.684   0.867  10.075  0.5175  0.0957 -0.2617
  782MPD2     H11589   1.936   0.800  10.359  0.6056 -1.0516  0.0522
  782MPD2    H111590   1.663   1.059  10.153  0.7552  1.5713 -2.3946
  782MPD2    H211591   1.728   0.663  10.020 -2.5251 -0.3913  0.8896
  782MPD2    H311592   1.618   0.894   9.993 -1.9630 -1.2760  1.2978
  782MPD2     N11593   1.843   1.054  10.350  0.2663 -0.0786  0.3344
  782MPD2    H511594   1.820   1.148  10.319  1.4432 -0.3870 -1.5096
  782MPD2    N111595   1.871   0.587  10.214  0.3257 -0.0419  0.3966
  782MPD2    H711596   1.822   0.516  10.161 -2.0851  2.4061 -0.6388
  783MPD2     C11597   1.324   0.157  10.767 -0.2807 -0.6680 -0.5589
  783MPD2    C111598   1.414   0.245  10.828  0.6104  0.4390 -0.5600
  783MPD2    C211599   1.535   0.277  10.766  0.1724  0.8773 -1.2396
  783MPD2    C311600   1.567   0.226  10.646 -0.1692 -0.6382 -0.5637
  783MPD2    C411601   1.477   0.139  10.582 -0.0032  0.9218 -0.1698
  783MPD2    C511602   1.354   0.114  10.640  0.7768 -0.0600 -0.5329
  783MPD2     H11603   1.602   0.347  10.815  1.8069 -1.5986  0.0544
  783MPD2    H111604   1.499   0.105  10.481 -3.0312 -1.5056 -0.0156
  783MPD2    H211605   1.223   0.146  10.803 -0.9990  2.3409 -1.6436
  783MPD2    H311606   1.285   0.058  10.578  2.6722 -1.7629 -1.0810
  783MPD2     N11607   1.694   0.261  10.599  0.1915  0.8668  0.2824
  783MPD2    H511608   1.767   0.307  10.654  1.3369  1.9598 -2.1756
  783MPD2    N111609   1.373   0.293  10.951  0.7803 -0.2798 -0.2432
  783MPD2    H711610   1.289   0.249  10.986  0.4227  0.8281  0.2956
  784MPD2     C11611   3.825   0.923   0.806  0.0330 -0.3941 -0.5583
  784MPD2    C111612   3.837   1.022   0.899 -0.3525 -0.5056 -0.3792
  784MPD2    C211613   3.745   1.126   0.907 -0.2897  0.4076  0.3792
  784MPD2    C311614   3.642   1.133   0.821  0.6748  0.6141 -0.0711
  784MPD2    C411615   3.628   1.037   0.727  0.5395 -0.5736 -0.3228
  784MPD2    C511616   3.716   0.930   0.721  0.0116 -0.4884 -0.1768
  784MPD2     H11617   3.763   1.210   0.973  1.2893 -0.3922  0.9752
  784MPD2    H111618   3.547   1.027   0.656 -0.4645 -2.0981  1.0430
  784MPD2    H211619   3.900   0.845   0.797  0.9045  0.5707 -1.5897
  784MPD2    H311620   3.694   0.850   0.651 -0.5628 -0.3544 -0.1475
  784MPD2     N11621   3.555   1.246   0.830  0.7033 -0.2285  0.0598
  784MPD2    H511622   3.583   1.319   0.894  0.1054 -1.8885  2.2093
  784MPD2    N111623   3.947   1.018   0.991 -0.8433 -0.0858 -0.3983
  784MPD2    H711624   3.939   1.094   1.057 -1.6835 -0.0419 -0.5390
  785MPD2     C11625   4.550   3.701  10.600 -0.3969  0.0911 -0.1217
  785MPD2    C111626   4.512   3.766  10.716 -0.2727 -0.2322 -0.6479
  785MPD2    C211627   4.371   3.789  10.726  0.3561 -0.6386 -0.3746
  785MPD2    C311628   4.276   3.747  10.630 -0.0485  0.1325 -0.6837
  785MPD2    C411629   4.326   3.676  10.519  0.3856 -0.1204  0.7436
  785MPD2    C511630   4.460   3.652  10.505  0.2568  0.0346  0.3306
  785MPD2     H11631   4.337   3.846  10.811  0.6272 -0.9945 -0.0319
  785MPD2    H111632   4.256   3.649  10.440  0.6422  1.8779 -0.1750
  785MPD2    H211633   4.656   3.684  10.591 -0.5563  0.2635 -2.2550
  785MPD2    H311634   4.492   3.594  10.419  0.3846 -0.1009  0.4672
  785MPD2     N11635   4.147   3.795  10.637  0.1905  0.0805  0.1093
  785MPD2    H511636   4.121   3.853  10.716 -3.8545 -1.3715 -0.1785
  785MPD2    N111637   4.595   3.815  10.820 -0.1073 -1.1880 -0.2556
  785MPD2    H711638   4.546   3.849  10.902  1.4225 -1.4558  0.7554
  786MPD2     C11639   2.980   1.623  15.086  0.1048  0.4945  0.4986
  786MPD2    C111640   3.029   1.742  15.031  0.5334  0.1402  0.1941
  786MPD2    C211641   3.020   1.865  15.092  0.3433 -0.2893 -0.3285
  786MPD2    C311642   2.958   1.874  15.220 -0.0175 -0.0632  0.5309
  786MPD2    C411643   2.924   1.750  15.279  0.9016 -0.1778 -0.8937
  786MPD2    C511644   2.932   1.638  15.209 -0.0775  0.2231  0.4302
  786MPD2     H11645   3.067   1.952  15.049 -1.6431  0.6020 -0.6992
  786MPD2    H111646   2.888   1.742  15.381 -2.1215 -0.3025 -1.9800
  786MPD2    H211647   2.986   1.528  15.033  1.0200  0.3982  0.7891
  786MPD2    H311648   2.910   1.547  15.263  1.0561 -1.3874 -1.8397
  786MPD2     N11649   2.936   2.001  15.285 -0.6218 -0.3105 -0.8228
  786MPD2    H511650   2.921   2.000  15.385 -1.0214  3.1261 -0.8560
  786MPD2    N111651   3.102   1.732  14.913 -0.2426 -0.4070 -0.6920
  786MPD2    H711652   3.136   1.638  14.892 -1.1486 -0.6631 -1.0210
  787MPD2     C11653   3.488   1.247  14.924  0.4440 -0.8342  0.4073
  787MPD2    C111654   3.503   1.293  14.793  0.5616  0.1093  0.3870
  787MPD2    C211655   3.568   1.216  14.699 -0.8021 -0.2262 -0.1252
  787MPD2    C311656   3.607   1.086  14.729 -0.0666 -0.6842 -0.1263
  787MPD2    C411657   3.585   1.036  14.858  0.3844  0.2184 -0.1496
  787MPD2    C511658   3.531   1.120  14.954  0.2586 -0.4478  0.2710
  787MPD2     H11659   3.592   1.247  14.598 -0.2474  1.5667  0.5599
  787MPD2    H111660   3.601   0.934  14.892 -0.8258  0.0582 -0.0729
  787MPD2    H211661   3.441   1.310  14.999 -2.5800 -0.3975 -1.8687
  787MPD2    H311662   3.519   1.082  15.055 -0.6838  1.8450  1.0167
  787MPD2     N11663   3.657   1.001  14.625  0.2481  0.4864  0.0869
  787MPD2    H511664   3.661   1.045  14.534  1.6155  0.8232  0.3108
  787MPD2    N111665   3.452   1.418  14.760  0.3724 -0.2363 -0.3494
  787MPD2    H711666   3.404   1.459  14.840  1.1504  0.5964 -0.3089
  788MPD2     C11667   0.127   0.883   0.943  0.2619 -0.3671 -0.3896
  788MPD2    C111668   0.088   0.838   0.818 -0.6698  0.8473 -0.0267
  788MPD2    C211669   0.011   0.924   0.734 -0.3002  0.3246 -0.3970
  788MPD2    C311670   4.728   1.052   0.777  0.4607 -0.3155 -0.3751
  788MPD2    C411671   0.033   1.094   0.898  0.7657 -0.7695 -0.3744
  788MPD2    C511672   0.100   1.009   0.979 -0.1708 -0.0079 -0.1691
  788MPD2     H11673   4.728   0.886   0.636 -1.5164 -2.1856  0.8738
  788MPD2    H111674   0.021   1.197   0.927 -0.4793 -0.5433 -1.6804
  788MPD2    H211675   0.175   0.829   1.024  0.5093 -1.1251 -1.0426
  788MPD2    H311676   0.141   1.042   1.074 -0.7151  2.6857 -0.8732
  788MPD2     N11677   4.655   1.153   0.705  0.5261  0.1260 -0.4072
  788MPD2    H511678   4.668   1.249   0.735 -1.5526 -0.2124  1.6150
  788MPD2    N111679   0.121   0.717   0.764  0.0990  0.3561  0.1938
  788MPD2    H711680   0.093   0.703   0.667 -0.7495 -0.4967  0.5670
  789MPD2     C11681   0.255   0.257  16.188 -0.2895 -0.0942 -0.4034
  789MPD2    C111682   0.259   0.228  16.326  0.1644  0.9865 -0.3961
  789MPD2    C211683   0.213   0.323  16.421  0.4099 -0.3911  0.1459
  789MPD2    C311684   0.170   0.440  16.377 -0.1851 -0.3674 -0.1246
  789MPD2    C411685   0.162   0.466  16.246  0.6820 -0.7622 -0.3065
  789MPD2    C511686   0.203   0.373  16.147 -0.1903  0.4929 -0.2089
  789MPD2     H11687   0.230   0.305  16.526  0.5926 -1.4009 -0.0569
  789MPD2    H111688   0.107   0.556  16.219  1.1528 -0.2495  0.4578
  789MPD2    H211689   0.289   0.190  16.110 -1.8307 -1.1973 -0.1131
  789MPD2    H311690   0.196   0.397  16.041 -2.5783 -2.1020 -0.6502
  789MPD2     N11691   0.108   0.537  16.465 -0.7510 -0.4723 -0.1179
  789MPD2    H511692   0.077   0.626  16.425 -1.7824 -1.0391 -0.5915
  789MPD2    N111693   0.308   0.109  16.383 -0.1105  0.0471 -0.4022
  789MPD2    H711694   0.319   0.105  16.483  1.3437 -1.9962 -0.6505
  790MPD2     C11695   1.802   1.692  13.575 -0.1501  0.3985  0.0104
  790MPD2    C111696   1.784   1.557  13.568  1.0022  0.2864  0.3666
  790MPD2    C211697   1.696   1.517  13.468 -0.5340  0.1072  0.0828
  790MPD2    C311698   1.662   1.600  13.367  0.0638 -0.2080 -0.0090
  790MPD2    C411699   1.693   1.734  13.364 -0.3088  0.1787  0.6802
  790MPD2    C511700   1.761   1.781  13.472  0.6555 -0.1877  0.2539
  790MPD2     H11701   1.684   1.410  13.451  0.6212 -0.3742  2.3792
  790MPD2    H111702   1.685   1.798  13.278  0.8034  0.2733  0.6471
  790MPD2    H211703   1.848   1.739  13.661  0.4852 -0.4221  0.1188
  790MPD2    H311704   1.790   1.885  13.481  0.9256  0.0208 -3.0932
  790MPD2     N11705   1.598   1.551  13.256 -0.3840 -0.0515  0.3556
  790MPD2    H511706   1.584   1.618  13.181  1.2259 -0.8962 -0.6945
  790MPD2    N111707   1.839   1.473  13.673  0.0599  0.1307  0.0333
  790MPD2    H711708   1.888   1.515  13.751 -1.2364  2.0361 -0.1704
  791MPD2     C11709   0.968   1.563  12.681 -0.2289  0.4732 -0.1859
  791MPD2    C111710   0.981   1.496  12.801  0.3723  0.0495 -0.0952
  791MPD2    C211711   0.867   1.449  12.866 -0.6190  0.4678  0.3194
  791MPD2    C311712   0.738   1.468  12.815 -0.6377  0.4362 -0.3515
  791MPD2    C411713   0.726   1.540  12.697 -0.2333 -0.3905  0.1153
  791MPD2    C511714   0.838   1.591  12.634 -0.1231 -0.5475 -0.7353
  791MPD2     H11715   0.879   1.393  12.958 -0.5069  0.5719  0.3672
  791MPD2    H111716   0.632   1.559  12.648  1.2441 -0.2462 -2.6609
  791MPD2    H211717   1.053   1.599  12.625  0.6177 -2.6495 -0.8842
  791MPD2    H311718   0.817   1.652  12.547 -0.5301  3.2380  1.9926
  791MPD2     N11719   0.633   1.401  12.888 -0.1353  0.5429 -0.3338
  791MPD2    H511720   0.652   1.353  12.975  0.5026 -3.0511 -2.4695
  791MPD2    N111721   1.119   1.473  12.842 -0.4366  0.0637 -0.6693
  791MPD2    H711722   1.188   1.515  12.782 -1.0685 -0.0456 -1.4763
  792MPD2     C11723   1.603   1.997  11.550  0.1107 -0.2975  0.2076
  792MPD2    C111724   1.508   2.072  11.488  1.0068  0.4927 -0.2487
  792MPD2    C211725   1.375   2.042  11.512  0.0361 -0.2876 -0.1055
  792MPD2    C311726   1.343   1.938  11.599  0.7116 -0.0504 -0.5076
  792MPD2    C411727   1.439   1.860  11.658  0.2719 -0.6752  0.2233
  792MPD2    C511728   1.569   1.897  11.631  0.0612  0.5389  0.3072
  792MPD2     H11729   1.300   2.100  11.459  0.7732  2.7481  2.2011
  792MPD2    H111730   1.416   1.774  11.721 -0.5728 -1.6970 -1.4824
  792MPD2    H211731   1.710   2.002  11.535  0.0791 -0.3499 -0.0420
  792MPD2    H311732   1.656   1.843  11.668 -0.4677 -1.1765 -0.9665
  792MPD2     N11733   1.213   1.907  11.638 -0.2901 -0.5302 -0.2809
  792MPD2    H511734   1.204   1.815  11.680  1.9737 -2.0105 -3.0485
  792MPD2    N111735   1.555   2.161  11.391  0.0590  0.3621  0.1022
  792MPD2    H711736   1.656   2.156  11.379 -0.0633  1.5915 -1.3175
  793MPD2     C11737   0.476   1.966  11.106 -0.1922 -0.1260  0.3146
  793MPD2    C111738   0.617   1.981  11.109  0.0429 -0.2665 -0.5736
  793MPD2    C211739   0.680   2.010  11.223 -0.5442  0.7971 -0.3924
  793MPD2    C311740   0.605   2.009  11.341  0.5857  0.0513  0.4457
  793MPD2    C411741   0.467   1.990  11.344 -0.5263 -0.7995 -0.0958
  793MPD2    C511742   0.404   1.969  11.224 -0.1603 -0.4890 -0.0428
  793MPD2     H11743   0.788   2.021  11.217 -0.5093 -0.4358 -1.9581
  793MPD2    H111744   0.399   2.002  11.428  0.3052  2.4521  0.1044
  793MPD2    H211745   0.427   1.944  11.012 -0.2851  1.7971 -0.0839
  793MPD2    H311746   0.298   1.951  11.211  0.1716 -0.0674 -3.2289
  793MPD2     N11747   0.676   2.002  11.462 -0.7414  0.7769 -0.3467
  793MPD2    H511748   0.777   2.013  11.457 -0.8060 -0.0318 -3.3961
  793MPD2    N111749   0.703   1.964  10.996 -0.1668  0.3579 -0.0099
  793MPD2    H711750   0.803   1.973  11.010 -0.0731  0.2626 -0.6220
  794MPD2     C11751   0.874   1.098  17.430 -0.3835 -0.2632 -0.8992
  794MPD2    C111752   0.894   0.978  17.367  0.1594 -0.2132  0.2845
  794MPD2    C211753   0.830   0.946  17.244  0.2571  0.3489  0.4900
  794MPD2    C311754   0.752   1.041  17.181  0.3759  0.7516 -0.7872
  794MPD2    C411755   0.737   1.162  17.243  0.3588 -0.1365 -0.3480
  794MPD2    C511756   0.794   1.187  17.365  0.0293 -0.4166 -0.0269
  794MPD2     H11757   0.834   0.849  17.197 -0.8126  0.8441 -0.6400
  794MPD2    H111758   0.691   1.247  17.194  1.1458 -0.9179 -2.4168
  794MPD2    H211759   0.928   1.127  17.519  0.5454 -2.4471 -0.7529
  794MPD2    H311760   0.797   1.292  17.393  0.2541  0.0969 -1.9463
  794MPD2     N11761   0.708   1.037  17.052  0.0574  0.0332  0.2515
  794MPD2    H511762   0.670   1.119  17.006 -1.6458 -0.4580  0.7891
  794MPD2    N111763   0.973   0.873  17.420 -0.1603 -0.1267  0.2860
  794MPD2    H711764   0.965   0.786  17.368  0.9277 -0.0620  0.0234
  795MPD2     C11765   3.629   3.347  14.085 -0.1594  0.4631 -0.6933
  795MPD2    C111766   3.632   3.314  13.949 -0.1839  0.1385 -0.6281
  795MPD2    C211767   3.743   3.252  13.900 -0.1913 -0.6163 -0.6846
  795MPD2    C311768   3.851   3.216  13.976  0.1929  0.1809  0.5386
  795MPD2    C411769   3.843   3.250  14.110 -0.3412  0.4585 -0.1088
  795MPD2    C511770   3.738   3.315  14.166 -0.7246 -0.4777 -0.1885
  795MPD2     H11771   3.741   3.226  13.795 -0.3889  0.3521 -0.9209
  795MPD2    H111772   3.926   3.226  14.175 -0.4354  0.1059 -0.1189
  795MPD2    H211773   3.541   3.390  14.131  1.6540  0.8342  2.4555
  795MPD2    H311774   3.724   3.336  14.271  0.0154 -0.6088 -0.0622
  795MPD2     N11775   3.975   3.170  13.914 -0.2853  0.7596  0.5817
  795MPD2    H511776   3.986   3.135  13.819  1.7727  1.4830  0.5602
  795MPD2    N111777   3.522   3.332  13.863 -0.4666 -0.7932  0.3045
  795MPD2    H711778   3.510   3.271  13.782  0.5182 -0.2356 -0.2541
  796MPD2     C11779   2.943   4.636  16.116  0.3825  0.1689  0.1013
  796MPD2    C111780   2.943   4.717  16.231 -0.7792  0.1107  0.1869
  796MPD2    C211781   2.929   0.114  16.213 -0.8772  0.1337  0.4350
  796MPD2    C311782   2.922   0.172  16.083 -0.5002 -0.1815  0.2345
  796MPD2    C411783   2.910   0.090  15.975  0.2500  0.7968 -0.1541
  796MPD2    C511784   2.924   4.697  15.998  0.3233  0.3929  0.3118
  796MPD2     H11785   2.927   0.170  16.306 -0.8189  1.7337 -0.5168
  796MPD2    H111786   2.899   0.111  15.869 -0.5471  1.4125  0.0502
  796MPD2    H211787   2.954   4.529  16.114 -0.6421  0.0569  0.3461
  796MPD2    H311788   2.903   4.634  15.912 -0.5614  0.8553  0.1839
  796MPD2     N11789   2.910   0.313  16.070 -0.8352  0.8823  0.4999
  796MPD2    H511790   2.926   0.370  16.153  0.8469 -1.2421  1.6336
  796MPD2    N111791   2.951   4.651  16.354 -0.9150 -0.1372 -0.5128
  796MPD2    H711792   2.970   4.552  16.348  0.1184  0.0332  0.1588
  797MPD2     C11793   4.010   4.240  17.260  0.6535 -0.4884  0.5723
  797MPD2    C111794   4.117   4.328  17.248  0.8538 -0.0900  0.0928
  797MPD2    C211795   4.126   4.408  17.142  0.1419  0.4386 -0.1155
  797MPD2    C311796   4.031   4.406  17.039  0.6606 -0.4781  0.8288
  797MPD2    C411797   3.919   4.330  17.056 -0.9585  0.0534 -0.3705
  797MPD2    C511798   3.908   4.249  17.168 -0.6194  0.1708 -0.2304
  797MPD2     H11799   4.193   4.493  17.139  1.1079 -0.3914 -2.2985
  797MPD2    H111800   3.835   4.326  16.988 -0.1412 -0.1821 -1.3740
  797MPD2    H211801   4.002   4.175  17.346  0.7561  0.7998  1.5573
  797MPD2    H311802   3.812   4.204  17.190 -0.9998 -0.2918 -2.8920
  797MPD2     N11803   4.049   4.501  16.934 -0.1932  0.4189 -0.3139
  797MPD2    H511804   4.130   4.561  16.944 -0.3296  0.5993 -0.2797
  797MPD2    N111805   4.216   4.343  17.348  0.0665 -0.0183 -0.2145
  797MPD2    H711806   4.281   4.415  17.319 -1.2156  1.2139 -0.0447
  798MPD2     C11807   4.435   0.281  17.185  0.0212 -0.2001 -0.3323
  798MPD2    C111808   4.380   0.161  17.136 -0.4806  0.2093 -0.3523
  798MPD2    C211809   4.390   0.051  17.216 -0.4671 -0.5785  0.4808
  798MPD2    C311810   4.462   0.071  17.342  0.0729 -0.2731  0.6821
  798MPD2    C411811   4.518   0.187  17.380  0.0439  0.1038  0.5852
  798MPD2    C511812   4.504   0.293  17.302  0.4617  0.2219 -0.0626
  798MPD2     H11813   4.352   4.691  17.199 -3.3100  0.5689  0.0808
  798MPD2    H111814   4.578   0.202  17.469  0.1048 -3.5526  1.1574
  798MPD2    H211815   4.441   0.362  17.114  0.3137  0.5348  0.5371
  798MPD2    H311816   4.551   0.386  17.330  2.7021 -1.3138  1.3020
  798MPD2     N11817   4.473   4.688  17.414  0.4876 -0.2336 -0.1973
  798MPD2    H511818   4.438   4.605  17.367  0.0232 -0.1051 -0.0762
  798MPD2    N111819   4.316   0.164  17.011 -0.1415  0.7183 -0.2841
  798MPD2    H711820   4.310   0.251  16.958 -0.5840  0.0792 -1.2654
  799MPD2     C11821   3.031   1.372  14.630 -0.2457 -0.5922 -0.6187
  799MPD2    C111822   2.990   1.276  14.538 -0.0377  0.2736  0.4736
  799MPD2    C211823   2.957   1.306  14.411 -0.2923 -0.0572  0.3240
  799MPD2    C311824   2.972   1.432  14.359 -0.5387 -0.6999 -0.0153
  799MPD2    C411825   3.022   1.529  14.448 -0.7313  0.6110  0.4018
  799MPD2    C511826   3.038   1.503  14.582 -0.2321 -1.1399  0.3032
  799MPD2     H11827   2.928   1.228  14.341  0.8230  1.1683 -1.4985
  799MPD2    H111828   3.034   1.628  14.405 -0.3031 -0.5246 -2.1058
  799MPD2    H211829   3.068   1.356  14.730  1.4459  0.8243 -1.0065
  799MPD2    H311830   3.064   1.586  14.647  1.2367 -0.3315 -1.3080
  799MPD2     N11831   2.961   1.471  14.222 -0.3999  0.6849  0.0581
  799MPD2    H511832   2.998   1.562  14.199 -0.1913  0.4806 -0.4168
  799MPD2    N111833   2.986   1.139  14.575  0.6657 -0.0291 -0.4650
  799MPD2    H711834   2.963   1.070  14.504  0.0306 -1.7911  1.4591
  800MPD2     C11835   3.553   2.585  14.179 -0.5384  0.8817 -1.1010
  800MPD2    C111836   3.682   2.595  14.117  0.5556  0.2039  1.0145
  800MPD2    C211837   3.716   2.506  14.013 -0.0382 -0.2840 -0.0314
  800MPD2    C311838   3.620   2.417  13.961 -0.1354  0.1618  0.0551
  800MPD2    C411839   3.500   2.413  14.014 -0.5050  0.1039  0.0054
  800MPD2    C511840   3.460   2.492  14.126  1.0282  0.1487 -0.8237
  800MPD2     H11841   3.815   2.500  13.970  0.0289 -0.2805  0.1235
  800MPD2    H111842   3.430   2.352  13.959  0.5060  1.9956 -3.3834
  800MPD2    H211843   3.533   2.653  14.260 -0.1239  0.3320 -0.5394
  800MPD2    H311844   3.355   2.518  14.140  1.4134  2.4424 -2.2384
  800MPD2     N11845   3.653   2.347  13.848 -0.3228  0.2301 -0.3560
  800MPD2    H511846   3.749   2.358  13.817  0.6164  0.5481  2.7502
  800MPD2    N111847   3.778   2.685  14.170 -0.3862  0.5094  0.9827
  800MPD2    H711848   3.748   2.739  14.250  1.3746  1.4752  0.9788
  801MPD2     C11849   3.791   3.154  14.723  0.1804 -0.8391 -0.1174
  801MPD2    C111850   3.769   3.027  14.668 -0.1047 -0.4714  0.5248
  801MPD2    C211851   3.688   2.940  14.737  0.0129 -0.9824 -0.0232
  801MPD2    C311852   3.623   2.984  14.851  0.0416 -0.2454  0.0520
  801MPD2    C411853   3.630   3.112  14.893 -0.3413 -0.3533 -0.2885
  801MPD2    C511854   3.714   3.193  14.831  0.0835  0.2581  0.1253
  801MPD2     H11855   3.669   2.840  14.697  3.1862  0.1530 -4.3026
  801MPD2    H111856   3.581   3.143  14.984 -1.3377  0.0550 -0.9680
  801MPD2    H211857   3.851   3.231  14.675 -0.0266 -1.5827 -1.5758
  801MPD2    H311858   3.718   3.296  14.863  0.1059  0.3103 -0.0434
  801MPD2     N11859   3.535   2.902  14.927 -0.0707 -0.1599 -0.6506
  801MPD2    H511860   3.492   2.939  15.010 -1.1663 -1.6248 -0.5653
  801MPD2    N111861   3.841   2.989  14.548 -0.3081 -0.0584  0.6377
  801MPD2    H711862   3.830   2.892  14.520 -1.8755  0.6105 -1.0754
  802MPD2     C11863   2.641   3.298  17.701  0.4035  0.1671 -0.5806
  802MPD2    C111864   2.765   3.282  17.750 -0.0200  0.5289  0.2444
  802MPD2    C211865   2.807   3.159   0.041  0.1587 -0.3991 -0.0973
  802MPD2    C311866   2.727   3.047   0.035 -0.2249  0.2251  0.1368
  802MPD2    C411867   2.593   3.076   0.012 -0.0569  0.6863 -0.1261
  802MPD2    C511868   2.550   3.197  17.721 -0.1262 -0.7927 -0.0767
  802MPD2     H11869   2.895   3.156   0.104 -0.8364  1.8507  1.3787
  802MPD2    H111870   2.511   3.005   0.015 -1.4266  2.2765 -0.0518
  802MPD2    H211871   2.605   3.396  17.672 -0.8628  0.1383  0.8803
  802MPD2    H311872   2.444   3.205  17.699 -0.1577  1.2847  0.7659
  802MPD2     N11873   2.773   2.923   0.081  0.0494 -0.3507  0.4784
  802MPD2    H511874   2.871   2.903   0.096 -0.2346 -1.0870  1.3522
  802MPD2    N111875   2.845   3.397   0.005 -0.0110  0.4129 -0.3966
  802MPD2    H711876   2.933   3.389   0.056  1.2199 -0.5724 -2.6772
  803MPD2     C11877   4.076   1.513  12.282 -1.0608  0.1084  0.4846
  803MPD2    C111878   4.177   1.593  12.317  0.1549 -0.8837 -0.2742
  803MPD2    C211879   4.196   1.637  12.447 -0.0661 -0.8865 -0.3262
  803MPD2    C311880   4.115   1.583  12.549  1.1330 -0.4728  0.0511
  803MPD2    C411881   4.012   1.504  12.507  0.6400  0.2798  0.6690
  803MPD2    C511882   3.993   1.468  12.379 -0.4581 -0.1308  0.2327
  803MPD2     H11883   4.289   1.684  12.476 -1.7893  1.7098  1.0687
  803MPD2    H111884   3.938   1.470  12.579  0.3591  1.0849  0.7657
  803MPD2    H211885   4.037   1.495  12.183  2.4157 -0.4940 -0.7581
  803MPD2    H311886   3.903   1.413  12.354  0.6196 -2.5723  1.7217
  803MPD2     N11887   4.137   1.607  12.683 -0.3831 -0.4111 -0.3628
  803MPD2    H511888   4.206   1.680  12.701 -2.0075  0.8069  0.9591
  803MPD2    N111889   4.248   1.664  12.222  0.4673  0.0786 -0.0720
  803MPD2    H711890   4.296   1.749  12.250  0.2075  0.2796 -0.2413
  804MPD2     C11891   3.490   2.879  16.857  0.1393 -0.5038  0.1452
  804MPD2    C111892   3.455   2.908  16.988  0.5307  0.6130  0.2194
  804MPD2    C211893   3.512   3.015  17.049 -0.1917  0.0593  0.2223
  804MPD2    C311894   3.592   3.104  16.980  0.6743 -0.2746  0.0076
  804MPD2    C411895   3.631   3.074  16.850  0.0867  0.2098  0.3687
  804MPD2    C511896   3.579   2.960  16.792 -0.1334 -0.2668 -0.0501
  804MPD2     H11897   3.480   3.044  17.149  1.3337  1.1482  0.4044
  804MPD2    H111898   3.694   3.138  16.790 -0.2631 -0.0304 -0.2533
  804MPD2    H211899   3.459   2.791  16.801  1.8287 -0.2823 -1.1480
  804MPD2    H311900   3.611   2.923  16.695 -0.9801 -3.8871  1.0441
  804MPD2     N11901   3.646   3.206  17.054 -0.0477  0.3186  0.0617
  804MPD2    H511902   3.623   3.206  17.153  1.5680 -1.6318  0.4556
  804MPD2    N111903   3.367   2.826  17.066 -0.4062  0.7193 -0.7005
  804MPD2    H711904   3.362   2.842  17.166  1.8655  1.5323 -0.7082
  805MPD2     C11905   2.573   0.850  15.408  0.6855 -1.0125  0.6964
  805MPD2    C111906   2.587   0.977  15.365  0.0678 -0.8267  0.0828
  805MPD2    C211907   2.700   1.042  15.420 -0.5972 -0.2048  0.6680
  805MPD2    C311908   2.777   0.994  15.521  0.0622 -0.1292 -0.3773
  805MPD2    C411909   2.757   0.865  15.567  0.3423  0.1131  0.3974
  805MPD2    C511910   2.663   0.792  15.498  0.1587 -0.6147 -0.2919
  805MPD2     H11911   2.731   1.139  15.383  2.1379 -1.0542  0.6697
  805MPD2    H111912   2.827   0.821  15.636  1.0288 -1.1921 -1.1090
  805MPD2    H211913   2.494   0.786  15.370 -0.0318 -0.5707  1.4519
  805MPD2    H311914   2.634   0.693  15.529 -1.7114  0.1890  0.4973
  805MPD2     N11915   2.889   1.078  15.560  0.2628  0.1588  0.5660
  805MPD2    H511916   2.908   1.157  15.499  0.1534 -1.6241 -1.7784
  805MPD2    N111917   2.512   1.035  15.257 -0.4596  0.3041  0.0140
  805MPD2    H711918   2.550   1.115  15.208 -0.3957 -0.5030 -1.2462
  806MPD2     C11919   3.238   0.781   0.759 -0.5497  0.0789  0.1610
  806MPD2    C111920   3.374   0.746   0.773 -1.1507 -0.1897 -0.5013
  806MPD2    C211921   3.432   0.661   0.678 -0.4482 -0.4151  0.2125
  806MPD2    C311922   3.357   0.604   0.575  0.0609 -0.0966  1.0328
  806MPD2    C411923   3.222   0.641   0.562 -0.3350 -0.9148 -0.7917
  806MPD2    C511924   3.162   0.725   0.656  0.2105  0.4143  0.2754
  806MPD2     H11925   3.534   0.632   0.697  0.6178  2.5447 -1.0133
  806MPD2    H111926   3.157   0.611   0.481 -0.8390 -1.6801 -0.1014
  806MPD2    H211927   3.193   0.849   0.830 -0.7343  0.0135  0.1063
  806MPD2    H311928   3.063   0.765   0.638 -0.4916 -1.8599 -0.9811
  806MPD2     N11929   3.432   0.521   0.484  0.2780 -0.2035  0.1032
  806MPD2    H511930   3.532   0.520   0.501  0.1972 -0.2567  0.5829
  806MPD2    N111931   3.458   0.778   0.889  0.6138  0.5150  0.7907
  806MPD2    H711932   3.545   0.726   0.898 -0.0518 -0.9473 -1.4210
  807MPD2     C11933   3.493   1.257   1.572 -0.1158  0.5631 -0.6333
  807MPD2    C111934   3.405   1.159   1.536 -0.2562  0.1548  0.3698
  807MPD2    C211935   3.278   1.160   1.587 -0.0053 -0.1219  0.7227
  807MPD2    C311936   3.239   1.249   1.682 -0.5646 -0.9478 -0.4507
  807MPD2    C411937   3.325   1.350   1.719  1.1065 -0.5165  0.5707
  807MPD2    C511938   3.453   1.356   1.662 -0.5255  0.3926 -0.9093
  807MPD2     H11939   3.210   1.084   1.550 -1.7945  1.7798  0.0772
  807MPD2    H111940   3.291   1.420   1.794  2.5569 -1.0595  1.7374
  807MPD2    H211941   3.596   1.255   1.537 -0.2256  0.5903 -0.9503
  807MPD2    H311942   3.519   1.438   1.688  0.3905 -0.0931 -1.7301
  807MPD2     N11943   3.113   1.225   1.748 -0.5814  0.4018 -0.3743
  807MPD2    H511944   3.055   1.154   1.704 -0.6333  0.1642  0.0825
  807MPD2    N111945   3.444   1.050   1.456 -0.1725 -0.3435 -0.7663
  807MPD2    H711946   3.372   0.996   1.409 -0.3138 -1.9850  1.3149
  808MPD2     C11947   3.458   2.225   9.581 -0.0866 -0.6906 -0.4241
  808MPD2    C111948   3.426   2.278   9.703 -0.1252 -0.5489 -0.0312
  808MPD2    C211949   3.454   2.406   9.733 -0.3703  0.3159 -0.8904
  808MPD2    C311950   3.493   2.496   9.636  0.0301 -0.0408  0.2187
  808MPD2    C411951   3.516   2.444   9.512  0.0536 -0.1229  0.2517
  808MPD2    C511952   3.503   2.312   9.486 -0.0113  0.5551  0.0387
  808MPD2     H11953   3.430   2.445   9.831 -2.1157  0.2873 -1.2953
  808MPD2    H111954   3.556   2.507   9.432  0.8545  0.6181  1.2257
  808MPD2    H211955   3.449   2.119   9.562  1.6171 -0.8306 -0.4876
  808MPD2    H311956   3.522   2.272   9.388 -2.1524 -0.8717  0.2097
  808MPD2     N11957   3.511   2.638   9.657 -0.0998 -0.0479 -0.3145
  808MPD2    H511958   3.548   2.690   9.578  0.1249  1.0286  0.4821
  808MPD2    N111959   3.383   2.192   9.813  0.8413 -0.4056 -0.5831
  808MPD2    H711960   3.365   2.239   9.901 -1.0870  0.9059 -1.6634
  809MPD2     C11961   4.199   2.915   9.299  0.1235  0.7915 -0.6984
  809MPD2    C111962   4.201   2.976   9.426  0.1978 -0.8544 -0.4320
  809MPD2    C211963   4.085   3.001   9.500 -0.5080  0.6832  0.7406
  809MPD2    C311964   3.967   2.944   9.451  0.5489  0.1329  1.1293
  809MPD2    C411965   3.966   2.884   9.327 -0.0030 -0.0079  0.3202
  809MPD2    C511966   4.078   2.869   9.255 -0.5460 -1.0702 -0.1779
  809MPD2     H11967   4.089   3.063   9.589 -0.0349  3.5161 -1.2472
  809MPD2    H111968   3.878   2.844   9.278 -0.6307  3.6530 -1.5190
  809MPD2    H211969   4.278   2.897   9.227  2.4178  0.8924  1.8169
  809MPD2    H311970   4.069   2.830   9.154  0.0719  0.2045 -0.7303
  809MPD2     N11971   3.847   2.954   9.521  0.3097 -0.2687  0.0247
  809MPD2    H511972   3.759   2.922   9.483 -0.6744  0.4357  1.7310
  809MPD2    N111973   4.325   2.999   9.498 -0.1914 -0.4664 -0.5938
  809MPD2    H711974   4.318   3.008   9.599 -1.2683 -0.4024 -0.6728
  810MPD2     C11975   2.839   2.044  10.078  0.2131 -0.5303  0.4523
  810MPD2    C111976   2.856   1.993  10.205 -0.4558 -0.3863 -0.7479
  810MPD2    C211977   2.878   2.074  10.314  0.0621  0.2802  0.5150
  810MPD2    C311978   2.860   2.211  10.300 -0.6643 -0.1488  0.0264
  810MPD2    C411979   2.824   2.257  10.176 -1.1853  0.0053  0.2851
  810MPD2    C511980   2.813   2.177  10.065 -0.0572  0.1954  0.7308
  810MPD2     H11981   2.903   2.041  10.414 -0.7892 -2.0561 -0.0436
  810MPD2    H111982   2.808   2.363  10.161  2.5420  0.4544 -0.4691
  810MPD2    H211983   2.839   1.987   9.986 -1.2454 -0.9594  0.7334
  810MPD2    H311984   2.788   2.214   9.966  0.5103  1.1294  0.9363
  810MPD2     N11985   2.853   2.303  10.408 -0.2792  0.2903  0.4180
  810MPD2    H511986   2.818   2.397  10.394  0.1798  0.0973 -1.9441
  810MPD2    N111987   2.837   1.852  10.215  0.9888  0.2932  0.1523
  810MPD2    H711988   2.817   1.806  10.127  2.2363 -0.7845  0.4338
  811MPD2     C11989   2.471   1.899   9.898  0.9547 -0.1310  0.3269
  811MPD2    C111990   2.470   1.907  10.034  0.0950 -0.5450 -0.3841
  811MPD2    C211991   2.447   2.030  10.095 -0.8098 -0.5626 -0.0850
  811MPD2    C311992   2.443   2.148  10.023  0.1937  0.1901 -0.2811
  811MPD2    C411993   2.443   2.143   9.886  0.8997  0.3129  0.0326
  811MPD2    C511994   2.455   2.016   9.831  0.3813 -0.1105 -0.2119
  811MPD2     H11995   2.435   2.040  10.203 -0.2954 -0.4439 -0.0386
  811MPD2    H111996   2.439   2.222   9.812  2.2646 -0.9071 -1.3556
  811MPD2    H211997   2.493   1.804   9.851 -1.0256 -1.0349  1.2077
  811MPD2    H311998   2.457   2.019   9.722 -0.9717  0.0831 -0.2325
  811MPD2     N11999   2.440   2.269  10.092  0.5790 -0.3347  0.4039
  811MPD2    H512000   2.446   2.264  10.193  0.2019  0.0219  0.4430
  811MPD2    N112001   2.505   1.777  10.098 -0.0651 -0.5181  0.6520
  811MPD2    H712002   2.530   1.697  10.040 -0.9088 -0.0538 -0.3519
  812MPD2     C12003   1.885   1.726  12.456 -0.3077  0.0786 -0.1556
  812MPD2    C112004   2.004   1.788  12.487 -0.0010  0.1959  0.2774
  812MPD2    C212005   2.082   1.727  12.584 -0.4733 -0.0766  0.0165
  812MPD2    C312006   2.043   1.614  12.650 -0.1101  0.2656  0.9181
  812MPD2    C412007   1.938   1.545  12.594 -0.4892 -0.6125  0.2744
  812MPD2    C512008   1.859   1.597  12.497  0.1967 -0.5170 -0.1180
  812MPD2     H12009   2.171   1.776  12.622 -1.6313  0.3350  2.1952
  812MPD2    H112010   1.908   1.448  12.632 -2.3927 -0.5395 -1.0478
  812MPD2    H212011   1.813   1.774  12.390 -2.9223 -1.1719  1.7780
  812MPD2    H312012   1.768   1.551  12.459 -0.6268  0.1643  1.0220
  812MPD2     N12013   2.108   1.566  12.765  0.0733 -0.1479  0.2650
  812MPD2    H512014   2.169   1.641  12.798 -2.4843  2.0568 -0.0470
  812MPD2    N112015   2.030   1.914  12.418 -0.0974 -0.5304 -0.7545
  812MPD2    H712016   1.954   1.940  12.357 -1.1330 -0.2625  0.6417
  813MPD2     C12017   0.930   3.605  13.204  0.3193  0.0510 -0.0937
  813MPD2    C112018   1.023   3.536  13.279 -0.1271 -0.0340 -0.5634
  813MPD2    C212019   0.980   3.482  13.399  0.1580 -0.6662 -0.7464
  813MPD2    C312020   0.848   3.490  13.445 -0.0161  0.5628  0.1733
  813MPD2    C412021   0.760   3.568  13.376 -0.1067  0.3799  0.3883
  813MPD2    C512022   0.804   3.625  13.257 -0.0202  0.4922  0.1101
  813MPD2     H12023   1.049   3.438  13.470 -1.4902 -0.9335  0.7161
  813MPD2    H112024   0.665   3.598  13.419  0.1097 -0.2797  1.3077
  813MPD2    H212025   0.947   3.642  13.104 -1.0846 -0.7009 -0.6034
  813MPD2    H312026   0.741   3.696  13.205 -0.9927  0.0650  0.6935
  813MPD2     N12027   0.829   3.456  13.579 -0.4484  0.5564 -0.0216
  813MPD2    H512028   0.895   3.398  13.630  0.8298  2.6826  0.7596
  813MPD2    N112029   1.163   3.539  13.236  0.9726  0.0433 -0.0414
  813MPD2    H712030   1.185   3.588  13.150 -1.2323  1.5493  0.2776
  814MPD2     C12031   1.546   0.057  12.275 -0.8209 -0.0275 -0.1511
  814MPD2    C112032   1.599   0.129  12.170 -0.2716 -0.4328 -0.4482
  814MPD2    C212033   1.666   0.249  12.204 -0.0611  0.3224  0.3892
  814MPD2    C312034   1.681   0.298  12.334 -0.7213 -0.0711 -0.6256
  814MPD2    C412035   1.625   0.221  12.434  0.7484  0.1552  0.1511
  814MPD2    C512036   1.562   0.102  12.406  0.6013 -1.1993  0.9326
  814MPD2     H12037   1.720   0.301  12.126 -0.0390  0.9186  0.8070
  814MPD2    H112038   1.623   0.258  12.535  3.2911  0.9960 -0.0974
  814MPD2    H212039   1.482   4.713  12.250 -0.2733 -0.3488 -0.4686
  814MPD2    H312040   1.520   0.055  12.495 -1.0531  0.6752  1.1519
  814MPD2     N12041   1.757   0.415  12.375  0.1815  0.4240  1.0432
  814MPD2    H512042   1.749   0.432  12.475  1.1698 -0.6426  1.3100
  814MPD2    N112043   1.612   0.085  12.036  0.1043  0.2488  0.2107
  814MPD2    H712044   1.642   0.157  11.971 -1.2386  0.1575 -0.5016
  815MPD2     C12045   2.276   3.254  12.329 -0.7232  0.1030  0.1906
  815MPD2    C112046   2.233   3.289  12.202 -0.0611 -0.1662 -0.5484
  815MPD2    C212047   2.097   3.313  12.174 -0.5250 -0.0647 -0.2641
  815MPD2    C312048   2.003   3.301  12.274  0.3814  0.1702  0.2404
  815MPD2    C412049   2.043   3.277  12.403 -0.1955 -0.0559 -0.1047
  815MPD2    C512050   2.179   3.250  12.424  0.2076 -0.6284 -1.0902
  815MPD2     H12051   2.062   3.332  12.073  1.4015 -1.0843 -1.1096
  815MPD2    H112052   1.986   3.280  12.495  1.8468  2.4089  1.0798
  815MPD2    H212053   2.378   3.226  12.352 -1.3137 -1.2989  1.0445
  815MPD2    H312054   2.207   3.220  12.524 -2.9767 -2.2841 -0.7164
  815MPD2     N12055   1.870   3.289  12.236  0.1826 -0.2508 -0.5974
  815MPD2    H512056   1.854   3.285  12.136  1.2606  0.7117 -0.8038
  815MPD2    N112057   2.329   3.281  12.100  0.7540  0.0621  0.1094
  815MPD2    H712058   2.421   3.239  12.116  0.7090 -0.3131 -0.6456
  816MPD2     C12059   2.083   1.926  17.630 -0.3311 -0.3962 -0.2004
  816MPD2    C112060   2.025   2.019  17.548  0.0463  0.3763  0.2353
  816MPD2    C212061   2.047   2.017  17.412 -0.2384  0.3084  0.1986
  816MPD2    C312062   2.126   1.917  17.360  0.0271 -0.1176  0.5371
  816MPD2    C412063   2.192   1.835  17.446  0.0483  0.6773  0.1567
  816MPD2    C512064   2.174   1.842  17.576  1.2039 -0.8559  0.9653
  816MPD2     H12065   2.002   2.090  17.346  0.0100 -0.5496 -0.9229
  816MPD2    H112066   2.243   1.746  17.410 -1.3431 -0.2956  0.6105
  816MPD2    H212067   2.065   1.923  17.737  0.1510  0.2490 -0.0973
  816MPD2    H312068   2.231   1.769  17.632 -0.3570 -2.5899  0.3127
  816MPD2     N12069   2.140   1.920  17.222 -0.3656  0.6135  0.2085
  816MPD2    H512070   2.065   1.967  17.172 -1.1811  0.5854  1.4114
  816MPD2    N112071   1.941   2.118  17.597  0.0720  0.1295 -0.0453
  816MPD2    H712072   1.911   2.180  17.523  1.0570  0.0334 -0.5162
  817MPD2     C12073   1.734   4.640  10.082  0.3357  0.0634 -0.2279
  817MPD2    C112074   1.816   4.630   9.969  0.3035  0.0734  0.0527
  817MPD2    C212075   1.828   4.738   9.889  0.7056 -0.2522 -0.2718
  817MPD2    C312076   1.787   0.124   9.934  0.9271 -0.6516  0.2191
  817MPD2    C412077   1.707   0.139  10.048  0.0350  0.4908  0.2964
  817MPD2    C512078   1.678   0.020  10.118 -0.4713 -0.3170  0.2193
  817MPD2     H12079   1.875   4.733   9.791  1.6651  0.2864  0.1673
  817MPD2    H112080   1.671   0.236  10.082  2.4956  0.4666  2.9631
  817MPD2    H212081   1.710   4.557  10.149 -0.6571  1.1307  0.7600
  817MPD2    H312082   1.614   0.023  10.205 -2.6729 -0.6344 -1.3701
  817MPD2     N12083   1.823   0.234   9.848 -0.2772 -0.3944 -0.4017
  817MPD2    H512084   1.877   0.205   9.767  1.0287 -2.0628  1.0508
  817MPD2    N112085   1.883   4.509   9.929  0.2730  0.0205  0.0110
  817MPD2    H712086   1.941   4.517   9.846  0.4539  0.3047  0.1620
  818MPD2     C12087   0.500   4.120  10.138 -0.0580  0.7330  0.3660
  818MPD2    C112088   0.553   4.069  10.248 -0.0835 -0.3085 -0.0853
  818MPD2    C212089   0.534   3.934  10.268  0.0186  0.2599 -0.8267
  818MPD2    C312090   0.458   3.855  10.182  0.0377 -0.8595 -0.5652
  818MPD2    C412091   0.413   3.916  10.061  0.0464 -0.8582 -0.0836
  818MPD2    C512092   0.436   4.051  10.047  0.1812 -0.2902  0.0919
  818MPD2     H12093   0.569   3.882  10.357  0.4421  4.6377  1.5845
  818MPD2    H112094   0.349   3.864   9.991 -1.2049  0.9777 -0.2685
  818MPD2    H212095   0.517   4.223  10.109  2.0831  0.3733  0.3278
  818MPD2    H312096   0.400   4.101   9.958 -1.1392 -0.6815  0.3955
  818MPD2     N12097   0.431   3.713  10.203  0.1602  0.6608 -0.0002
  818MPD2    H512098   0.368   3.670  10.136  0.2143  1.2818 -0.4512
  818MPD2    N112099   0.619   4.150  10.344 -0.8076 -0.0053 -0.2264
  818MPD2    H712100   0.650   4.104  10.429 -0.1585  0.2600 -0.3273
  819MPD2     C12101   3.464   1.166  15.510 -0.2699  0.0758 -0.5077
  819MPD2    C112102   3.456   1.031  15.536 -1.1821 -0.0852 -0.0967
  819MPD2    C212103   3.567   0.966  15.595  0.1258  0.5834  0.8258
  819MPD2    C312104   3.671   1.034  15.653  0.9522  0.0248 -0.6245
  819MPD2    C412105   3.667   1.175  15.649 -0.0609 -0.1240  0.1209
  819MPD2    C512106   3.570   1.236  15.567 -0.2345  0.2605 -0.3164
  819MPD2     H12107   3.573   0.858  15.610 -0.5784  0.7158  2.0762
  819MPD2    H112108   3.733   1.246  15.697  0.5925  0.2961 -1.4065
  819MPD2    H212109   3.389   1.218  15.450 -1.9380 -1.3476  0.3279
  819MPD2    H312110   3.579   1.343  15.553 -0.3772  0.2788 -0.2670
  819MPD2     N12111   3.752   0.951  15.729 -0.3887 -0.2657  0.1278
  819MPD2    H512112   3.741   0.851  15.718  1.0454 -0.2211 -1.7447
  819MPD2    N112113   3.341   0.958  15.500  0.0722  0.4727  0.0957
  819MPD2    H712114   3.274   0.996  15.433  0.2993 -0.6760 -0.7874
  820MPD2     C12115   2.676   0.625  14.817 -0.1743  0.2134  0.9072
  820MPD2    C112116   2.706   0.750  14.866 -0.1449  0.3327 -0.2503
  820MPD2    C212117   2.796   0.763  14.965 -1.2826  0.1439  0.4057
  820MPD2    C312118   2.864   0.653  15.011  0.1365 -0.4040 -0.1620
  820MPD2    C412119   2.836   0.529  14.955  1.0114  0.0762 -0.0631
  820MPD2    C512120   2.747   0.511  14.854  0.3045 -0.2039  0.6220
  820MPD2     H12121   2.825   0.854  15.015  0.5476 -0.3033  0.1773
  820MPD2    H112122   2.890   0.440  14.985 -0.8522 -0.6616  1.0701
  820MPD2    H212123   2.601   0.608  14.740  2.0227  2.0450 -1.6785
  820MPD2    H312124   2.736   0.414  14.807 -1.3590  0.0665  0.4377
  820MPD2     N12125   2.959   0.651  15.115  0.0604  0.2876  0.5023
  820MPD2    H512126   2.999   0.559  15.132  0.8844  0.2982 -1.3566
  820MPD2    N112127   2.621   0.857  14.824  0.3765 -0.4307  0.1696
  820MPD2    H712128   2.557   0.845  14.746  0.9875  0.7645 -0.5135
  821MPD2     C12129   3.740   2.383  13.139 -0.0926  0.5020  0.0876
  821MPD2    C112130   3.819   2.376  13.257 -0.9474 -0.5128  0.2320
  821MPD2    C212131   3.914   2.475  13.277 -0.1978  0.2535 -0.2756
  821MPD2    C312132   3.923   2.589  13.194 -0.7410  0.2361 -0.1633
  821MPD2    C412133   3.836   2.595  13.088 -0.1668 -0.0152  0.3086
  821MPD2    C512134   3.754   2.487  13.052  0.2679 -0.6859  1.0159
  821MPD2     H12135   3.980   2.476  13.363 -0.9512  0.8560  0.2996
  821MPD2    H112136   3.859   2.676  13.020  0.3458 -0.1523  0.3201
  821MPD2    H212137   3.671   2.307  13.103 -1.3917  1.3904  0.7115
  821MPD2    H312138   3.699   2.480  12.959 -0.6155  1.5247  1.3699
  821MPD2     N12139   4.007   2.699  13.227  0.1049 -0.5781  0.2619
  821MPD2    H512140   3.975   2.786  13.185 -1.4409 -0.7753  0.9988
  821MPD2    N112141   3.818   2.264  13.344  0.3536  1.0219 -0.4063
  821MPD2    H712142   3.882   2.267  13.422  0.1881  1.1276 -0.2753
  822MPD2     C12143   4.252   2.235  15.849 -0.0227  0.8613  0.2303
  822MPD2    C112144   4.260   2.231  15.984 -0.0512  0.3864  0.4503
  822MPD2    C212145   4.190   2.331  16.051 -0.0262  0.0539 -0.3193
  822MPD2    C312146   4.127   2.437  15.986  0.8798  0.1745  0.2576
  822MPD2    C412147   4.146   2.449  15.853  0.1066 -0.9368 -0.0962
  822MPD2    C512148   4.205   2.345  15.776  0.7597  0.4907 -0.4082
  822MPD2     H12149   4.184   2.331  16.160  3.1621 -0.1686 -0.1485
  822MPD2    H112150   4.109   2.534  15.798 -0.8466 -1.0766  0.3277
  822MPD2    H212151   4.276   2.153  15.783  2.8242  1.7436  0.1668
  822MPD2    H312152   4.224   2.356  15.670  2.1275 -1.0042 -0.3035
  822MPD2     N12153   4.056   2.531  16.062 -0.2787 -0.4685 -0.3575
  822MPD2    H512154   4.042   2.509  16.160  0.7848 -1.2837 -0.3914
  822MPD2    N112155   4.337   2.135  16.057  0.6245  0.7062 -0.1828
  822MPD2    H712156   4.335   2.143  16.158 -0.8037 -3.3253  0.1218
  823MPD2     C12157   3.619   2.592  16.673  0.3562 -0.3948  0.1867
  823MPD2    C112158   3.758   2.608  16.661 -0.2683  0.0491 -0.4158
  823MPD2    C212159   3.847   2.550  16.747  0.3518  0.1356 -0.0113
  823MPD2    C312160   3.791   2.460  16.843  1.0262 -0.7290 -0.1977
  823MPD2    C412161   3.660   2.452  16.865  1.0692 -0.1855 -0.5483
  823MPD2    C512162   3.571   2.523  16.784  0.4981 -0.0902 -0.9210
  823MPD2     H12163   3.952   2.577  16.741  0.5586 -0.5496  0.4658
  823MPD2    H112164   3.624   2.390  16.946  2.6646 -2.4023 -1.5475
  823MPD2    H212165   3.548   2.644  16.611  1.6747  1.2279  0.0481
  823MPD2    H312166   3.466   2.497  16.789  0.2033  0.6710 -2.9046
  823MPD2     N12167   3.881   2.376  16.918  0.1023  0.0583  0.0841
  823MPD2    H512168   3.838   2.307  16.978 -2.1453  0.4802 -1.0531
  823MPD2    N112169   3.813   2.681  16.551  0.0468 -0.0192  0.1475
  823MPD2    H712170   3.907   2.718  16.563  0.4684 -1.1815  0.4866
  824MPD2     C12171   4.493   1.386  15.925 -0.2928  0.6340  0.0090
  824MPD2    C112172   4.604   1.454  15.962  0.2033 -0.3812 -0.2145
  824MPD2    C212173   4.726   1.399  15.932 -0.0455  0.3542 -0.1923
  824MPD2    C312174   4.732   1.292  15.852 -0.2108 -0.1495  0.4081
  824MPD2    C412175   4.618   1.224  15.801 -0.1680 -0.4344  0.1714
  824MPD2    C512176   4.497   1.269  15.851 -0.0184  0.0176 -0.1537
  824MPD2     H12177   0.079   1.436  15.972 -1.6055  3.6421  0.4358
  824MPD2    H112178   4.621   1.128  15.749  1.4319 -0.3900  0.1771
  824MPD2    H212179   4.399   1.431  15.957  0.6474  1.8617  1.0465
  824MPD2    H312180   4.403   1.217  15.845  1.0633 -2.0213  0.3725
  824MPD2     N12181   0.122   1.246  15.821  0.1732 -0.0527  0.3527
  824MPD2    H512182   0.200   1.306  15.844  0.3457  0.0113 -0.3936
  824MPD2    N112183   4.588   1.577  16.038  0.6845 -0.4136 -0.4628
  824MPD2    H712184   4.498   1.623  16.039  0.5257 -0.7425  0.9493
  825MPD2     C12185   0.837   1.273  15.356 -0.8312 -0.1721 -0.4017
  825MPD2    C112186   0.737   1.333  15.433 -0.7357 -0.2732 -0.1361
  825MPD2    C212187   0.734   1.470  15.440 -0.0320 -0.8940 -0.2760
  825MPD2    C312188   0.839   1.545  15.379  0.4386  0.1454 -0.2060
  825MPD2    C412189   0.938   1.480  15.309 -0.3831  0.1724  0.7206
  825MPD2    C512190   0.936   1.345  15.306  0.0207 -0.0465 -0.3535
  825MPD2     H12191   0.656   1.525  15.492  1.7449  0.7519  0.6204
  825MPD2    H112192   1.019   1.525  15.252  0.1694 -1.9351 -0.1386
  825MPD2    H212193   0.835   1.165  15.346  0.9780 -0.4492  2.1878
  825MPD2    H312194   1.013   1.289  15.255 -2.3323 -1.3024 -2.5293
  825MPD2     N12195   0.832   1.689  15.378 -0.0044 -0.1048 -0.2910
  825MPD2    H512196   0.909   1.733  15.330 -0.0222 -0.9099 -1.0729
  825MPD2    N112197   0.640   1.262  15.500 -1.0929 -0.6068  0.7828
  825MPD2    H712198   0.651   1.161  15.497 -0.3488 -0.5800  2.5428
  826MPD2     C12199   0.251   1.606  13.995 -0.3185  0.4296  0.3986
  826MPD2    C112200   0.277   1.662  13.872  0.0426  0.0588  0.4280
  826MPD2    C212201   0.241   1.788  13.839 -0.2573  0.0955 -1.3457
  826MPD2    C312202   0.199   1.868  13.935 -0.4805 -0.8941 -0.0276
  826MPD2    C412203   0.186   1.822  14.063 -0.2713 -1.0702  0.1295
  826MPD2    C512204   0.201   1.691  14.092 -0.2242 -0.2597 -0.1571
  826MPD2     H12205   0.249   1.820  13.736 -0.1591  4.1763 -0.0521
  826MPD2    H112206   0.169   1.891  14.144  0.5871  1.5094 -1.8691
  826MPD2    H212207   0.271   1.502  14.018  1.0397  1.0138  1.8236
  826MPD2    H312208   0.185   1.656  14.193  3.0075 -0.6355  0.2056
  826MPD2     N12209   0.155   1.997  13.912  0.1899 -0.8014 -0.7035
  826MPD2    H512210   0.135   2.052  13.995 -0.7499  0.0124 -1.4623
  826MPD2    N112211   0.341   1.571  13.785  0.1439 -0.1200  0.4508
  826MPD2    H712212   0.326   1.472  13.807 -2.6334  0.8900  3.2166
  827MPD2     C12213   1.214   3.138  10.116  0.1554 -0.0880 -0.3738
  827MPD2    C112214   1.166   3.033  10.195  0.1756 -0.0584  0.6108
  827MPD2    C212215   1.049   2.968  10.164  0.4270 -0.1090 -0.0728
  827MPD2    C312216   0.981   3.017  10.054  0.3086 -0.3894 -0.4481
  827MPD2    C412217   1.035   3.125   9.973 -0.7545  0.4670  0.0494
  827MPD2    C512218   1.154   3.177  10.002 -0.2474  0.1805  0.1868
  827MPD2     H12219   0.997   2.893  10.223 -0.3401  1.5342  1.3596
  827MPD2    H112220   0.987   3.143   9.878  0.0168 -1.4031 -0.7058
  827MPD2    H212221   1.313   3.175  10.139 -0.6627  2.7931 -1.3615
  827MPD2    H312222   1.188   3.261   9.943 -3.4679  2.8245  2.0791
  827MPD2     N12223   0.854   2.960  10.027  0.6617  0.5127  0.6057
  827MPD2    H512224   0.818   2.894  10.096  0.0887  0.5139  0.3040
  827MPD2    N112225   1.246   3.001  10.305 -0.1170 -0.0019 -0.1539
  827MPD2    H712226   1.345   3.027  10.309 -0.5495  1.3908  1.6109
  828MPD2     C12227   4.208   2.968  12.564  0.4806 -1.1090 -0.0154
  828MPD2    C112228   4.104   2.992  12.473  0.3380 -0.3864 -0.3547
  828MPD2    C212229   4.110   2.922  12.355 -0.3929 -0.6062  0.5475
  828MPD2    C312230   4.221   2.838  12.326  0.5590 -0.1053 -0.1487
  828MPD2    C412231   4.332   2.821  12.418  0.4445 -0.1029  0.6720
  828MPD2    C512232   4.321   2.895  12.536 -0.1423 -0.1290 -0.2196
  828MPD2     H12233   4.030   2.941  12.283  0.4108 -0.7766 -0.3898
  828MPD2    H112234   4.410   2.748  12.403  1.2142  0.5014  1.7345
  828MPD2    H212235   4.220   3.016  12.660  0.5910  0.2008 -0.6840
  828MPD2    H312236   4.401   2.883  12.608 -0.4379  2.3792  0.5221
  828MPD2     N12237   4.239   2.772  12.203  0.3546  0.4425  0.3320
  828MPD2    H512238   4.317   2.708  12.195 -0.5389 -0.7419  1.0476
  828MPD2    N112239   3.993   3.077  12.500 -0.5104 -0.5440 -0.1256
  828MPD2    H712240   3.926   3.098  12.427  0.3758  0.4554 -0.6470
  829MPD2     C12241   3.685   3.693  11.974  0.0592  0.5388 -0.3454
  829MPD2    C112242   3.589   3.694  12.068 -0.7768  0.3178  0.1173
  829MPD2    C212243   3.606   3.638  12.193 -1.1827 -0.3754  0.2057
  829MPD2    C312244   3.728   3.569  12.220 -0.8389 -0.0550 -0.7024
  829MPD2    C412245   3.830   3.569  12.130  0.2483 -0.1380  0.2976
  829MPD2    C512246   3.811   3.636  12.012 -0.2073 -0.5317 -0.9002
  829MPD2     H12247   3.524   3.642  12.263 -0.7018 -1.5318  0.8510
  829MPD2    H112248   3.931   3.553  12.166  0.5896 -2.2120 -1.6152
  829MPD2    H212249   3.677   3.736  11.874 -3.1981 -0.2793 -0.4437
  829MPD2    H312250   3.895   3.633  11.944 -1.0671 -0.6894 -1.9647
  829MPD2     N12251   3.755   3.493  12.334 -0.4229 -0.5628  0.0032
  829MPD2    H512252   3.850   3.456  12.342  1.3927  4.0959 -0.3141
  829MPD2    N112253   3.456   3.738  12.027 -0.2341  0.6168 -0.1011
  829MPD2    H712254   3.440   3.746  11.927 -1.4049  1.6404  0.1637
  830MPD2     C12255   4.486   0.523  15.860 -0.1667 -0.4191  0.5560
  830MPD2    C112256   4.395   0.613  15.797 -0.4566  0.1270  0.0672
  830MPD2    C212257   4.436   0.690  15.692  0.1948  0.8332 -0.9464
  830MPD2    C312258   4.573   0.689  15.665 -0.6650  0.2134  0.2980
  830MPD2    C412259   4.666   0.619  15.738  0.3356  0.1113  0.1825
  830MPD2    C512260   4.618   0.530  15.834  0.9017  0.6185 -0.4595
  830MPD2     H12261   4.371   0.749  15.629 -0.7414 -0.4227 -1.1655
  830MPD2    H112262   0.030   0.625  15.712  0.3502  0.5729  0.3521
  830MPD2    H212263   4.446   0.455  15.934 -0.0590 -2.0338 -0.8552
  830MPD2    H312264   4.679   0.456  15.886  2.7138  0.5685 -2.6488
  830MPD2     N12265   4.634   0.763  15.562 -0.0710  0.3308  0.2613
  830MPD2    H512266   4.734   0.775  15.565 -0.2677  2.1667 -0.5326
  830MPD2    N112267   4.266   0.622  15.861  0.2208 -0.2764 -0.1941
  830MPD2    H712268   4.246   0.564  15.942  2.1875 -2.0609 -0.9935
  831MPD2     C12269   4.422   2.702  16.435  0.6176  0.1888  0.0466
  831MPD2    C112270   4.388   2.594  16.357  0.1628 -0.5963 -0.3398
  831MPD2    C212271   4.267   2.528  16.379 -0.2213 -0.5037  0.8553
  831MPD2    C312272   4.193   2.551  16.494 -0.0293 -0.1687 -0.4864
  831MPD2    C412273   4.244   2.640  16.583 -0.3720 -0.4405 -0.2113
  831MPD2    C512274   4.354   2.712  16.557  0.3786  0.4747 -0.6671
  831MPD2     H12275   4.237   2.457  16.302 -1.2512  0.6200  0.2189
  831MPD2    H112276   4.189   2.661  16.675 -0.2985  1.4818 -0.6016
  831MPD2    H212277   4.513   2.760  16.433 -0.2628  1.5879  0.3808
  831MPD2    H312278   4.392   2.780  16.632  0.0694 -0.5387  0.3999
  831MPD2     N12279   4.078   2.479  16.519  0.0864 -0.2169  0.0033
  831MPD2    H512280   4.047   2.472  16.615  0.9435 -0.8046  0.2300
  831MPD2    N112281   4.484   2.549  16.266 -0.4598 -0.5778 -0.1378
  831MPD2    H712282   4.558   2.613  16.241 -2.0841  1.0724 -0.7383
  832MPD2     C12283   2.813   3.197  17.394 -0.3369  0.1524  0.3289
  832MPD2    C112284   2.783   3.258  17.276  0.8069  0.1292  0.3862
  832MPD2    C212285   2.663   3.231  17.214  0.0138  0.0187 -0.0329
  832MPD2    C312286   2.573   3.131  17.258  0.3687 -0.4434 -0.3721
  832MPD2    C412287   2.612   3.068  17.380  0.2591 -0.1715 -0.2881
  832MPD2    C512288   2.725   3.108  17.440 -0.1058 -0.4626  0.2193
  832MPD2     H12289   2.631   3.300  17.137  1.1501 -0.0786 -0.5951
  832MPD2    H112290   2.551   2.994  17.428  0.8365 -1.4926 -1.5837
  832MPD2    H212291   2.905   3.212  17.450 -0.3525  1.3974  0.0103
  832MPD2    H312292   2.745   3.056  17.534 -0.6037 -0.1940  0.4739
  832MPD2     N12293   2.449   3.091  17.190 -0.3157  0.6938 -0.2341
  832MPD2    H512294   2.395   3.015  17.229 -1.4918  0.6378 -2.0271
  832MPD2    N112295   2.884   3.349  17.225  0.0489 -0.1048 -0.2538
  832MPD2    H712296   2.956   3.375  17.291 -1.9601  2.7917  0.8124
  833MPD2     C12297   0.154   0.800  12.422  0.5302  0.2055  0.2452
  833MPD2    C112298   0.083   0.737  12.318  0.1956 -1.2643 -0.9098
  833MPD2    C212299   0.142   0.639  12.239 -0.4984  0.6416  0.8866
  833MPD2    C312300   0.266   0.595  12.277  0.2641  0.6548 -0.1325
  833MPD2    C412301   0.336   0.649  12.385 -0.0222 -0.3402  0.6821
  833MPD2    C512302   0.283   0.763  12.448  0.4888 -0.2407 -0.0670
  833MPD2     H12303   0.098   0.587  12.155  0.2295  3.2844 -1.1362
  833MPD2    H112304   0.436   0.622  12.414  0.1095 -1.5282 -0.8725
  833MPD2    H212305   0.120   0.880  12.486 -1.4244  1.7747 -2.7812
  833MPD2    H312306   0.340   0.813  12.526  0.3901  1.2163 -0.9253
  833MPD2     N12307   0.315   0.486  12.200  0.3059  0.4139  0.0269
  833MPD2    H512308   0.278   0.482  12.105 -0.0841 -1.5269  0.2662
  833MPD2    N112309   4.689   0.762  12.279 -0.4855  0.6681 -0.5133
  833MPD2    H712310   4.643   0.705  12.208  1.1955 -1.8607  0.4459
  834MPD2     C12311   0.410   4.225  12.087 -0.3012  0.2229 -0.1862
  834MPD2    C112312   0.417   4.273  11.962  0.7262 -0.2454  0.1479
  834MPD2    C212313   0.409   4.409  11.946  0.7612  0.0598  0.0189
  834MPD2    C312314   0.391   4.493  12.057  0.2857 -0.0305 -0.4777
  834MPD2    C412315   0.382   4.438  12.183  0.5867  0.1072 -0.5761
  834MPD2    C512316   0.393   4.303  12.199 -0.1654 -0.1995  0.0251
  834MPD2     H12317   0.427   4.455  11.849 -3.7362  1.7224 -0.0335
  834MPD2    H112318   0.371   4.501  12.271  0.6089 -0.0789 -0.4398
  834MPD2    H212319   0.423   4.120  12.111 -1.6991  0.1158  0.1250
  834MPD2    H312320   0.380   4.256  12.296  0.3584 -1.1975 -0.3815
  834MPD2     N12321   0.390   4.631  12.032  0.3333  0.0524  0.4872
  834MPD2    H512322   0.400   4.655  11.934  0.2387 -2.1591 -0.0671
  834MPD2    N112323   0.439   4.177  11.856 -0.2023  0.6395  0.3488
  834MPD2    H712324   0.462   4.079  11.872  0.6214  1.0737  1.7322
  835MPD2     C12325   0.071   3.198  11.179  0.2426  0.1248  0.1697
  835MPD2    C112326   4.706   3.131  11.231  0.1255 -0.4831  0.1347
  835MPD2    C212327   4.722   3.005  11.276 -0.5875  0.4741 -0.2903
  835MPD2    C312328   0.102   2.949  11.289  0.3966  0.2431 -0.0323
  835MPD2    C412329   0.207   3.024  11.244 -0.1820 -0.6879 -0.1162
  835MPD2    C512330   0.194   3.138  11.182 -0.7122  0.1787 -0.0036
  835MPD2     H12331   4.634   2.951  11.310  0.6178 -0.6800  0.9945
  835MPD2    H112332   0.309   2.989  11.254 -0.7985 -2.4253  0.1126
  835MPD2    H212333   0.064   3.296  11.133  0.1480 -1.0058 -2.1755
  835MPD2    H312334   0.279   3.193  11.143  0.4704  0.1154  2.5258
  835MPD2     N12335   0.126   2.834  11.363 -0.9660 -0.0915 -0.0566
  835MPD2    H512336   0.223   2.807  11.365 -0.8720  0.2937  0.6710
  835MPD2    N112337   4.582   3.196  11.263  0.1699 -0.4040 -0.1507
  835MPD2    H712338   4.514   3.136  11.309 -0.2171 -1.8884 -2.7004
  836MPD2     C12339   4.339   2.820  11.662 -0.0955  0.6340  0.1346
  836MPD2    C112340   4.444   2.793  11.750 -0.1942 -0.0163  0.2234
  836MPD2    C212341   4.458   2.882  11.853  0.0949  0.1987  0.1720
  836MPD2    C312342   4.377   2.994  11.866 -0.1803  0.1264 -0.7900
  836MPD2    C412343   4.279   3.018  11.769  0.0211 -0.3776 -0.1915
  836MPD2    C512344   4.257   2.926  11.666  0.3924 -0.0111 -0.3127
  836MPD2     H12345   4.524   2.852  11.934  0.0619  1.6020  0.7160
  836MPD2    H112346   4.220   3.109  11.777 -1.5741 -1.3159 -1.4201
  836MPD2    H212347   4.321   2.754  11.578  1.6743  1.6480 -1.0424
  836MPD2    H312348   4.185   2.940  11.586 -2.4526 -1.7084  1.9553
  836MPD2     N12349   4.380   3.088  11.977  0.0966 -0.5160 -0.0932
  836MPD2    H512350   4.332   3.177  11.968  1.1142 -0.0999 -1.3580
  836MPD2    N112351   4.533   2.689  11.725 -0.4956  0.4906  0.5165
  836MPD2    H712352   4.524   2.649  11.632  0.0564 -2.3947  1.7276
  837MPD2     C12353   2.955   2.794  10.411  0.6089 -0.2334 -0.1994
  837MPD2    C112354   2.850   2.851  10.337  0.0837 -0.2143 -0.3682
  837MPD2    C212355   2.853   2.985  10.310 -0.2111 -0.1262 -0.3493
  837MPD2    C312356   2.956   3.065  10.370 -0.5946 -0.1550 -0.2805
  837MPD2    C412357   3.043   3.006  10.455 -0.0462 -0.2722  0.0196
  837MPD2    C512358   3.050   2.871  10.471 -0.1862  0.3478  0.5425
  837MPD2     H12359   2.770   3.026  10.254 -1.1986 -1.8205 -0.1363
  837MPD2    H112360   3.123   3.054  10.510  0.1372 -0.2370 -0.2759
  837MPD2    H212361   2.951   2.689  10.436  2.4738 -0.8471 -2.5307
  837MPD2    H312362   3.131   2.820  10.522  0.6626  2.1766  1.0091
  837MPD2     N12363   2.941   3.202  10.347  0.6697  0.4707 -0.1824
  837MPD2    H512364   2.885   3.216  10.263 -1.5525 -0.6805  1.0835
  837MPD2    N112365   2.738   2.785  10.276 -0.1315 -0.0979  0.2000
  837MPD2    H712366   2.679   2.845  10.220  2.2077  2.4015  0.4579
  838MPD2     C12367   1.792   1.268  12.145 -0.0302  0.0018  0.3793
  838MPD2    C112368   1.768   1.135  12.114 -0.2039  0.8616 -0.3591
  838MPD2    C212369   1.705   1.054  12.208 -0.1232  0.1920  0.6328
  838MPD2    C312370   1.685   1.094  12.339 -0.8490  0.2913  0.5217
  838MPD2    C412371   1.722   1.223  12.376  0.3436  0.0311 -0.2802
  838MPD2    C512372   1.772   1.311  12.278  0.3199 -0.7270  0.0645
  838MPD2     H12373   1.671   0.958  12.172  1.8657 -0.5143  0.6260
  838MPD2    H112374   1.686   1.268  12.468  0.1896 -0.8526  0.0931
  838MPD2    H212375   1.815   1.349  12.077 -0.4806  1.4772  2.0055
  838MPD2    H312376   1.775   1.415  12.311 -2.0568 -0.7511  0.3523
  838MPD2     N12377   1.601   1.022  12.429 -0.3578 -0.1000 -0.1114
  838MPD2    H512378   1.563   1.065  12.513  2.3116  2.4801 -0.2253
  838MPD2    N112379   1.772   1.091  11.977  0.2481  0.3202  0.7506
  838MPD2    H712380   1.713   1.011  11.955  1.2039 -0.7087  1.9344
  839MPD2     C12381   1.395   0.415  11.719  0.5290  0.4138  0.0128
  839MPD2    C112382   1.481   0.429  11.611 -0.2752 -0.1696 -0.0502
  839MPD2    C212383   1.566   0.547  11.609  0.3856  0.7527 -0.4155
  839MPD2    C312384   1.551   0.649  11.702 -0.4867 -0.4445 -0.7299
  839MPD2    C412385   1.464   0.630  11.810  0.4692 -0.1574  0.3224
  839MPD2    C512386   1.397   0.511  11.818 -0.0422  0.0859 -0.1424
  839MPD2     H12387   1.628   0.557  11.522 -1.1905 -1.0411 -1.7560
  839MPD2    H112388   1.447   0.695  11.895  0.2369  0.6217 -0.3218
  839MPD2    H212389   1.331   0.329  11.734 -2.3590  2.7330  1.1569
  839MPD2    H312390   1.329   0.490  11.900 -2.1584  1.4934 -1.5442
  839MPD2     N12391   1.632   0.763  11.692 -0.3428 -0.1778 -0.1019
  839MPD2    H512392   1.610   0.831  11.765 -4.3198 -0.0867 -1.3879
  839MPD2    N112393   1.505   0.332  11.507 -0.5695  0.6242  0.3270
  839MPD2    H712394   1.572   0.356  11.434  0.5569 -0.0118  1.1483
  840MPD2     C12395   1.612   3.432  10.468  0.8253 -0.5906  0.4991
  840MPD2    C112396   1.635   3.348  10.569 -0.4608 -0.6008 -0.2256
  840MPD2    C212397   1.724   3.380  10.678  0.1482  0.3219  0.0277
  840MPD2    C312398   1.796   3.497  10.672  0.6273  0.1379 -0.2569
  840MPD2    C412399   1.761   3.588  10.571 -0.2246 -0.4586 -0.7968
  840MPD2    C512400   1.670   3.558  10.479 -0.5831 -0.3549  0.1456
  840MPD2     H12401   1.748   3.314  10.760 -0.2492  2.0132  1.5140
  840MPD2    H112402   1.812   3.682  10.552 -0.0127 -0.8627 -2.2206
  840MPD2    H212403   1.532   3.416  10.397  2.0179 -0.8486 -0.7815
  840MPD2    H312404   1.648   3.637  10.408 -0.3192 -0.6783 -0.2935
  840MPD2     N12405   1.903   3.536  10.751 -0.8908  0.5033 -0.7110
  840MPD2    H512406   1.930   3.631  10.729 -1.7077  0.8465 -0.2099
  840MPD2    N112407   1.549   3.231  10.591  0.3612 -0.4686  0.7492
  840MPD2    H712408   1.480   3.224  10.517  0.8133  3.9944 -0.0514
  841MPD2     C12409   1.762   2.631  14.397 -0.2167 -0.0382  0.1169
  841MPD2    C112410   1.855   2.570  14.476  0.2010 -0.6495 -0.7085
  841MPD2    C212411   1.902   2.634  14.588  0.3514 -0.4121  0.3071
  841MPD2    C312412   1.888   2.774  14.607  0.4205 -0.3796  0.2644
  841MPD2    C412413   1.806   2.835  14.512  0.1124  0.0045 -0.3703
  841MPD2    C512414   1.739   2.764  14.414 -0.4946  0.1433  0.5677
  841MPD2     H12415   1.966   2.582  14.659 -1.9553  0.0703  2.7420
  841MPD2    H112416   1.780   2.940  14.522 -0.9577 -0.3042  0.1735
  841MPD2    H212417   1.715   2.581  14.313 -2.1328 -1.5042  2.0646
  841MPD2    H312418   1.669   2.812  14.347  0.7698 -0.0388 -0.8968
  841MPD2     N12419   1.954   2.832  14.720  0.2911  0.0633 -0.4997
  841MPD2    H512420   1.990   2.773  14.795 -0.4932  0.8741  0.5272
  841MPD2    N112421   1.882   2.433  14.473 -0.1980  0.2291 -0.0606
  841MPD2    H712422   1.945   2.403  14.547 -0.5307  0.9625  0.5106
  842MPD2     C12423   2.094   3.582  16.946  0.4565 -0.4449 -0.4423
  842MPD2    C112424   2.009   3.505  17.019  0.3368  0.1585  0.1056
  842MPD2    C212425   2.058   3.435  17.131 -0.1135 -0.6516  0.1445
  842MPD2    C312426   2.191   3.448  17.168  0.0421  0.5488 -0.1987
  842MPD2    C412427   2.273   3.532  17.099 -0.2104 -0.2275  0.2942
  842MPD2    C512428   2.227   3.598  16.989  0.1691  0.1249 -0.6570
  842MPD2     H12429   1.994   3.365  17.182  1.3777 -1.4498  0.9132
  842MPD2    H112430   2.378   3.542  17.121 -0.4795  1.9792  0.5828
  842MPD2    H212431   2.063   3.631  16.854  0.1366  2.3375  1.1467
  842MPD2    H312432   2.306   3.649  16.934  1.1078  0.3341  0.8752
  842MPD2     N12433   2.250   3.389  17.280  0.5926 -0.3006  0.0265
  842MPD2    H512434   2.344   3.423  17.299  1.2936 -0.0002 -4.0667
  842MPD2    N112435   1.884   3.480  16.959 -0.9305 -0.2824 -0.7837
  842MPD2    H712436   1.866   3.514  16.866  0.3743 -3.3707 -2.1792
  843MPD2     C12437   3.901   4.597  17.292 -0.9249 -0.1228  0.0350
  843MPD2    C112438   3.934   4.571  17.420 -0.7110 -1.0309 -0.4243
  843MPD2    C212439   4.005   4.662  17.495  0.6354  0.8448  0.5323
  843MPD2    C312440   4.039   0.040  17.433  0.3566 -0.5975  0.1525
  843MPD2    C412441   3.998   0.070  17.301 -0.3522  0.0336 -0.0729
  843MPD2    C512442   3.925   4.718  17.233 -1.0221 -0.2373  0.4845
  843MPD2     H12443   4.026   4.658  17.602  1.7936 -0.9411  0.2425
  843MPD2    H112444   4.021   0.167  17.257 -0.4373  1.2088  2.4963
  843MPD2    H212445   3.833   4.535  17.234  1.7691 -2.6921 -0.3733
  843MPD2    H312446   3.888   4.738  17.133  1.0781  1.6338  0.0853
  843MPD2     N12447   4.106   0.138  17.510 -0.3651 -0.2802 -0.2394
  843MPD2    H512448   4.120   0.226  17.461  1.1405 -1.1928 -1.4416
  843MPD2    N112449   3.889   4.446  17.473 -0.3040  0.3391  0.1430
  843MPD2    H712450   3.858   4.390  17.395 -1.2684 -0.1317  0.8637
  844MPD2     C12451   2.174   2.404  16.437 -0.4320  0.4724  0.4056
  844MPD2    C112452   2.113   2.517  16.467 -0.3457  0.1353 -0.3641
  844MPD2    C212453   2.182   2.624  16.511  0.1379 -0.0726 -0.0822
  844MPD2    C312454   2.314   2.614  16.543  0.4125  0.7391  0.2411
  844MPD2    C412455   2.375   2.495  16.516 -0.6907  0.0263  0.2379
  844MPD2    C512456   2.308   2.398  16.463 -0.2869  0.0345  0.5295
  844MPD2     H12457   2.127   2.718  16.517 -0.4782 -0.5463  1.6757
  844MPD2    H112458   2.477   2.469  16.541 -0.3495  0.0366 -1.1451
  844MPD2    H212459   2.123   2.317  16.397 -1.4778  1.4725 -0.4364
  844MPD2    H312460   2.365   2.306  16.453  1.8013  1.7350 -3.0986
  844MPD2     N12461   2.389   2.717  16.600  0.5219 -0.0720 -0.2535
  844MPD2    H512462   2.480   2.692  16.635  1.1777  1.8089 -0.5929
  844MPD2    N112463   1.975   2.537  16.429  0.0680  0.3742  0.8841
  844MPD2    H712464   1.948   2.635  16.432  2.1994  0.9572  0.6987
  845MPD2     C12465   2.543   3.784  16.853 -0.3966  0.2765  0.3135
  845MPD2    C112466   2.591   3.699  16.948  0.9728 -0.0835 -0.7530
  845MPD2    C212467   2.586   3.561  16.930  0.0520 -0.2715  0.4073
  845MPD2    C312468   2.543   3.512  16.810  0.3556  0.4924 -0.2657
  845MPD2    C412469   2.501   3.596  16.707 -0.2959  0.9666 -1.1296
  845MPD2    C512470   2.500   3.733  16.731  0.2908 -0.8666  0.0862
  845MPD2     H12471   2.614   3.492  17.009 -0.4818  0.9692  1.6885
  845MPD2    H112472   2.461   3.569  16.610  0.2009  2.2147 -1.6854
  845MPD2    H212473   2.556   3.892  16.860 -0.4815  0.2161  1.3491
  845MPD2    H312474   2.468   3.800  16.652  1.9891  0.6243  0.6465
  845MPD2     N12475   2.541   3.368  16.793  0.2289 -0.2138 -0.4191
  845MPD2    H512476   2.574   3.324  16.878  1.5713  2.3751  0.4367
  845MPD2    N112477   2.638   3.759  17.065 -0.0657  0.1882  0.7647
  845MPD2    H712478   2.632   3.860  17.070  0.0925  0.2331  0.0252
  846MPD2     C12479   4.018   4.517  13.934 -0.3396  0.3848  0.3523
  846MPD2    C112480   3.886   4.546  13.937 -0.1689 -0.5297 -0.2303
  846MPD2    C212481   3.830   4.603  14.053  0.3056  0.6296 -0.3137
  846MPD2    C312482   3.904   4.624  14.172  0.3654  0.9082  0.5536
  846MPD2    C412483   4.044   4.601  14.158  0.3713  0.1413  0.1468
  846MPD2    C512484   4.098   4.544  14.043 -0.3243  0.1359  0.2208
  846MPD2     H12485   3.725   4.631  14.061  0.5129  1.5191 -0.7589
  846MPD2    H112486   4.114   4.616  14.239 -0.7583  0.6751  1.0195
  846MPD2    H212487   4.071   4.490  13.844 -1.2653  0.6982 -0.2899
  846MPD2    H312488   4.204   4.523  14.032 -0.2605  1.3219 -1.4560
  846MPD2     N12489   3.839   4.673  14.289 -0.8649  0.1242  0.0742
  846MPD2    H512490   3.737   4.668  14.287 -0.7425 -2.0171 -1.2563
  846MPD2    N112491   3.820   4.560  13.822 -0.3532  0.3607  0.0665
  846MPD2    H712492   3.725   4.595  13.825 -0.8347 -0.8930 -0.4541
  847MPD2     C12493   3.818   1.135  15.224  0.4365  0.6768 -0.2872
  847MPD2    C112494   3.915   1.084  15.146 -0.3169 -0.4020 -0.2939
  847MPD2    C212495   3.940   0.947  15.131 -0.6202 -0.1902  0.4166
  847MPD2    C312496   3.877   0.860  15.216  0.1114 -0.1101  0.6265
  847MPD2    C412497   3.778   0.911  15.297  0.1959  0.8337  0.0779
  847MPD2    C512498   3.752   1.041  15.293 -0.1691  0.6036 -0.5312
  847MPD2     H12499   4.014   0.904  15.064  0.3498  2.7777 -0.4228
  847MPD2    H112500   3.733   0.848  15.373 -1.4272 -1.3754 -2.7272
  847MPD2    H212501   3.800   1.240  15.243  1.4410  0.5619  1.3089
  847MPD2    H312502   3.680   1.078  15.366 -0.3950 -0.5369 -0.1769
  847MPD2     N12503   3.930   0.728  15.238  0.2705  0.6017 -0.7535
  847MPD2    H512504   3.992   0.699  15.163  0.3790 -0.5065 -0.2344
  847MPD2    N112505   3.997   1.165  15.067  0.0223 -0.7890  0.0857
  847MPD2    H712506   4.066   1.123  15.006  0.6396 -0.5114  0.5933
  848MPD2     C12507   2.002   3.365  16.518 -0.1296 -0.8096  0.0545
  848MPD2    C112508   2.084   3.413  16.623 -0.5563  0.2888 -0.5206
  848MPD2    C212509   2.146   3.540  16.599  0.6637 -0.1378 -0.0844
  848MPD2    C312510   2.117   3.612  16.482 -0.5052 -0.3689  0.4549
  848MPD2    C412511   2.037   3.560  16.383  0.2410  0.8729 -0.2402
  848MPD2    C512512   1.973   3.440  16.404  0.5212  0.0275  0.7423
  848MPD2     H12513   2.209   3.578  16.678 -0.5254 -0.1147  0.8412
  848MPD2    H112514   2.016   3.622  16.296  1.0622  1.1262 -0.2662
  848MPD2    H212515   1.953   3.269  16.528 -0.0719 -0.9765 -1.2780
  848MPD2    H312516   1.905   3.415  16.323  1.5084  0.3179 -0.1845
  848MPD2     N12517   2.178   3.738  16.454  0.3945  0.5268 -0.5512
  848MPD2    H512518   2.172   3.767  16.358  1.7513  2.9714  0.0988
  848MPD2    N112519   2.111   3.336  16.736 -0.3281  0.3499  0.1873
  848MPD2    H712520   2.171   3.377  16.808 -1.3948  0.7528  0.8453
  849MPD2     C12521   1.285   3.553  14.724  0.4012 -0.9461 -0.7836
  849MPD2    C112522   1.388   3.642  14.742  0.6556  0.4289  0.5101
  849MPD2    C212523   1.456   3.648  14.864 -0.4035 -0.1076 -0.0247
  849MPD2    C312524   1.428   3.552  14.961  0.1744 -0.5525  0.3992
  849MPD2    C412525   1.327   3.468  14.943  0.3169  0.6916  0.3147
  849MPD2    C512526   1.254   3.469  14.828  0.0137  0.1707  0.0635
  849MPD2     H12527   1.542   3.714  14.865  1.5109 -2.5870  0.2826
  849MPD2    H112528   1.303   3.400  15.024  0.1928  1.0661  0.5918
  849MPD2    H212529   1.231   3.535  14.632  1.7607 -0.8039 -1.6237
  849MPD2    H312530   1.162   3.413  14.832 -0.0401  0.0974 -2.1096
  849MPD2     N12531   1.516   3.552  15.070 -0.1362 -0.4778  0.1825
  849MPD2    H512532   1.513   3.472  15.132 -2.0677 -2.3142 -2.2866
  849MPD2    N112533   1.427   3.721  14.634 -0.0156 -0.0826 -0.2649
  849MPD2    H712534   1.381   3.701  14.546 -2.2876 -1.9988  1.3438
  850MPD2     C12535   4.237   1.735  14.686 -0.4235  0.4666 -0.2615
  850MPD2    C112536   4.220   1.791  14.810 -0.0120  0.3485 -0.6022
  850MPD2    C212537   4.335   1.824  14.886 -0.2378 -0.5353 -0.2596
  850MPD2    C312538   4.460   1.768  14.844 -0.1929 -0.0168  0.8044
  850MPD2    C412539   4.469   1.711  14.721 -0.2896  0.5511  0.7259
  850MPD2    C512540   4.359   1.696  14.640 -0.1878  0.3246 -0.2494
  850MPD2     H12541   4.320   1.881  14.977  0.3919 -0.3554 -0.2696
  850MPD2    H112542   4.565   1.674  14.685 -1.0277 -1.7993  1.1765
  850MPD2    H212543   4.156   1.718  14.616  1.0580  0.1791 -1.9036
  850MPD2    H312544   4.377   1.655  14.542  1.7333 -1.5330  0.8716
  850MPD2     N12545   4.569   1.762  14.922  0.8236  0.5439 -0.1421
  850MPD2    H512546   4.653   1.722  14.881  1.4254  1.3134  0.3323
  850MPD2    N112547   4.089   1.831  14.837 -0.3395  0.3444 -0.0151
  850MPD2    H712548   4.029   1.824  14.756 -0.9034 -2.5863  0.6649
  851MPD2     C12549   4.478   1.636  15.571 -0.1484 -0.1506 -0.3446
  851MPD2    C112550   4.414   1.586  15.459 -0.7531 -0.2677  0.2182
  851MPD2    C212551   4.452   1.463  15.400  0.6628  0.2826  0.7113
  851MPD2    C312552   4.568   1.402  15.445 -0.5626 -0.3767  0.3538
  851MPD2    C412553   4.637   1.457  15.552 -0.0809 -0.3624  1.0652
  851MPD2    C512554   4.589   1.570  15.618 -0.0210 -0.5406 -0.4691
  851MPD2     H12555   4.398   1.420  15.316 -0.0408  2.0208  0.2936
  851MPD2    H112556   4.730   1.416  15.589 -0.6855 -2.6272  0.0595
  851MPD2    H212557   4.434   1.720  15.623 -0.5946 -0.2126 -0.6215
  851MPD2    H312558   4.648   1.611  15.699  0.0976 -1.2421 -0.1962
  851MPD2     N12559   4.613   1.290  15.375 -0.6376  0.1458  0.5423
  851MPD2    H512560   4.563   1.263  15.291 -1.4242  0.6412  0.8485
  851MPD2    N112561   4.298   1.658  15.419  0.8472  0.4116  0.4210
  851MPD2    H712562   4.287   1.753  15.455 -0.5441  0.2876  0.3195
  852MPD2     C12563   3.935   4.439  10.293  0.5510  0.0233  0.0965
  852MPD2    C112564   4.029   4.381  10.379 -0.2568  0.7058 -0.6739
  852MPD2    C212565   4.141   4.458  10.406 -0.6991  0.4164 -0.4067
  852MPD2    C312566   4.163   4.581  10.347 -0.0600 -0.0816  0.5647
  852MPD2    C412567   4.074   4.624  10.254 -0.0036  0.0536 -0.1727
  852MPD2    C512568   3.957   4.553  10.226  0.2621  0.2522  0.2841
  852MPD2     H12569   4.217   4.421  10.474 -1.1842 -1.7933 -1.0891
  852MPD2    H112570   4.092   4.716  10.200  2.6451 -0.7632 -0.6880
  852MPD2    H212571   3.842   4.386  10.279  0.0128  1.0437 -0.1918
  852MPD2    H312572   3.886   4.593  10.154  1.6351  0.6655 -0.8351
  852MPD2     N12573   4.281   4.652  10.385 -0.0154 -0.8973 -0.4450
  852MPD2    H512574   4.337   4.606  10.456  2.3057 -1.1151 -2.4274
  852MPD2    N112575   4.013   4.264  10.453 -0.2183  0.2596  0.0136
  852MPD2    H712576   4.084   4.234  10.519  0.8364  0.9208 -0.8191
  853MPD2     C12577   1.518   3.957  12.659  0.5359  0.6837 -0.3927
  853MPD2    C112578   1.384   3.960  12.617 -0.1312  0.7509 -0.8281
  853MPD2    C212579   1.366   3.943  12.479  0.4052 -0.0484  0.3069
  853MPD2    C312580   1.469   3.928  12.390  1.0847  0.2037  0.4268
  853MPD2    C412581   1.593   3.927  12.445 -0.1914  0.4277 -0.5292
  853MPD2    C512582   1.621   3.940  12.575 -0.0079  0.6853  0.1512
  853MPD2     H12583   1.264   3.940  12.442  1.2289 -0.3843 -1.9295
  853MPD2    H112584   1.680   3.922  12.380  0.1178 -1.4741  0.0206
  853MPD2    H212585   1.540   3.960  12.765 -1.7951 -3.7196  0.2082
  853MPD2    H312586   1.724   3.941  12.608  0.0113  2.0341  0.0461
  853MPD2     N12587   1.455   3.919  12.244 -0.4817  0.6944 -0.5701
  853MPD2    H512588   1.539   3.914  12.188  1.1136  0.6475  1.8081
  853MPD2    N112589   1.278   3.979  12.712 -0.1493  0.4153  0.6771
  853MPD2    H712590   1.307   3.982  12.809 -1.0140  2.0006  0.8894
  854MPD2     C12591   2.431   4.424  13.630 -0.1614  0.0548 -0.5490
  854MPD2    C112592   2.459   4.330  13.531 -0.4786 -0.4140  0.3856
  854MPD2    C212593   2.592   4.313  13.493 -0.3695  0.1983  0.5666
  854MPD2    C312594   2.693   4.401  13.540 -0.2112  0.0396  0.5399
  854MPD2    C412595   2.657   4.499  13.636  0.7649 -0.1775  0.6653
  854MPD2    C512596   2.526   4.512  13.676  0.2219 -0.6022  0.8332
  854MPD2     H12597   2.626   4.224  13.440  1.8009  0.0561  2.2174
  854MPD2    H112598   2.725   4.565  13.689 -0.3631  0.4784  1.3099
  854MPD2    H212599   2.332   4.436  13.674  0.0069  1.1604 -0.4692
  854MPD2    H312600   2.510   4.593  13.745 -2.0880 -0.3434 -0.0211
  854MPD2     N12601   2.827   4.387  13.496  0.8261 -0.0586  0.1416
  854MPD2    H512602   2.897   4.454  13.525  1.1808  0.3692 -1.6972
  854MPD2    N112603   2.350   4.246  13.484 -0.3437 -0.2650 -0.3447
  854MPD2    H712604   2.259   4.261  13.527 -0.4653 -2.0346  0.0066
  855MPD2     C12605   3.611   4.178  14.047  0.2038 -0.1817  0.7823
  855MPD2    C112606   3.474   4.138  14.047 -0.8237  0.1431 -0.5072
  855MPD2    C212607   3.400   4.157  13.931 -0.2349 -0.0371 -0.2336
  855MPD2    C312608   3.456   4.217  13.818 -0.0871 -0.5628  0.9583
  855MPD2    C412609   3.589   4.252  13.820 -0.7192 -0.2744  0.2921
  855MPD2    C512610   3.665   4.237  13.933  0.1105  0.5055  0.2180
  855MPD2     H12611   3.299   4.120  13.932 -0.3664  0.2720 -2.4053
  855MPD2    H112612   3.635   4.310  13.740  0.8998 -1.7841  0.1412
  855MPD2    H212613   3.671   4.154  14.133  0.2290  0.6150  0.9878
  855MPD2    H312614   3.770   4.266  13.941 -1.0572  4.7058  0.4088
  855MPD2     N12615   3.386   4.225  13.698  0.4979 -0.3948 -0.0942
  855MPD2    H512616   3.443   4.244  13.616  1.9971  0.2835  1.1031
  855MPD2    N112617   3.417   4.057  14.153 -0.4848 -1.1072 -0.1690
  855MPD2    H712618   3.323   4.027  14.129 -0.7479  0.5301 -1.1761
  856MPD2     C12619   4.631   0.146  13.654 -0.0346 -0.2772 -0.2357
  856MPD2    C112620   4.675   0.215  13.769 -0.4483 -0.0311 -0.1007
  856MPD2    C212621   4.585   0.284  13.847 -0.4474  0.4579 -0.1027
  856MPD2    C312622   4.455   0.302  13.797  0.4144 -0.5013 -0.1334
  856MPD2    C412623   4.422   0.247  13.679  1.0416 -0.3880  0.0328
  856MPD2    C512624   4.505   0.173  13.605  0.2186 -0.4317  0.9894
  856MPD2     H12625   4.617   0.321  13.944 -0.1839  0.7277 -0.2909
  856MPD2    H112626   4.323   0.271  13.641  1.0314  1.2796  1.1424
  856MPD2    H212627   4.689   0.079  13.592 -2.5500 -1.1406 -1.6846
  856MPD2    H312628   4.469   0.138  13.510  1.1346  0.4834  0.2990
  856MPD2     N12629   4.366   0.407  13.846  0.0478 -0.0908 -0.1212
  856MPD2    H512630   4.283   0.421  13.789 -0.2910  0.1976  0.4458
  856MPD2    N112631   0.061   0.197  13.822 -0.5403  0.4986 -0.4465
  856MPD2    H712632   0.085   0.250  13.906 -0.4919  0.0435 -0.1678
  857MPD2     C12633   2.004   2.638  12.872  0.1198  0.4963 -0.1182
  857MPD2    C112634   2.084   2.577  12.970 -0.2527  0.3924  0.3020
  857MPD2    C212635   2.118   2.646  13.084 -0.0972 -0.1279 -0.2881
  857MPD2    C312636   2.071   2.769  13.106 -0.1040 -0.5557  0.4892
  857MPD2    C412637   1.990   2.830  13.005  0.6985  0.0308 -0.0054
  857MPD2    C512638   1.951   2.761  12.892  0.3444  0.1403  0.0208
  857MPD2     H12639   2.165   2.597  13.169 -0.4135 -1.4253 -0.8679
  857MPD2    H112640   1.949   2.929  13.022 -0.2780 -0.0137 -1.9975
  857MPD2    H212641   1.990   2.594  12.774  0.4671 -2.7364  1.2632
  857MPD2    H312642   1.886   2.810  12.820  1.4568  1.2636 -0.2185
  857MPD2     N12643   2.107   2.829  13.226 -0.0724  0.1093  0.4034
  857MPD2    H512644   2.184   2.786  13.276 -0.3085  0.5243  1.1148
  857MPD2    N112645   2.134   2.442  12.945 -0.6140  0.0174  0.3514
  857MPD2    H712646   2.098   2.395  12.863  3.4057 -1.1353 -0.7627
  858MPD2     C12647   2.436   1.456  16.849 -1.0864 -0.3975 -0.5522
  858MPD2    C112648   2.565   1.458  16.798  0.5154  0.2982 -0.0407
  858MPD2    C212649   2.667   1.487  16.885 -0.0324  0.8069 -0.2830
  858MPD2    C312650   2.640   1.521  17.015  0.5992 -0.8199 -1.3269
  858MPD2    C412651   2.508   1.515  17.059  0.1292 -0.5478 -0.2589
  858MPD2    C512652   2.405   1.482  16.978  0.6952  0.2681  0.2795
  858MPD2     H12653   2.769   1.500  16.850  0.2100  0.7455  0.3982
  858MPD2    H112654   2.473   1.535  17.160 -0.3413 -0.6052 -0.4115
  858MPD2    H212655   2.349   1.442  16.786  1.3014  2.9284 -4.6230
  858MPD2    H312656   2.302   1.477  17.012 -0.2623  0.3542 -2.6063
  858MPD2     N12657   2.738   1.554  17.113 -0.3777  0.0837 -0.0204
  858MPD2    H512658   2.703   1.589  17.202 -0.2815  0.1502 -0.0086
  858MPD2    N112659   2.580   1.432  16.660  0.4920  0.2240 -0.0524
  858MPD2    H712660   2.496   1.419  16.606  0.6108  0.5411 -0.3104
  859MPD2     C12661   1.021   3.548  15.311 -0.5856 -0.0891  0.4786
  859MPD2    C112662   1.145   3.517  15.359  0.0624 -0.4413  0.0411
  859MPD2    C212663   1.177   3.389  15.407 -0.0901 -0.1971 -1.1079
  859MPD2    C312664   1.081   3.290  15.423 -0.3891 -0.0973  0.2974
  859MPD2    C412665   0.954   3.316  15.368 -0.6093  0.5660  1.0104
  859MPD2    C512666   0.929   3.441  15.316  0.6012 -0.7694 -0.1412
  859MPD2     H12667   1.275   3.368  15.447 -0.9737 -0.1528  1.0682
  859MPD2    H112668   0.874   3.246  15.353 -0.0101 -0.1489  1.1603
  859MPD2    H212669   0.992   3.640  15.261  1.8990  0.7164  0.5025
  859MPD2    H312670   0.836   3.462  15.265 -0.7407  0.0065  2.6030
  859MPD2     N12671   1.103   3.164  15.468 -0.1467  0.0511  0.2610
  859MPD2    H512672   1.020   3.107  15.477 -0.3380  0.1056 -1.1346
  859MPD2    N112673   1.237   3.626  15.351 -0.0860 -0.4728  0.1131
  859MPD2    H712674   1.193   3.713  15.322  0.7168  0.2900  1.1887
  860MPD2     C12675   3.624   4.081  11.923  1.2156 -0.1245  0.0923
  860MPD2    C112676   3.610   4.065  12.062 -0.0859  0.3424 -0.2169
  860MPD2    C212677   3.493   4.093  12.125 -0.2894  0.6572  0.1566
  860MPD2    C312678   3.384   4.142  12.054  0.9008 -0.2671  0.4960
  860MPD2    C412679   3.396   4.159  11.917 -0.2243 -0.1292 -0.3999
  860MPD2    C512680   3.513   4.122  11.853  0.1785  0.2604  0.3085
  860MPD2     H12681   3.486   4.073  12.231  0.2340 -1.3004 -0.1747
  860MPD2    H112682   3.318   4.189  11.848 -0.5779  0.1065  0.0973
  860MPD2    H212683   3.715   4.077  11.864 -0.0073 -1.1040 -1.7448
  860MPD2    H312684   3.525   4.130  11.746 -2.0831 -0.1720  0.0238
  860MPD2     N12685   3.264   4.172  12.126 -0.5665 -0.0933  0.1274
  860MPD2    H512686   3.266   4.163  12.227 -2.0939  0.2899  0.1933
  860MPD2    N112687   3.718   4.028  12.150 -0.2940  0.1109  0.0848
  860MPD2    H712688   3.690   4.028  12.247 -1.0208 -3.1565 -0.1216
  861MPD2     C12689   2.788   2.187  11.101 -0.5926  0.1810 -0.0965
  861MPD2    C112690   2.764   2.292  11.189 -0.0532 -1.0682 -0.3043
  861MPD2    C212691   2.679   2.388  11.140  0.4178 -0.3308 -0.1998
  861MPD2    C312692   2.609   2.372  11.023  0.8253 -0.4602 -0.9517
  861MPD2    C412693   2.640   2.264  10.941 -0.7553 -0.5998  0.6085
  861MPD2    C512694   2.735   2.178  10.975  0.3101 -0.8787  0.7207
  861MPD2     H12695   2.636   2.464  11.204  1.6434 -0.3311  0.6093
  861MPD2    H112696   2.604   2.259  10.839  1.1119 -0.0503 -0.0808
  861MPD2    H212697   2.860   2.110  11.123 -2.6024 -0.9519  2.4457
  861MPD2    H312698   2.764   2.098  10.908  0.7827 -1.0266  1.0982
  861MPD2     N12699   2.499   2.459  10.989  0.6614 -0.1781  0.2457
  861MPD2    H512700   2.501   2.548  11.038  1.0054 -0.1017  0.0962
  861MPD2    N112701   2.816   2.294  11.324 -0.2312  0.2483  0.3791
  861MPD2    H712702   2.800   2.376  11.382  0.7533 -0.8060  2.1460
  862MPD2     C12703   1.747   2.451  10.542 -0.0962  0.1389  0.0170
  862MPD2    C112704   1.859   2.383  10.584  0.4970  0.0269  0.3424
  862MPD2    C212705   1.880   2.257  10.544 -0.3750 -0.1275  0.7217
  862MPD2    C312706   1.790   2.196  10.449  0.1507  0.4163 -0.1948
  862MPD2    C412707   1.684   2.269  10.403  0.1942 -0.0865  0.1217
  862MPD2    C512708   1.661   2.399  10.445 -0.4368  0.6665  0.4180
  862MPD2     H12709   1.971   2.206  10.573  1.0862 -0.0673 -3.8162
  862MPD2    H112710   1.600   2.235  10.343  1.5585 -1.3795 -1.0643
  862MPD2    H212711   1.729   2.554  10.571 -1.1403  0.5157 -1.9514
  862MPD2    H312712   1.574   2.450  10.405  0.5309  0.7068 -1.6158
  862MPD2     N12713   1.815   2.074  10.377  0.6578  0.2998 -0.0163
  862MPD2    H512714   1.750   2.053  10.301 -0.3215 -1.4521  1.2906
  862MPD2    N112715   1.959   2.431  10.671  0.1969 -0.0502 -0.1241
  862MPD2    H712716   2.039   2.374  10.699  0.1443 -0.6517 -1.1847
  863MPD2     C12717   1.251   0.561  16.564 -0.6539  0.1041  0.3764
  863MPD2    C112718   1.178   0.517  16.672  0.8456  0.3677 -0.3930
  863MPD2    C212719   1.239   0.520  16.793  0.4511 -0.1074  0.0232
  863MPD2    C312720   1.363   0.585  16.799 -0.1407 -0.3145  0.0534
  863MPD2    C412721   1.428   0.648  16.696 -0.1020 -0.1801  0.2765
  863MPD2    C512722   1.373   0.634  16.574  0.2247  0.1386  0.2725
  863MPD2     H12723   1.186   0.476  16.877  0.8548  0.3845  0.5341
  863MPD2    H112724   1.525   0.695  16.709 -0.7429  0.5067  2.5962
  863MPD2    H212725   1.202   0.548  16.468 -0.2295  0.1648  0.1509
  863MPD2    H312726   1.424   0.673  16.486 -0.7274 -1.6014 -1.0527
  863MPD2     N12727   1.424   0.577  16.927  0.4861 -0.2182  0.8593
  863MPD2    H512728   1.378   0.521  16.997  0.7253 -0.1272  1.0914
  863MPD2    N112729   1.044   0.477  16.663 -0.3906  0.7599 -0.4703
  863MPD2    H712730   1.012   0.452  16.570 -2.4113 -0.1465  0.4802
  864MPD2     C12731   1.406   1.451  17.048 -0.0953  0.2523  0.2860
  864MPD2    C112732   1.341   1.424  16.927 -0.7412  0.3857  0.3465
  864MPD2    C212733   1.342   1.516  16.826  0.5315  0.9191 -0.2208
  864MPD2    C312734   1.397   1.644  16.844  0.2573  0.3346  0.6683
  864MPD2    C412735   1.460   1.663  16.963  0.3652  0.7283  0.4531
  864MPD2    C512736   1.477   1.566  17.061 -0.0552 -0.1587  0.3844
  864MPD2     H12737   1.284   1.490  16.738  2.2110 -1.1420 -0.7432
  864MPD2    H112738   1.505   1.758  16.988  2.4066 -0.6853  2.1692
  864MPD2    H212739   1.415   1.378  17.128  0.9038 -0.9233 -0.8987
  864MPD2    H312740   1.529   1.587  17.154 -1.7183  0.9640  1.0575
  864MPD2     N12741   1.384   1.744  16.743 -0.2510 -0.5031 -0.0991
  864MPD2    H512742   1.444   1.825  16.756  0.0938 -0.7952  0.1387
  864MPD2    N112743   1.266   1.305  16.923  0.6957  0.4004  0.6980
  864MPD2    H712744   1.278   1.236  16.997  0.3793 -2.0197 -1.5030
  865MPD2     C12745   1.394   1.731  15.684  0.2951  0.1289 -0.2680
  865MPD2    C112746   1.375   1.647  15.794 -0.0283 -0.0790 -0.0683
  865MPD2    C212747   1.344   1.709  15.924  0.1891  0.1793  0.2248
  865MPD2    C312748   1.341   1.847  15.933 -0.5326  0.2651 -0.7487
  865MPD2    C412749   1.358   1.927  15.821  0.5798  0.0134 -0.0290
  865MPD2    C512750   1.381   1.864  15.703  0.0284 -0.2793  0.0596
  865MPD2     H12751   1.344   1.644  16.011 -0.9825  2.4102  1.9071
  865MPD2    H112752   1.357   2.035  15.830 -2.5103 -0.1287  1.4221
  865MPD2    H212753   1.400   1.697  15.581 -0.6297 -0.9159  0.0208
  865MPD2    H312754   1.408   1.928  15.620  1.2129 -3.1970 -1.8130
  865MPD2     N12755   1.336   1.904  16.059  0.2561  0.6052  0.8877
  865MPD2    H512756   1.378   1.994  16.077 -1.7100  2.3473 -3.1117
  865MPD2    N112757   1.401   1.509  15.771 -0.3543 -0.3151  0.1256
  865MPD2    H712758   1.433   1.485  15.677  0.1356 -2.9763  0.9780
  866MPD2     C12759   3.295   2.568  11.758  0.4312 -0.3953 -0.6295
  866MPD2    C112760   3.272   2.499  11.643  0.2814 -0.0229  0.9994
  866MPD2    C212761   3.162   2.529  11.562  0.0753  0.3871 -0.1732
  866MPD2    C312762   3.065   2.626  11.594 -0.4749 -0.4859 -1.0880
  866MPD2    C412763   3.079   2.681  11.719  0.3917  0.1858  0.2012
  866MPD2    C512764   3.193   2.653  11.794  0.4511  0.2473 -0.4399
  866MPD2     H12765   3.167   2.489  11.462 -0.1751 -2.3346  0.8992
  866MPD2    H112766   3.007   2.752  11.758  0.3996 -0.3952  1.2701
  866MPD2    H212767   3.370   2.544  11.832  0.2168  2.6970  0.6122
  866MPD2    H312768   3.209   2.709  11.885  0.8037 -1.8238  0.7806
  866MPD2     N12769   2.952   2.665  11.520  0.4749  0.2363 -0.1265
  866MPD2    H512770   2.883   2.720  11.571 -1.6523 -2.2187 -0.4180
  866MPD2    N112771   3.366   2.397  11.610  0.4032 -0.2940 -0.1807
  866MPD2    H712772   3.453   2.395  11.662 -1.4203 -0.8684  2.8773
  867MPD2     C12773   0.241   1.413  16.492 -1.0159  0.1295  0.5539
  867MPD2    C112774   0.303   1.401  16.613 -0.5264  0.0211  0.5429
  867MPD2    C212775   0.289   1.507  16.709 -0.5713 -0.5598  0.9979
  867MPD2    C312776   0.211   1.619  16.679  0.2358  0.2452  0.1664
  867MPD2    C412777   0.158   1.639  16.551  0.2405 -0.0615 -0.6857
  867MPD2    C512778   0.179   1.537  16.464 -0.8743  0.1831 -0.2339
  867MPD2     H12779   0.321   1.502  16.812 -1.0828  0.7785  1.2240
  867MPD2    H112780   0.102   1.729  16.527 -1.6038 -1.1842 -0.6218
  867MPD2    H212781   0.248   1.337  16.415 -0.4611 -0.0672  0.7976
  867MPD2    H312782   0.139   1.552  16.364  2.5228  1.5112 -1.4013
  867MPD2     N12783   0.192   1.726  16.769  0.1578 -0.5181 -0.0129
  867MPD2    H512784   0.156   1.810  16.725 -0.0332 -0.0488  1.0415
  867MPD2    N112785   0.390   1.285  16.624 -0.1330  0.4798  0.4957
  867MPD2    H712786   0.388   1.224  16.542  1.7744  1.9393 -0.6223
  868MPD2     C12787   1.925   0.631  13.028 -0.0076  0.1321 -0.2112
  868MPD2    C112788   2.000   0.614  13.144 -0.1404 -0.3796 -0.0445
  868MPD2    C212789   1.941   0.624  13.270  0.7090 -0.3616  0.3135
  868MPD2    C312790   1.810   0.653  13.284  0.0959 -0.0035 -0.5172
  868MPD2    C412791   1.730   0.662  13.169  0.1413 -0.0397  0.0679
  868MPD2    C512792   1.792   0.656  13.042 -0.1765  0.5809  0.2559
  868MPD2     H12793   1.996   0.626  13.364 -2.1120 -0.8940  1.9704
  868MPD2    H112794   1.624   0.675  13.185 -0.2057  1.3341 -3.4361
  868MPD2    H212795   1.976   0.622  12.932 -0.6535 -2.9130 -0.2763
  868MPD2    H312796   1.735   0.672  12.951  0.4883 -1.9177 -0.5988
  868MPD2     N12797   1.757   0.668  13.422 -0.6907  0.0003  0.1035
  868MPD2    H512798   1.819   0.633  13.495  0.9538  2.0644 -0.3109
  868MPD2    N112799   2.135   0.592  13.129  0.3997 -0.5097 -0.3144
  868MPD2    H712800   2.171   0.601  13.035  1.5122 -1.8337 -0.0112
  869MPD2     C12801   2.915   3.563   0.603  0.1288 -0.2535  0.2329
  869MPD2    C112802   3.016   3.628   0.537 -0.0885 -0.4423  0.3669
  869MPD2    C212803   3.141   3.574   0.535 -0.0118 -0.6383 -0.1629
  869MPD2    C312804   3.176   3.466   0.618  0.2374 -0.4830  0.3111
  869MPD2    C412805   3.073   3.397   0.677 -0.4479  0.2586 -0.5515
  869MPD2    C512806   2.947   3.449   0.672 -0.7109 -0.0489 -0.1088
  869MPD2     H12807   3.214   3.640   0.490 -0.6485  0.5853  0.6206
  869MPD2    H112808   3.097   3.324   0.753  1.4685 -1.1770 -2.5211
  869MPD2    H212809   2.815   3.603   0.596 -0.1359 -0.6897  1.5222
  869MPD2    H312810   2.877   3.398   0.738  1.6318 -0.7045  1.8625
  869MPD2     N12811   3.302   3.420   0.639 -0.0868 -0.6794 -0.1292
  869MPD2    H512812   3.318   3.345   0.705 -0.4477 -2.0975 -1.6550
  869MPD2    N112813   2.982   3.748   0.471  0.5608 -0.5967  0.4474
  869MPD2    H712814   2.899   3.795   0.507 -0.9623 -1.8893 -1.3701
  870MPD2     C12815   3.159   2.010   1.629  0.5724  0.1056  0.3149
  870MPD2    C112816   3.273   2.092   1.625  0.0965  0.1704 -0.4718
  870MPD2    C212817   3.252   2.227   1.624  0.1351  0.7614 -0.1312
  870MPD2    C312818   3.122   2.282   1.619  0.5290  0.5707 -0.1779
  870MPD2    C412819   3.014   2.195   1.612  0.3053  0.1401 -0.6631
  870MPD2    C512820   3.033   2.061   1.615  0.1572 -0.2327  0.0338
  870MPD2     H12821   3.337   2.293   1.632 -1.8299  3.1633  1.0253
  870MPD2    H112822   2.912   2.231   1.612  1.0306  2.2312  1.8748
  870MPD2    H212823   3.174   1.903   1.637  1.0735  0.0693 -1.1789
  870MPD2    H312824   2.954   1.990   1.589 -0.3994  0.0942  0.8567
  870MPD2     N12825   3.096   2.418   1.610  0.6722  0.1192  0.0653
  870MPD2    H512826   3.173   2.479   1.584  0.0519  0.9334  0.1415
  870MPD2    N112827   3.399   2.027   1.638  0.4129 -0.2580 -0.4228
  870MPD2    H712828   3.392   1.928   1.655 -0.3283 -0.3388 -1.1591
  871MPD2     C12829   4.130   2.056  16.442 -0.6623  0.8020  0.1221
  871MPD2    C112830   4.178   1.970  16.533 -0.0658 -0.2098 -0.9696
  871MPD2    C212831   4.196   1.836  16.509  0.4454 -0.2716  0.0219
  871MPD2    C312832   4.191   1.787  16.377  0.1349 -0.5698  0.0917
  871MPD2    C412833   4.163   1.883  16.281 -0.1547  0.3281  0.5512
  871MPD2    C512834   4.136   2.014  16.310 -0.3906  0.7831 -0.5236
  871MPD2     H12835   4.229   1.767  16.585 -0.4527 -2.0553 -1.1959
  871MPD2    H112836   4.158   1.846  16.179  0.4766  2.9030 -0.4127
  871MPD2    H212837   4.104   2.158  16.464  1.6844  1.4397 -0.0839
  871MPD2    H312838   4.108   2.085  16.233 -1.9755 -2.5021 -2.9648
  871MPD2     N12839   4.200   1.652  16.346 -0.4753 -0.8065 -0.4664
  871MPD2    H512840   4.173   1.587  16.419 -0.5825  0.1571  0.3507
  871MPD2    N112841   4.198   2.027  16.661  0.2263 -0.6691 -0.7388
  871MPD2    H712842   4.197   2.128  16.670 -3.5914 -0.6259 -1.4728
  872MPD2     C12843   0.448   4.084  14.407  0.5875  0.1284 -1.2276
  872MPD2    C112844   0.425   4.153  14.289 -0.0334  0.5839 -0.4349
  872MPD2    C212845   0.298   4.192  14.258 -0.4297  0.5554 -0.3676
  872MPD2    C312846   0.193   4.166  14.351 -0.1791 -0.3048 -0.2367
  872MPD2    C412847   0.218   4.098  14.471 -0.3583  0.2073  0.2123
  872MPD2    C512848   0.350   4.053  14.497  0.2690  0.1668  0.3322
  872MPD2     H12849   0.273   4.246  14.167 -0.3622  2.9976  1.0658
  872MPD2    H112850   0.143   4.083  14.548  2.9132 -2.8044  2.8385
  872MPD2    H212851   0.548   4.048  14.430  0.3714  1.5456  1.9207
  872MPD2    H312852   0.380   4.001  14.588 -0.8952 -2.6251 -0.8736
  872MPD2     N12853   0.058   4.210  14.330 -0.4110 -1.0432 -0.1644
  872MPD2    H512854   0.005   4.198  14.416 -0.1085 -0.0768  0.1532
  872MPD2    N112855   0.523   4.181  14.192  0.3014 -0.6786  0.2194
  872MPD2    H712856   0.491   4.206  14.099 -0.9830 -0.3465  0.7565
  873MPD2     C12857   2.330   4.348   0.999 -0.3419 -0.0082 -0.6569
  873MPD2    C112858   2.216   4.395   1.064  0.2122 -0.3733 -0.3927
  873MPD2    C212859   2.113   4.300   1.089 -0.3371  0.8122  0.0626
  873MPD2    C312860   2.125   4.168   1.055  0.2015  0.4696  0.4011
  873MPD2    C412861   2.242   4.129   0.978  0.1252 -0.4856  0.0414
  873MPD2    C512862   2.348   4.215   0.970 -0.2779 -0.5471  0.0500
  873MPD2     H12863   2.029   4.331   1.151  0.9687  1.3379  1.5877
  873MPD2    H112864   2.269   4.025   0.962 -1.4653 -0.8753 -0.0471
  873MPD2    H212865   2.412   4.417   0.983 -0.1679  0.0600  0.5029
  873MPD2    H312866   2.443   4.181   0.930  0.4961  1.0485  0.5270
  873MPD2     N12867   2.042   4.068   1.102 -0.6854  0.0551  0.2984
  873MPD2    H512868   2.058   3.977   1.058 -0.9554  0.4472 -0.6156
  873MPD2    N112869   2.205   4.533   1.090  0.0161  0.0363 -0.2702
  873MPD2    H712870   2.288   4.590   1.080  0.4095 -0.1900  1.7401
  874MPD2     C12871   1.569   3.769  16.353  0.3583  0.3557 -0.0013
  874MPD2    C112872   1.662   3.729  16.446  0.0867  0.1179 -0.1324
  874MPD2    C212873   1.786   3.783  16.441  0.9829 -0.2041 -0.0351
  874MPD2    C312874   1.808   3.890  16.370 -0.6573  0.1136 -0.1274
  874MPD2    C412875   1.702   3.953  16.301  0.7314  0.2278 -0.1694
  874MPD2    C512876   1.590   3.875  16.273 -0.2353  0.5970 -0.5232
  874MPD2     H12877   1.866   3.754  16.507  0.9392 -0.1860  0.0255
  874MPD2    H112878   1.713   4.040  16.238 -0.9019  1.1873  0.8888
  874MPD2    H212879   1.481   3.706  16.354  0.7778 -0.2363 -0.4467
  874MPD2    H312880   1.519   3.916  16.202  0.3905 -0.0665 -1.5348
  874MPD2     N12881   1.932   3.955  16.385 -0.0969 -0.2818 -0.0520
  874MPD2    H512882   2.003   3.906  16.437 -1.1477  0.9198  2.4973
  874MPD2    N112883   1.625   3.620  16.520  0.2330 -0.4020  0.2805
  874MPD2    H712884   1.538   3.570  16.501 -0.8574  2.0394 -1.2794
  875MPD2     C12885   2.749   2.261  14.621  0.1624  0.2726  0.6300
  875MPD2    C112886   2.644   2.343  14.601 -0.2700  0.1285  0.0218
  875MPD2    C212887   2.585   2.414  14.709 -0.1210 -0.6351  0.6321
  875MPD2    C312888   2.636   2.398  14.838 -1.3549 -0.2294  0.1025
  875MPD2    C412889   2.746   2.317  14.852  0.3042 -0.1442 -0.2497
  875MPD2    C512890   2.808   2.255  14.750  0.2104  0.3674 -0.3454
  875MPD2     H12891   2.505   2.486  14.694 -1.6577 -2.8306 -1.9082
  875MPD2    H112892   2.797   2.310  14.948  0.8423  0.1932 -0.5095
  875MPD2    H212893   2.798   2.210  14.539 -2.3468 -0.2595 -0.5199
  875MPD2    H312894   2.894   2.190  14.765 -1.4419 -1.7127  0.1918
  875MPD2     N12895   2.583   2.458  14.959  0.1880 -0.5524 -0.2654
  875MPD2    H512896   2.634   2.452  15.046 -0.3363 -0.8609  0.0241
  875MPD2    N112897   2.588   2.364  14.468 -0.6166 -0.4619  0.1331
  875MPD2    H712898   2.527   2.444  14.456 -0.2122 -0.1926 -0.1403
  876MPD2     C12899   1.312   3.694  15.731  0.6161  0.0093  1.6146
  876MPD2    C112900   1.417   3.672  15.819  0.0499 -0.7067  0.0683
  876MPD2    C212901   1.453   3.542  15.856 -0.3471 -0.2182 -0.6816
  876MPD2    C312902   1.380   3.436  15.817 -0.6726 -0.2888 -0.5173
  876MPD2    C412903   1.272   3.453  15.729 -0.4544  0.3277 -0.9948
  876MPD2    C512904   1.243   3.584  15.690  0.4258 -0.3170  0.2723
  876MPD2     H12905   1.546   3.533  15.912  0.2540  0.2736 -1.5878
  876MPD2    H112906   1.211   3.370  15.696 -0.9257 -0.5235  1.9940
  876MPD2    H212907   1.276   3.790  15.697 -1.3170 -1.7124 -1.1567
  876MPD2    H312908   1.164   3.606  15.620 -0.9341  0.6185  2.1184
  876MPD2     N12909   1.424   3.305  15.861  0.4965  0.0157 -0.7984
  876MPD2    H512910   1.513   3.311  15.909  0.2011  0.5088 -0.3206
  876MPD2    N112911   1.478   3.791  15.869  0.1337 -0.3816  0.0657
  876MPD2    H712912   1.425   3.877  15.852  0.0059 -1.2499 -3.9222
  877MPD2     C12913   1.612   4.357  15.479  0.0627 -0.0484 -0.3532
  877MPD2    C112914   1.722   4.350  15.557 -0.1247  0.2280  0.5701
  877MPD2    C212915   1.829   4.431  15.524 -0.1647 -0.2742 -0.3304
  877MPD2    C312916   1.831   4.500  15.401  0.3317  0.5197 -0.1576
  877MPD2    C412917   1.718   4.502  15.318  0.3191 -0.0012 -0.1243
  877MPD2    C512918   1.612   4.432  15.363 -0.5166  0.3508  0.0164
  877MPD2     H12919   1.920   4.428  15.583 -0.1128 -3.7077 -0.5494
  877MPD2    H112920   1.714   4.538  15.216  1.9958 -0.5320 -0.3847
  877MPD2    H212921   1.520   4.306  15.506 -0.5483  0.6758 -1.0414
  877MPD2    H312922   1.523   4.439  15.302  2.1683  4.2003 -3.4427
  877MPD2     N12923   1.948   4.568  15.356  0.9246 -0.2729 -1.0014
  877MPD2    H512924   1.939   4.602  15.261 -3.0873  0.0455 -0.5356
  877MPD2    N112925   1.729   4.272  15.681 -0.0202 -0.2996 -0.5273
  877MPD2    H712926   1.816   4.280  15.733 -0.1115 -1.4717 -0.1993
  878MPD2     C12927   1.298   3.492  13.750  0.5938  0.5690  0.1022
  878MPD2    C112928   1.396   3.584  13.724  0.3387  0.1654 -0.2987
  878MPD2    C212929   1.445   3.662  13.828  0.0799  0.4019  0.3940
  878MPD2    C312930   1.392   3.658  13.954  0.2321  0.2072  0.1758
  878MPD2    C412931   1.282   3.572  13.970  0.2193  0.0204  0.2604
  878MPD2    C512932   1.239   3.491  13.869  0.0501 -0.9010  0.2767
  878MPD2     H12933   1.536   3.718  13.812  1.3454 -2.0380 -0.7874
  878MPD2    H112934   1.240   3.557  14.069  0.6076  0.4254  0.4871
  878MPD2    H212935   1.266   3.425  13.671  0.6283  0.6267  0.0384
  878MPD2    H312936   1.166   3.412  13.882 -1.7092  1.0018  1.8931
  878MPD2     N12937   1.470   3.711  14.060 -0.1569 -0.5951 -1.1027
  878MPD2    H512938   1.559   3.750  14.033  0.7735 -2.0783 -0.1879
  878MPD2    N112939   1.442   3.576  13.590  0.2530  0.7135 -0.1986
  878MPD2    H712940   1.391   3.521  13.522  1.1071 -1.0251  0.5616
  879MPD2     C12941   1.890   4.371  16.715 -0.3979  0.1077  0.1609
  879MPD2    C112942   1.927   4.304  16.828  0.7628  0.9385 -0.2731
  879MPD2    C212943   1.890   4.166  16.847 -0.0910  0.6047  0.2675
  879MPD2    C312944   1.827   4.098  16.749 -0.4442  0.5950  0.2481
  879MPD2    C412945   1.785   4.170  16.639  0.6809  0.4047 -0.1226
  879MPD2    C512946   1.813   4.306  16.625 -0.8327 -0.3236  0.3305
  879MPD2     H12947   1.922   4.120  16.940  0.7566  0.0592 -0.2918
  879MPD2    H112948   1.725   4.129  16.559 -1.4881  0.1147  1.6461
  879MPD2    H212949   1.926   4.471  16.695 -2.1206  1.0435  1.7004
  879MPD2    H312950   1.789   4.359  16.534  2.2899 -1.6308 -1.2526
  879MPD2     N12951   1.779   3.963  16.754 -0.1361  0.6029  0.2364
  879MPD2    H512952   1.723   3.929  16.677  0.7671 -0.3665 -0.0030
  879MPD2    N112953   1.986   4.390  16.930  0.1856 -0.3746 -0.2311
  879MPD2    H712954   2.014   4.484  16.906 -0.3288  0.4060  2.2860
  880MPD2     C12955   3.111   2.036   0.240 -0.6981  0.6847 -0.5319
  880MPD2    C112956   3.105   2.077   0.372  0.5281 -0.4317  0.3258
  880MPD2    C212957   3.128   1.974   0.467  0.5016  0.7390 -0.7326
  880MPD2    C312958   3.153   1.844   0.430 -0.3448  0.0503 -0.3994
  880MPD2    C412959   3.157   1.812   0.297 -0.0992  0.4431 -0.1860
  880MPD2    C512960   3.147   1.907   0.201  0.6445 -0.3071 -0.0189
  880MPD2     H12961   3.131   1.997   0.573  0.6404  1.2178 -0.8402
  880MPD2    H112962   3.166   1.712   0.256  0.4387 -0.9436  3.3659
  880MPD2    H212963   3.088   2.109   0.163 -1.8712  3.0058  2.0000
  880MPD2    H312964   3.143   1.883   0.095  1.4167  1.0141 -0.3485
  880MPD2     N12965   3.171   1.750   0.533  0.6219  0.1544  0.3030
  880MPD2    H512966   3.174   1.787   0.628 -0.5060  0.1038  0.3546
  880MPD2    N112967   3.075   2.205   0.405 -0.6811 -0.5709 -0.1396
  880MPD2    H712968   3.074   2.261   0.321  0.5249 -0.7360 -0.2722
  881MPD2     C12969   3.195   2.976  17.645  0.2512 -0.2046  0.2583
  881MPD2    C112970   3.158   2.847  17.630  0.7778  0.2858  0.4884
  881MPD2    C212971   3.138   2.782  17.751  0.1031 -0.1828 -0.2855
  881MPD2    C312972   3.120   2.845   0.114  0.4459 -0.5164 -0.2887
  881MPD2    C412973   3.123   2.984   0.112  0.5923  0.6494 -0.3449
  881MPD2    C512974   3.165   3.047  17.759 -0.0434  0.4376  0.0185
  881MPD2     H12975   3.144   2.674  17.748 -2.2102 -0.3219  0.0125
  881MPD2    H112976   3.115   3.044   0.201  0.0738  2.7887 -1.8392
  881MPD2    H212977   3.223   3.045  17.566 -2.6053  2.2915  1.4238
  881MPD2    H312978   3.191   3.151   0.012 -2.2885  0.9246  0.6572
  881MPD2     N12979   3.081   2.781   0.235  1.0118 -0.3718 -0.0700
  881MPD2    H512980   3.068   2.839   0.318 -1.9310  0.5264 -1.1544
  881MPD2    N112981   3.193   2.778  17.514 -0.8366 -0.9520 -0.3342
  881MPD2    H712982   3.241   2.826  17.439 -0.5698  1.3769  1.3543
  882MPD2     C12983   1.935   0.033  14.666  0.1299 -0.2726  0.3615
  882MPD2    C112984   1.905   4.738  14.799  0.4089 -0.5176  0.0667
  882MPD2    C212985   1.771   4.717  14.837  0.2853 -0.1314 -0.1123
  882MPD2    C312986   1.670   4.734  14.742  0.5754 -0.2517 -0.0902
  882MPD2    C412987   1.700   0.044  14.621 -0.0387  0.1132  0.2502
  882MPD2    C512988   1.830   0.059  14.582  0.4890  0.6429 -0.2153
  882MPD2     H12989   1.738   4.692  14.938 -3.6783  3.5545 -0.5203
  882MPD2    H112990   1.631   0.075  14.543 -0.0609 -0.8389 -0.1123
  882MPD2    H212991   2.038   0.033  14.633  0.0561  0.8727  0.1232
  882MPD2    H312992   1.853   0.093  14.482  0.3957 -0.2531 -0.5384
  882MPD2     N12993   1.538   4.696  14.769 -0.1008  0.3261 -0.5145
  882MPD2    H512994   1.532   4.658  14.863 -0.5470  0.5912 -0.4372
  882MPD2    N112995   2.012   4.715  14.883  0.3190 -0.0509  0.1164
  882MPD2    H712996   2.100   4.725  14.833 -1.0895  0.6978 -2.2457
  883MPD2     C12997   3.451   3.979  16.319  0.0025 -0.0312  0.5047
  883MPD2    C112998   3.478   4.057  16.209 -0.7831 -0.3558 -0.1923
  883MPD2    C212999   3.586   4.135  16.218  0.0496 -0.2243 -0.0283
  883MPD2    C313000   3.672   4.131  16.327  0.4885  0.3900  1.0605
  883MPD2    C413001   3.642   4.048  16.434  0.4782  0.3119 -0.0172
  883MPD2    C513002   3.526   3.977  16.432  0.6048  0.3380 -0.5463
  883MPD2     H13003   3.619   4.204  16.140 -0.2570 -1.0975 -0.9243
  883MPD2    H113004   3.700   4.029  16.524  0.9417 -2.4306 -0.8987
  883MPD2    H213005   3.361   3.919  16.326  0.5122 -0.9301 -0.6961
  883MPD2    H313006   3.504   3.915  16.519 -1.6840 -1.0987 -2.1520
  883MPD2     N13007   3.784   4.212  16.322  0.8139  0.3616  0.2719
  883MPD2    H513008   3.791   4.271  16.240 -0.3606 -0.5094 -0.4589
  883MPD2    N113009   3.407   4.064  16.093  0.6187 -0.2547 -0.2572
  883MPD2    H713010   3.453   4.107  16.013 -0.7892  0.6304 -0.5914
  884MPD2     C13011   0.691   0.034  15.339 -0.2961 -0.2064  0.0839
  884MPD2    C113012   0.709   0.171  15.339  0.8928 -0.1216  0.1199
  884MPD2    C213013   0.595   0.252  15.336 -0.5295  0.7893  0.0834
  884MPD2    C313014   0.468   0.199  15.354 -0.7318  0.0934  0.5291
  884MPD2    C413015   0.451   0.057  15.345  0.0675  0.1228 -0.0495
  884MPD2    C513016   0.564   4.721  15.325  0.7373 -0.3132  0.6423
  884MPD2     H13017   0.612   0.359  15.333  0.7498  0.5516 -1.2080
  884MPD2    H113018   0.355   0.007  15.355  0.4427 -1.0548 -2.2385
  884MPD2    H213019   0.765   4.697  15.355 -0.5503 -0.6484 -0.8225
  884MPD2    H313020   0.539   4.615  15.318 -2.9620  0.6873 -1.2910
  884MPD2     N13021   0.356   0.284  15.374 -0.1684  0.3938  0.2896
  884MPD2    H513022   0.365   0.384  15.360 -0.6947  0.6513  1.8528
  884MPD2    N113023   0.835   0.232  15.355 -0.1650 -0.9729  0.4326
  884MPD2    H713024   0.829   0.332  15.372  0.4491 -0.9252  0.3463
  885MPD2     C13025   3.815   0.062  17.696  0.6500  0.4838 -0.1921
  885MPD2    C113026   3.872   0.182  17.740  0.1949 -0.2089 -0.1674
  885MPD2    C213027   3.856   0.296  17.664  0.2664 -0.8542 -0.2620
  885MPD2    C313028   3.784   0.290  17.541 -0.3441 -0.4024  0.1674
  885MPD2    C413029   3.737   0.171  17.496  0.8499  0.1160  0.4639
  885MPD2    C513030   3.741   0.060  17.577  0.3766 -0.0948  0.5524
  885MPD2     H13031   3.896   0.387  17.708  0.0597 -0.7203 -0.3481
  885MPD2    H113032   3.682   0.155  17.404  1.5356 -1.0475  0.2542
  885MPD2    H213033   3.833   4.714  17.756  1.7550 -0.3362 -1.7454
  885MPD2    H313034   3.702   4.704  17.545  1.8559  0.1871 -2.0800
  885MPD2     N13035   3.775   0.397  17.458 -0.4875  0.0350 -0.0241
  885MPD2    H513036   3.824   0.478  17.494  3.7131 -0.6344 -4.3466
  885MPD2    N113037   3.934   0.175   0.110  0.0149 -0.4232  0.3033
  885MPD2    H713038   3.948   0.082   0.147 -0.1410 -0.2143  0.8846
  886MPD2     C13039   4.719   3.824  15.336  0.3516 -0.1706  0.2481
  886MPD2    C113040   0.099   3.769  15.308 -0.3138  0.5752 -0.5997
  886MPD2    C213041   0.201   3.853  15.260  0.0470  0.2384  0.4888
  886MPD2    C313042   0.175   3.980  15.227  0.7638 -0.1356  0.1734
  886MPD2    C413043   0.053   4.032  15.253 -0.4922  0.5117 -0.2219
  886MPD2    C513044   4.702   3.952  15.304  0.5437 -0.2780  0.0186
  886MPD2     H13045   0.300   3.811  15.246  0.1725  1.0794 -1.1054
  886MPD2    H113046   0.018   4.132  15.233  0.3019  0.7425 -0.4796
  886MPD2    H213047   4.632   3.768  15.370  0.3173 -0.6651 -0.6485
  886MPD2    H313048   4.603   3.993  15.317 -0.2229 -1.3892 -2.2086
  886MPD2     N13049   0.287   4.057  15.177  0.2015 -0.1034 -0.0634
  886MPD2    H513050   0.377   4.011  15.164 -1.0005 -2.3885 -0.4243
  886MPD2    N113051   0.141   3.636  15.341 -0.2991 -0.0276 -0.4669
  886MPD2    H713052   0.241   3.617  15.335 -0.0344  1.7027 -1.4562
  887MPD2     C13053   0.732   3.263  15.627 -0.4460 -0.6601  0.3225
  887MPD2    C113054   0.664   3.375  15.584  0.1764 -0.3426 -0.0573
  887MPD2    C213055   0.705   3.502  15.624 -0.0483 -0.0867 -0.1804
  887MPD2    C313056   0.811   3.515  15.712  0.2357  0.0012  0.6130
  887MPD2    C413057   0.879   3.397  15.754 -0.0522  0.2122 -0.0661
  887MPD2    C513058   0.842   3.271  15.717  0.3365  0.2048 -0.0672
  887MPD2     H13059   0.657   3.595  15.598 -0.7491  0.4123  2.9249
  887MPD2    H113060   0.961   3.400  15.825 -0.8585 -0.5941  0.8981
  887MPD2    H213061   0.702   3.161  15.606  2.9292 -1.2622 -1.6026
  887MPD2    H313062   0.883   3.180  15.759  0.7617  0.9620  1.1518
  887MPD2     N13063   0.836   3.647  15.758 -0.3211  0.1143 -0.2055
  887MPD2    H513064   0.788   3.722  15.709 -2.3643 -1.0291  0.0526
  887MPD2    N113065   0.532   3.372  15.519 -0.1294  0.3544  0.0510
  887MPD2    H713066   0.491   3.464  15.501  1.7367  0.9140 -1.2859
  888MPD2     C13067   2.713   3.719  15.141 -0.1375 -0.8240  0.3767
  888MPD2    C113068   2.694   3.771  15.266  0.0140 -0.4700  1.0970
  888MPD2    C213069   2.759   3.893  15.299 -0.2236  0.3594 -0.0014
  888MPD2    C313070   2.826   3.957  15.201 -0.0753 -0.5024 -0.6928
  888MPD2    C413071   2.842   3.910  15.078 -0.0678 -0.0350  0.3869
  888MPD2    C513072   2.781   3.793  15.051  0.8323  0.6000 -0.1051
  888MPD2     H13073   2.753   3.928  15.401  2.1315  0.5321  0.0752
  888MPD2    H113074   2.899   3.952  14.996  1.1988 -0.5976  0.9849
  888MPD2    H213075   2.661   3.632  15.102  0.2800 -1.0432  0.3087
  888MPD2    H313076   2.797   3.756  14.951  0.1772  0.0756 -0.0170
  888MPD2     N13077   2.879   4.085  15.239 -0.1417  0.5733 -0.1985
  888MPD2    H513078   2.839   4.135  15.318 -0.9896 -0.8831  0.2773
  888MPD2    N113079   2.602   3.713  15.357  0.5096 -0.8648  0.6064
  888MPD2    H713080   2.594   3.756  15.449 -1.7211  0.6773 -0.3018
  889MPD2     C13081   1.801   3.286  13.873 -0.4166  0.3005 -0.4235
  889MPD2    C113082   1.939   3.316  13.859 -0.5811 -0.5779  0.1635
  889MPD2    C213083   1.978   3.443  13.886 -0.2533 -0.0757  0.6213
  889MPD2    C313084   1.890   3.538  13.927 -0.4224  0.1484  0.7715
  889MPD2    C413085   1.757   3.504  13.942  0.1785  0.0916 -0.0684
  889MPD2    C513086   1.714   3.377  13.918 -0.2863 -0.0307  0.4724
  889MPD2     H13087   2.071   3.476  13.842 -0.8584  0.5518 -0.1739
  889MPD2    H113088   1.691   3.584  13.975 -2.0469 -1.5319 -0.5731
  889MPD2    H213089   1.766   3.183  13.866  1.3872 -0.4520  1.7633
  889MPD2    H313090   1.609   3.350  13.918  0.4788 -3.0377  0.2896
  889MPD2     N13091   1.942   3.673  13.940 -1.2348  0.5863 -0.4855
  889MPD2    H513092   2.042   3.683  13.957 -1.2392 -0.7877  0.3953
  889MPD2    N113093   2.016   3.239  13.775 -0.5620  0.1711 -0.3394
  889MPD2    H713094   2.105   3.281  13.749  1.5841  0.7683  8.1140
  890MPD2     C13095   1.292   0.184  15.016 -0.1576 -0.3204 -0.6176
  890MPD2    C113096   1.421   0.234  15.016 -0.9645 -0.0130 -0.0161
  890MPD2    C213097   1.503   0.213  15.130 -0.0764  0.0632 -0.4563
  890MPD2    C313098   1.458   0.137  15.232  0.0640  0.1589 -0.7744
  890MPD2    C413099   1.332   0.081  15.231 -0.2753  0.4584  0.9034
  890MPD2    C513100   1.253   0.111  15.125  0.4179 -0.7777  0.0083
  890MPD2     H13101   1.603   0.252  15.144  0.4065 -0.5037 -2.3403
  890MPD2    H113102   1.285   0.017  15.306 -0.4091  1.0250  1.3036
  890MPD2    H213103   1.229   0.202  14.930 -0.4524  0.4795 -0.2400
  890MPD2    H313104   1.153   0.072  15.114  0.4668 -1.1179  0.7525
  890MPD2     N13105   1.547   0.110  15.346 -0.1123  0.3575 -0.4112
  890MPD2    H513106   1.644   0.136  15.342  0.2886 -0.7940  1.4132
  890MPD2    N113107   1.464   0.306  14.905 -0.7454 -0.6881 -0.0903
  890MPD2    H713108   1.394   0.321  14.833  0.1244 -1.6523 -1.1642
  891MPD2     C13109   4.490   4.015  16.652 -0.3160 -0.1563 -0.0935
  891MPD2    C113110   4.426   3.903  16.691 -0.1307  0.3745 -0.2265
  891MPD2    C213111   4.481   3.833  16.803  0.7428  0.0312  0.3397
  891MPD2    C313112   4.593   3.883  16.866 -0.4274  0.2536 -0.0942
  891MPD2    C413113   4.653   3.996  16.814  0.8074 -0.4408 -0.8307
  891MPD2    C513114   4.599   4.061  16.713 -0.3919  0.5543  0.5399
  891MPD2     H13115   4.432   3.743  16.839  1.1819 -0.5690 -0.5531
  891MPD2    H113116   4.733   4.049  16.866 -1.0291 -0.2746  1.8361
  891MPD2    H213117   4.447   4.080  16.578 -0.3659 -0.5478 -0.4102
  891MPD2    H313118   4.655   4.139  16.662  1.8511 -0.3173  1.6636
  891MPD2     N13119   4.649   3.819  16.980 -0.3444 -0.2440 -0.1119
  891MPD2    H513120   4.584   3.761  17.032 -4.2357  3.8664 -0.3688
  891MPD2    N113121   4.303   3.876  16.629 -0.0897 -0.2547 -0.2247
  891MPD2    H713122   4.285   3.935  16.549  0.9110  1.3065  0.6966
  892MPD2     C13123   0.717   0.337  15.024 -0.4367  0.9161 -0.2431
  892MPD2    C113124   0.672   0.213  14.971  0.2368 -0.2025 -0.1860
  892MPD2    C213125   0.755   0.129  14.907  0.4827 -0.0377 -0.1011
  892MPD2    C313126   0.890   0.150  14.895  0.0298  0.3741  0.3159
  892MPD2    C413127   0.942   0.267  14.946  0.1259  0.6994 -0.5802
  892MPD2    C513128   0.859   0.361  15.011  0.1190 -0.2772 -0.2006
  892MPD2     H13129   0.713   0.036  14.868  3.2455 -0.1761 -2.7675
  892MPD2    H113130   1.047   0.293  14.942  0.7171 -1.7214 -1.2345
  892MPD2    H213131   0.656   0.414  15.068 -0.5843  0.7320 -0.1284
  892MPD2    H313132   0.896   0.455  15.049  2.6981 -1.8456  1.2028
  892MPD2     N13133   0.976   0.057  14.835 -0.2209 -0.5462 -0.3257
  892MPD2    H513134   1.063   0.103  14.810 -1.0178 -0.1365 -2.3671
  892MPD2    N113135   0.533   0.179  14.966 -0.8020 -0.2340  0.2162
  892MPD2    H713136   0.509   0.087  14.929  1.0723 -1.0007  0.9348
  893MPD2     C13137   2.065   3.636   1.408 -0.3114 -0.1298 -0.0628
  893MPD2    C113138   2.153   3.747   1.413  0.9653 -0.7514 -0.1153
  893MPD2    C213139   2.094   3.864   1.468 -0.3308 -0.2358 -0.4586
  893MPD2    C313140   1.970   3.870   1.528 -0.9527  0.0001 -0.7769
  893MPD2    C413141   1.897   3.754   1.535 -0.0277  0.5776 -0.2774
  893MPD2    C513142   1.945   3.642   1.466  0.5095  0.5639 -0.1433
  893MPD2     H13143   2.154   3.954   1.462 -0.1248 -0.3196  0.3837
  893MPD2    H113144   1.813   3.764   1.602 -0.7320  0.8367 -1.2054
  893MPD2    H213145   2.097   3.540   1.367  1.8658  1.7294 -2.6887
  893MPD2    H313146   1.890   3.548   1.459  0.0722  0.8217 -0.1441
  893MPD2     N13147   1.914   3.994   1.584  0.5841  0.1289 -0.0401
  893MPD2    H513148   1.825   3.991   1.633  1.1546  0.6224  1.0151
  893MPD2    N113149   2.281   3.736   1.353 -0.6343 -0.0556  0.1904
  893MPD2    H713150   2.302   3.645   1.314 -1.5309 -0.3989  0.5109
  894MPD2     C13151   0.594   0.277   1.424 -0.1820  0.2241  0.2390
  894MPD2    C113152   0.491   0.343   1.365  0.2459 -0.1902 -0.0147
  894MPD2    C213153   0.517   0.461   1.294 -0.2797  0.1836  0.5271
  894MPD2    C313154   0.646   0.514   1.292 -0.4755 -0.1250 -0.0060
  894MPD2    C413155   0.737   0.453   1.365 -0.1875 -0.4410 -0.6402
  894MPD2    C513156   0.722   0.328   1.421 -0.0832 -0.2782  0.0076
  894MPD2     H13157   0.448   0.511   1.227 -0.3488  0.9216  1.1466
  894MPD2    H113158   0.840   0.487   1.362 -1.3210  2.9846 -0.0460
  894MPD2    H213159   0.578   0.179   1.468 -0.5793 -0.2657 -0.9998
  894MPD2    H313160   0.808   0.267   1.447  1.1374  1.4334  0.0174
  894MPD2     N13161   0.672   0.630   1.222 -0.7335  0.2829  0.4301
  894MPD2    H513162   0.600   0.659   1.156  0.9129 -0.6608 -1.7639
  894MPD2    N113163   0.353   0.303   1.372  0.3296 -0.0543 -0.3951
  894MPD2    H713164   0.282   0.366   1.336 -1.0493 -1.0466  0.5914
  895MPD2     C13165   0.287   3.722  14.490 -0.6203  0.0668 -0.3419
  895MPD2    C113166   0.257   3.763  14.364  0.7549 -0.3188 -0.5393
  895MPD2    C213167   0.362   3.755  14.271  0.2693  0.4692 -0.0858
  895MPD2    C313168   0.495   3.729  14.305  0.0457 -0.2847 -0.5391
  895MPD2    C413169   0.523   3.701  14.435 -0.1817 -0.0246 -0.0247
  895MPD2    C513170   0.415   3.692  14.527  0.3862 -0.6897  0.2366
  895MPD2     H13171   0.332   3.802  14.178 -0.5457  2.7090  1.2972
  895MPD2    H113172   0.624   3.677  14.466 -1.2233 -2.9437  1.1256
  895MPD2    H213173   0.214   3.723  14.570 -1.0729 -1.6608 -0.7350
  895MPD2    H313174   0.441   3.665  14.629  2.2123  0.6782  0.1167
  895MPD2     N13175   0.589   3.752  14.207  0.1272  0.4697  0.1133
  895MPD2    H513176   0.682   3.763  14.245  0.4692 -0.1462 -0.5374
  895MPD2    N113177   0.135   3.814  14.313  0.2943  0.0092  0.0919
  895MPD2    H713178   0.124   3.842  14.216 -1.5764 -0.3770  0.1905
  896MPD2     C13179   2.594   1.863   1.439 -0.1982 -0.6761 -0.0380
  896MPD2    C113180   2.564   1.781   1.335  0.4425  0.3728  0.6884
  896MPD2    C213181   2.435   1.770   1.298 -0.4865 -0.3277  0.7210
  896MPD2    C313182   2.332   1.830   1.364  0.8596  0.5819 -0.2572
  896MPD2    C413183   2.359   1.908   1.476 -0.3547 -0.7233 -0.2963
  896MPD2    C513184   2.490   1.921   1.512 -0.4667 -0.4671  0.6491
  896MPD2     H13185   2.409   1.703   1.218  0.9503  0.4455 -0.3963
  896MPD2    H113186   2.284   1.960   1.535 -0.7316  0.3950 -1.7843
  896MPD2    H213187   2.698   1.883   1.463 -0.7977 -0.0802  2.0883
  896MPD2    H313188   2.511   1.995   1.588 -1.1535 -1.2214  1.5882
  896MPD2     N13189   2.198   1.788   1.324 -0.0335 -0.4048  0.0671
  896MPD2    H513190   2.197   1.716   1.253  0.5469  0.7978 -1.1614
  896MPD2    N113191   2.672   1.707   1.273 -0.1831  0.4745  0.3178
  896MPD2    H713192   2.762   1.730   1.315 -0.1713 -0.7423  0.9645
  897MPD2     C13193   3.356   2.984  10.674  0.1285 -0.8341 -0.0306
  897MPD2    C113194   3.326   3.112  10.710  0.2475  0.9139 -0.1119
  897MPD2    C213195   3.257   3.137  10.822  0.0245  0.0354  0.4801
  897MPD2    C313196   3.194   3.039  10.897 -0.4778  0.6330  0.2022
  897MPD2    C413197   3.221   2.909  10.864  0.2752 -0.4475 -0.0549
  897MPD2    C513198   3.302   2.881  10.751  0.1420 -0.9084  0.2150
  897MPD2     H13199   3.224   3.238  10.846 -0.0028  0.3037 -0.6612
  897MPD2    H113200   3.182   2.818  10.910 -0.2893  0.0937  0.5428
  897MPD2    H213201   3.414   2.962  10.585 -0.8557 -3.9714  0.0941
  897MPD2    H313202   3.328   2.777  10.737  0.8733 -0.6490 -0.3372
  897MPD2     N13203   3.112   3.080  11.006  0.2902  0.0581  0.5433
  897MPD2    H513204   3.100   3.181  11.009 -0.7281 -0.0486 -0.2178
  897MPD2    N113205   3.377   3.216  10.632  0.2744  0.2792 -0.0082
  897MPD2    H713206   3.401   3.201  10.535  1.6368 -2.0158  0.6958
  898MPD2     C13207   1.464   4.589   0.636  0.1471 -0.0593 -0.0842
  898MPD2    C113208   1.416   4.497   0.549  0.4234  0.4807 -0.1908
  898MPD2    C213209   1.297   4.532   0.484  0.2509 -0.9210  0.0406
  898MPD2    C313210   1.233   4.656   0.507 -0.4149  0.1101 -0.0965
  898MPD2    C413211   1.283   0.001   0.600  0.2794  0.3488 -0.0149
  898MPD2    C513212   1.397   4.710   0.660 -0.2771 -0.1496  0.6828
  898MPD2     H13213   1.252   4.463   0.413  1.7993  0.0702 -1.9054
  898MPD2    H113214   1.243   0.100   0.620 -0.1626  0.8388 -3.2887
  898MPD2    H213215   1.563   4.577   0.680 -0.0640  1.3855  0.7805
  898MPD2    H313216   1.443   0.045   0.723  0.4378 -0.9162  1.0907
  898MPD2     N13217   1.123   4.688   0.420 -0.4685 -1.3549  0.3256
  898MPD2    H513218   1.095   4.627   0.344 -1.4573  1.9603 -2.0157
  898MPD2    N113219   1.483   4.378   0.515  0.2546  0.1031 -0.1454
  898MPD2    H713220   1.440   4.311   0.452  0.4273  1.3556 -1.6002
  899MPD2     C13221   1.610   4.661  17.044  0.8945  0.1087 -0.5580
  899MPD2    C113222   1.601   4.739  17.157 -0.2587  0.3051 -0.4645
  899MPD2    C213223   1.586   4.675  17.279 -0.1952 -1.3265  0.3479
  899MPD2    C313224   1.577   4.543  17.294 -0.1512  0.9681  0.2304
  899MPD2    C413225   1.576   4.468  17.178 -0.5571  0.8040  0.5788
  899MPD2    C513226   1.593   4.524  17.054  0.3810 -0.2508  0.0645
  899MPD2     H13227   1.578   4.740  17.366  1.0089 -1.2243  0.3853
  899MPD2    H113228   1.568   4.360  17.188  0.5643  0.8637  2.2298
  899MPD2    H213229   1.618   4.706  16.945 -0.7205  2.9664  0.6034
  899MPD2    H313230   1.594   4.463  16.964 -0.4922  1.8691 -1.3644
  899MPD2     N13231   1.555   4.471  17.418 -0.2789  0.0565 -0.0353
  899MPD2    H513232   1.538   4.372  17.411 -0.5206 -0.0401  1.8509
  899MPD2    N113233   1.619   0.140  17.148  0.8109  0.0888  0.3708
  899MPD2    H713234   1.620   0.175  17.053 -0.5614  1.3935  0.8174
  900MPD2     C13235   0.746   1.055  12.714  0.2312 -0.6337  0.1521
  900MPD2    C113236   0.718   0.952  12.794 -0.1207  0.8501  0.0220
  900MPD2    C213237   0.584   0.906  12.800 -0.4789  0.5402  0.2644
  900MPD2    C313238   0.488   0.976  12.731 -0.1464  0.4051 -0.0775
  900MPD2    C413239   0.520   1.082  12.651 -0.0015 -0.2580 -0.1586
  900MPD2    C513240   0.651   1.107  12.635  0.0973 -0.0688 -0.1670
  900MPD2     H13241   0.538   0.838  12.871 -0.7769  0.1393 -0.3021
  900MPD2    H113242   0.454   1.140  12.588 -0.7837 -0.5310  0.4084
  900MPD2    H213243   0.847   1.094  12.707 -0.0989  0.0889 -0.5027
  900MPD2    H313244   0.672   1.194  12.574  0.3619  0.3003  0.4467
  900MPD2     N13245   0.352   0.934  12.754  0.1675 -0.2986 -0.2240
  900MPD2    H513246   0.344   0.850  12.809 -0.2087  0.0650  0.2731
  900MPD2    N113247   0.830   0.894  12.868  0.1186 -0.1835  0.2574
  900MPD2    H713248   0.919   0.943  12.872  2.2247 -3.9639 -0.4961
  901MPD2     C13249   1.151   4.676  13.288 -0.6236  0.0565 -0.2977
  901MPD2    C113250   1.079   4.719  13.171  0.6710 -0.2179 -0.7141
  901MPD2    C213251   1.047   0.110  13.157  0.2364 -0.7332  0.5133
  901MPD2    C313252   1.095   0.207  13.238 -0.2968 -0.1036 -0.5700
  901MPD2    C413253   1.165   0.164  13.349 -0.7868  0.1502  0.5326
  901MPD2    C513254   1.191   0.033  13.377  0.0710  0.0299  0.5845
  901MPD2     H13255   1.007   0.138  13.060  1.6216 -0.9761 -0.1222
  901MPD2    H113256   1.218   0.235  13.411 -1.5755  2.5186 -1.4979
  901MPD2    H213257   1.178   4.571  13.298 -1.5333 -0.2672 -1.2162
  901MPD2    H313258   1.252   0.001  13.461  1.1461  0.9182  0.1428
  901MPD2     N13259   1.086   0.342  13.208 -1.1377  0.6144 -0.0976
  901MPD2    H513260   1.147   0.403  13.261  2.9187 -2.0473 -1.6555
  901MPD2    N113261   1.064   4.623  13.068  0.6827  0.5591 -0.2893
  901MPD2    H713262   1.098   4.528  13.083 -1.3723 -0.1799 -0.2661
  902MPD2     C13263   0.179   4.265  13.096  0.1813  0.4526  0.2274
  902MPD2    C113264   0.095   4.230  12.993 -0.1562 -0.4822 -1.0245
  902MPD2    C213265   0.053   4.098  12.982 -0.1149 -0.0848  0.7355
  902MPD2    C313266   0.114   4.005  13.069  0.1057 -0.1820  0.0170
  902MPD2    C413267   0.186   4.050  13.178  0.3286  0.4485 -0.2692
  902MPD2    C513268   0.229   4.174  13.186 -0.9010  0.0480  0.2707
  902MPD2     H13269   4.733   4.069  12.897 -1.1422 -0.8814  1.7467
  902MPD2    H113270   0.224   3.976  13.247  1.1181  0.8257 -0.3077
  902MPD2    H213271   0.208   4.368  13.109 -0.5403  0.7318 -0.3917
  902MPD2    H313272   0.305   4.204  13.258 -0.6611  0.1712 -0.0316
  902MPD2     N13273   0.073   3.870  13.052  0.1180  0.3916 -0.5582
  902MPD2    H513274   0.035   3.840  12.963  1.3917 -1.4391 -0.4778
  902MPD2    N113275   0.055   4.335  12.906  0.0184  0.1750  0.2649
  902MPD2    H713276   0.079   4.428  12.939  0.4864 -0.8249  2.7636
  903MPD2     C13277   4.636   3.458  12.409 -0.1919 -0.5386  0.3155
  903MPD2    C113278   4.586   3.519  12.520  0.2791 -0.1203  0.4208
  903MPD2    C213279   4.480   3.609  12.502 -0.4268  0.4234 -0.4206
  903MPD2    C313280   4.414   3.628  12.381  0.2325  0.7231 -0.0793
  903MPD2    C413281   4.462   3.563  12.271 -0.4785  0.4436 -0.0807
  903MPD2    C513282   4.575   3.491  12.286 -0.1297  0.1817 -0.1652
  903MPD2     H13283   4.440   3.660  12.589 -1.8192 -1.1280 -0.1318
  903MPD2    H113284   4.421   3.581  12.172  0.4695 -0.3482 -0.6261
  903MPD2    H213285   4.724   3.396  12.411 -1.4825 -2.3606  0.5870
  903MPD2    H313286   4.623   3.448  12.199 -0.7210 -0.7402 -0.0391
  903MPD2     N13287   4.309   3.722  12.376 -0.0708 -0.1997  0.2794
  903MPD2    H513288   4.297   3.785  12.455 -1.7670  0.5077 -0.5544
  903MPD2    N113289   4.645   3.496  12.647  0.8118  0.4355 -0.1112
  903MPD2    H713290   0.003   3.470  12.644 -0.0385 -2.7492  0.6136
  904MPD2     C13291   0.026   3.004  14.888 -0.2497 -0.1725  0.1648
  904MPD2    C113292   0.070   3.085  14.787 -0.3539  0.2122  0.0175
  904MPD2    C213293   0.209   3.079  14.758 -0.2581  0.2348  0.2492
  904MPD2    C313294   0.298   2.994  14.815 -0.9918  0.8762 -0.2233
  904MPD2    C413295   0.243   2.898  14.895 -0.8165 -0.2728 -0.5323
  904MPD2    C513296   0.114   2.904  14.935 -0.1644 -0.2396  0.0175
  904MPD2     H13297   0.265   3.141  14.688 -1.9145 -1.3012 -2.4585
  904MPD2    H113298   0.302   2.823  14.947 -2.4726 -1.6186 -0.5953
  904MPD2    H213299   4.662   3.003  14.917 -0.2951  0.3163  0.0302
  904MPD2    H313300   0.078   2.828  15.004  1.6650  0.0519  1.2983
  904MPD2     N13301   0.434   3.001  14.788 -0.4915 -0.6694  0.0427
  904MPD2    H513302   0.478   3.068  14.726  2.5342 -1.1205  1.7034
  904MPD2    N113303   4.725   3.187  14.730 -0.2452  0.0522 -0.0274
  904MPD2    H713304   0.030   3.238  14.655 -0.9358  0.7857  0.0509
  905MPD2     C13305   4.402   3.473  14.034 -0.5208 -0.2791 -0.4531
  905MPD2    C113306   4.505   3.501  14.123  0.1444  0.2340  0.4512
  905MPD2    C213307   4.623   3.548  14.070  0.3773  0.4091  0.6783
  905MPD2    C313308   4.645   3.548  13.936 -0.0364 -0.0379 -0.4238
  905MPD2    C413309   4.544   3.515  13.850 -0.4766  0.8796 -0.0558
  905MPD2    C513310   4.416   3.483  13.898 -0.6233 -0.0762  0.0951
  905MPD2     H13311   4.709   3.575  14.131  0.1984  0.4558  0.9093
  905MPD2    H113312   4.553   3.513  13.742  0.3496 -1.4689  0.0605
  905MPD2    H213313   4.299   3.452  14.060  0.2882  0.5934  3.3566
  905MPD2    H313314   4.333   3.454  13.833 -0.7777  0.7392 -0.0687
  905MPD2     N13315   0.032   3.578  13.883 -0.6256  0.4905  0.1386
  905MPD2    H513316   0.062   3.549  13.791 -0.0201 -1.5527  0.9668
  905MPD2    N113317   4.483   3.484  14.261  0.3044 -0.4744  0.2781
  905MPD2    H713318   4.392   3.448  14.291 -0.6863 -0.8099 -3.1002
  906MPD2     C13319   2.082   3.495  11.557  0.2071 -0.3912  0.8002
  906MPD2    C113320   2.093   3.402  11.450 -0.1357 -0.4470  0.0658
  906MPD2    C213321   2.062   3.273  11.476 -0.1974  0.0980  0.5386
  906MPD2    C313322   2.036   3.223  11.600 -0.4122 -0.2118 -0.3046
  906MPD2    C413323   2.027   3.313  11.700 -0.3476  0.2107  0.2522
  906MPD2    C513324   2.055   3.444  11.683 -0.0926  0.2544  0.4699
  906MPD2     H13325   2.064   3.201  11.395  1.8577  1.1043 -0.3044
  906MPD2    H113326   1.990   3.281  11.797 -1.2065  0.0481 -0.1374
  906MPD2    H213327   2.092   3.602  11.544  3.4037 -0.7187  0.6439
  906MPD2    H313328   2.045   3.500  11.775 -1.1865 -0.4331  0.7644
  906MPD2     N13329   1.998   3.089  11.629 -0.5326  0.7130  0.1762
  906MPD2    H513330   1.952   3.075  11.719  2.4737  1.7709  1.9020
  906MPD2    N113331   2.110   3.441  11.317  0.2261  0.0951 -0.1105
  906MPD2    H713332   2.106   3.364  11.251 -0.8984 -0.9969  1.2594
  907MPD2     C13333   0.656   2.385  15.804  0.1179 -0.2943 -0.2839
  907MPD2    C113334   0.725   2.267  15.810 -0.3363 -0.4319  1.0100
  907MPD2    C213335   0.746   2.208  15.934  0.0814  0.3707  0.2857
  907MPD2    C313336   0.702   2.269  16.049 -0.3693  0.6834  0.6496
  907MPD2    C413337   0.635   2.392  16.038  0.5138  0.8781 -0.0247
  907MPD2    C513338   0.614   2.449  15.917 -0.2713 -0.7009 -0.1746
  907MPD2     H13339   0.799   2.113  15.939  1.5590  1.2210  0.5084
  907MPD2    H113340   0.614   2.447  16.129 -1.6511 -0.2100  0.1495
  907MPD2    H213341   0.641   2.443  15.714 -0.9444 -3.2142 -2.0038
  907MPD2    H313342   0.564   2.544  15.903 -0.7159 -0.4448  3.2503
  907MPD2     N13343   0.738   2.197  16.168  0.0098  0.0748  0.7003
  907MPD2    H513344   0.797   2.115  16.157 -0.1703  0.4136 -2.8071
  907MPD2    N113345   0.752   2.195  15.689 -0.4522 -0.0168  0.2300
  907MPD2    H713346   0.792   2.102  15.696 -1.3069 -0.5401 -1.7037
  908MPD2     C13347   3.113   3.114   9.849  0.1300 -0.5064 -0.2006
  908MPD2    C113348   3.144   3.054   9.966  0.3574 -0.9544  0.1388
  908MPD2    C213349   3.223   3.111  10.062 -0.5532 -0.0320  0.1551
  908MPD2    C313350   3.248   3.247  10.059 -0.4126 -0.5079  0.6727
  908MPD2    C413351   3.214   3.318   9.951 -0.4233  0.0853  0.5783
  908MPD2    C513352   3.150   3.251   9.850 -0.8060  0.7567 -0.1984
  908MPD2     H13353   3.249   3.057  10.153 -1.5396  0.4401  0.7125
  908MPD2    H113354   3.226   3.424   9.936  1.2969 -0.6543 -3.0954
  908MPD2    H213355   3.065   3.066   9.765 -0.0355 -0.8972  0.1143
  908MPD2    H313356   3.113   3.308   9.765 -1.0574 -0.1483 -0.6972
  908MPD2     N13357   3.298   3.308  10.181  0.0699 -0.5815  0.0429
  908MPD2    H513358   3.310   3.254  10.266  0.2796 -0.4402  0.1041
  908MPD2    N113359   3.097   2.920   9.973 -0.2791 -0.4748  0.1933
  908MPD2    H713360   3.035   2.901   9.895  0.9090 -3.1775 -0.1050
  909MPD2     C13361   3.489   1.149  12.071 -0.1455 -0.3344  0.0474
  909MPD2    C113362   3.494   1.276  12.023 -0.5250  0.5552  0.1350
  909MPD2    C213363   3.439   1.368  12.100 -0.1146 -0.3651  0.2155
  909MPD2    C313364   3.394   1.346  12.227  0.1847  0.0515  0.6393
  909MPD2    C413365   3.395   1.216  12.282 -0.8041 -0.2556 -0.3964
  909MPD2    C513366   3.440   1.117  12.193 -0.8936 -0.7007 -0.3034
  909MPD2     H13367   3.442   1.469  12.061 -1.1551 -0.0763  0.8992
  909MPD2    H113368   3.355   1.187  12.378 -0.3579  1.4625  0.3127
  909MPD2    H213369   3.539   1.069  12.018 -1.0855 -0.3592 -0.7979
  909MPD2    H313370   3.444   1.015  12.229  0.5879 -1.6605 -3.1587
  909MPD2     N13371   3.340   1.463  12.285 -0.8313 -0.3121  0.2697
  909MPD2    H513372   3.333   1.550  12.233  1.4032 -0.4169 -0.2206
  909MPD2    N113373   3.572   1.325  11.920  0.8121  0.3948  0.1145
  909MPD2    H713374   3.568   1.425  11.902  0.6241 -0.0336 -2.1648
  910MPD2     C13375   4.584   2.898  16.034 -0.0789 -0.3476  0.6458
  910MPD2    C113376   4.682   2.827  15.960 -0.4713 -0.7146  0.5040
  910MPD2    C213377   4.696   2.848  15.824  0.3718  0.4078 -0.6947
  910MPD2    C313378   4.613   2.934  15.752  0.3998  0.1703  0.2722
  910MPD2    C413379   4.504   2.983  15.830  0.2526  0.7020  0.4981
  910MPD2    C513380   4.502   2.981  15.970 -0.0152 -0.4601 -0.1237
  910MPD2     H13381   0.040   2.807  15.769 -1.0098 -0.3331 -2.2654
  910MPD2    H113382   4.431   3.040  15.775  0.1996  0.0143 -0.1458
  910MPD2    H213383   4.588   2.898  16.143  2.8054 -1.0734  0.5371
  910MPD2    H313384   4.441   3.051  16.027  2.1314  0.6097  0.8775
  910MPD2     N13385   4.611   2.951  15.610  0.1184  0.4261  0.2482
  910MPD2    H513386   4.527   2.991  15.570  1.9505  3.1188 -0.9429
  910MPD2    N113387   0.036   2.746  16.026 -0.2489  0.3734 -0.8058
  910MPD2    H713388   0.109   2.717  15.962  0.7051  2.6304 -0.7565
  911MPD2     C13389   2.788   2.752  16.468 -0.1383  0.3888  0.4414
  911MPD2    C113390   2.788   2.889  16.493 -0.3670  0.4232 -0.4282
  911MPD2    C213391   2.693   2.975  16.434  0.6075  0.4664 -0.1679
  911MPD2    C313392   2.593   2.919  16.363  0.3481 -0.1710 -0.6711
  911MPD2    C413393   2.584   2.780  16.350  0.0041 -0.1185  0.9577
  911MPD2    C513394   2.684   2.700  16.393  0.2451 -0.7763 -0.7304
  911MPD2     H13395   2.697   3.083  16.448  1.8418  0.2868  0.9059
  911MPD2    H113396   2.501   2.734  16.296 -0.0003  0.8723  0.1287
  911MPD2    H213397   2.869   2.690  16.505 -3.2966 -4.7112 -1.1499
  911MPD2    H313398   2.680   2.593  16.372  0.5537 -0.8210 -0.5736
  911MPD2     N13399   2.487   2.995  16.307 -0.2810 -0.6980 -0.6137
  911MPD2    H513400   2.409   2.940  16.272 -2.3567  1.2913  0.9539
  911MPD2    N113401   2.896   2.940  16.574  0.2375  0.0258  0.0424
  911MPD2    H713402   2.962   2.877  16.616 -2.4969 -1.5584  1.9792
  912MPD2     C13403   1.670   3.229  16.200  0.0053  0.1228 -0.8898
  912MPD2    C113404   1.780   3.148  16.201  0.1112 -0.1674 -0.1370
  912MPD2    C213405   1.763   3.011  16.239  0.1513 -0.0021  0.0344
  912MPD2    C313406   1.644   2.959  16.278 -0.3424 -0.3166  0.2885
  912MPD2    C413407   1.535   3.039  16.275  0.7348  0.2984  0.3098
  912MPD2    C513408   1.547   3.176  16.244 -0.0995 -0.1996 -0.4271
  912MPD2     H13409   1.847   2.943  16.238 -0.4985 -0.7972 -0.5079
  912MPD2    H113410   1.436   3.003  16.301 -0.0665  1.3258 -1.3300
  912MPD2    H213411   1.660   3.337  16.189  0.5057  0.1759 -0.8390
  912MPD2    H313412   1.455   3.230  16.227  0.8939  0.9627 -2.1546
  912MPD2     N13413   1.649   2.830  16.326  0.1243 -0.0383  0.0085
  912MPD2    H513414   1.735   2.775  16.323 -0.9124 -1.5507 -1.6788
  912MPD2    N113415   1.913   3.200  16.183 -0.0049 -0.0772 -0.2996
  912MPD2    H713416   1.922   3.299  16.166  1.5487  0.0595  1.2998
  913MPD2     C13417   3.467   4.635  10.753 -0.2085 -0.2235 -0.2450
  913MPD2    C113418   3.468   0.029  10.777  0.4913  0.5004 -0.4416
  913MPD2    C213419   3.412   0.114  10.681  0.0630 -0.3705  0.3041
  913MPD2    C313420   3.352   0.069  10.562 -0.4789 -0.4894  0.3786
  913MPD2    C413421   3.368   4.677  10.537 -0.4353 -0.3344  0.0726
  913MPD2    C513422   3.412   4.589  10.633  1.0021  0.0538 -0.0880
  913MPD2     H13423   3.422   0.221  10.692 -0.8519 -0.1429 -1.1308
  913MPD2    H113424   3.339   4.640  10.439  0.1769  0.4829 -0.4172
  913MPD2    H213425   3.512   4.560  10.817  0.6387 -1.4321 -2.2563
  913MPD2    H313426   3.422   4.484  10.605 -3.6869 -0.3985 -0.0743
  913MPD2     N13427   3.277   0.147  10.473  0.3695  0.2514  0.5409
  913MPD2    H513428   3.227   0.105  10.395  0.8610 -0.6765  0.7234
  913MPD2    N113429   3.519   0.077  10.901 -0.0394 -0.3377 -0.0148
  913MPD2    H713430   3.549   0.003  10.964 -0.8673 -1.9767 -1.5343
  914MPD2     C13431   1.265   0.292  12.255  0.9847  0.5891  0.1788
  914MPD2    C113432   1.292   0.325  12.383  0.0710  0.0633  0.3804
  914MPD2    C213433   1.279   0.230  12.482 -0.4972 -0.4799 -0.7436
  914MPD2    C313434   1.238   0.108  12.446 -0.0559  0.5969  0.3849
  914MPD2    C413435   1.200   0.076  12.316 -0.4367  0.1753  0.1566
  914MPD2    C513436   1.211   0.171  12.213  0.5281 -0.5940 -0.5436
  914MPD2     H13437   1.294   0.253  12.587 -1.5963  1.3112 -0.9664
  914MPD2    H113438   1.168   4.718  12.283  0.4518  0.7158 -2.3630
  914MPD2    H213439   1.268   0.368  12.179 -1.6261 -0.2719 -0.7695
  914MPD2    H313440   1.185   0.150  12.110  0.8321 -0.0844 -0.7237
  914MPD2     N13441   1.214   0.013  12.552  0.2747 -0.0474 -0.2585
  914MPD2    H513442   1.193   0.038  12.648  0.3770 -1.5799  0.1531
  914MPD2    N113443   1.313   0.461  12.416  0.2520 -0.4212  0.3079
  914MPD2    H713444   1.298   0.524  12.338  0.0117 -0.7616  0.0802
  915MPD2     C13445   3.440   4.482  15.787 -0.7676 -0.5576 -0.1486
  915MPD2    C113446   3.443   4.611  15.727  0.0107  0.2500  0.4189
  915MPD2    C213447   3.408   4.722  15.800  0.0669 -0.2530 -0.1262
  915MPD2    C313448   3.366   4.700  15.931  0.6155 -0.2016  0.5537
  915MPD2    C413449   3.357   4.569  15.988 -0.0197  0.3176 -0.0247
  915MPD2    C513450   3.400   4.460  15.920  0.4471 -0.0280 -0.6978
  915MPD2     H13451   3.420   0.084  15.770  1.1962 -0.2310  0.4269
  915MPD2    H113452   3.319   4.549  16.087  0.5764 -1.5616 -0.1600
  915MPD2    H213453   3.474   4.402  15.721  0.4114 -0.5898  0.5073
  915MPD2    H313454   3.403   4.362  15.967  1.4838  0.4453  0.2227
  915MPD2     N13455   3.328   0.076  16.001  0.1383  0.3698 -0.2980
  915MPD2    H513456   3.329   0.163  15.948 -1.9343 -0.2274 -1.3324
  915MPD2    N113457   3.488   4.621  15.587  0.1146 -0.3214 -0.1699
  915MPD2    H713458   3.501   4.530  15.545 -4.8156 -0.2529 -1.9208
  916MPD2     C13459   2.014   3.095  15.836 -0.2102  0.1190  0.0044
  916MPD2    C113460   1.941   2.980  15.826  0.9994  0.4779  0.5286
  916MPD2    C213461   2.017   2.863  15.817 -0.0571  0.5541  0.2938
  916MPD2    C313462   2.147   2.858  15.781 -0.4184  0.3575  0.1632
  916MPD2    C413463   2.215   2.973  15.780 -0.0853 -0.6231  0.4691
  916MPD2    C513464   2.152   3.092  15.818 -0.1443 -0.1687 -0.1616
  916MPD2     H13465   1.959   2.772  15.809 -1.2151  1.4013 -0.7721
  916MPD2    H113466   2.323   2.970  15.783 -0.0819 -2.6335 -2.8194
  916MPD2    H213467   1.971   3.190  15.865  0.2504  0.1116  0.7153
  916MPD2    H313468   2.202   3.185  15.843  0.9976 -0.5948 -0.8830
  916MPD2     N13469   2.202   2.733  15.738  0.1195 -0.0074 -0.3256
  916MPD2    H513470   2.148   2.650  15.760 -0.4704  0.5834  0.4472
  916MPD2    N113471   1.800   2.983  15.856 -0.6429 -0.2883 -0.3283
  916MPD2    H713472   1.766   3.077  15.872  0.0822 -0.4051  1.8778
  917MPD2     C13473   2.138   1.111  11.260 -0.1059 -0.9461  0.3960
  917MPD2    C113474   2.177   1.143  11.386  0.5166  0.0331  0.5860
  917MPD2    C213475   2.265   1.250  11.396 -0.6207  0.4797  0.7313
  917MPD2    C313476   2.304   1.322  11.296 -0.4530  0.5067  0.6834
  917MPD2    C413477   2.246   1.298  11.170 -0.6839  0.3337  0.5603
  917MPD2    C513478   2.167   1.191  11.151 -0.1518  0.0361  0.3036
  917MPD2     H13479   2.312   1.272  11.491 -2.1701 -0.7038  1.7635
  917MPD2    H113480   2.277   1.350  11.080  1.9316 -2.1784  0.0205
  917MPD2    H213481   2.063   1.035  11.244 -3.3614  2.3549 -0.0390
  917MPD2    H313482   2.137   1.169  11.049 -0.9480  1.0993  0.3173
  917MPD2     N13483   2.404   1.419  11.299  0.2892 -0.3701 -0.5806
  917MPD2    H513484   2.420   1.464  11.209  2.8576 -1.6283 -0.7723
  917MPD2    N113485   2.128   1.070  11.497 -0.7802 -0.7305  0.3675
  917MPD2    H713486   2.087   0.978  11.493 -0.4519 -0.9373  1.7507
  918MPD2     C13487   2.153   1.292  12.480 -0.0775  0.2500  0.5333
  918MPD2    C113488   2.258   1.311  12.386  0.4372 -1.1316 -0.4142
  918MPD2    C213489   2.251   1.254  12.261 -0.5667 -0.3590 -0.2615
  918MPD2    C313490   2.151   1.162  12.235 -0.2493 -0.4642  0.3698
  918MPD2    C413491   2.054   1.142  12.331  0.3272  0.4123  0.1982
  918MPD2    C513492   2.054   1.209  12.452  0.7036  0.6635  0.0485
  918MPD2     H13493   2.333   1.267  12.192  0.3830 -1.4584  0.6620
  918MPD2    H113494   1.976   1.071  12.308  0.1491  0.5473  0.3757
  918MPD2    H213495   2.163   1.347  12.573  2.1367 -1.2866  1.1757
  918MPD2    H313496   1.985   1.177  12.529 -0.9968 -0.8206 -2.1031
  918MPD2     N13497   2.139   1.108  12.106 -0.5528 -0.1351 -0.2943
  918MPD2    H513498   2.199   1.151  12.037  0.1170 -0.9037 -0.1985
  918MPD2    N113499   2.369   1.394  12.413  0.1262  0.0197  0.1539
  918MPD2    H713500   2.436   1.410  12.338  0.5391 -0.5434  0.4061
  919MPD2     C13501   2.821   0.012  11.988 -0.4936  0.0053  0.3924
  919MPD2    C113502   2.875   4.645  11.914  0.1815 -0.1409  0.0286
  919MPD2    C213503   2.965   4.665  11.813 -0.0238  0.0237 -0.2047
  919MPD2    C313504   3.001   0.057  11.768 -0.4121  0.5419 -0.5090
  919MPD2    C413505   2.935   0.153  11.839 -0.3326 -0.2090 -0.4372
  919MPD2    C513506   2.858   0.143  11.952  0.4375  0.3364  0.1501
  919MPD2     H13507   3.000   4.569  11.776  2.8437  0.5140  1.2843
  919MPD2    H113508   2.940   0.252  11.794 -1.7183 -0.5636 -1.3482
  919MPD2    H213509   2.736   0.015  12.055  0.2913  0.3623  1.3711
  919MPD2    H313510   2.809   0.229  11.996  2.2197  2.6801 -2.4688
  919MPD2     N13511   3.082   0.081  11.654  0.3223 -0.2774  0.1482
  919MPD2    H513512   3.094   0.178  11.627 -1.4535  0.1460  0.8633
  919MPD2    N113513   2.835   4.511  11.946 -0.3738 -0.0730 -0.2175
  919MPD2    H713514   2.870   4.449  11.875  2.9693 -1.9634  3.0870
  920MPD2     C13515   2.773   0.583  11.089  0.5418 -0.0558 -0.9738
  920MPD2    C113516   2.798   0.466  11.017 -0.8442 -0.1351 -0.2834
  920MPD2    C213517   2.891   0.375  11.062  0.2567 -0.6651 -0.1328
  920MPD2    C313518   2.970   0.416  11.175 -0.0589 -0.1484  0.8677
  920MPD2    C413519   2.938   0.527  11.246  0.2511 -0.1001  0.2134
  920MPD2    C513520   2.832   0.605  11.209 -0.1507  0.0023  0.4485
  920MPD2     H13521   2.909   0.288  11.000 -0.5237 -2.0800  1.6590
  920MPD2    H113522   2.992   0.558  11.335 -2.0657  3.8257  0.2386
  920MPD2    H213523   2.700   0.654  11.051  0.7035 -1.4013 -3.7636
  920MPD2    H313524   2.800   0.682  11.278 -2.5416  0.7393 -1.5100
  920MPD2     N13525   3.080   0.354  11.227  0.1965  0.3149 -0.4192
  920MPD2    H513526   3.118   0.399  11.310  0.2440  1.5102 -1.0916
  920MPD2    N113527   2.726   0.438  10.900  0.1439  0.2794  0.1650
  920MPD2    H713528   2.729   0.340  10.873  0.6783  0.8685 -1.8817
  921MPD2     C13529   3.578   3.683  16.993 -0.2693  0.4564 -0.4955
  921MPD2    C113530   3.599   3.646  16.864  0.8511  0.4863 -0.4041
  921MPD2    C213531   3.513   3.551  16.810  0.1011 -0.6976 -0.0298
  921MPD2    C313532   3.405   3.497  16.880 -0.3701  0.2717 -0.0786
  921MPD2    C413533   3.389   3.542  17.007  0.7719 -0.7104 -0.1975
  921MPD2    C513534   3.478   3.629  17.065  0.3410  0.1914  0.2881
  921MPD2     H13535   3.545   3.518  16.711 -0.5255 -0.7171 -0.2254
  921MPD2    H113536   3.311   3.509  17.075  1.2333  0.1174  0.7332
  921MPD2    H213537   3.647   3.748  17.045  0.9762 -1.6983  0.5218
  921MPD2    H313538   3.457   3.665  17.165 -1.0048 -2.7022  1.0579
  921MPD2     N13539   3.343   3.386  16.816  0.2967  0.0856  0.4059
  921MPD2    H513540   3.378   3.368  16.723  0.5475 -0.9578  0.7063
  921MPD2    N113541   3.705   3.707  16.792  0.4708 -0.8415 -0.2062
  921MPD2    H713542   3.769   3.767  16.843 -0.3650  0.4102 -0.6270
  922MPD2     C13543   4.293   1.690  17.261  0.1707 -0.6415  0.2752
  922MPD2    C113544   4.243   1.623  17.370 -0.3563  0.6650 -0.2528
  922MPD2    C213545   4.180   1.503  17.351  0.5183 -0.2824 -0.8572
  922MPD2    C313546   4.165   1.442  17.230  0.3433 -0.5337  0.2935
  922MPD2    C413547   4.210   1.512  17.126  0.3547  0.1622  0.1893
  922MPD2    C513548   4.280   1.633  17.137 -0.2535  0.4284  0.3026
  922MPD2     H13549   4.145   1.447  17.437  0.9118 -1.3965 -1.4167
  922MPD2    H113550   4.202   1.470  17.026  0.3091 -0.9250  0.6512
  922MPD2    H213551   4.351   1.781  17.270 -1.9082  0.7396 -0.3979
  922MPD2    H313552   4.314   1.690  17.052  1.2479  3.5730  3.0136
  922MPD2     N13553   4.087   1.318  17.221 -0.7059  0.3608 -0.0127
  922MPD2    H513554   4.051   1.273  17.305 -0.3319  0.0232 -0.0357
  922MPD2    N113555   4.239   1.676  17.498 -0.0328  0.0126  0.0670
  922MPD2    H713556   4.203   1.618  17.573  0.8564  0.5098  0.8789
  923MPD2     C13557   0.679   4.088   9.492  0.5185 -0.1026  0.0026
  923MPD2    C113558   0.687   3.979   9.575 -0.2430  0.3703 -0.4537
  923MPD2    C213559   0.806   3.937   9.626  0.2019 -0.2057  0.3269
  923MPD2    C313560   0.921   3.999   9.592 -0.0355  0.5149 -0.2555
  923MPD2    C413561   0.916   4.115   9.518 -0.5660 -0.5068 -0.3069
  923MPD2    C513562   0.795   4.160   9.472  0.3964  0.3768  0.3758
  923MPD2     H13563   0.806   3.851   9.692 -0.2458 -0.9932 -0.7060
  923MPD2    H113564   1.005   4.176   9.507 -0.3217 -0.6657  0.7405
  923MPD2    H213565   0.593   4.101   9.427 -0.9950  0.7771  2.1794
  923MPD2    H313566   0.803   4.253   9.417 -0.7261  0.2652  0.0223
  923MPD2     N13567   1.045   3.968   9.646 -0.5922 -0.0187 -0.4695
  923MPD2    H513568   1.122   4.034   9.641 -0.1248 -0.5804 -0.5944
  923MPD2    N113569   0.563   3.905   9.589 -0.1358  0.3689 -0.0717
  923MPD2    H713570   0.487   3.927   9.526 -0.1889  2.5412  0.7573
  924MPD2     C13571   0.928   1.379  16.248  0.2936 -0.0362  0.2833
  924MPD2    C113572   0.884   1.427  16.369 -0.8580 -0.5633  0.0352
  924MPD2    C213573   0.886   1.565  16.391 -0.0570  0.3065  0.2503
  924MPD2    C313574   0.928   1.647  16.295 -0.4421  0.6778  0.9632
  924MPD2    C413575   0.969   1.600  16.171  0.5054  0.0488 -0.5514
  924MPD2    C513576   0.970   1.464  16.152  0.3301 -0.2745  0.8883
  924MPD2     H13577   0.851   1.597  16.488 -1.0250  0.9502 -0.3071
  924MPD2    H113578   0.998   1.669  16.092  0.8525  1.8105  1.1330
  924MPD2    H213579   0.932   1.275  16.219 -0.6916 -0.2883  1.0804
  924MPD2    H313580   0.995   1.422  16.055  1.2925 -1.7584  1.7683
  924MPD2     N13581   0.929   1.782  16.318 -0.2495 -0.1765  0.0442
  924MPD2    H513582   0.947   1.845  16.240 -0.7734 -1.0287 -0.7755
  924MPD2    N113583   0.844   1.324  16.463 -0.0362  0.5041  0.2726
  924MPD2    H713584   0.870   1.230  16.435  1.7928  0.8488  0.8403
  925MPD2     C13585   4.613   4.395  14.866 -0.1973  0.3461 -0.0196
  925MPD2    C113586   4.500   4.346  14.805  0.2058 -0.0650  0.2275
  925MPD2    C213587   4.404   4.282  14.885 -0.1154 -0.4965  0.3794
  925MPD2    C313588   4.435   4.263  15.024  0.1320  0.3620 -0.1517
  925MPD2    C413589   4.555   4.301  15.081 -0.4188  0.1416  0.2157
  925MPD2    C513590   4.641   4.369  14.999 -0.9050  0.3478 -0.4284
  925MPD2     H13591   4.307   4.261  14.843 -0.4915  1.2281  0.3898
  925MPD2    H113592   4.579   4.282  15.185  0.2741 -2.2932 -0.3692
  925MPD2    H213593   4.692   4.441  14.808 -0.2021 -1.7421 -1.6357
  925MPD2    H313594   4.731   4.401  15.051 -0.7019 -0.2927 -0.3807
  925MPD2     N13595   4.346   4.197  15.117  0.7932  0.3807 -0.1084
  925MPD2    H513596   4.375   4.200  15.214  0.8811 -0.6915 -0.1025
  925MPD2    N113597   4.469   4.381  14.667 -0.6142  0.6032 -0.4830
  925MPD2    H713598   4.399   4.328  14.614  0.2538  1.7754 -2.8104
  926MPD2     C13599   3.348   2.668  13.821 -0.7708  0.3364  0.2369
  926MPD2    C113600   3.322   2.802  13.850 -0.3977  0.0314 -0.5673
  926MPD2    C213601   3.385   2.904  13.774  0.2956  0.5017  0.4783
  926MPD2    C313602   3.482   2.868  13.684 -0.4963 -0.5427  0.0917
  926MPD2    C413603   3.506   2.733  13.662 -0.0866 -0.3703 -0.2443
  926MPD2    C513604   3.436   2.635  13.722  0.5209 -0.1846  0.6736
  926MPD2     H13605   3.368   3.008  13.797 -0.8873 -0.0803  2.2609
  926MPD2    H113606   3.579   2.701  13.589 -1.3379  0.0628 -1.6677
  926MPD2    H213607   3.297   2.587  13.872  0.2658  0.4187  1.3982
  926MPD2    H313608   3.462   2.531  13.706  0.3762 -0.0719 -0.2852
  926MPD2     N13609   3.563   2.964  13.617 -0.8108 -0.3098  0.1046
  926MPD2    H513610   3.638   2.926  13.561  0.1808  2.1241 -0.2026
  926MPD2    N113611   3.228   2.834  13.952 -0.2169  0.5085 -0.9278
  926MPD2    H713612   3.215   2.931  13.978 -1.8970  0.3427 -1.1457
  927MPD2     C13613   3.098   4.677  17.467  0.1794  0.1000  0.3710
  927MPD2    C113614   2.960   4.694  17.493  0.8513  0.1842 -0.1505
  927MPD2    C213615   2.875   4.667  17.388 -0.4562 -0.3362  0.0300
  927MPD2    C313616   2.918   4.605  17.272  0.2788 -0.0016 -0.1326
  927MPD2    C413617   3.053   4.560  17.259  0.1483 -0.4402 -0.2902
  927MPD2    C513618   3.139   4.612  17.357  0.0239  0.1522  0.0049
  927MPD2     H13619   2.767   4.670  17.390 -0.5261 -2.7060 -0.6574
  927MPD2    H113620   3.087   4.511  17.168 -2.2889 -0.6397 -1.0865
  927MPD2    H213621   3.173   4.717  17.534 -1.3282  2.1691  0.8339
  927MPD2    H313622   3.241   4.576  17.357 -0.8351 -2.2454 -1.5020
  927MPD2     N13623   2.815   4.589  17.179  0.3202 -0.4601  0.7686
  927MPD2    H513624   2.733   4.647  17.191  0.4921 -0.3765  1.5286
  927MPD2    N113625   2.916   4.739  17.622  0.1099 -0.2418  0.1070
  927MPD2    H713626   2.991   0.002  17.690  0.5358  0.9198 -0.4333
  928MPD2     C13627   0.928   3.356   0.407  0.0368 -0.2815 -0.3619
  928MPD2    C113628   0.937   3.440   0.508  0.0449 -0.0611  0.1129
  928MPD2    C213629   1.057   3.452   0.576 -0.2538  0.0729 -1.0282
  928MPD2    C313630   1.161   3.373   0.549 -0.2679  0.3638 -0.9054
  928MPD2    C413631   1.145   3.281   0.448 -0.6174 -0.3745 -0.3362
  928MPD2    C513632   1.034   3.275   0.374  0.0428  0.1388  0.1533
  928MPD2     H13633   1.047   3.519   0.660 -2.5406 -0.6654 -0.7110
  928MPD2    H113634   1.227   3.211   0.436  0.6981  0.7556  1.9857
  928MPD2    H213635   0.839   3.349   0.345  0.3190 -1.3472 -0.6487
  928MPD2    H313636   1.024   3.211   0.287 -1.0752 -0.9324  1.0785
  928MPD2     N13637   1.286   3.375   0.617  0.0892  0.0487 -0.4688
  928MPD2    H513638   1.365   3.325   0.577 -0.2644 -0.9221  0.0319
  928MPD2    N113639   0.825   3.528   0.533  0.1285  0.6824  0.5029
  928MPD2    H713640   0.759   3.544   0.457  0.0709  1.4386  0.7186
  929MPD2     C13641   0.772   3.437   9.909 -0.0169  0.2320  0.2654
  929MPD2    C113642   0.740   3.358  10.014 -0.0203 -0.6692  0.6501
  929MPD2    C213643   0.611   3.309  10.028 -0.5104  0.2832 -0.0682
  929MPD2    C313644   0.519   3.323   9.925  0.4774 -0.8419  0.2562
  929MPD2    C413645   0.560   3.394   9.811 -0.1742  0.5918 -0.4532
  929MPD2    C513646   0.687   3.447   9.806 -0.4319 -0.1496 -0.0229
  929MPD2     H13647   0.592   3.230  10.100  0.8363  0.1041  0.0922
  929MPD2    H113648   0.490   3.402   9.729 -0.7300  0.4270  0.0029
  929MPD2    H213649   0.871   3.481   9.905 -0.9197  1.9906 -2.6801
  929MPD2    H313650   0.717   3.503   9.718 -1.2440 -1.1972 -0.9606
  929MPD2     N13651   0.387   3.266   9.933 -0.0382  0.3090 -0.7022
  929MPD2    H513652   0.330   3.266   9.848 -1.0880 -4.4551  0.0011
  929MPD2    N113653   0.826   3.344  10.125 -0.0317 -0.0044  0.3201
  929MPD2    H713654   0.916   3.390  10.112  0.7386 -1.3443  0.9542
  930MPD2     C13655   2.796   0.966  14.034 -0.1398 -0.2427 -0.1726
  930MPD2    C113656   2.863   0.969  13.917 -0.1250  0.0540 -0.0400
  930MPD2    C213657   2.818   0.911  13.798  0.2797 -0.3186  0.1085
  930MPD2    C313658   2.701   0.829  13.808  0.4108 -0.0222 -0.0720
  930MPD2    C413659   2.642   0.798  13.938 -0.1426  0.5184  0.2697
  930MPD2    C513660   2.690   0.879  14.038 -0.2530 -0.5330 -0.3434
  930MPD2     H13661   2.864   0.923  13.700 -0.3654  1.6482  0.0472
  930MPD2    H113662   2.561   0.728  13.956 -0.5627  1.0974  0.6406
  930MPD2    H213663   2.825   1.034  14.112  0.8194  1.0178 -1.6250
  930MPD2    H313664   2.634   0.882  14.131 -0.2316 -1.5408 -0.2982
  930MPD2     N13665   2.651   0.761  13.692  0.8453 -0.0927 -0.7561
  930MPD2    H513666   2.596   0.676  13.703 -2.0154  1.7458 -0.8415
  930MPD2    N113667   2.969   1.068  13.921 -0.5137  0.1117 -0.0840
  930MPD2    H713668   2.974   1.125  14.005 -2.6738  0.1890 -0.0103
  931MPD2     C13669   3.191   4.508   0.298 -0.2987  0.2647  0.4035
  931MPD2    C113670   3.095   4.564   0.377  0.0434  0.5859  0.9867
  931MPD2    C213671   3.088   4.528   0.514 -0.0203  0.3155  0.2371
  931MPD2    C313672   3.187   4.456   0.573 -0.0794 -0.0049  0.4793
  931MPD2    C413673   3.284   4.399   0.489  1.0091  0.0504  0.9627
  931MPD2    C513674   3.287   4.422   0.355  0.2072  0.2649  0.6174
  931MPD2     H13675   3.007   4.564   0.577  1.0400  0.7617  1.3247
  931MPD2    H113676   3.371   4.345   0.523  1.0392 -1.9433 -2.2541
  931MPD2    H213677   3.191   4.513   0.190  0.5608 -0.7341  0.3595
  931MPD2    H313678   3.364   4.375   0.295 -1.7956  0.7307 -2.3434
  931MPD2     N13679   3.178   4.410   0.706  0.5622  0.5118 -0.1507
  931MPD2    H513680   3.241   4.334   0.726  0.6535  0.6577  0.1097
  931MPD2    N113681   3.000   4.643   0.307 -0.3615 -0.5133 -0.4606
  931MPD2    H713682   3.026   4.669   0.213 -0.2882  0.4426 -0.1781
  932MPD2     C13683   0.281   3.511  11.740  0.4573 -0.3817  0.5408
  932MPD2    C113684   0.392   3.578  11.778  0.1717  0.1372 -0.3495
  932MPD2    C213685   0.462   3.528  11.890  0.3503 -0.1378  0.0048
  932MPD2    C313686   0.420   3.411  11.944 -0.0575 -0.1463  0.2980
  932MPD2    C413687   0.306   3.346  11.901  0.8713 -0.5087  0.5686
  932MPD2    C513688   0.232   3.397  11.802 -0.5907 -0.9546  0.8747
  932MPD2     H13689   0.557   3.576  11.910  0.4697 -0.9068  1.2335
  932MPD2    H113690   0.279   3.256  11.955  0.7314 -0.8956 -0.1590
  932MPD2    H213691   0.214   3.539  11.659  1.3711  0.8267  0.2099
  932MPD2    H313692   0.139   3.350  11.773  0.5564 -1.1546 -2.4423
  932MPD2     N13693   0.499   3.326  12.030 -0.1504 -0.0832 -0.3543
  932MPD2    H513694   0.461   3.234  12.049  0.8644 -0.0203  2.0283
  932MPD2    N113695   0.442   3.695  11.714  0.9474  0.1966  0.3299
  932MPD2    H713696   0.523   3.744  11.749 -0.6360  2.3079  1.0514
  933MPD2     C13697   0.509   3.772   0.059 -0.2091  0.3120  0.2369
  933MPD2    C113698   0.473   3.864   0.155 -0.1757 -0.3832 -0.3176
  933MPD2    C213699   0.403   3.980   0.125  1.1955  0.4762  0.2465
  933MPD2    C313700   0.375   4.013  17.757 -0.0634 -0.6504  0.7743
  933MPD2    C413701   0.412   3.920  17.663 -0.2709  0.2184 -0.2763
  933MPD2    C513702   0.473   3.797  17.688  0.2450  0.2375  0.1046
  933MPD2     H13703   0.374   4.049   0.203  0.4941 -1.1502  1.4331
  933MPD2    H113704   0.386   3.928  17.558 -0.8991  0.3777 -0.1066
  933MPD2    H213705   0.574   3.690   0.086  3.7613  3.6823  0.8470
  933MPD2    H313706   0.487   3.719  17.613 -0.6781  1.3412 -1.2092
  933MPD2     N13707   0.312   4.139  17.726 -0.3808  0.3235  0.2911
  933MPD2    H513708   0.295   4.206   0.041  0.6618  2.3171 -1.2451
  933MPD2    N113709   0.511   3.821   0.285 -0.5974 -0.4787  0.5266
  933MPD2    H713710   0.567   3.736   0.284 -0.0499 -0.1207  0.4390
  934MPD2     C13711   2.021   1.569   1.697 -0.7538  0.4591  0.3139
  934MPD2    C113712   2.119   1.528   1.608  0.2830  0.2848 -0.2107
  934MPD2    C213713   2.085   1.430   1.511 -0.3688  0.2825 -0.4820
  934MPD2    C313714   1.951   1.390   1.508 -0.3010 -0.3331 -0.5812
  934MPD2    C413715   1.859   1.427   1.604 -0.2058  0.5195  0.0676
  934MPD2    C513716   1.894   1.520   1.699 -0.0022 -0.2643  0.5830
  934MPD2     H13717   2.159   1.404   1.437  0.1390 -1.2748  0.5814
  934MPD2    H113718   1.756   1.392   1.607  0.1574 -0.6245 -1.6688
  934MPD2    H213719   2.037   1.649   1.769 -1.9781  0.0051  1.0993
  934MPD2    H313720   1.826   1.553   1.776  0.5929  1.2796  0.4435
  934MPD2     N13721   1.910   1.287   1.415  0.2236  0.0395  0.1144
  934MPD2    H513722   1.812   1.260   1.421  0.3906 -0.7943 -0.8675
  934MPD2    N113723   2.258   1.579   1.608  0.1507 -0.0042 -0.1590
  934MPD2    H713724   2.305   1.546   1.525  0.2713 -1.6929  0.5705
  935MPD2     C13725   2.298   0.421   1.098  0.0136  0.0167 -0.1376
  935MPD2    C113726   2.198   0.436   1.007 -0.1387 -0.8764  0.6486
  935MPD2    C213727   2.123   0.551   1.019 -0.3688 -0.3976 -0.0982
  935MPD2    C313728   2.151   0.643   1.119 -0.2650 -0.2511  0.2343
  935MPD2    C413729   2.253   0.623   1.204 -0.1802  0.4722 -0.5187
  935MPD2    C513730   2.327   0.514   1.188  0.5385  0.4813 -0.6715
  935MPD2     H13731   2.044   0.559   0.945 -1.7135  2.1527  1.6281
  935MPD2    H113732   2.283   0.689   1.285 -1.8210 -0.0910  0.5375
  935MPD2    H213733   2.372   0.343   1.099 -1.3346 -1.2663  1.5820
  935MPD2    H313734   2.413   0.499   1.252 -1.5968 -1.4988  1.7698
  935MPD2     N13735   2.062   0.746   1.157 -0.7404 -0.1193 -0.3790
  935MPD2    H513736   2.088   0.792   1.243 -2.8023  0.8705 -0.2976
  935MPD2    N113737   2.178   0.344   0.899  0.1941  0.4878 -0.3121
  935MPD2    H713738   2.109   0.365   0.828  0.8307 -0.9005 -1.3392
  936MPD2     C13739   0.787   2.177  12.935 -0.3094  0.2093  0.1784
  936MPD2    C113740   0.671   2.227  12.883 -0.2045 -0.5759 -0.2162
  936MPD2    C213741   0.657   2.255  12.748  0.3312 -0.1515 -0.3909
  936MPD2    C313742   0.764   2.229  12.666 -0.0478  0.4264  0.7415
  936MPD2    C413743   0.876   2.163  12.712  0.3815  0.4931 -0.0463
  936MPD2    C513744   0.883   2.142  12.847  0.4014  0.5873 -0.7040
  936MPD2     H13745   0.568   2.302  12.707 -0.3126 -0.3905  0.7720
  936MPD2    H113746   0.951   2.115  12.649 -1.7409  0.4499 -2.5340
  936MPD2    H213747   0.797   2.140  13.037  1.8137  1.5089  0.4509
  936MPD2    H313748   0.963   2.084  12.893  0.1374 -1.3144 -2.6427
  936MPD2     N13749   0.742   2.259  12.530  0.0822 -0.1252 -0.0560
  936MPD2    H513750   0.652   2.292  12.497  0.5455  0.4266 -0.7918
  936MPD2    N113751   0.565   2.273  12.965 -0.0850  0.5205 -0.2720
  936MPD2    H713752   0.492   2.320  12.913  1.4497  1.7989 -1.2661
  937MPD2     C13753   3.019   3.857  11.724  0.5737  0.1965  0.4326
  937MPD2    C113754   3.061   3.984  11.759  0.1615 -0.9786  0.0685
  937MPD2    C213755   3.161   4.046  11.684 -0.2298 -0.8251  0.0767
  937MPD2    C313756   3.223   3.984  11.578  0.6234 -0.9871 -0.0420
  937MPD2    C413757   3.181   3.856  11.541 -0.1363 -1.1807 -0.8424
  937MPD2    C513758   3.086   3.797  11.620  0.4713  0.3471  0.2981
  937MPD2     H13759   3.186   4.148  11.707 -1.5381 -1.0285  2.4870
  937MPD2    H113760   3.218   3.798  11.458  0.7034 -0.8710 -0.6843
  937MPD2    H213761   2.940   3.797  11.766 -1.0274  1.5334 -0.6698
  937MPD2    H313762   3.055   3.695  11.599 -1.4219  1.2874 -1.4564
  937MPD2     N13763   3.326   4.052  11.512  0.1726  0.7246  0.0503
  937MPD2    H513764   3.357   4.142  11.547  0.4990  0.8669 -0.5934
  937MPD2    N113765   2.995   4.057  11.857 -0.0669 -0.3898  0.1803
  937MPD2    H713766   3.030   4.151  11.875  0.4399 -0.4905 -0.3007
  938MPD2     C13767   1.168   0.517   0.788 -0.1560 -0.1902  0.3292
  938MPD2    C113768   1.055   0.588   0.825  0.0622 -0.8385  0.1875
  938MPD2    C213769   0.935   0.528   0.856  0.2650 -0.0546  0.2883
  938MPD2    C313770   0.932   0.382   0.859  0.3665 -0.1106  0.4325
  938MPD2    C413771   1.051   0.324   0.824  0.3120  0.1158  0.3818
  938MPD2    C513772   1.163   0.384   0.788 -0.7926 -0.2971 -0.0475
  938MPD2     H13773   0.843   0.581   0.877  0.9682 -0.1371  3.5869
  938MPD2    H113774   1.056   0.216   0.838 -0.8087  0.0455  0.2196
  938MPD2    H213775   1.264   0.551   0.751 -0.6532 -1.5647 -2.1905
  938MPD2    H313776   1.253   0.326   0.768 -0.9977 -0.1583 -1.4230
  938MPD2     N13777   0.826   0.303   0.903  0.7359 -0.4023  0.2292
  938MPD2    H513778   0.838   0.203   0.913 -0.4840 -0.3838  1.8223
  938MPD2    N113779   1.064   0.726   0.841  0.0849 -0.5469  0.9716
  938MPD2    H713780   0.986   0.782   0.875  0.0829 -1.2207  2.1022
  939MPD2     C13781   2.587   1.329   0.905  0.3330 -0.3508  0.1789
  939MPD2    C113782   2.575   1.399   0.785  0.6456 -0.5497  0.5135
  939MPD2    C213783   2.578   1.337   0.661  0.3074 -0.1547  0.3359
  939MPD2    C313784   2.575   1.198   0.659  0.2698 -0.6507  0.2994
  939MPD2    C413785   2.597   1.130   0.775  0.8507 -0.6743  0.7875
  939MPD2    C513786   2.601   1.197   0.898 -0.4406 -0.3468 -0.5909
  939MPD2     H13787   2.565   1.388   0.566  0.4462  0.7119  0.7835
  939MPD2    H113788   2.613   1.023   0.780 -1.9171 -1.1820 -1.3953
  939MPD2    H213789   2.569   1.373   1.003  0.8632 -0.6938  0.4324
  939MPD2    H313790   2.613   1.142   0.991 -0.1539  2.5770  1.1150
  939MPD2     N13791   2.552   1.131   0.537 -0.1621  0.4442 -0.0572
  939MPD2    H513792   2.564   1.184   0.452 -1.3722 -1.0457 -1.1713
  939MPD2    N113793   2.556   1.535   0.803 -0.4411 -0.2662  0.6198
  939MPD2    H713794   2.551   1.563   0.901 -0.5890 -1.7099  1.0270
  940MPD2     C13795   1.351   2.138  13.512  0.4178 -0.1557  0.0840
  940MPD2    C113796   1.374   2.040  13.421 -0.0540 -0.7203  0.4541
  940MPD2    C213797   1.354   2.073  13.288 -0.1759 -0.1091  0.7656
  940MPD2    C313798   1.309   2.192  13.245 -0.3003 -0.3205  0.4381
  940MPD2    C413799   1.287   2.284  13.341  0.3479 -0.8243 -0.7855
  940MPD2    C513800   1.310   2.259  13.469  0.4198 -1.1073  0.6314
  940MPD2     H13801   1.377   1.991  13.221 -2.1372 -0.4737  0.5450
  940MPD2    H113802   1.270   2.387  13.311  1.6401  0.0973  1.6246
  940MPD2    H213803   1.353   2.118  13.619  2.3173  0.5927  0.2033
  940MPD2    H313804   1.297   2.333  13.547  2.1909 -0.4914  0.3596
  940MPD2     N13805   1.287   2.209  13.108  0.3181  0.0081 -0.6687
  940MPD2    H513806   1.308   2.132  13.045 -0.1240 -0.9568  0.3623
  940MPD2    N113807   1.409   1.908  13.463  0.1168  0.0163  0.3236
  940MPD2    H713808   1.393   1.837  13.392  1.6245  1.6407 -1.6110
  941MPD2     C13809   0.009   2.112  10.253  0.1135 -0.1087  0.4537
  941MPD2    C113810   0.116   2.045  10.306 -0.6047 -0.0198  0.1301
  941MPD2    C213811   0.096   1.924  10.381 -0.2394 -0.4113 -0.4399
  941MPD2    C313812   4.706   1.874  10.393 -0.8074  0.0008 -0.1194
  941MPD2    C413813   4.600   1.947  10.342  0.1834 -0.2704  0.0206
  941MPD2    C513814   4.626   2.061  10.272  0.2253 -0.4327 -0.3227
  941MPD2     H13815   0.177   1.873  10.432 -0.1141  0.5950  0.3614
  941MPD2    H113816   4.494   1.933  10.360  0.4139 -3.2177 -0.9558
  941MPD2    H213817   0.018   2.206  10.200  3.8416 -2.9192 -3.8993
  941MPD2    H313818   4.536   2.108  10.235  0.0802 -0.3411  0.1483
  941MPD2     N13819   4.666   1.758  10.459  0.3345 -0.0450  0.1508
  941MPD2    H513820   4.569   1.755  10.490  0.0586 -1.0231 -0.7933
  941MPD2    N113821   0.243   2.103  10.297  0.4806  0.0112  1.0679
  941MPD2    H713822   0.314   2.073  10.363  0.2628 -1.4501  0.6412
  942MPD2     C13823   0.336   3.380   9.366  0.2475  0.8231  0.5351
  942MPD2    C113824   0.309   3.493   9.294  0.4280 -0.6261 -0.6078
  942MPD2    C213825   0.415   3.577   9.277 -0.6308  0.2292  0.1752
  942MPD2    C313826   0.540   3.567   9.336 -0.2829  0.0655 -0.4419
  942MPD2    C413827   0.558   3.454   9.413  0.5230 -0.5673 -0.1587
  942MPD2    C513828   0.461   3.362   9.423  0.0681  0.2308  0.5483
  942MPD2     H13829   0.386   3.655   9.207  0.2887  1.4019  1.0814
  942MPD2    H113830   0.662   3.441   9.441  0.7904  0.6138 -0.6337
  942MPD2    H213831   0.266   3.298   9.381  0.6381  0.4850  0.5177
  942MPD2    H313832   0.483   3.269   9.473 -1.4944  0.6355  1.9970
  942MPD2     N13833   0.645   3.657   9.325  0.0676 -0.1961 -0.5876
  942MPD2    H513834   0.729   3.637   9.379  0.4813  3.1779 -0.0157
  942MPD2    N113835   0.191   3.515   9.224  0.6453 -0.2852 -0.0108
  942MPD2    H713836   0.183   3.604   9.174 -0.8099 -1.5789 -2.0651
  943MPD2     C13837   3.610   1.897  10.134  0.5206 -0.5416  0.2403
  943MPD2    C113838   3.552   1.774  10.175 -0.1655 -0.5187  0.6738
  943MPD2    C213839   3.516   1.758  10.307 -0.3720 -0.2850 -0.6599
  943MPD2    C313840   3.528   1.864  10.399 -0.7356 -0.0218 -0.6690
  943MPD2    C413841   3.585   1.982  10.355 -2.0347 -0.6915 -0.4402
  943MPD2    C513842   3.634   1.996  10.226 -0.1213 -0.5620 -0.9110
  943MPD2     H13843   3.480   1.662  10.341  0.9415 -1.1953 -1.8340
  943MPD2    H113844   3.614   2.058  10.427 -1.6927 -0.0365 -1.2708
  943MPD2    H213845   3.644   1.917  10.033  0.2211  0.4397  0.3361
  943MPD2    H313846   3.679   2.089  10.194 -1.9926  0.7906  0.4225
  943MPD2     N13847   3.481   1.854  10.532 -0.4211 -0.7187 -0.0065
  943MPD2    H513848   3.496   1.938  10.586  0.8088  0.3122 -1.9626
  943MPD2    N113849   3.546   1.678  10.075  0.1348  0.2055 -0.2337
  943MPD2    H713850   3.565   1.702   9.978  0.3027  1.2026  0.0369
  944MPD2     C13851   3.608   1.023  11.152  0.6897  0.5243 -0.8146
  944MPD2    C113852   3.555   1.131  11.085 -0.0749  0.6389  0.2250
  944MPD2    C213853   3.499   1.235  11.157 -0.1544 -0.0517  0.4012
  944MPD2    C313854   3.483   1.224  11.295 -0.0725 -0.3830 -0.2576
  944MPD2    C413855   3.542   1.123  11.359  0.5192 -0.8579  0.1019
  944MPD2    C513856   3.610   1.022  11.288  0.7185  0.1349  0.7680
  944MPD2     H13857   3.463   1.324  11.107 -0.3924  0.6735  1.8727
  944MPD2    H113858   3.548   1.110  11.467 -0.1657  1.0694  0.3664
  944MPD2    H213859   3.654   0.942  11.097 -2.0865 -2.5154  1.3509
  944MPD2    H313860   3.660   0.943  11.342  1.7804  0.9264  0.9557
  944MPD2     N13861   3.418   1.327  11.365 -0.4417 -0.3631 -0.1980
  944MPD2    H513862   3.376   1.405  11.315 -1.9315 -2.3500 -2.0643
  944MPD2    N113863   3.575   1.130  10.943 -0.3492  0.3856 -0.1377
  944MPD2    H713864   3.627   1.052  10.902 -0.4494  0.9165 -1.2808
    1TMC1    C113865   1.969   1.030  14.695  0.7102  1.1008  0.0487
    1TMC1    C213866   1.986   1.091  14.572 -0.4193 -0.2057  0.3424
    1TMC1    C313867   1.970   1.013  14.462  0.0183  0.5499  0.2933
    1TMC1    C413868   1.914   0.905  14.712  0.0360 -0.3701 -0.4460
    1TMC1    C513869   1.896   0.840  14.596 -0.2629  0.0191  0.1541
    1TMC1    C613870   1.926   0.888  14.470 -0.1986 -0.2379 -0.1857
    1TMC1     C13871   2.005   1.094  14.818  0.3160  0.0951  0.0242
    1TMC1     O13872   1.979   1.030  14.920 -0.4389 -0.1081 -0.3843
    1TMC1     H13873   2.001   1.198  14.562 -0.0097 -0.3863 -1.0102
    1TMC1    H113874   1.931   0.855  14.807 -0.9346  0.6640  0.2644
    1TMC1    H213875   1.916   0.831  14.379  0.6179  1.1356 -1.1292
    1TMC1    C713876   1.818   0.720  14.588 -0.6747  0.4488 -0.6130
    1TMC1    C813877   1.969   1.085  14.337  0.0373 -0.2343  0.0089
    1TMC1    O113878   1.761   0.690  14.482  0.0347 -0.4669 -0.1752
    1TMC1    O213879   1.880   1.076  14.255 -0.0458  0.6875  0.0223
    1TMC1    O313880   1.766   0.700  14.713 -0.1450 -0.0215 -0.5224
    1TMC1    H313881   1.819   0.730  14.790  0.1523 -1.1060 -0.2937
    1TMC1    O513882   2.054   1.189  14.329 -0.3022 -0.6440 -0.0519
    1TMC1    H513883   2.123   1.185  14.400 -0.6381 -1.0138  0.2514
    2MPD2     C13884   2.276   1.454  15.048  0.3092  0.4717  0.5939
    2MPD2    C113885   2.262   1.490  14.917  0.1199 -0.5645  0.0206
    2MPD2    C213886   2.193   1.408  14.832 -0.2620  0.3878  0.1039
    2MPD2    C313887   2.155   1.288  14.887  0.2613 -0.1820  0.3227
    2MPD2    C413888   2.162   1.248  15.016 -0.7407  0.5197  0.8527
    2MPD2    C513889   2.231   1.330  15.096 -0.9837  0.4404 -0.6288
    2MPD2     H13890   2.175   1.439  14.729 -0.2210  2.4057  0.7003
    2MPD2    H113891   2.121   1.155  15.053  2.5893 -0.5512  1.8656
    2MPD2    H213892   2.323   1.524  15.116 -2.4282  3.2456 -0.3740
    2MPD2    H313893   2.230   1.298  15.200 -1.1566 -0.2602 -0.8473
    2MPD2     N13894   2.088   1.205  14.792 -0.3786 -0.3798  0.3972
    2MPD2    H513895   2.099   1.228  14.694 -1.3353 -0.6994  0.2166
    2MPD2    N113896   2.322   1.621  14.876  0.1775  0.0888  0.2689
    2MPD2    H713897   2.364   1.679  14.948  1.7915  0.6107 -1.0985
    3TMC2    C113898   2.380   1.798  14.732  0.2848  0.0917  0.4744
    3TMC2    C213899   2.418   1.875  14.835  0.2539 -0.5847  0.4666
    3TMC2    C313900   2.456   2.009  14.811 -0.1175  0.7472 -0.6758
    3TMC2    C413901   2.373   1.850  14.605 -0.0828  0.4274 -0.5585
    3TMC2    C513902   2.394   1.984  14.592 -0.5654 -0.2503  0.9976
    3TMC2    C613903   2.430   2.068  14.690  0.0031  0.1538 -0.0123
    3TMC2     C13904   2.327   1.660  14.746  0.4959  0.1693  0.7758
    3TMC2     O13905   2.315   1.597  14.642  0.1262 -1.1098  0.0046
    3TMC2     H13906   2.450   1.831  14.929  1.1051  1.6454  1.2271
    3TMC2    H113907   2.331   1.787  14.527  0.3814  0.3318 -0.7336
    3TMC2    H213908   2.466   2.169  14.676  0.2540 -0.0015 -0.4827
    3TMC2    C713909   2.363   2.038  14.459  0.1841 -0.3508  0.1948
    3TMC2    C813910   2.480   2.091  14.921 -0.1225 -0.2714 -1.0372
    3TMC2    O113911   2.370   1.961  14.365  0.3731  0.2294  0.6406
    3TMC2    O213912   2.523   2.046  15.029 -0.1825  0.2479 -0.5989
    3TMC2    O513913   2.372   2.170  14.915 -0.1168  0.8335 -0.7890
    3TMC2    H513914   2.324   2.193  14.832  0.4454  0.7279 -1.1482
    4TMC2    C113915   2.102   2.997  14.281  0.3144  0.4297  0.0022
    4TMC2    C213916   2.202   3.089  14.314 -0.1362  0.4563  0.6649
    4TMC2    C313917   2.320   3.048  14.365  0.8719 -0.0161 -0.0446
    4TMC2    C413918   2.110   2.863  14.315 -0.1582  0.4021  0.2722
    4TMC2    C513919   2.230   2.830  14.372  0.9961 -0.5313  0.1174
    4TMC2    C613920   2.331   2.919  14.398  0.0528  0.5155  0.3320
    4TMC2     C13921   1.978   3.062  14.253  0.4617  0.2697 -0.8266
    4TMC2     O13922   1.964   3.181  14.283  0.3416  0.7324 -0.3981
    4TMC2     H13923   2.192   3.191  14.280  0.3216  0.4308  0.4441
    4TMC2    H113924   2.027   2.794  14.310 -0.2279  0.5336 -0.3978
    4TMC2    H213925   2.419   2.878  14.447 -0.3811  1.2857  1.7388
    4TMC2    C713926   2.269   2.681  14.371  0.8043  0.7979  0.5411
    4TMC2    C813927   2.425   3.141  14.397 -1.3925 -0.0845 -0.1725
    4TMC2    O113928   2.348   2.644  14.456 -0.3518  0.2804 -0.1154
    4TMC2    O213929   2.541   3.131  14.356  0.4344 -0.1870 -0.0004
    4TMC2    O513930   2.367   3.261  14.417 -0.0174  0.6664  0.2452
    4TMC2    H513931   2.284   3.259  14.468 -0.5775 -2.4978 -0.7731
    5MPD2     C13932   1.512   3.083  14.043 -0.1386  0.5813 -0.0193
    5MPD2    C113933   1.575   2.959  14.010  0.4733  0.1033 -0.0977
    5MPD2    C213934   1.695   2.929  14.060 -0.4252  0.3086  0.3443
    5MPD2    C313935   1.769   3.021  14.127  0.3314  0.6312  0.4353
    5MPD2    C413936   1.704   3.140  14.169 -0.3868 -0.4046 -0.2490
    5MPD2    C513937   1.576   3.165  14.132 -0.1730  0.2394 -0.0524
    5MPD2     H13938   1.734   2.837  14.019  0.7199  0.1560  1.7834
    5MPD2    H113939   1.744   3.219  14.231 -0.2315 -1.6637  1.2686
    5MPD2    H213940   1.422   3.124  14.001 -0.5277 -1.0019 -0.7227
    5MPD2    H313941   1.533   3.261  14.158 -2.2876 -1.1732  1.6511
    5MPD2     N13942   1.897   2.982  14.176  0.1362  0.2362  0.3561
    5MPD2    H513943   1.931   2.896  14.134 -0.9466  0.2974 -0.6191
    5MPD2    N113944   1.513   2.853  13.938  0.2286 -0.1557  0.4244
    5MPD2    H713945   1.560   2.764  13.929  1.7822  0.5788  1.1442
    6MPD1     C13946   0.370   3.810  12.785  0.7606  0.8722 -0.8697
    6MPD1    C113947   0.431   3.734  12.692  0.5276 -0.3410 -0.1149
    6MPD1    C213948   0.502   3.623  12.737 -0.0683 -0.0242  0.0050
    6MPD1    C313949   0.506   3.602  12.872 -0.4202  0.7564 -0.5080
    6MPD1    C413950   0.436   3.674  12.965 -0.3472 -0.1916 -0.1174
    6MPD1    C513951   0.366   3.781  12.921  0.6791  0.5948  0.5633
    6MPD1     H13952   0.554   3.552  12.674 -0.1966 -0.6968  0.6544
    6MPD1    H113953   0.448   3.657  13.071  0.7380  2.5749  0.1970
    6MPD1    H213954   0.318   3.900  12.751 -0.5777  0.3740 -0.1491
    6MPD1    H313955   0.318   3.842  12.997  0.1081 -0.6563  1.2017
    6MPD1     N13956   0.584   3.500  12.925 -0.1323 -0.5106 -0.4975
    6MPD1    H513957   0.563   3.466  13.018  1.0811  0.8396  0.2643
    6MPD1    N113958   0.452   3.774  12.561  0.4262  0.1982  0.3017
    6MPD1    H613959   0.377   3.837  12.531 -0.5661 -0.8512  0.5986
    6MPD1    H713960   0.463   3.704  12.488 -0.7140  0.6903 -0.3531
    7MPD2     C13961   0.712   3.078  13.564 -0.5395  0.3475  0.0595
    7MPD2    C113962   0.801   3.038  13.465 -0.3375 -0.3751 -0.9858
    7MPD2    C213963   0.888   2.929  13.483  0.7545 -0.3948  0.4227
    7MPD2    C313964   0.892   2.865  13.600  0.4686 -0.4278  0.1985
    7MPD2    C413965   0.804   2.905  13.707 -0.4565 -0.4353  0.1970
    7MPD2    C513966   0.716   3.008  13.679 -0.4291 -0.3527 -0.0619
    7MPD2     H13967   0.961   2.905  13.406 -0.1175  1.3635 -0.9573
    7MPD2    H113968   0.803   2.844  13.797 -0.8031 -4.4418 -2.5005
    7MPD2    H213969   0.645   3.162  13.547 -0.8373  0.0002 -0.4486
    7MPD2    H313970   0.647   3.035  13.757 -0.2786  0.6437 -0.2799
    7MPD2     N13971   0.988   2.771  13.643 -0.1141  0.6281 -0.5453
    7MPD2    H513972   0.988   2.741  13.740 -0.3933 -1.3717 -1.1693
    7MPD2    N113973   0.814   3.089  13.334  0.6869 -0.2887  0.0567
    7MPD2    H713974   0.891   3.060  13.274  1.7287  0.6569  0.9322
    8TMC3    C113975   1.204   2.671  13.622 -0.1988 -0.7786  0.0713
    8TMC3    C213976   1.226   2.731  13.747 -0.1882  0.2010 -0.0948
    8TMC3    C313977   1.355   2.761  13.786 -0.1653 -0.1578 -0.2525
    8TMC3    C413978   1.308   2.657  13.534 -0.0217 -0.3122 -0.1674
    8TMC3    C513979   1.433   2.702  13.573 -0.1560 -0.3823 -0.2962
    8TMC3    C613980   1.459   2.746  13.700  0.0312 -0.0452  0.4969
    8TMC3     C13981   1.084   2.719  13.558  0.8663  0.3064  0.1001
    8TMC3     O13982   1.105   2.736  13.437  0.4046  0.2524  0.1258
    8TMC3     H13983   1.157   2.767  13.821  0.0516  1.6627 -0.5865
    8TMC3    H113984   1.297   2.617  13.434 -0.9896 -0.2416 -0.0924
    8TMC3    H213985   1.556   2.794  13.715  0.5275 -1.3401  1.4950
    8TMC3    C713986   1.490   2.794  13.474  0.1196  0.5440 -0.4240
    8TMC3    C813987   1.382   2.856  13.892 -0.0452 -0.8548  0.4877
    8TMC3    O113988   1.612   2.818  13.475  0.0050 -0.0843  0.7144
    8TMC3    O213989   1.293   2.930  13.929 -0.3128 -0.0179  0.8766
    9TMC3    C113990   0.761   3.341  12.944  0.2198  0.5802  0.4862
    9TMC3    C213991   0.903   3.327  12.916  0.9152  0.3713 -0.5503
    9TMC3    C313992   0.974   3.263  13.012  0.1121 -0.0507  0.1357
    9TMC3    C413993   0.716   3.309  13.068  0.0745 -0.1807  0.5648
    9TMC3    C513994   0.797   3.248  13.156 -0.0872 -0.2955 -0.0144
    9TMC3    C613995   0.930   3.227  13.136  0.2334  0.2478 -0.0622
    9TMC3     C13996   0.685   3.439  12.860 -0.3211 -0.2096  0.4790
    9TMC3     O13997   0.737   3.488  12.761 -0.2868  0.3426 -0.3897
    9TMC3     H13998   0.952   3.360  12.825  0.7666  3.2437  0.4203
    9TMC3    H113999   0.613   3.304  13.103 -0.0387 -1.6299  0.0525
    9TMC3    H214000   0.999   3.220  13.219 -0.5362  0.4190  0.5908
    9TMC3    C714001   0.738   3.195  13.282  0.2224  1.3237 -0.0527
    9TMC3    C814002   1.119   3.246  13.007 -0.1220 -0.5446  0.2221
    9TMC3    O114003   0.630   3.236  13.323  0.0237 -0.2124 -0.2580
    9TMC3    O214004   1.187   3.345  12.987  0.2300  0.0769 -0.7342
   10MPD2     C14005   1.516   3.026  13.275  0.3654  0.4556 -0.3379
   10MPD2    C114006   1.395   2.962  13.304  0.4096  0.4813  0.2601
   10MPD2    C214007   1.281   3.007  13.242  0.9555 -0.0572  0.2971
   10MPD2    C314008   1.281   3.108  13.149 -0.4461 -0.0926  0.1258
   10MPD2    C414009   1.399   3.173  13.122  0.0930 -0.6584 -0.3998
   10MPD2    C514010   1.511   3.126  13.178 -0.0653  0.1432  0.6477
   10MPD2     H14011   1.189   2.952  13.261  0.6526  0.0918 -0.7275
   10MPD2    H114012   1.408   3.247  13.044  0.5414  0.8210  1.0791
   10MPD2    H214013   1.612   2.997  13.317  1.0274  3.3211  0.1351
   10MPD2    H314014   1.601   3.179  13.150 -1.3267  0.5898 -2.6119
   10MPD2     N14015   1.157   3.133  13.079  0.1294 -0.1427 -0.6210
   10MPD2    H514016   1.081   3.070  13.102  1.4119 -1.6954 -0.6548
   10MPD2    N114017   1.387   2.859  13.409  0.6216  0.5457 -0.6265
   10MPD2    H714018   1.295   2.818  13.417  0.5989  0.9705  1.3842
   11MPD2     C14019   2.232   2.193  14.241  0.7093  0.0175 -0.6397
   11MPD2    C114020   2.267   2.246  14.356  0.3399 -0.3213 -0.7052
   11MPD2    C214021   2.254   2.385  14.371 -0.0733 -0.1920 -0.5932
   11MPD2    C314022   2.205   2.467  14.271  0.0257 -0.4145  0.0256
   11MPD2    C414023   2.164   2.404  14.156 -0.1174 -0.1450  0.4933
   11MPD2    C514024   2.177   2.272  14.143  0.7056 -0.2856  0.2994
   11MPD2     H14025   2.286   2.430  14.464 -0.4208 -1.0559 -0.0613
   11MPD2    H114026   2.107   2.458  14.081 -1.8391  0.8103  2.5152
   11MPD2    H214027   2.246   2.088  14.220  1.3306 -0.3344  1.5667
   11MPD2    H314028   2.144   2.224  14.052 -1.0938  2.7362 -0.6254
   11MPD2     N14029   2.187   2.604  14.288 -0.8064  0.5318 -0.1025
   11MPD2    H514030   2.137   2.644  14.209 -2.9555 -2.0238 -0.0102
   11MPD2    N114031   2.318   2.167  14.465 -0.2917  0.6064  0.3967
   11MPD2    H714032   2.308   2.203  14.559  1.7497  0.2932  0.7448
    1MPD1     C14033   3.478   4.092  16.962 -0.4131  0.6333  0.0861
    1MPD1    C114034   3.577   4.031  17.041  0.7919 -0.3872 -0.5203
    1MPD1    C214035   3.700   4.010  16.982  0.0515  0.2044 -0.5989
    1MPD1    C314036   3.743   4.064  16.872 -0.0456 -0.0317 -0.0954
    1MPD1    C414037   3.654   4.134  16.798  0.3301  0.2023  0.7230
    1MPD1    C514038   3.523   4.145  16.838  0.0987 -0.3238  0.3063
    1MPD1     H14039   3.768   3.947  17.039 -0.1627  0.1782 -0.3743
    1MPD1    H114040   3.689   4.192  16.713 -0.1559  1.0747  1.1222
    1MPD1    H214041   3.375   4.108  16.992 -0.5807  2.7905 -1.5743
    1MPD1    H314042   3.457   4.206  16.776  0.0572 -2.3891 -1.6812
    1MPD1     N14043   3.877   4.059  16.829 -0.2945 -0.0181 -0.2068
    1MPD1    H514044   3.902   4.108  16.744  4.0194  0.5335  1.4135
    1MPD1    N114045   3.532   3.963  17.154 -0.6728  0.1729 -0.1560
    1MPD1    H614046   3.450   4.006  17.196  0.5551  2.5417 -0.1847
    1MPD1    H714047   3.596   3.938  17.229  1.3677 -0.3684 -2.0785
    2MPD1     C14048   4.561   3.970  17.519  0.0018  0.5607  0.4853
    2MPD1    C114049   4.430   3.919  17.507 -0.2218 -0.0141  0.1464
    2MPD1    C214050   4.365   3.957  17.392 -0.8091  0.4030  0.0253
    2MPD1    C314051   4.422   4.025  17.287  0.2058  0.0693 -0.4797
    2MPD1    C414052   4.559   4.053  17.297 -0.4490 -0.9367  0.4783
    2MPD1    C514053   4.624   4.025  17.414 -0.0668  0.5103 -0.2347
    2MPD1     H14054   4.259   3.935  17.389 -0.5433 -0.7470 -0.7050
    2MPD1    H114055   4.613   4.112  17.224  0.7344 -1.4297  0.9573
    2MPD1    H214056   4.615   3.956  17.611 -1.4055  1.2647  1.4074
    2MPD1    H314057   4.725   4.061  17.433 -0.3582  1.3718 -0.3394
    2MPD1     N14058   4.349   4.063  17.172 -0.5536  0.1929  0.2593
    2MPD1    H514059   4.254   4.028  17.163 -0.6931  0.4673  0.6714
    2MPD1    N114060   4.362   3.853  17.615 -0.2616  0.1580  0.0761
    2MPD1    H614061   4.415   3.774  17.650  1.0484  0.2039 -1.7782
    2MPD1    H714062   4.286   3.803  17.570 -1.4825  1.0732  1.1363
    3TMC3    C114063   4.298   4.138  16.962  0.0486  0.4708 -0.7204
    3TMC3    C214064   4.301   4.247  16.880  0.3062 -0.3115  0.4834
    3TMC3    C314065   4.211   4.260  16.780  0.5013  0.0835 -0.3985
    3TMC3    C414066   4.206   4.043  16.953 -0.3749  0.4413 -0.1181
    3TMC3    C514067   4.110   4.064  16.857  0.4273 -0.0353  0.1172
    3TMC3    C614068   4.103   4.178  16.780 -0.3515  0.7886  0.5927
    3TMC3     C14069   4.396   4.141  17.070 -0.1441  0.7590  0.8237
    3TMC3     O14070   4.492   4.216  17.073 -0.2258  0.5396 -0.3053
    3TMC3     H14071   4.376   4.324  16.894 -0.9790  0.9325  0.5202
    3TMC3    H114072   4.214   3.947  17.002 -2.5008  0.0109 -0.5902
    3TMC3    H214073   4.029   4.197  16.703 -1.5393 -1.7657  1.1206
    3TMC3    C714074   3.985   4.010  16.899 -0.3878 -0.2472 -0.0633
    3TMC3    C814075   4.225   4.361  16.673  0.3341  0.3785 -0.5387
    3TMC3    O114076   3.979   3.930  16.992  0.2550  0.1148 -0.4582
    3TMC3    O214077   4.126   4.393  16.610 -0.4152  0.0551 -0.5398
    4MPD1     C14078   4.483   4.644  16.337 -0.1082 -0.5239  0.6018
    4MPD1    C114079   4.576   4.598  16.428 -0.1476 -0.1692 -0.4749
    4MPD1    C214080   4.532   4.508  16.523  0.0706  0.3927 -0.2499
    4MPD1    C314081   4.394   4.489  16.548 -0.2392  0.3908 -0.3055
    4MPD1    C414082   4.307   4.550  16.464 -0.1341 -0.0824 -0.3470
    4MPD1    C514083   4.347   4.630  16.355  0.7083  1.5117 -0.0780
    4MPD1     H14084   4.606   4.457  16.585  0.1921 -0.2661 -0.9396
    4MPD1    H114085   4.200   4.546  16.481 -0.1477  2.6535  0.1063
    4MPD1    H214086   4.510   4.714  16.259 -0.0506  0.9271  1.9214
    4MPD1    H314087   4.272   4.647  16.280 -1.4724 -0.0624  1.7410
    4MPD1     N14088   4.352   4.396  16.650 -0.5136 -0.4120  0.0444
    4MPD1    H514089   4.425   4.359  16.710  1.3765  0.3982 -1.7130
    4MPD1    N114090   4.708   4.607  16.388  0.2229 -0.2489 -1.1884
    4MPD1    H614091   0.025   4.614  16.473  0.3967 -2.9603 -1.0787
    4MPD1    H714092   4.729   4.689  16.332  0.7522  0.5401  0.1697
    1TCq1    O114093   1.246   3.340  11.353  0.2237  0.2589  0.4538
    1TCq1    C114094   1.344   3.373  11.444  0.4422  0.4494  0.5023
    1TCq1    O214095   1.450   3.435  11.437  0.1654  0.0679 -0.0551
    1TCq1    C214096   1.286   3.317  11.562  0.2453  0.6351 -0.2029
    1TCq1    C314097   1.178   3.233  11.555 -0.0228  0.1075 -0.0257
    1TCq1    C414098   1.118   3.202  11.670  0.1302  0.2107  0.4671
    1TCq1    C514099   1.138   3.266  11.787 -0.1242 -0.3601  0.2051
    1TCq1    C614100   1.247   3.355  11.789 -1.1735  0.2295  0.5236
    1TCq1    C714101   1.325   3.375  11.680  0.1505  0.5902 -0.1793
    1TCq1    C814102   1.299   3.395  11.920  0.1502  1.1182  0.0528
    1TCq1    O414103   1.227   3.361  12.013 -0.0688  0.6887 -0.4961
    1TCq1    C914104   1.000   3.121  11.657  0.4730  0.3114  0.6792
    1TCq1    O514105   0.916   3.126  11.752 -0.7324  0.2083  0.4545
    1TCq1    O614106   0.963   3.093  11.539 -0.2458 -0.0540  1.0384
    1TCq1    H114107   1.155   3.324  11.388 -0.6001  0.8982 -1.3913
    1TCq1    H214108   1.154   3.165  11.474 -1.0906 -0.9408  1.1708
    1TCq1    H314109   1.079   3.239  11.874  0.5365  1.8412  1.3625
    1TCq1    H414110   1.408   3.445  11.672 -0.3197  1.3392  1.3726
    2MPD1     C14111   1.609   3.627  12.252  0.2783 -0.0752 -0.0526
    2MPD1    C114112   1.674   3.625  12.129 -0.7129  0.8525 -0.0382
    2MPD1    C214113   1.601   3.576  12.023  0.5112  0.2096  0.2790
    2MPD1    C314114   1.471   3.533  12.030  0.2682  1.4126  0.0497
    2MPD1    C414115   1.412   3.541  12.156 -0.0381 -0.0287  0.2513
    2MPD1    C514116   1.481   3.592  12.263 -0.5688  0.2492 -0.1874
    2MPD1     H14117   1.649   3.554  11.928  2.4537 -2.2859  1.8309
    2MPD1    H114118   1.314   3.496  12.173 -0.8796  1.1835 -1.3143
    2MPD1    H214119   1.657   3.658  12.344 -1.8525  0.5970  0.8448
    2MPD1    H314120   1.430   3.587  12.359 -2.8621 -0.1258 -1.4194
    2MPD1     N14121   1.412   3.475  11.919  0.2355  0.5150  0.1403
    2MPD1    H514122   1.453   3.494  11.828 -0.0674 -4.1282 -0.9739
    2MPD1    N114123   1.816   3.648  12.121  0.1140 -0.2061 -0.7511
    2MPD1    H614124   1.863   3.694  12.199  2.5733 -0.2159 -2.2343
    2MPD1    H714125   1.845   3.701  12.039  2.5872  1.6790  1.3281
    1TMC1    C114126   4.399   0.826   0.801  0.5568 -0.0711  0.1612
    1TMC1    C214127   4.462   0.727   0.873 -0.1110 -0.0454  0.2738
    1TMC1    C314128   4.488   0.611   0.804  0.1607 -0.5858 -0.4965
    1TMC1    C414129   4.373   0.818   0.664 -0.3415  1.3487  0.3050
    1TMC1    C514130   4.402   0.699   0.602 -0.2346  1.1739  0.2584
    1TMC1    C614131   4.447   0.593   0.674 -0.1580  0.1944 -0.0018
    1TMC1     C14132   4.399   0.960   0.863 -0.4385 -0.5654  0.3414
    1TMC1     O14133   4.459   0.961   0.967 -0.4862  0.3850 -0.3009
    1TMC1     H14134   4.504   0.742   0.972  0.0092 -1.8549  0.4992
    1TMC1    H114135   4.333   0.902   0.609  0.0265 -0.1568 -2.2575
    1TMC1    H214136   4.463   0.502   0.618  1.0637  1.3379 -1.5098
    1TMC1    C714137   4.347   0.671   0.470 -0.1375 -0.0363  0.0945
    1TMC1    C814138   4.568   0.509   0.859  0.2980  0.7885 -0.1218
    1TMC1    O114139   4.382   0.582   0.389 -0.2346 -0.1513  0.0457
    1TMC1    O214140   4.597   0.414   0.782  0.3445  0.7841 -0.2961
    1TMC1    O314141   4.230   0.742   0.463  0.2957  0.3068  0.0132
    1TMC1    H314142   4.194   0.758   0.553  1.1058  4.0652 -0.3501
    1TMC1    O514143   4.519   0.495   0.987 -0.1419  0.8660  0.0371
    1TMC1    H514144   4.571   0.540   1.058  3.5954  0.7473 -2.6259
    2MPD1     C14145   4.279   1.465   0.868  0.4085 -0.5534 -0.0907
    2MPD1    C114146   4.205   1.405   0.772  0.8028 -0.0176 -0.0481
    2MPD1    C214147   4.220   1.272   0.740 -0.5259 -0.2361  0.2931
    2MPD1    C314148   4.311   1.195   0.819 -0.1451 -0.6732  0.4047
    2MPD1    C414149   4.386   1.251   0.921 -0.1432 -0.6521  0.1989
    2MPD1    C514150   4.368   1.390   0.944  0.3254  0.4863  0.2319
    2MPD1     H14151   4.149   1.237   0.666 -0.9213  0.5000  0.3194
    2MPD1    H114152   4.463   1.199   0.977 -0.8779 -2.7678 -0.7707
    2MPD1    H214153   4.272   1.572   0.881 -1.5455 -0.3991 -2.4603
    2MPD1    H314154   4.427   1.443   1.018  1.3760 -1.4075  0.7475
    2MPD1     N14155   4.319   1.051   0.796  0.2333 -0.0248 -0.4441
    2MPD1    H514156   4.271   1.014   0.714  0.3767 -0.8260 -0.1680
    2MPD1    N114157   4.090   1.474   0.726  0.0068 -0.2942  0.8035
    2MPD1    H614158   4.111   1.573   0.714  3.0138 -0.9776  0.4718
    2MPD1    H714159   4.065   1.431   0.637  0.4369 -0.4431  0.7510
    1MPD1     C14160   1.661   4.240  11.660 -0.6346 -0.2358  0.1998
    1MPD1    C114161   1.718   4.197  11.780  0.6425  0.1122 -0.2605
    1MPD1    C214162   1.855   4.232  11.806  0.0778 -0.5930  0.1261
    1MPD1    C314163   1.915   4.323  11.728 -0.2073  0.0261  0.2353
    1MPD1    C414164   1.855   4.378  11.619 -0.2118  0.4621 -0.0454
    1MPD1    C514165   1.728   4.324  11.583  0.4512 -0.0725 -0.3796
    1MPD1     H14166   1.903   4.188  11.893 -1.2537 -3.4903 -0.5895
    1MPD1    H114167   1.901   4.442  11.545  0.1753  0.7009  0.4002
    1MPD1    H214168   1.569   4.198  11.622 -0.8904  0.4146  0.1042
    1MPD1    H314169   1.686   4.352  11.487  1.8223  0.1337 -0.9267
    1MPD1     N14170   2.047   4.364  11.762  0.4942  0.1045  0.3060
    1MPD1    H514171   2.084   4.317  11.844 -0.6283 -0.8869  0.2291
    1MPD1    N114172   1.653   4.106  11.860  0.1790 -0.1163  0.8345
    1MPD1    H614173   1.692   4.114  11.954  0.4513 -0.0233  0.7147
    1MPD1    H714174   1.556   4.131  11.875 -0.3139 -1.2983 -0.4333
    2MPD1     C14175   2.428   4.058  11.355 -0.2789  0.0393 -0.3384
    2MPD1    C114176   2.313   3.984  11.347 -0.2600  0.3566  0.1711
    2MPD1    C214177   2.222   4.024  11.251 -0.1585  0.8275  0.0115
    2MPD1    C314178   2.268   4.115  11.153 -0.3689  0.2564 -0.1528
    2MPD1    C414179   2.384   4.182  11.163 -0.1755  0.5975  0.3248
    2MPD1    C514180   2.462   4.158  11.267 -0.4930  0.3458 -0.2729
    2MPD1     H14181   2.126   3.975  11.243  0.2756 -0.0852  0.4583
    2MPD1    H114182   2.414   4.261  11.095 -0.9995 -0.5795 -1.4006
    2MPD1    H214183   2.498   4.038  11.435 -1.2210  0.4178  0.5808
    2MPD1    H314184   2.558   4.208  11.275 -0.2044 -0.0836 -0.9982
    2MPD1     N14185   2.194   4.137  11.036  0.2200 -0.0866  0.1828
    2MPD1    H514186   2.240   4.203  10.973 -0.8795  0.4814 -0.0162
    2MPD1    N114187   2.270   3.895  11.449  0.8636  0.8563  0.1842
    2MPD1    H614188   2.347   3.858  11.504  0.2489 -0.1892  0.3418
    2MPD1    H714189   2.220   3.813  11.415 -0.6324  2.5303 -1.6377
    3MPD1     C14190   1.824   3.764  10.104 -0.2790 -0.0479 -0.1615
    3MPD1    C114191   1.816   3.902  10.105  0.0880 -0.1815 -0.1444
    3MPD1    C214192   1.858   3.967  10.225  0.3580  0.1955 -0.3372
    3MPD1    C314193   1.905   3.898  10.335  0.5725 -0.1248  0.2911
    3MPD1    C414194   1.920   3.762  10.325  0.3820 -0.3337 -0.4927
    3MPD1    C514195   1.879   3.703  10.210 -0.2787 -0.7238  0.4521
    3MPD1     H14196   1.853   4.076  10.218 -1.2567  0.1679  0.2653
    3MPD1    H114197   1.970   3.701  10.400 -0.8182 -1.2618 -0.4439
    3MPD1    H214198   1.791   3.703  10.020  0.2073  0.3218 -0.6180
    3MPD1    H314199   1.892   3.595  10.201  2.9469 -0.3372  0.2026
    3MPD1     N14200   1.959   3.974  10.447  0.3547  0.3926 -0.6297
    3MPD1    H514201   1.943   4.073  10.437  0.2854  0.4839  0.3782
    3MPD1    N114202   1.771   3.975   9.992  0.1863  0.1378 -0.0741
    3MPD1    H614203   1.684   3.938   9.954 -1.5158  0.2126  3.7575
    3MPD1    H714204   1.751   4.073  10.013  0.2372  0.1177  0.0672
    4MPD2     C14205   2.609   0.207  11.548 -0.3282 -0.5794 -0.3372
    4MPD2    C114206   2.638   0.077  11.584 -0.2016 -0.2378  0.2341
    4MPD2    C214207   2.726   4.739  11.514  0.2496 -0.2866 -0.0286
    4MPD2    C314208   2.777   0.050  11.396 -0.1002  0.0961 -0.8249
    4MPD2    C414209   2.747   0.176  11.355 -0.5096  0.6899 -0.0127
    4MPD2    C514210   2.667   0.255  11.435 -0.3516  0.1272 -0.5058
    4MPD2     H14211   2.744   4.635  11.541  0.3665  0.5753  3.1970
    4MPD2    H114212   2.787   0.222  11.266 -1.4661  1.3072 -0.1153
    4MPD2    H214213   2.531   0.263  11.600 -0.4319 -1.4290  0.4145
    4MPD2    H314214   2.657   0.358  11.401 -2.2504 -0.3606 -1.4572
    4MPD2     N14215   2.861   4.702  11.323 -0.0011  0.8522  0.0492
    4MPD2    H514216   2.885   4.615  11.369 -1.2305  0.4060 -0.1730
    4MPD2    N114217   2.578   0.014  11.697  0.3090  0.2701  0.4929
    4MPD2    H714218   2.615   4.661  11.710  0.1040  0.1379  0.1110
    5TMC3    C114219   2.406   4.669  11.818  0.3280 -0.1137 -0.3120
    5TMC3    C214220   2.275   4.640  11.795  0.2702 -0.1312 -0.0653
    5TMC3    C314221   2.239   4.508  11.793 -0.0385 -0.9374 -0.5197
    5TMC3    C414222   2.496   4.576  11.847 -0.0197 -0.8767  0.2976
    5TMC3    C514223   2.462   4.441  11.845 -0.1802  0.4470 -0.3222
    5TMC3    C614224   2.335   4.405  11.814  0.3998 -0.1450 -0.3460
    5TMC3     C14225   2.457   0.045  11.753 -0.2524 -0.0682  0.8913
    5TMC3     O14226   2.379   0.142  11.733  0.2847  0.1086 -0.5952
    5TMC3     H14227   2.205   4.719  11.772  0.9295  0.4577 -0.0640
    5TMC3    H114228   2.598   4.603  11.872 -0.4164  0.8928 -0.0315
    5TMC3    H214229   2.300   4.307  11.784  0.4504  0.6325 -2.9435
    5TMC3    C714230   2.574   4.387  11.773  0.4204 -0.7049  0.3747
    5TMC3    C814231   2.110   4.487  11.727 -0.2851  0.7151 -0.6830
    5TMC3    O114232   2.649   4.459  11.709  0.7714  0.1979 -0.0052
    5TMC3    O214233   2.066   4.580  11.659  0.5538 -0.2092 -0.9305
    6TMC3    C114234   2.038   4.118  10.859 -0.0248  0.0107  0.1694
    6TMC3    C214235   2.025   4.015  10.776 -0.0754 -0.1714 -0.2933
    6TMC3    C314236   2.064   4.029  10.646  0.2607 -0.0838  0.0316
    6TMC3    C414237   2.082   4.238  10.811 -0.3213 -0.3587 -0.4846
    6TMC3    C514238   2.133   4.245  10.688 -0.3174 -0.6098  0.7238
    6TMC3    C614239   2.111   4.146  10.591  0.8151 -0.7884  0.0863
    6TMC3     C14240   2.075   4.088  10.992 -0.1572  0.0248  0.5207
    6TMC3     O14241   1.989   4.026  11.052 -0.3397 -0.6203 -0.1252
    6TMC3     H14242   2.004   3.920  10.823 -1.4218 -0.0037 -0.5495
    6TMC3    H114243   2.100   4.318  10.882 -2.3691 -0.3695  0.0385
    6TMC3    H214244   2.153   4.150  10.491  0.2587  1.0892 -0.0773
    6TMC3    C714245   2.273   4.276  10.701  0.7635 -0.1086 -0.5339
    6TMC3    C814246   2.011   3.923  10.563  0.4310 -0.0330 -0.0637
    6TMC3    O114247   2.315   4.254  10.813 -0.0337 -0.4351 -0.1605
    6TMC3    O214248   1.987   3.817  10.620 -0.2076  0.5331 -0.4071
    7MPD2     C14249   2.786   4.015  11.493 -0.8181  0.0420 -1.2811
    7MPD2    C114250   2.788   4.153  11.470  0.4594 -0.1224  0.9552
    7MPD2    C214251   2.709   4.227  11.564 -0.5202  0.0882  0.3342
    7MPD2    C314252   2.651   4.171  11.678 -0.0403 -1.1331  0.1463
    7MPD2    C414253   2.649   4.034  11.693 -0.3565 -0.2366 -0.9464
    7MPD2    C514254   2.713   3.962  11.594  0.3732  0.4104 -0.5224
    7MPD2     H14255   2.690   4.332  11.542 -2.4644 -0.6622 -1.6203
    7MPD2    H114256   2.604   3.986  11.779 -1.4647 -1.8661 -2.4300
    7MPD2    H214257   2.840   3.945  11.430  0.5709 -1.0560  1.1157
    7MPD2    H314258   2.730   3.856  11.611  0.7984  0.5282 -0.1865
    7MPD2     N14259   2.581   4.251  11.769 -0.1603 -0.1722  0.3601
    7MPD2    H514260   2.525   4.209  11.843 -0.6780  1.4394  0.8813
    7MPD2    N114261   2.853   4.208  11.360 -0.1510 -0.3940  0.4531
    7MPD2    H714262   2.908   4.156  11.293  2.3284  1.7469  0.8294
    8TMC3    C114263   2.923   4.384  11.228  0.0928  0.4418  0.1747
    8TMC3    C214264   2.841   4.354  11.131 -0.2558  0.3705 -0.6348
    8TMC3    C314265   2.831   4.440  11.020  0.2442  0.5857 -0.1404
    8TMC3    C414266   2.983   4.506  11.232 -0.1142 -0.2409  0.0976
    8TMC3    C514267   2.952   4.595  11.135 -0.6197 -0.5836 -0.2832
    8TMC3    C614268   2.893   4.562  11.016  0.7280  0.1274  0.4880
    8TMC3     C14269   2.887   4.341  11.358  0.3160  0.4940  0.1063
    8TMC3     O14270   2.895   4.422  11.449  0.2642  0.0078  0.3206
    8TMC3     H14271   2.782   4.263  11.138  0.2479  0.1151  0.3182
    8TMC3    H114272   3.036   4.537  11.321 -1.1314  0.5934  0.4109
    8TMC3    H214273   2.868   4.643  10.948 -0.4729 -2.1415 -1.8042
    8TMC3    C714274   2.898   4.716  11.189 -0.6196 -0.0876 -0.2579
    8TMC3    C814275   2.711   4.428  10.937  0.2045  0.5387 -0.6172
    8TMC3    O114276   2.853   0.053  11.109 -0.2509  0.1218 -0.6531
    8TMC3    O214277   2.624   4.350  10.967  0.6761  0.5893  0.8030
    9MPD2     C14278   2.655   4.611  10.618  0.2790 -0.5476  0.6971
    9MPD2    C114279   2.639   4.505  10.706 -0.2645  0.5693  0.4412
    9MPD2    C214280   2.531   4.426  10.699 -0.0233  0.1050 -0.1552
    9MPD2    C314281   2.429   4.446  10.609 -0.4331 -0.5109 -0.6499
    9MPD2    C414282   2.456   4.541  10.510 -0.3740 -0.2985  0.1196
    9MPD2    C514283   2.557   4.630  10.524  0.1141 -0.3485  0.1622
    9MPD2     H14284   2.527   4.332  10.752 -0.2577  0.5151  0.5585
    9MPD2    H114285   2.384   4.570  10.434  0.2464  2.1170  0.4288
    9MPD2    H214286   2.740   4.677  10.634  0.2293  0.0018 -1.2701
    9MPD2    H314287   2.578   4.709  10.453  0.4455 -1.2905 -0.7996
    9MPD2     N14288   2.310   4.367  10.604 -0.1390  0.3965 -0.2695
    9MPD2    H514289   2.246   4.377  10.526  2.6339  2.2988 -2.2903
    9MPD2    N114290   2.728   4.502  10.819 -0.3172 -0.0270  0.8206
    9MPD2    H714291   2.808   4.563  10.804 -0.6707  0.4725  0.9747
    1MPD1     C14292   2.032   2.811  16.754  0.2574 -0.2677  1.1478
    1MPD1    C114293   1.897   2.820  16.714 -0.1367 -0.0267 -0.1822
    1MPD1    C214294   1.819   2.715  16.751 -0.1727 -0.2853  1.0881
    1MPD1    C314295   1.858   2.606  16.810  0.1284  0.0030 -0.3356
    1MPD1    C414296   1.986   2.601  16.858 -0.2372  0.1610 -0.1287
    1MPD1    C514297   2.071   2.700  16.823 -0.5001  0.4430 -0.0503
    1MPD1     H14298   1.716   2.724  16.718  0.6900 -2.0786 -2.1686
    1MPD1    H114299   2.028   2.521  16.919 -0.9708 -0.5228 -0.5100
    1MPD1    H214300   2.110   2.885  16.737 -0.1451  0.0273  0.5770
    1MPD1    H314301   2.170   2.704  16.868 -0.8045 -0.4549  0.6978
    1MPD1     N14302   1.771   2.502  16.849  0.5080 -0.4229 -0.2153
    1MPD1    H514303   1.819   2.421  16.887  2.5613  1.0533  0.2712
    1MPD1    N114304   1.847   2.930  16.643  0.1149 -0.1893  0.3984
    1MPD1    H614305   1.897   3.015  16.669 -0.8350  0.4486  0.1302
    1MPD1    H714306   1.750   2.948  16.669  0.7593  0.6090  2.2599
    2TMC2    C114307   1.391   2.334  17.062  0.0124  0.0125 -0.2224
    2TMC2    C214308   1.469   2.266  17.156  0.4606 -0.2590  0.0473
    2TMC2    C314309   1.604   2.287  17.144  0.4064 -0.4099  0.3064
    2TMC2    C414310   1.449   2.384  16.948  0.4496  0.1749 -0.2040
    2TMC2    C514311   1.580   2.415  16.951 -0.3473  0.3033 -0.3878
    2TMC2    C614312   1.666   2.368  17.051 -0.4077  0.3355 -0.4966
    2TMC2     C14313   1.252   2.294  17.045  0.4126 -0.1026  0.3677
    2TMC2     O14314   1.203   2.300  16.938  0.1692 -0.3086  0.3665
    2TMC2     H14315   1.424   2.225  17.245  0.4733  1.1390  0.6940
    2TMC2    H114316   1.378   2.420  16.875  0.8931 -2.4107 -1.8879
    2TMC2    H214317   1.771   2.391  17.059 -0.8060  1.8483  0.3841
    2TMC2    C714318   1.636   2.502  16.850  0.1736  0.0386 -0.8335
    2TMC2    C814319   1.688   2.202  17.227 -0.2778  0.6839  0.1420
    2TMC2    O114320   1.549   2.557  16.786  0.1660  0.0273  0.1807
    2TMC2    O214321   1.651   2.139  17.323  0.5644  0.0459 -0.7988
    2TMC2    O514322   1.776   2.155  17.139  0.2039  0.3462  0.4498
    2TMC2    H514323   1.784   2.216  17.063  0.8315 -0.5584 -0.2133
    3MPD1     C14324   0.796   2.185  17.278  0.3653  0.2502  0.3163
    3MPD1    C114325   0.903   2.161  17.361  0.0616  0.5981  0.3488
    3MPD1    C214326   1.029   2.188  17.326  0.2837  0.2817  0.0948
    3MPD1    C314327   1.057   2.234  17.196  0.2372  0.1955 -0.0249
    3MPD1    C414328   0.950   2.243  17.106  0.1485 -0.4748 -0.6341
    3MPD1    C514329   0.823   2.217  17.150 -0.1972 -0.4345 -0.5943
    3MPD1     H14330   1.107   2.186  17.401  0.0847 -0.6241  0.2748
    3MPD1    H114331   0.968   2.272  17.003  0.6075  0.2409 -0.3548
    3MPD1    H214332   0.695   2.156  17.305  0.4423  0.9184  1.3234
    3MPD1    H314333   0.742   2.212  17.079 -0.8668 -2.0005  0.2858
    3MPD1     N14334   1.190   2.265  17.169  0.7937 -0.3217 -0.0607
    3MPD1    H514335   1.251   2.265  17.250 -0.0143  2.2699  0.5475
    3MPD1    N114336   0.881   2.142  17.500  0.0451 -0.2396  0.7209
    3MPD1    H614337   0.789   2.104  17.521 -0.9372  1.4794 -0.5225
    3MPD1    H714338   0.953   2.076  17.531 -0.5893 -1.2894 -0.0447
    1TMC1    C114339   0.624   1.804  13.074 -0.2455 -0.2429 -0.8081
    1TMC1    C214340   0.653   1.789  12.943 -0.1537 -0.1079  0.6324
    1TMC1    C314341   0.565   1.832  12.845  0.2494  0.1994  0.5013
    1TMC1    C414342   0.514   1.873  13.115  0.0150 -0.0535  1.0300
    1TMC1    C514343   0.428   1.924  13.023  0.1662  0.5366 -0.6629
    1TMC1    C614344   0.455   1.901  12.889  0.5094 -0.0395  0.5814
    1TMC1     C14345   0.720   1.746  13.173 -0.1802  0.5002  0.0848
    1TMC1     O14346   0.819   1.696  13.120 -0.1836 -0.0404  0.0814
    1TMC1     H14347   0.750   1.755  12.909  0.2537 -0.6853  2.3473
    1TMC1    H114348   0.505   1.910  13.217  0.8508  1.3916  0.5750
    1TMC1    H214349   0.379   1.924  12.814  0.3872  1.3214  1.1161
    1TMC1    C714350   0.306   1.999  13.043  0.7457  1.0577 -0.1542
    1TMC1    C814351   0.615   1.861  12.717 -0.3233 -1.1739  0.2048
    1TMC1    O114352   0.258   2.065  12.953 -0.2727  0.8607 -0.4882
    1TMC1    O214353   0.732   1.877  12.684  0.5068 -0.0391 -0.1982
    1TMC1    O314354   0.251   1.987  13.169  0.4045 -0.1320  0.8459
    1TMC1    H314355   0.297   1.934  13.237  2.0924  1.4000  0.9011
    1TMC1    O514356   0.515   1.826  12.630 -0.1763 -0.0427  0.1454
    1TMC1    H514357   0.439   1.785  12.677 -0.6732  0.9448  0.2029
    2MPD2     C14358   0.807   1.568  13.387 -0.1425  0.1004 -0.1853
    2MPD2    C114359   0.741   1.694  13.406  0.2389  0.6312 -0.8553
    2MPD2    C214360   0.728   1.747  13.535  0.4244 -0.5955 -0.0803
    2MPD2    C314361   0.754   1.666  13.650  0.3981 -0.0561 -0.5736
    2MPD2    C414362   0.824   1.549  13.632  0.2613  0.3956  0.1622
    2MPD2    C514363   0.851   1.510  13.499 -0.7107  0.3673  0.0078
    2MPD2     H14364   0.671   1.839  13.538 -1.7939 -2.0017  1.9781
    2MPD2    H114365   0.858   1.480  13.709 -1.1115 -1.0429 -0.5233
    2MPD2    H214366   0.821   1.521  13.291 -1.3842  0.6623 -0.6431
    2MPD2    H314367   0.901   1.415  13.479 -0.7674  0.2381  0.4841
    2MPD2     N14368   0.718   1.717  13.774 -0.1877  0.1079 -0.4274
    2MPD2    H514369   0.688   1.814  13.775 -0.3392  0.0524  1.5477
    2MPD2    N114370   0.689   1.764  13.301 -0.4615 -0.2161 -0.6402
    2MPD2    H714371   0.636   1.849  13.319  0.5474  0.1565  0.5815
    3TCq1    O114372   0.587   1.648  14.372  0.3316 -0.0557 -0.3057
    3TCq1    C114373   0.496   1.723  14.305 -0.3149 -0.1995 -0.2866
    3TCq1    O214374   0.395   1.766  14.362 -0.1630  0.2202 -0.2719
    3TCq1    C214375   0.572   1.771  14.196  0.4193  1.2528  0.0240
    3TCq1    C314376   0.563   1.902  14.174  0.0494 -0.6323 -0.7352
    3TCq1    C414377   0.622   1.952  14.064  0.9076  0.1585 -0.0995
    3TCq1    C514378   0.683   1.865  13.977  0.1220  0.0225 -0.2587
    3TCq1    C614379   0.685   1.729  14.000  0.1193 -0.1144 -0.2313
    3TCq1    C714380   0.629   1.681  14.111  0.2278 -0.5475 -0.4407
    3TCq1    C814381   0.719   1.643  13.891  0.5619  0.1624  0.7480
    3TCq1    O414382   0.748   1.525  13.913 -0.1232  0.3474 -0.1806
    3TCq1    C914383   0.616   2.088  14.033 -0.5999  0.2936 -0.2548
    3TCq1    O514384   0.536   2.160  14.105  0.2736  0.0625  0.2270
    3TCq1    O614385   0.660   2.117  13.916 -0.6721 -0.2780 -0.9233
    3TCq1    H114386   0.659   1.643  14.306  0.2401 -0.8443 -0.3370
    3TCq1    H214387   0.503   1.968  14.235 -1.0036  0.1233 -2.5782
    3TCq1    H314388   0.732   1.921  13.899 -1.8305  1.0571 -0.7619
    3TCq1    H414389   0.620   1.575  14.129 -1.9455 -0.3652 -0.4421
    1MPD2     C14390   3.960   2.435  15.201  1.3198 -0.1841 -0.1017
    1MPD2    C114391   4.048   2.366  15.120  0.7469 -0.7261  0.0616
    1MPD2    C214392   4.179   2.336  15.162  0.4038  0.6798 -0.2603
    1MPD2    C314393   4.228   2.382  15.281 -0.5041  0.1491 -0.0503
    1MPD2    C414394   4.132   2.447  15.360 -0.0036  1.0539 -0.0548
    1MPD2    C514395   4.002   2.448  15.330 -0.0250 -0.1045  0.2754
    1MPD2     H14396   4.250   2.289  15.094  1.1027  1.4883 -0.0935
    1MPD2    H114397   4.161   2.484  15.458 -1.4040  0.4982  0.5638
    1MPD2    H214398   3.856   2.444  15.174  1.2129 -0.0282  0.3545
    1MPD2    H314399   3.938   2.498  15.403 -0.4381 -1.1238  0.6150
    1MPD2     N14400   4.361   2.372  15.328 -0.7010 -0.7407  0.3698
    1MPD2    H514401   4.367   2.385  15.429 -1.8168 -0.6073  0.4191
    1MPD2    N114402   4.013   2.334  14.985 -0.0838  0.3496 -0.2236
    1MPD2    H714403   3.922   2.368  14.955 -1.1561 -2.1919  0.1201
    2TMC3    C114404   4.058   2.294  14.758  0.0078  0.0341  0.0642
    2TMC3    C214405   4.120   2.195  14.689 -0.1794 -0.4783  0.3564
    2TMC3    C314406   4.185   2.229  14.579 -0.0396 -0.3905  0.4174
    2TMC3    C414407   4.060   2.427  14.727  0.0147 -0.7192 -0.2604
    2TMC3    C514408   4.141   2.458  14.625  0.3088 -0.5679  0.0098
    2TMC3    C614409   4.201   2.364  14.548  0.1541  1.0279 -0.5088
    2TMC3     C14410   4.093   2.258  14.901  0.6307 -0.3617 -0.0323
    2TMC3     O14411   4.171   2.169  14.923 -0.4970 -0.2657 -0.8086
    2TMC3     H14412   4.099   2.090  14.708 -0.9389 -0.2437  0.8471
    2TMC3    H114413   4.020   2.502  14.794 -2.1059 -2.9106  0.8801
    2TMC3    H214414   4.271   2.392  14.470 -0.2237  0.8534 -0.9138
    2TMC3    C714415   4.180   2.596  14.596 -0.3422 -0.2839  0.0032
    2TMC3    C814416   4.316   2.162  14.581 -0.4726  0.1093 -0.1928
    2TMC3    O114417   4.243   2.608  14.491  0.8620  0.1825 -0.7772
    2TMC3    O214418   4.383   2.150  14.482  0.1431  0.3590  0.6364
    3TCq1    O114419   4.081   3.453  15.439  0.3056  0.1641 -0.1041
    3TCq1    C114420   4.069   3.532  15.331  0.0204  0.0650 -0.1054
    3TCq1    O214421   4.040   3.651  15.340  0.1551  0.6327 -0.0086
    3TCq1    C214422   4.000   3.437  15.245  0.2864 -0.2460 -0.0408
    3TCq1    C314423   3.881   3.391  15.289  0.2313  0.8637 -0.8565
    3TCq1    C414424   3.836   3.274  15.230 -0.2178 -0.5994  0.6883
    3TCq1    C514425   3.903   3.209  15.131 -0.5884 -0.4218 -0.2993
    3TCq1    C614426   4.020   3.264  15.082  0.9721 -0.0254  0.2226
    3TCq1    C714427   4.070   3.372  15.150 -0.1617 -0.0187  0.2888
    3TCq1    C814428   4.080   3.223  14.965 -0.2142  0.2846  0.5507
    3TCq1    O414429   4.124   3.313  14.894 -0.2356  0.3457 -0.2000
    3TCq1    C914430   3.718   3.208  15.277  0.6479 -0.0415 -0.1221
    3TCq1    O514431   3.717   3.082  15.270 -0.0499 -0.6501  0.0261
    3TCq1    O614432   3.634   3.281  15.328  0.0771  0.4710  0.7595
    3TCq1    H114433   4.083   3.356  15.427 -2.3342  0.5293 -3.2613
    3TCq1    H214434   3.822   3.445  15.362  0.2021  0.3837 -0.5209
    3TCq1    H314435   3.872   3.112  15.093 -0.9716 -0.1451 -0.6811
    3TCq1    H414436   4.165   3.415  15.119  0.2148 -0.1288  1.2996
    4MPD2     C14437   4.228   3.086  14.745  0.4469  1.4270  0.4740
    4MPD2    C114438   4.127   3.027  14.826  0.1184  0.0501  0.1298
    4MPD2    C214439   4.094   2.896  14.798 -0.0352 -0.2019  0.9566
    4MPD2    C314440   4.161   2.818  14.701 -0.2470  0.0750 -0.7784
    4MPD2    C414441   4.269   2.875  14.633 -0.0514 -0.2104  0.7912
    4MPD2    C514442   4.295   3.016  14.646  0.1469 -0.2660  0.3748
    4MPD2     H14443   4.017   2.860  14.866 -0.1864 -0.8945  0.4216
    4MPD2    H114444   4.331   2.824  14.561  2.4791  1.5776  1.6869
    4MPD2    H214445   4.259   3.188  14.764  1.6717  1.3379 -1.0564
    4MPD2    H314446   4.377   3.051  14.585  0.9436 -2.1329  0.3600
    4MPD2     N14447   4.120   2.689  14.679 -0.1457  0.1634 -0.0831
    4MPD2    H514448   4.042   2.658  14.735 -0.5766  0.8283 -0.3146
    4MPD2    N114449   4.066   3.090  14.943  0.3147  0.6142 -0.3152
    4MPD2    H714450   4.012   3.033  15.007 -0.9334  0.9372 -1.0680
    5TMC2    C114451   0.053   2.239  15.227  0.0246 -0.0768 -0.1805
    5TMC2    C214452   0.057   2.174  15.344  1.0766 -0.1777 -0.7202
    5TMC2    C314453   4.702   2.204  15.444 -0.0878 -0.0887 -0.1445
    5TMC2    C414454   4.692   2.325  15.201  0.1644  0.5954  0.4011
    5TMC2    C514455   4.592   2.345  15.296 -0.1514 -0.1781  0.2830
    5TMC2    C614456   4.597   2.296  15.424  0.0982 -0.2209  0.4895
    5TMC2     C14457   0.083   2.173  15.106  0.3079  0.8678  0.0713
    5TMC2     O14458   0.199   2.146  15.080  0.2041  0.0029 -0.4122
    5TMC2     H14459   0.125   2.091  15.355 -0.3901 -1.2578  0.2992
    5TMC2    H114460   4.696   2.388  15.113  0.2918 -0.5811 -0.4501
    5TMC2    H214461   4.524   2.334  15.495 -0.2730  1.4810 -0.8050
    5TMC2    C714462   4.463   2.370  15.239  0.7734  0.5354  0.1114
    5TMC2    C814463   0.013   2.195  15.570 -0.1230  0.4158  0.2467
    5TMC2    O114464   4.467   2.368  15.118 -0.0863  0.4355 -0.1388
    5TMC2    O214465   0.128   2.173  15.606 -0.4722 -0.4587  0.3924
    5TMC2    O514466   4.641   2.159  15.642 -0.1573  0.2234  0.3507
    5TMC2    H514467   4.560   2.156  15.586  1.6308 -1.0056 -2.1983
    6MPD2     C14468   4.594   2.062  14.653  0.1850  0.1300  1.0848
    6MPD2    C114469   4.504   2.121  14.731 -0.1369  0.4688  0.6885
    6MPD2    C214470   4.550   2.154  14.853 -0.3874  0.1412  0.5235
    6MPD2    C314471   4.681   2.130  14.895 -0.7445  0.3576 -0.0695
    6MPD2    C414472   0.032   2.071  14.817 -0.2012 -0.5009  0.1078
    6MPD2    C514473   4.722   2.048  14.692  0.1688 -0.6960 -0.1745
    6MPD2     H14474   4.489   2.204  14.928 -2.0960  0.9691 -1.4335
    6MPD2    H114475   0.133   2.050  14.849 -0.3596  0.2790  1.1089
    6MPD2    H214476   4.567   2.021  14.556 -0.5722  0.5038  1.1379
    6MPD2    H314477   0.050   1.992  14.630  1.0463  0.4250 -0.2143
    6MPD2     N14478   4.712   2.170  15.034 -0.3676  0.0518 -0.0898
    6MPD2    H514479   4.633   2.208  15.084 -0.0378  0.2989  0.2424
    6MPD2    N114480   4.368   2.166  14.706  0.3438  0.1803 -0.2199
    6MPD2    H714481   4.311   2.193  14.786  0.0409 -2.8262  0.5925
  945NH3     N114482   4.325   0.208   2.015  0.5067  0.3044 -0.7627
  945NH3     H214483   4.307   0.208   2.115  2.8717  1.7634 -0.3321
  945NH3     H314484   4.258   0.277   1.981  0.0371  0.9803  1.5235
  945NH3     H414485   4.299   0.120   1.972  2.0468  0.4724 -2.0168
  946SOD     NA14486   2.227   4.587  16.519 -0.3353 -0.0884 -0.0412
  947SOD     NA14487   0.612   3.950  12.561  0.0455  0.0344 -0.4945
  948SOD     NA14488   2.546   0.891   9.007 -0.0306  0.6825  0.1384
  949SOD     NA14489   2.468   2.489   8.006 -0.3310 -0.2067 -0.2680
  950SOD     NA14490   0.884   0.431   8.262  0.1834  0.3421 -0.2359
  951SOD     NA14491   4.387   4.285  13.514  0.1090  0.2247 -0.1486
  952SOD     NA14492   0.754   3.028  11.641 -0.0760 -0.0547 -0.4380
  953SOD     NA14493   3.036   0.775   7.869  0.1036 -0.3947 -0.0100
  954SOL     OW14494   3.680   2.510  14.648 -0.0716 -0.5481 -0.3404
  954SOL    HW114495   3.705   2.429  14.692  1.7993  0.4247  0.3793
  954SOL    HW214496   3.647   2.574  14.711 -2.9221 -1.8900 -0.5062
  955SOL     OW14497   4.523   0.794   2.001  0.0215  0.4260  0.2969
  955SOL    HW114498   4.600   0.739   1.984 -0.6089 -1.1189  2.4883
  955SOL    HW214499   4.517   0.794   2.096  0.6670  0.9344  0.3387
  956SOL     OW14500   0.289   4.227   3.163  0.3305  0.4280 -0.1910
  956SOL    HW114501   0.256   4.317   3.160  0.6944  0.6996  3.6541
  956SOL    HW214502   0.205   4.182   3.167 -0.3670  1.6595 -1.0153
  957SOL     OW14503   3.390   4.740   8.325  1.0582 -0.2860 -0.0234
  957SOL    HW114504   3.351   4.655   8.307 -1.3313  0.9543 -0.7492
  957SOL    HW214505   3.318   0.055   8.355 -0.9326 -1.3393 -2.7725
  958SOL     OW14506   2.682   3.286   7.546 -0.8750 -0.3864 -0.0835
  958SOL    HW114507   2.651   3.265   7.458  1.5760 -4.4686  0.0290
  958SOL    HW214508   2.655   3.377   7.558  0.1728  0.1501 -1.7614
  959SOL     OW14509   2.324   4.561  16.144 -0.8809  0.2927  0.3844
  959SOL    HW114510   2.408   4.601  16.123 -0.6109  0.0467  0.9763
  959SOL    HW214511   2.338   4.526  16.233  1.6722 -0.4918 -0.3264
  960SOL     OW14512   2.761   0.482   8.866 -0.1227  0.6526 -0.5441
  960SOL    HW114513   2.817   0.412   8.899 -0.3798  0.2432 -0.9775
  960SOL    HW214514   2.734   0.516   8.951 -2.9146 -1.1390 -0.7220
  961SOL     OW14515   4.583   2.220   7.027 -0.6896 -0.1492  0.4480
  961SOL    HW114516   4.524   2.145   7.024  0.1026 -0.6898 -2.1076
  961SOL    HW214517   4.665   2.172   7.011  0.2295  2.0200 -1.4687
  962SOL     OW14518   1.880   3.024   5.054 -0.3202 -0.0308 -0.5957
  962SOL    HW114519   1.919   3.074   4.982  1.2111 -0.0771  0.2143
  962SOL    HW214520   1.787   3.042   5.040 -0.5578 -1.4863 -0.9735
  963SOL     OW14521   2.148   2.226   3.921  0.1198  0.2017 -0.2441
  963SOL    HW114522   2.231   2.200   3.882  0.6452  0.2751  0.8423
  963SOL    HW214523   2.138   2.317   3.891  0.8143 -0.3770 -2.1800
  964SOL     OW14524   3.544   0.909   6.457  0.1002 -0.3326  0.4480
  964SOL    HW114525   3.466   0.915   6.402  0.8148  1.3995 -0.3668
  964SOL    HW214526   3.518   0.843   6.522 -0.0182 -0.2463  0.4880
  965SOL     OW14527   1.231   3.206   7.341  0.6928 -0.4248 -0.6633
  965SOL    HW114528   1.216   3.162   7.425 -1.6235 -2.4071 -2.1232
  965SOL    HW214529   1.159   3.269   7.336  0.8476 -0.2742 -0.9510
  966SOL     OW14530   3.632   3.348   7.117 -0.3892  0.1285  0.3886
  966SOL    HW114531   3.656   3.438   7.093  0.6608 -0.3148 -0.2502
  966SOL    HW214532   3.540   3.339   7.092 -0.7293 -1.5823  2.3308
  967SOL     OW14533   0.413   2.746  17.499  0.3443  0.5746 -0.1253
  967SOL    HW114534   0.332   2.786  17.528 -0.4488 -0.8124 -0.4310
  967SOL    HW214535   0.406   2.656  17.532  1.7167  0.3130 -0.5302
  968SOL     OW14536   3.952   1.315  14.029 -0.1301  0.4189  0.1214
  968SOL    HW114537   4.033   1.364  14.011 -1.2194  1.2251 -2.5499
  968SOL    HW214538   3.975   1.226  14.003  1.3540  0.1973  2.2345
  969SOL     OW14539   3.946   2.800   7.094  0.1166 -0.2824  0.3454
  969SOL    HW114540   3.914   2.886   7.065  1.5134 -0.3015 -1.2972
  969SOL    HW214541   3.962   2.829   7.183  1.8729 -0.3101  0.0512
  970SOL     OW14542   0.093   0.023   5.510  0.4142 -0.2930 -0.4894
  970SOL    HW114543   4.740   0.013   5.527  1.1192 -2.0918  2.2665
  970SOL    HW214544   0.116   4.704   5.439 -2.3923  0.1991 -1.8155
  971SOL     OW14545   4.706   2.567   3.912 -0.4867  0.1010  0.2861
  971SOL    HW114546   4.723   2.501   3.979 -0.7161 -0.3343 -0.0888
  971SOL    HW214547   4.657   2.503   3.862 -0.6885  0.2828  0.2509
  972SOL     OW14548   4.112   1.592   8.589  0.1149 -0.2228  0.1655
  972SOL    HW114549   4.135   1.499   8.581  3.8976  0.8921 -2.0932
  972SOL    HW214550   4.033   1.598   8.535 -0.8914 -3.5239  1.2788
  973SOL     OW14551   2.519   1.046   3.706 -0.7780  0.0585 -0.5027
  973SOL    HW114552   2.534   0.955   3.678 -0.2021  0.1935 -0.6289
  973SOL    HW214553   2.475   1.079   3.628 -1.5201 -0.1960 -0.1954
  974SOL     OW14554   4.464   2.199   7.647 -0.3242  0.4285  0.3238
  974SOL    HW114555   4.551   2.209   7.608 -1.0419 -1.0061 -1.6646
  974SOL    HW214556   4.468   2.105   7.664  0.5876  0.3989 -0.0629
  975SOL     OW14557   3.400   1.666   8.532 -0.1672 -0.1716 -0.1988
  975SOL    HW114558   3.424   1.758   8.546  1.9872 -0.5402 -1.5338
  975SOL    HW214559   3.307   1.673   8.556 -0.6463 -2.0366 -1.5581
  976SOL     OW14560   3.445   2.528   2.281  0.0985 -0.5845 -0.3896
  976SOL    HW114561   3.487   2.558   2.200 -1.3409 -0.3269 -1.0456
  976SOL    HW214562   3.370   2.588   2.288  1.4410  1.1040 -0.3338
  977SOL     OW14563   0.987   1.017   8.273 -0.2207  0.5353 -0.8058
  977SOL    HW114564   1.017   0.949   8.333 -1.7600  1.5217  1.1134
  977SOL    HW214565   0.933   1.064   8.336  0.9638 -0.1362  0.7197
  978SOL     OW14566   0.517   0.449   4.419 -0.1393 -0.0521 -0.0582
  978SOL    HW114567   0.485   0.360   4.427  1.1416 -0.4451  0.6355
  978SOL    HW214568   0.496   0.493   4.501 -2.6102  0.4669 -0.9660
  979SOL     OW14569   1.425   3.197  17.619  0.1574 -0.2515  0.1371
  979SOL    HW114570   1.382   3.277  17.651 -3.5209 -1.0475 -2.7956
  979SOL    HW214571   1.351   3.147  17.584  0.9339 -0.2310 -1.5629
  980SOL     OW14572   0.769   0.972   6.721 -0.8505 -0.1153 -0.0055
  980SOL    HW114573   0.713   1.049   6.725 -1.1448 -0.2568 -1.2875
  980SOL    HW214574   0.805   0.991   6.634 -0.5024 -2.1474 -0.3177
  981SOL     OW14575   1.693   0.602   8.668 -0.1966  0.3740 -0.4698
  981SOL    HW114576   1.632   0.552   8.614  2.0309 -0.1434 -2.5050
  981SOL    HW214577   1.674   0.694   8.649 -2.5676 -0.2893 -1.2286
  982SOL     OW14578   2.671   2.979   6.346 -0.1218 -0.2099  0.4050
  982SOL    HW114579   2.761   2.988   6.376  0.4148 -1.0421 -0.9627
  982SOL    HW214580   2.662   3.065   6.305  0.7471  1.1526  3.0491
  983SOL     OW14581   2.826   1.565   6.753  0.1260 -0.7314 -0.3934
  983SOL    HW114582   2.732   1.575   6.766  0.2893  0.5553 -0.1928
  983SOL    HW214583   2.840   1.493   6.815 -0.0933  1.3765  2.1061
  984SOL     OW14584   2.572   1.840  15.201 -0.4332 -0.2822  0.6123
  984SOL    HW114585   2.477   1.828  15.198 -0.8303  2.7282  0.5235
  984SOL    HW214586   2.575   1.913  15.140 -0.8527  1.2685  2.4164
  985SOL     OW14587   1.159   1.447   9.877  0.1305  0.4689 -0.9290
  985SOL    HW114588   1.247   1.410   9.877  0.3015  0.9305  2.7501
  985SOL    HW214589   1.181   1.540   9.870  0.1195  0.5092 -0.3755
  986SOL     OW14590   0.248   0.897   1.636 -0.6403 -0.1149  0.2064
  986SOL    HW114591   0.297   0.846   1.701 -0.7087 -0.1480  0.2314
  986SOL    HW214592   0.264   0.833   1.567  0.6979  0.4881 -0.0309
  987SOL     OW14593   2.967   2.187   4.102  0.0429 -0.0623  0.0024
  987SOL    HW114594   3.031   2.258   4.114 -0.1279  0.0724  0.1120
  987SOL    HW214595   2.922   2.204   4.019 -0.8936  1.4889  0.8295
  988SOL     OW14596   3.171   1.164   1.063  0.5237  0.4406 -0.5573
  988SOL    HW114597   3.084   1.127   1.044  0.2617  0.7640  0.0176
  988SOL    HW214598   3.229   1.094   1.034 -0.6860  0.1196 -2.2237
  989SOL     OW14599   3.396   2.319  11.158  0.1210 -0.3110  0.1195
  989SOL    HW114600   3.304   2.330  11.182  0.5013  2.3096  0.3385
  989SOL    HW214601   3.395   2.239  11.105 -1.9496  0.0685 -0.4250
  990SOL     OW14602   4.250   0.591   5.284 -0.2190  0.3738  0.1822
  990SOL    HW114603   4.320   0.653   5.306  0.2973 -0.0511 -0.2879
  990SOL    HW214604   4.268   0.522   5.348 -1.1269 -0.6567 -0.7039
  991SOL     OW14605   3.281   4.330   9.213 -0.0520  0.1109  0.2294
  991SOL    HW114606   3.367   4.288   9.222 -0.8788 -1.9697 -1.5083
  991SOL    HW214607   3.217   4.259   9.221 -0.5392  0.6529  1.1476
  992SOL     OW14608   0.021   0.016   6.062 -0.0177 -0.5368 -0.5101
  992SOL    HW114609   4.681   0.040   6.108  0.3670  2.5567 -1.4406
  992SOL    HW214610   4.734   0.010   5.971  1.3736  0.9277 -1.0258
  993SOL     OW14611   4.421   3.270  15.587  0.3414 -0.2662  0.1393
  993SOL    HW114612   4.509   3.280  15.622  0.0490  3.4477 -0.2682
  993SOL    HW214613   4.409   3.332  15.515  1.4859 -0.3571 -0.1256
  994SOL     OW14614   3.661   0.917   3.290  0.1976  0.3068 -0.2393
  994SOL    HW114615   3.702   0.987   3.341 -0.5020  0.9304 -0.5287
  994SOL    HW214616   3.675   0.835   3.336  0.0232  0.7053  0.5279
  995SOL     OW14617   0.293   2.659   8.695  0.3693  0.3924 -0.1642
  995SOL    HW114618   0.387   2.645   8.698  0.1912 -0.3111  2.1484
  995SOL    HW214619   0.277   2.600   8.621  0.7568  0.6895 -0.4800
  996SOL     OW14620   3.269   0.470  15.285 -0.5279  0.6788 -0.2655
  996SOL    HW114621   3.357   0.498  15.261 -0.1365 -0.5000 -0.2091
  996SOL    HW214622   3.284   0.401  15.351 -1.6133  0.1977 -0.5108
  997SOL     OW14623   1.612   2.522   6.519  1.0795 -0.2745  0.2865
  997SOL    HW114624   1.634   2.506   6.427  1.0411 -0.2163  0.2676
  997SOL    HW214625   1.677   2.590   6.537  0.1038  0.9338 -0.7584
  998SOL     OW14626   1.189   2.452   8.788  0.0736  0.4286 -0.0217
  998SOL    HW114627   1.210   2.383   8.850 -1.5632  0.4109  0.5187
  998SOL    HW214628   1.126   2.421   8.723 -1.2533  1.0114  0.9956
  999SOL     OW14629   2.709   2.085  17.231 -0.0719  0.5198  0.5825
  999SOL    HW114630   2.640   2.068  17.294 -1.3379  0.3851 -0.8401
  999SOL    HW214631   2.678   2.161  17.182 -0.3726 -1.1108 -1.7512
 1000SOL     OW14632   4.193   1.043   4.461  0.2007  0.5686  0.6236
 1000SOL    HW114633   4.258   1.100   4.420 -1.0634  0.3827 -1.6229
 1000SOL    HW214634   4.238   0.959   4.468  1.6164  1.0925 -2.2278
 1001SOL     OW14635   0.581   3.952  13.755 -0.1314 -0.2561  0.1816
 1001SOL    HW114636   0.602   3.870  13.799 -0.5357  0.0923  1.0268
 1001SOL    HW214637   0.508   3.924  13.701 -2.4774  2.1999  2.0988
 1002SOL     OW14638   4.489   3.044   5.945  0.5940 -0.0727 -0.2514
 1002SOL    HW114639   4.577   3.079   5.943 -0.4744  2.5708 -1.0130
 1002SOL    HW214640   4.447   3.083   5.868  0.5674  2.7857  1.2388
 1003SOL     OW14641   2.921   3.191   5.639  0.2964  0.4180  0.7447
 1003SOL    HW114642   2.838   3.230   5.667  0.4946 -0.2285  2.1918
 1003SOL    HW214643   2.895   3.108   5.600  1.1458  0.4153  0.1826
 1004SOL     OW14644   1.390   1.652   5.004  0.1267  0.0661  0.4056
 1004SOL    HW114645   1.369   1.584   5.068 -0.0789 -1.4047 -1.2371
 1004SOL    HW214646   1.483   1.669   5.020  0.1858  0.2928 -0.1745
 1005SOL     OW14647   1.916   2.112   4.998  0.1187  0.0468 -0.2243
 1005SOL    HW114648   1.828   2.077   5.007  0.7254 -1.2869  0.5491
 1005SOL    HW214649   1.917   2.167   5.077 -2.2391  0.6766 -0.6604
 1006SOL     OW14650   4.547   1.992   5.007 -0.0408  0.5493  0.1569
 1006SOL    HW114651   4.613   1.936   4.968 -1.1027  0.1259 -1.0389
 1006SOL    HW214652   4.607   2.049   5.055 -0.0817  0.6625  0.0748
 1007SOL     OW14653   3.341   3.620  10.951 -0.3389  0.9309 -0.7507
 1007SOL    HW114654   3.369   3.580  11.033  2.0802  1.1875 -1.4684
 1007SOL    HW214655   3.328   3.542  10.897  0.0468  1.7597 -2.0579
 1008SOL     OW14656   2.402   1.187   8.280 -0.1848 -0.4634  0.2137
 1008SOL    HW114657   2.437   1.202   8.192 -0.9558  2.0208  0.3353
 1008SOL    HW214658   2.317   1.229   8.269 -1.3781 -2.3340  2.2441
 1009SOL     OW14659   1.355   4.169   3.103  0.0109  0.0821 -0.1961
 1009SOL    HW114660   1.280   4.167   3.162 -0.5169  2.0779 -0.8032
 1009SOL    HW214661   1.326   4.137   3.018 -0.9185 -0.0789  0.1833
 1010SOL     OW14662   0.779   2.346  11.592  0.4747  0.3817 -0.0451
 1010SOL    HW114663   0.814   2.322  11.506  0.5013 -0.0853  0.0960
 1010SOL    HW214664   0.856   2.386  11.634 -0.6241  1.5186  0.8823
 1011SOL     OW14665   2.043   0.964   5.547 -0.4707  0.6321 -0.2629
 1011SOL    HW114666   1.969   0.950   5.489 -1.5967  0.7090  1.1719
 1011SOL    HW214667   2.099   1.028   5.502  0.8006 -0.6352 -0.5054
 1012SOL     OW14668   3.669   0.455   8.884  0.2937  0.4142 -0.4680
 1012SOL    HW114669   3.755   0.414   8.881  0.5066  0.8401 -0.1912
 1012SOL    HW214670   3.612   0.378   8.886 -2.0923  2.1713 -0.4202
 1013SOL     OW14671   2.344   0.872   5.901 -0.0961 -0.6390  0.0751
 1013SOL    HW114672   2.257   0.858   5.865  0.3845  1.4920 -1.9089
 1013SOL    HW214673   2.368   0.949   5.850  0.6728 -0.7098  0.3275
 1014SOL     OW14674   0.674   4.285   0.223 -0.3010  0.3376  0.5268
 1014SOL    HW114675   0.626   4.338   0.286  0.5884  1.5476  0.1810
 1014SOL    HW214676   0.736   4.349   0.188  0.7838 -0.1378  1.5814
 1015SOL     OW14677   1.423   0.311   7.035  0.1278  0.1207 -0.1158
 1015SOL    HW114678   1.347   0.333   7.088  0.8195  0.3507  0.7715
 1015SOL    HW214679   1.375   0.245   6.984  1.0432  0.9913 -2.1236
 1016SOL     OW14680   0.878   1.556   5.685 -0.0237 -0.3686  0.0411
 1016SOL    HW114681   0.787   1.572   5.711 -0.9385 -1.8365 -2.3045
 1016SOL    HW214682   0.860   1.519   5.599 -0.2319 -1.4545  0.5497
 1017SOL     OW14683   2.351   1.730   7.088  0.3330 -0.2481 -0.0440
 1017SOL    HW114684   2.427   1.782   7.061 -1.3094  2.0703 -0.1979
 1017SOL    HW214685   2.297   1.754   7.013 -0.8385 -0.2899  0.8040
 1018SOL     OW14686   0.970   2.952   5.818  0.2226  0.4571  0.5827
 1018SOL    HW114687   0.882   2.951   5.779  0.1434  0.0621  0.7686
 1018SOL    HW214688   1.016   2.898   5.753  1.6282  1.6918  0.5555
 1019SOL     OW14689   2.712   2.161  16.075  0.2645  0.0597 -0.1005
 1019SOL    HW114690   2.665   2.236  16.038  0.0243  0.7555  1.6410
 1019SOL    HW214691   2.769   2.207  16.137  2.4911 -1.5405 -0.9479
 1020SOL     OW14692   1.426   3.005  14.446 -0.4612  0.4315 -0.7604
 1020SOL    HW114693   1.506   3.012  14.394 -0.5409 -2.8256 -1.3554
 1020SOL    HW214694   1.401   2.915  14.423 -0.8598  0.7681 -1.6219
 1021SOL     OW14695   2.667   1.669   6.302  0.3728 -0.2752 -0.3894
 1021SOL    HW114696   2.696   1.586   6.340 -1.0322 -0.1179  1.0240
 1021SOL    HW214697   2.572   1.655   6.303  0.3032  0.3894  3.4450
 1022SOL     OW14698   0.610   2.034   0.329 -0.2850 -0.0689 -0.7910
 1022SOL    HW114699   0.645   1.983   0.402 -1.4096  2.0177  1.1984
 1022SOL    HW214700   0.532   2.064   0.375 -0.5177 -0.2594 -1.0593
 1023SOL     OW14701   3.574   3.212   7.419  0.6076  0.1773  0.6305
 1023SOL    HW114702   3.650   3.265   7.443  1.6762 -1.9199  1.8746
 1023SOL    HW214703   3.587   3.210   7.325 -0.9767 -0.7087  0.4353
 1024SOL     OW14704   2.940   0.302   7.976  0.0681 -0.4586 -0.4823
 1024SOL    HW114705   2.848   0.319   7.959  0.0356 -0.8735 -0.7283
 1024SOL    HW214706   2.965   0.251   7.899 -0.7310  0.3239 -1.2455
 1025SOL     OW14707   3.662   0.091   8.063 -0.2048 -0.2882  0.2569
 1025SOL    HW114708   3.688   0.164   8.119  0.2673  0.7423 -1.3158
 1025SOL    HW214709   3.692   0.120   7.977  0.7230 -0.6442  0.4612
 1026SOL     OW14710   3.371   0.480   6.286 -0.3528  0.1136  0.2105
 1026SOL    HW114711   3.285   0.516   6.267 -0.2949  0.6174  0.9473
 1026SOL    HW214712   3.378   0.421   6.210  0.2521  2.1979 -1.3647
 1027SOL     OW14713   4.112   0.091   6.121 -0.3117  0.4502  0.1340
 1027SOL    HW114714   4.077   0.104   6.033  0.0721 -0.0533 -0.0930
 1027SOL    HW214715   4.164   0.171   6.130  0.9697 -0.2699 -0.8766
 1028SOL     OW14716   2.340   3.889   3.493 -0.2030  0.4458  0.0236
 1028SOL    HW114717   2.282   3.867   3.567 -0.6710  1.7804  0.0625
 1028SOL    HW214718   2.269   3.882   3.430 -1.5722  5.6707  0.9517
 1029SOL     OW14719   4.503   1.557   5.031 -0.7214  0.6798  0.0811
 1029SOL    HW114720   4.460   1.568   4.946  0.5699  0.0552 -0.6564
 1029SOL    HW214721   4.496   1.462   5.040  1.1233  0.5434  0.0350
 1030SOL     OW14722   3.682   3.604  11.312  0.6803 -0.4580  0.1853
 1030SOL    HW114723   3.687   3.700  11.314  0.7548 -0.4475 -0.4783
 1030SOL    HW214724   3.688   3.579  11.404 -1.8972 -1.2986  0.1335
 1031SOL     OW14725   4.686   1.394  11.024 -0.0630  0.3604  0.4963
 1031SOL    HW114726   0.009   1.462  11.045  0.5243  0.6726 -2.3054
 1031SOL    HW214727   4.609   1.450  11.011  0.1209 -0.0984 -2.6851
 1032SOL     OW14728   3.357   0.205  17.287  0.2243 -0.4506  0.9295
 1032SOL    HW114729   3.286   0.267  17.269 -1.3753 -2.4922  0.1871
 1032SOL    HW214730   3.412   0.199  17.210 -0.5417 -0.4766  0.3844
 1033SOL     OW14731   4.500   4.344   2.107  0.0067  0.2527  0.2895
 1033SOL    HW114732   4.547   4.305   2.181 -1.1252  0.4378  1.1209
 1033SOL    HW214733   4.433   4.276   2.098  0.3494  0.1026 -1.0563
 1034SOL     OW14734   1.055   3.191  14.188 -0.1373  0.2577  0.0350
 1034SOL    HW114735   1.006   3.252  14.133  0.4816 -0.2542 -1.0646
 1034SOL    HW214736   1.096   3.123  14.135  1.0756  0.8318  0.2374
 1035SOL     OW14737   1.197   1.065  13.118 -0.4646  0.0671 -0.4871
 1035SOL    HW114738   1.130   1.133  13.122 -1.0579 -0.5334 -0.1932
 1035SOL    HW214739   1.258   1.084  13.189  1.8860 -1.8989 -1.9723
 1036SOL     OW14740   1.602   2.652   0.378 -0.0093 -0.3150 -0.5974
 1036SOL    HW114741   1.555   2.730   0.348 -0.4198 -0.3730 -0.1220
 1036SOL    HW214742   1.661   2.688   0.444 -1.1003 -2.7705  1.7197
 1037SOL     OW14743   1.448   2.238  15.684  0.4450 -0.2667 -0.0651
 1037SOL    HW114744   1.357   2.236  15.654  0.0477 -1.4885  1.2547
 1037SOL    HW214745   1.437   2.293  15.762 -2.2326 -0.1718 -0.5331
 1038SOL     OW14746   2.995   0.898   6.807 -0.0434 -0.3698 -0.1971
 1038SOL    HW114747   3.035   0.852   6.880 -0.6492 -1.2115 -0.4043
 1038SOL    HW214748   2.944   0.964   6.854  0.4253  2.1272 -3.1556
 1039SOL     OW14749   1.646   1.704   5.077 -0.0873  0.0299 -0.1686
 1039SOL    HW114750   1.689   1.721   5.161 -1.1764  2.7239 -0.1723
 1039SOL    HW214751   1.721   1.668   5.029  0.9710 -2.0271  2.9814
 1040SOL     OW14752   0.425   0.950   5.516 -0.3371 -0.2010 -0.5328
 1040SOL    HW114753   0.435   1.030   5.568 -1.3325 -0.3211 -0.1579
 1040SOL    HW214754   0.420   0.978   5.424  2.1555 -0.0341 -0.6188
 1041SOL     OW14755   3.393   0.707   8.246 -0.3617 -0.3307 -0.4998
 1041SOL    HW114756   3.449   0.688   8.171  2.4562  0.9457  1.2861
 1041SOL    HW214757   3.459   0.719   8.315 -0.6216 -2.7083  0.1512
 1042SOL     OW14758   3.984   2.077   8.274 -0.4332  0.4371 -0.4288
 1042SOL    HW114759   3.987   2.170   8.251  2.7661  0.3387 -0.4827
 1042SOL    HW214760   3.960   2.087   8.366  1.9272 -1.0324  0.3479
 1043SOL     OW14761   3.439   2.753   8.338  0.6418 -0.1847  0.1384
 1043SOL    HW114762   3.487   2.672   8.353  0.3978 -0.6196 -1.4423
 1043SOL    HW214763   3.360   2.736   8.390  0.7275  0.5596  0.5259
 1044SOL     OW14764   4.215   4.535  12.498 -0.4748 -0.6353  0.4109
 1044SOL    HW114765   4.133   4.485  12.497 -0.7056 -0.2433 -4.0110
 1044SOL    HW214766   4.249   4.518  12.410  0.4189 -0.2097  0.6709
 1045SOL     OW14767   4.064   4.544   6.507  0.0464  0.0899  0.1810
 1045SOL    HW114768   3.992   4.517   6.565  1.1935  1.2694  2.1648
 1045SOL    HW214769   4.053   4.475   6.442 -1.0946  1.2734 -0.8908
 1046SOL     OW14770   2.042   0.841   5.814  0.0502 -0.2259 -0.2114
 1046SOL    HW114771   2.045   0.866   5.721  0.6685 -0.7317 -0.3309
 1046SOL    HW214772   1.980   0.769   5.806  0.3495 -0.3932 -1.0799
 1047SOL     OW14773   0.276   2.656   1.557  0.4742 -0.1542  0.1424
 1047SOL    HW114774   0.360   2.683   1.520 -0.4895  0.8774 -1.3114
 1047SOL    HW214775   0.232   2.742   1.558  1.2017  0.1940  2.3065
 1048SOL     OW14776   4.683   2.673   2.564  0.1812 -0.3707  0.3599
 1048SOL    HW114777   4.616   2.711   2.620 -0.1726  0.1296 -0.4041
 1048SOL    HW214778   4.640   2.688   2.479  1.2785 -2.2230 -0.5329
 1049SOL     OW14779   0.901   1.992   2.592 -0.1455  0.2802 -0.2893
 1049SOL    HW114780   0.889   2.023   2.502  1.8045 -0.3553 -0.7851
 1049SOL    HW214781   0.922   1.898   2.584 -3.7923 -0.5734  0.3901
 1050SOL     OW14782   1.806   4.494   9.249  0.7930 -0.5892 -0.0422
 1050SOL    HW114783   1.825   4.586   9.228 -1.6454  0.9879  4.6244
 1050SOL    HW214784   1.893   4.461   9.274  1.0816 -0.6249 -1.0783
 1051SOL     OW14785   3.744   2.992   0.812 -0.7401  0.0051  0.1677
 1051SOL    HW114786   3.815   3.002   0.876 -0.3053  1.7164 -0.5686
 1051SOL    HW214787   3.758   3.072   0.761  1.9526 -2.2690 -2.6856
 1052SOL     OW14788   0.991   0.111   4.642  0.0301 -0.3468 -0.4827
 1052SOL    HW114789   0.909   0.133   4.686  0.0492  1.5478 -1.3973
 1052SOL    HW214790   1.040   0.193   4.641 -3.5230  1.7566 -0.6725
 1053SOL     OW14791   3.615   4.228   5.795 -0.2590  0.0950  0.4044
 1053SOL    HW114792   3.689   4.282   5.823 -1.5067  2.0478 -0.0657
 1053SOL    HW214793   3.573   4.276   5.724 -3.4835  0.6753  2.7323
 1054SOL     OW14794   3.947   3.334   1.351 -0.3790  0.5310  0.5663
 1054SOL    HW114795   3.957   3.397   1.279  1.1773 -0.4640 -0.1028
 1054SOL    HW214796   4.029   3.349   1.398 -0.0467 -0.9764  0.4709
 1055SOL     OW14797   1.845   2.283   6.350 -0.2559  0.1176 -0.4246
 1055SOL    HW114798   1.850   2.247   6.262 -0.3970 -2.2688  0.5405
 1055SOL    HW214799   1.895   2.364   6.346 -1.8803  1.3005  3.2641
 1056SOL     OW14800   2.041   3.445   4.744  0.2187  0.6022 -0.0368
 1056SOL    HW114801   1.976   3.387   4.783  1.3959 -1.4971 -1.1723
 1056SOL    HW214802   2.104   3.382   4.708 -1.2786 -0.6444 -0.5085
 1057SOL     OW14803   4.108   0.389   8.743  0.1649 -0.3587 -0.4297
 1057SOL    HW114804   4.095   0.411   8.835  1.9353 -0.7209 -0.0801
 1057SOL    HW214805   4.154   0.467   8.713  0.8922 -1.3275 -1.8464
 1058SOL     OW14806   3.309   3.327   2.151  0.4654 -0.4275  0.5403
 1058SOL    HW114807   3.252   3.251   2.157 -3.3536  2.4502  0.2706
 1058SOL    HW214808   3.272   3.386   2.216 -1.1086  0.0515 -0.8008
 1059SOL     OW14809   0.246   1.630   2.379 -0.2554  0.2174  0.6775
 1059SOL    HW114810   0.188   1.701   2.407  0.0631  0.4046  0.8549
 1059SOL    HW214811   0.258   1.646   2.285  2.3499  1.5109  1.2528
 1060SOL     OW14812   0.377   4.220   7.219 -0.4922 -0.2073 -0.0725
 1060SOL    HW114813   0.466   4.196   7.245  0.6331  0.2327 -3.5333
 1060SOL    HW214814   0.391   4.309   7.187  1.9694 -0.3242  0.7412
 1061SOL     OW14815   2.774   1.563   8.714  0.1858  0.4416 -0.0150
 1061SOL    HW114816   2.856   1.549   8.762 -0.3866  1.4014  1.2179
 1061SOL    HW214817   2.774   1.658   8.700  1.0683  0.2507 -1.3094
 1062SOL     OW14818   1.875   1.901  12.124 -0.3009 -0.4199 -0.0155
 1062SOL    HW114819   1.899   1.985  12.085 -3.2461 -0.1616 -1.3354
 1062SOL    HW214820   1.838   1.940  12.203  0.0394 -2.2981  1.0793
 1063SOL     OW14821   2.919   2.518   9.367 -0.7224  0.2255  0.0762
 1063SOL    HW114822   2.840   2.571   9.357 -0.2212  0.9881  0.2248
 1063SOL    HW214823   2.928   2.503   9.272  0.2388  1.6669 -0.0508
 1064SOL     OW14824   4.480   0.107   9.142  0.0906 -0.1038 -0.0453
 1064SOL    HW114825   4.443   0.189   9.109 -0.6027 -0.4245 -0.0675
 1064SOL    HW214826   4.406   0.047   9.148 -0.9832  1.3184  0.9553
 1065SOL     OW14827   0.527   1.283  11.637 -0.3800  0.1181  0.0494
 1065SOL    HW114828   0.451   1.339  11.650  0.5667  1.5387 -0.5931
 1065SOL    HW214829   0.553   1.258  11.726  1.3404 -0.3578 -0.5844
 1066SOL     OW14830   2.302   1.747   4.030 -0.4735  0.2947 -0.5160
 1066SOL    HW114831   2.237   1.805   4.069  0.2389  0.1650  0.8730
 1066SOL    HW214832   2.268   1.662   4.058  0.2051  0.4651  0.8173
 1067SOL     OW14833   3.677   4.666   2.649  0.0136  0.2830  0.0619
 1067SOL    HW114834   3.645   4.587   2.607 -0.0928  0.3088  0.0926
 1067SOL    HW214835   3.735   4.635   2.718  1.9871  3.0641 -0.3311
 1068SOL     OW14836   4.326   0.040   1.429  0.3192 -0.5372  0.5561
 1068SOL    HW114837   4.265   4.707   1.422 -1.2650  0.9766 -1.2630
 1068SOL    HW214838   4.318   0.059   1.523 -3.5073  1.0748 -0.0965
 1069SOL     OW14839   4.610   2.915   3.428  0.8368  0.0399 -0.2316
 1069SOL    HW114840   4.550   2.863   3.481  1.3796  0.0755  0.4323
 1069SOL    HW214841   4.611   2.854   3.354  0.3738  0.7414 -0.8063
 1070SOL     OW14842   2.509   4.114   7.631 -0.4385 -0.2882 -0.1886
 1070SOL    HW114843   2.526   4.105   7.537  0.6394  0.9520 -0.1180
 1070SOL    HW214844   2.596   4.113   7.672 -1.2249  5.3290  1.6280
 1071SOL     OW14845   2.364   1.620   3.620 -0.4977 -0.2624 -0.1957
 1071SOL    HW114846   2.424   1.551   3.593  0.7634  0.2687  1.2566
 1071SOL    HW214847   2.284   1.598   3.573 -1.2922  0.0778  1.0061
 1072SOL     OW14848   2.763   2.297   2.453  0.8777 -0.2990  0.5338
 1072SOL    HW114849   2.854   2.301   2.482  0.7650 -0.6606  0.9551
 1072SOL    HW214850   2.771   2.293   2.358 -0.6589  1.0902  0.3414
 1073SOL     OW14851   4.628   0.693  16.113  0.4805  0.3412  0.1629
 1073SOL    HW114852   4.697   0.676  16.048 -1.6511 -0.1502 -1.9994
 1073SOL    HW214853   4.598   0.780  16.086  1.3823  0.2843 -1.0680
 1074SOL     OW14854   4.187   2.828   2.077 -0.2290  0.5137 -0.1027
 1074SOL    HW114855   4.203   2.840   2.170 -0.4334 -0.0738  0.0114
 1074SOL    HW214856   4.097   2.795   2.084  0.1131 -0.2965  0.4427
 1075SOL     OW14857   1.309   1.921   8.163  0.1390 -0.2494 -0.5109
 1075SOL    HW114858   1.386   1.975   8.147  0.9438 -1.1899  0.1946
 1075SOL    HW214859   1.243   1.989   8.148  3.1143  2.9531  1.0495
 1076SOL     OW14860   3.279   0.484   5.917  0.1760 -0.2295 -0.0229
 1076SOL    HW114861   3.287   0.389   5.910 -1.4986 -0.3920  0.1332
 1076SOL    HW214862   3.261   0.512   5.827  2.5721 -2.0127 -1.0387
 1077SOL     OW14863   4.696   2.246   7.286 -0.4652 -0.1183 -0.0049
 1077SOL    HW114864   4.643   2.176   7.324 -0.1577 -0.2528  0.1748
 1077SOL    HW214865   4.669   2.240   7.194  2.0821  0.3087 -0.7659
 1078SOL     OW14866   2.847   4.198  14.846 -0.3698 -0.2379  0.3365
 1078SOL    HW114867   2.802   4.139  14.785 -0.7563  1.5577 -1.1122
 1078SOL    HW214868   2.937   4.172  14.827 -0.2682  2.5520 -3.0597
 1079SOL     OW14869   3.257   0.303  15.835  0.5603  0.4755 -0.6842
 1079SOL    HW114870   3.178   0.339  15.795 -0.4694 -0.8978  0.1178
 1079SOL    HW214871   3.325   0.360  15.798  0.2330 -0.6082 -2.9932
 1080SOL     OW14872   3.441   0.312   7.348  0.3015  0.4295 -0.1019
 1080SOL    HW114873   3.500   0.250   7.389 -0.1903  1.4293  2.1389
 1080SOL    HW214874   3.357   0.266   7.341  0.5071  0.5177 -3.2036
 1081SOL     OW14875   0.655   3.525   0.280 -0.0583 -0.1123  0.1151
 1081SOL    HW114876   0.578   3.468   0.281 -0.2152  0.1113  1.0441
 1081SOL    HW214877   0.706   3.498   0.204  0.2796  2.7840 -0.7127
 1082SOL     OW14878   1.939   3.883  17.214  0.2419  0.3086  0.3904
 1082SOL    HW114879   1.977   3.874  17.126 -2.3427 -0.2079 -0.6803
 1082SOL    HW214880   2.011   3.855  17.271  0.2008  1.5339  1.0268
 1083SOL     OW14881   4.239   0.288  11.341 -0.1039  0.1482 -0.2324
 1083SOL    HW114882   4.201   0.209  11.303 -0.9448 -0.5277  2.0208
 1083SOL    HW214883   4.249   0.333  11.257 -0.6708 -2.8159 -1.8647
 1084SOL     OW14884   2.170   4.703   6.514 -0.1128  0.2199 -0.0282
 1084SOL    HW114885   2.121   4.717   6.433 -1.5877 -0.7714  0.6973
 1084SOL    HW214886   2.096   4.718   6.572 -0.3416 -0.1303 -0.2326
 1085SOL     OW14887   3.610   0.725   8.431  0.0244  0.3874 -0.3172
 1085SOL    HW114888   3.629   0.808   8.473 -0.9319  0.6339 -0.3658
 1085SOL    HW214889   3.582   0.684   8.513  1.4179 -1.6667 -0.8633
 1086SOL     OW14890   2.946   2.991   6.351 -0.2868 -0.1138 -0.2478
 1086SOL    HW114891   3.002   3.058   6.312 -0.1323  0.5161  1.0380
 1086SOL    HW214892   2.951   2.918   6.290  3.7075  0.2925 -0.4096
 1087SOL     OW14893   2.530   1.269   8.615  0.1915 -0.4841  0.5972
 1087SOL    HW114894   2.616   1.252   8.654  0.5017 -0.3160 -0.0063
 1087SOL    HW214895   2.515   1.187   8.568 -0.9148  0.8860 -1.4524
 1088SOL     OW14896   3.171   2.478  10.377  0.0802  0.1081  0.2243
 1088SOL    HW114897   3.249   2.426  10.396 -0.0581  0.2877  1.3181
 1088SOL    HW214898   3.163   2.538  10.452 -3.2228  0.1709 -0.1718
 1089SOL     OW14899   3.189   0.102   0.574 -0.2289  0.4710 -0.7369
 1089SOL    HW114900   3.125   0.171   0.556 -0.7618 -0.2089 -1.4351
 1089SOL    HW214901   3.143   0.050   0.640  1.8639  0.5584  0.8005
 1090SOL     OW14902   3.262   3.168  15.978  0.3566 -0.1330  0.4636
 1090SOL    HW114903   3.339   3.223  15.967  0.0505  0.2472  0.2102
 1090SOL    HW214904   3.286   3.084  15.940  0.6498 -0.1338  0.6542
 1091SOL     OW14905   3.871   0.404   6.886  0.4918  0.3816  0.3062
 1091SOL    HW114906   3.859   0.317   6.848  0.9191  1.0013 -1.2411
 1091SOL    HW214907   3.791   0.447   6.855  0.4849  0.7640  0.8512
 1092SOL     OW14908   4.322   0.012   9.556 -0.3917 -0.0552  0.2897
 1092SOL    HW114909   4.303   0.011   9.650 -0.0403 -0.4721  0.3578
 1092SOL    HW214910   4.266   0.085   9.530  0.5190 -0.2668 -2.2544
 1093SOL     OW14911   0.076   1.665  11.844  0.3567  0.2247 -0.1043
 1093SOL    HW114912   0.169   1.644  11.838  0.1151 -0.8404  0.0179
 1093SOL    HW214913   0.073   1.714  11.762  0.9193  1.3361  0.5372
 1094SOL     OW14914   3.047   4.200   9.274 -0.1014 -0.3450  0.1874
 1094SOL    HW114915   3.028   4.106   9.283 -1.3735  0.0643  1.8256
 1094SOL    HW214916   2.964   4.242   9.253  0.3866 -0.2847 -1.6882
 1095SOL     OW14917   2.018   2.669  13.810 -0.4225 -0.3446  0.5630
 1095SOL    HW114918   1.985   2.584  13.780 -1.8938  0.1463  0.7676
 1095SOL    HW214919   1.959   2.728  13.763 -0.5389 -1.1256 -0.2874
 1096SOL     OW14920   2.293   1.061  10.620  0.0301 -0.3037  0.0487
 1096SOL    HW114921   2.336   0.977  10.635  0.3892 -0.5988 -2.7548
 1096SOL    HW214922   2.227   1.050  10.552 -1.8645  0.3808  1.7384
 1097SOL     OW14923   4.016   1.471   2.820 -0.3676  0.0634 -0.1514
 1097SOL    HW114924   4.049   1.381   2.814  0.6824  0.6040 -2.5639
 1097SOL    HW214925   3.922   1.459   2.832 -0.4508 -0.8360 -1.5949
 1098SOL     OW14926   3.896   3.906  11.758 -0.8152 -0.1846 -0.0204
 1098SOL    HW114927   3.898   3.951  11.842 -2.9790  1.7383 -0.9794
 1098SOL    HW214928   3.939   3.971  11.702  0.6021  0.0408  1.3137
 1099SOL     OW14929   2.162   0.928   7.683 -0.5351 -0.2566 -0.3072
 1099SOL    HW114930   2.159   1.007   7.736  0.0393 -0.9595  0.7818
 1099SOL    HW214931   2.256   0.910   7.694  0.0759  2.3815 -1.1961
 1100SOL     OW14932   4.606   0.393   8.987 -0.0672  0.5609  0.5026
 1100SOL    HW114933   4.619   0.466   8.927 -0.8631  0.4770  0.2273
 1100SOL    HW214934   4.697   0.364   8.988  0.4800  2.3413  2.1679
 1101SOL     OW14935   0.171   0.686   4.421 -0.2059 -0.0919  0.1425
 1101SOL    HW114936   0.078   0.710   4.413 -0.5204 -0.8688  1.4237
 1101SOL    HW214937   0.198   0.669   4.331  2.5075  0.2337  0.9045
 1102SOL     OW14938   1.653   3.033   1.824 -0.3542 -0.5468 -0.4391
 1102SOL    HW114939   1.614   3.008   1.907 -0.1283 -3.2453 -1.1350
 1102SOL    HW214940   1.731   2.976   1.819 -0.5288 -0.8809  0.7075
 1103SOL     OW14941   1.775   0.574   4.964  0.5186 -0.0012 -0.0662
 1103SOL    HW114942   1.743   0.525   5.039 -1.8200  1.3521 -0.1694
 1103SOL    HW214943   1.821   0.504   4.918 -0.2789  0.0920 -1.0156
 1104SOL     OW14944   0.423   4.261  12.861 -0.0263 -0.2568  0.3423
 1104SOL    HW114945   0.482   4.291  12.931 -0.6122  3.3037 -0.7238
 1104SOL    HW214946   0.357   4.225  12.920 -0.9922  0.6050 -0.2327
 1105SOL     OW14947   2.813   0.534   7.317  0.2564 -0.5666 -1.0824
 1105SOL    HW114948   2.740   0.558   7.260  0.2641  1.5459 -0.2138
 1105SOL    HW214949   2.870   0.483   7.259 -1.5470 -1.5818 -1.9414
 1106SOL     OW14950   0.064   0.818   6.912 -0.1472  0.3524  0.2116
 1106SOL    HW114951   4.730   0.878   6.920  0.7446  1.5294 -0.3363
 1106SOL    HW214952   0.028   0.730   6.901  4.6465 -1.5311 -0.4092
 1107SOL     OW14953   4.431   2.374  16.759 -0.3314 -0.0603 -0.3707
 1107SOL    HW114954   4.411   2.341  16.672 -1.9601 -2.2873  0.8631
 1107SOL    HW214955   4.399   2.464  16.759  1.5473  0.6147 -1.9865
 1108SOL     OW14956   3.156   4.094   1.446 -0.3981 -0.2249 -0.2487
 1108SOL    HW114957   3.220   4.166   1.443  0.9931 -1.3876  1.0078
 1108SOL    HW214958   3.204   4.034   1.504 -0.4866 -0.9404 -0.9168
 1109SOL     OW14959   2.686   2.695   3.464 -0.1422  0.2670 -0.0552
 1109SOL    HW114960   2.637   2.642   3.527  0.5453 -0.5077 -0.1627
 1109SOL    HW214961   2.694   2.620   3.405 -2.1462  0.5447 -0.7078
 1110SOL     OW14962   0.725   1.053   9.084 -0.2037 -0.3240 -0.4777
 1110SOL    HW114963   0.674   0.990   9.032 -1.5879  1.0765 -0.8190
 1110SOL    HW214964   0.752   0.995   9.155  1.4807  1.0628  0.0108
 1111SOL     OW14965   2.517   3.523   6.726 -0.3576  0.4377  0.5817
 1111SOL    HW114966   2.591   3.486   6.679 -2.5271 -1.6997 -1.1769
 1111SOL    HW214967   2.540   3.609   6.761  1.3923  0.6307 -1.1016
 1112SOL     OW14968   1.027   3.157   6.299 -0.3007 -0.1855  0.2427
 1112SOL    HW114969   0.969   3.155   6.375 -1.4515  0.9074 -0.5985
 1112SOL    HW214970   0.960   3.125   6.239 -0.6761 -1.2214  1.2291
 1113SOL     OW14971   0.851   4.094   5.927 -0.0229 -0.8578 -0.1934
 1113SOL    HW114972   0.853   4.147   6.007  1.4722  1.1847 -1.5706
 1113SOL    HW214973   0.926   4.041   5.951  0.3186  0.6350  2.0286
 1114SOL     OW14974   3.748   1.650   9.312 -0.7724  0.0664 -0.2086
 1114SOL    HW114975   3.778   1.594   9.240 -0.8327 -1.4973  0.9849
 1114SOL    HW214976   3.791   1.605   9.384  0.4879  0.6192 -0.6088
 1115SOL     OW14977   1.450   3.279   6.395 -0.0755  0.1351 -0.2236
 1115SOL    HW114978   1.494   3.251   6.476 -1.3570  0.2728  0.5300
 1115SOL    HW214979   1.397   3.342   6.444 -1.6833 -0.7239 -0.8837
 1116SOL     OW14980   2.461   0.625   2.956  0.4595  0.3524  0.8535
 1116SOL    HW114981   2.449   0.605   3.049 -0.1565  0.3019  0.7613
 1116SOL    HW214982   2.370   0.612   2.928  0.5358 -0.0779  0.7991
 1117SOL     OW14983   3.314   3.802  13.937 -0.4668  0.6453 -0.5062
 1117SOL    HW114984   3.343   3.824  13.848  0.5681 -0.0754 -0.3477
 1117SOL    HW214985   3.353   3.715  13.947 -1.1258  0.3737 -0.3222
 1118SOL     OW14986   0.188   1.561   5.263 -0.2451 -0.3866  0.6172
 1118SOL    HW114987   0.155   1.476   5.234 -0.0502  0.0204 -0.7964
 1118SOL    HW214988   0.277   1.563   5.226 -0.7644 -2.7841 -0.7585
 1119SOL     OW14989   4.506   1.430  15.059 -0.2358  0.0936 -0.0379
 1119SOL    HW114990   4.440   1.494  15.083 -0.3027  1.0611 -2.7314
 1119SOL    HW214991   4.470   1.358  15.112  1.3067 -0.3319  0.4321
 1120SOL     OW14992   2.999   2.206   4.973  0.5574  0.6446  0.4037
 1120SOL    HW114993   2.995   2.283   4.916  1.3431 -0.8802 -1.7194
 1120SOL    HW214994   3.027   2.152   4.899  2.0126 -0.8525  2.0593
 1121SOL     OW14995   0.876   1.056  16.302  0.3751  0.4439  0.1352
 1121SOL    HW114996   0.962   1.019  16.319  0.8046  1.0471 -0.6805
 1121SOL    HW214997   0.856   1.021  16.215 -0.6066 -0.3285  0.6845
 1122SOL     OW14998   4.193   1.577   1.558  0.3316  0.6445  0.3374
 1122SOL    HW114999   4.232   1.600   1.473  1.6132  1.6891  1.2189
 1122SOL    HW215000   4.268   1.547   1.609 -1.0350 -1.1576  1.2693
 1123SOL     OW15001   1.942   2.261  15.526  0.0609 -0.5203 -0.4183
 1123SOL    HW115002   1.960   2.245  15.619  0.6938  0.9934 -0.2714
 1123SOL    HW215003   1.857   2.218  15.526  1.1690 -2.7364  1.6717
 1124SOL     OW15004   1.945   3.060   8.729  0.2134 -0.0810  0.7094
 1124SOL    HW115005   1.968   3.153   8.736  1.7208 -0.4808  1.2048
 1124SOL    HW215006   1.948   3.035   8.822  0.3008  0.3305  0.8216
 1125SOL     OW15007   1.485   1.726   9.231  0.0603 -0.1662  0.3144
 1125SOL    HW115008   1.507   1.743   9.139 -1.8549  0.0143 -0.1121
 1125SOL    HW215009   1.560   1.668   9.248  0.2771  0.5271  1.7072
 1126SOL     OW15010   0.487   3.632   5.252  0.4655 -0.3159 -0.6760
 1126SOL    HW115011   0.516   3.723   5.262  0.6674 -0.3720 -0.7646
 1126SOL    HW215012   0.535   3.587   5.321  1.0987  1.3598 -0.0086
 1127SOL     OW15013   3.795   4.548   3.506 -0.2620  0.3292 -0.0497
 1127SOL    HW115014   3.866   4.525   3.446  0.3610 -0.1671  0.8634
 1127SOL    HW215015   3.797   4.643   3.499 -0.6488  0.4293  1.1031
 1128SOL     OW15016   1.085   3.185   1.797  0.4666  0.0873  0.2127
 1128SOL    HW115017   1.063   3.152   1.885  1.1743 -0.9576 -0.0018
 1128SOL    HW215018   1.162   3.134   1.774  0.2238 -0.0359 -0.3296
 1129SOL     OW15019   2.714   2.338   6.350  0.6745 -0.3771  0.0770
 1129SOL    HW115020   2.720   2.248   6.318 -0.7210 -0.9684  1.4918
 1129SOL    HW215021   2.638   2.363   6.297 -0.0375 -0.7751  0.9203
 1130SOL     OW15022   2.322   2.940   7.518 -0.3509 -0.5031  0.5053
 1130SOL    HW115023   2.282   3.018   7.557  1.5701 -0.7659  2.9966
 1130SOL    HW215024   2.350   2.974   7.432 -1.9146 -0.1201  0.1370
 1131SOL     OW15025   1.575   2.110   9.317  0.1290  0.5929 -0.3120
 1131SOL    HW115026   1.588   2.053   9.393  0.7966  2.1193  0.7273
 1131SOL    HW215027   1.586   2.053   9.242  0.2825  0.6697 -0.3489
 1132SOL     OW15028   0.205   2.986  13.252 -0.0761  0.4377  0.6454
 1132SOL    HW115029   0.272   3.029  13.305  0.6379 -2.4529  2.0659
 1132SOL    HW215030   0.253   2.925  13.196 -0.4644 -1.0707  1.9419
 1133SOL     OW15031   3.955   0.300   6.402  0.2820  0.4946 -0.1345
 1133SOL    HW115032   4.002   0.220   6.425 -2.2861 -0.0873  3.0348
 1133SOL    HW215033   3.870   0.273   6.369  0.3530 -0.2809  0.3024
 1134SOL     OW15034   2.721   2.487   2.990  0.3281 -0.2131  0.2390
 1134SOL    HW115035   2.803   2.492   2.941 -0.5916 -0.9858 -1.3828
 1134SOL    HW215036   2.706   2.393   2.995 -1.0433 -0.0584 -0.8884
 1135SOL     OW15037   2.670   1.683  15.839  0.4955 -0.0690  0.2802
 1135SOL    HW115038   2.671   1.718  15.927  1.7810 -2.1894  1.1168
 1135SOL    HW215039   2.593   1.717  15.793 -1.0755 -2.4426  1.1862
 1136SOL     OW15040   3.787   3.393  11.757  0.2453  0.0628 -0.4109
 1136SOL    HW115041   3.835   3.475  11.749  0.6786 -0.0942  0.5568
 1136SOL    HW215042   3.862   3.333  11.756  1.6901  1.8780 -0.0932
 1137SOL     OW15043   4.407   3.563   1.690 -0.0331 -0.2400 -0.4236
 1137SOL    HW115044   4.459   3.539   1.613  1.4302  2.8550 -0.4133
 1137SOL    HW215045   4.438   3.503   1.758 -0.1572 -0.5224 -0.6155
 1138SOL     OW15046   1.554   3.161  13.601 -0.5170  0.0871  0.5756
 1138SOL    HW115047   1.630   3.117  13.564  0.2030  0.5732  1.4715
 1138SOL    HW215048   1.575   3.169  13.694  0.3378 -0.2444  0.4114
 1139SOL     OW15049   1.941   0.388   4.770  0.4234 -0.0902 -0.2699
 1139SOL    HW115050   1.917   0.300   4.742  0.8956 -0.2807 -0.0587
 1139SOL    HW215051   1.928   0.424   4.682  2.1508  2.4762  0.5257
 1140SOL     OW15052   1.785   2.960   2.817 -0.0213  0.5109 -0.0930
 1140SOL    HW115053   1.790   3.038   2.760 -1.0567  0.3756 -0.3845
 1140SOL    HW215054   1.782   2.893   2.749 -0.9091 -0.8680  1.3281
 1141SOL     OW15055   2.198   0.017   3.319 -0.1166  0.6430 -0.1043
 1141SOL    HW115056   2.125   0.078   3.311  0.4399  1.3132 -0.1008
 1141SOL    HW215057   2.271   0.078   3.305  0.8079  0.0110  1.9857
 1142SOL     OW15058   1.353   0.526   1.230 -0.1296 -0.3403 -0.1044
 1142SOL    HW115059   1.359   0.441   1.274  0.4775 -0.1241  0.2277
 1142SOL    HW215060   1.267   0.515   1.191  0.8101 -2.1673 -1.6514
 1143SOL     OW15061   1.735   2.099   8.281 -0.5340 -0.2461 -0.1020
 1143SOL    HW115062   1.813   2.053   8.313 -0.9895 -0.8325  0.1756
 1143SOL    HW215063   1.758   2.186   8.312  2.2956 -0.4422 -1.6687
 1144SOL     OW15064   3.050   1.592   8.104 -1.0231 -0.3904 -0.0449
 1144SOL    HW115065   2.967   1.630   8.134  1.0158  2.1060  2.4153
 1144SOL    HW215066   3.045   1.500   8.128 -0.5171  0.2411  2.4262
 1145SOL     OW15067   4.552   3.260  17.152  0.4787 -0.3651 -0.3362
 1145SOL    HW115068   4.596   3.226  17.074  1.4959  1.4703 -0.5588
 1145SOL    HW215069   4.550   3.177  17.200 -0.4577  1.1777  2.2597
 1146SOL     OW15070   3.668   1.051   9.424  0.2034  0.0570 -0.1644
 1146SOL    HW115071   3.684   1.062   9.518 -0.2814 -2.6813  0.2391
 1146SOL    HW215072   3.697   0.964   9.395  2.4335  0.4652  0.8486
 1147SOL     OW15073   1.156   0.541   8.769  0.3696  0.6691  0.2779
 1147SOL    HW115074   1.119   0.566   8.684 -0.0677 -0.0267  0.2654
 1147SOL    HW215075   1.247   0.571   8.768 -0.2924  2.6585 -0.2716
 1148SOL     OW15076   0.025   4.267   3.507 -0.3246  0.3574  0.1766
 1148SOL    HW115077   4.698   4.290   3.443 -1.5543 -3.4322  0.1471
 1148SOL    HW215078   0.016   4.172   3.512  0.5009  0.2446 -0.5449
 1149SOL     OW15079   1.752   0.850   5.202  1.2311 -0.4599 -0.1455
 1149SOL    HW115080   1.672   0.802   5.179  0.8351 -0.6308  1.5371
 1149SOL    HW215081   1.706   0.919   5.251  2.6629  0.3953 -0.0009
 1150SOL     OW15082   2.336   1.727   5.781 -0.1317 -0.8725  0.6497
 1150SOL    HW115083   2.262   1.787   5.791  1.7911  1.5668  0.1897
 1150SOL    HW215084   2.290   1.661   5.730  0.2468 -0.8845  0.3207
 1151SOL     OW15085   4.665   3.092   5.683  0.0688  0.0749  0.0485
 1151SOL    HW115086   4.658   2.999   5.706  1.0364 -0.1722 -0.6527
 1151SOL    HW215087   4.681   3.132   5.768  2.7165 -0.7039 -0.0792
 1152SOL     OW15088   0.230   3.048   8.086  0.3410  0.3629 -0.5176
 1152SOL    HW115089   0.261   2.965   8.121 -2.4455 -0.0944  0.7947
 1152SOL    HW215090   0.310   3.080   8.044  0.3426 -0.0387 -0.8180
 1153SOL     OW15091   4.677   4.578   4.061  0.1078  0.1575 -0.3106
 1153SOL    HW115092   4.656   4.533   4.143  1.9295 -0.4346 -0.1516
 1153SOL    HW215093   0.019   4.617   4.090  1.0134 -1.9938  0.0280
 1154SOL     OW15094   2.102   1.724   9.397 -0.7282  0.2450 -0.0783
 1154SOL    HW115095   2.008   1.737   9.391 -0.9598 -1.6477 -0.5857
 1154SOL    HW215096   2.104   1.647   9.453 -1.8187  0.9283  0.9025
 1155SOL     OW15097   3.636   4.369   7.027  0.1806  0.3734  0.2435
 1155SOL    HW115098   3.577   4.312   6.977 -2.2684  2.1224  1.0975
 1155SOL    HW215099   3.720   4.356   6.984  1.3800  2.3064  2.0033
 1156SOL     OW15100   0.673   4.173  16.754 -0.1437 -0.0647 -0.5433
 1156SOL    HW115101   0.665   4.145  16.845 -0.2894  3.0517  0.4036
 1156SOL    HW215102   0.674   4.268  16.758  1.4985 -0.1173  0.2172
 1157SOL     OW15103   2.327   2.336   2.930  0.3036 -0.3232 -0.0124
 1157SOL    HW115104   2.380   2.257   2.918  0.5355 -0.0464 -0.8257
 1157SOL    HW215105   2.286   2.343   2.844 -0.2448 -0.1563  0.2662
 1158SOL     OW15106   3.541   3.825   7.379 -0.1859 -0.4352  0.0791
 1158SOL    HW115107   3.621   3.772   7.377  0.3379  0.4032 -1.3020
 1158SOL    HW215108   3.531   3.844   7.473  0.0707 -1.6298  0.3452
 1159SOL     OW15109   3.224   3.367   6.136  0.1049 -0.1192 -0.1198
 1159SOL    HW115110   3.310   3.400   6.163 -0.2041  1.6468 -1.3368
 1159SOL    HW215111   3.254   3.305   6.069 -1.3618 -0.0545 -0.8294
 1160SOL     OW15112   2.066   1.533   5.055  0.2950  0.2151  0.0649
 1160SOL    HW115113   2.043   1.542   4.963  3.3418 -0.8823 -0.8274
 1160SOL    HW215114   2.147   1.482   5.044  0.0848 -0.2169  0.4718
 1161SOL     OW15115   1.242   4.685  16.389 -0.5703 -0.2068  0.2075
 1161SOL    HW115116   1.275   0.014  16.445  0.8743 -0.6595 -0.0874
 1161SOL    HW215117   1.148   4.702  16.402 -0.6507  0.1605 -0.8141
 1162SOL     OW15118   3.542   1.868   8.660  0.0461 -0.0963 -0.2857
 1162SOL    HW115119   3.627   1.837   8.628  1.1363  0.7743  1.7889
 1162SOL    HW215120   3.576   1.907   8.741  1.5698 -0.3433 -0.7998
 1163SOL     OW15121   1.368   3.509   7.940 -1.3522 -0.2819 -0.0418
 1163SOL    HW115122   1.352   3.588   7.889  1.1033  1.1234  1.3310
 1163SOL    HW215123   1.443   3.542   7.990 -1.2035 -0.7882  0.0702
 1164SOL     OW15124   4.697   2.578   8.400  0.2226 -0.6182  0.4527
 1164SOL    HW115125   0.028   2.640   8.410  0.1922 -0.9029  2.5564
 1164SOL    HW215126   4.692   2.546   8.490 -0.1414 -1.0959  0.2642
 1165SOL     OW15127   0.059   0.123   4.877  0.0485 -0.2976  0.2986
 1165SOL    HW115128   0.146   0.159   4.861  0.2222 -0.8335  0.0530
 1165SOL    HW215129   0.006   0.202   4.865 -1.7029 -1.1304  2.4987
 1166SOL     OW15130   4.512   1.047  11.871 -0.4148  0.0112 -0.1006
 1166SOL    HW115131   4.491   1.033  11.779 -2.8401 -1.9159  0.7192
 1166SOL    HW215132   4.462   1.127  11.885  1.8409  0.7922  3.3962
 1167SOL     OW15133   2.139   4.389   2.202  0.3564  0.0379 -0.4138
 1167SOL    HW115134   2.156   4.362   2.111  1.1734 -0.0053 -0.2536
 1167SOL    HW215135   2.197   4.466   2.208  0.0681  0.2997 -0.9574
 1168SOL     OW15136   1.994   0.167  13.097 -0.0060 -0.0889 -0.1608
 1168SOL    HW115137   1.902   0.194  13.098 -0.1910 -0.6805 -1.3572
 1168SOL    HW215138   2.026   0.223  13.168 -1.0191  0.1488  0.1138
 1169SOL     OW15139   1.420   2.527   5.462  0.7317  0.2567  0.0592
 1169SOL    HW115140   1.414   2.442   5.419  0.1574 -0.4554  1.5346
 1169SOL    HW215141   1.515   2.536   5.465  0.6768  0.8797 -0.1206
 1170SOL     OW15142   2.831   2.636   4.626  0.1331  0.0649 -0.5108
 1170SOL    HW115143   2.808   2.577   4.698  2.8322 -0.3360  0.0101
 1170SOL    HW215144   2.780   2.589   4.560 -1.3240 -0.1574  0.7554
 1171SOL     OW15145   1.500   1.125  14.990  0.3169 -0.3340 -0.3751
 1171SOL    HW115146   1.541   1.149  14.907  1.0502  0.6247  0.2618
 1171SOL    HW215147   1.580   1.121  15.042 -0.8944  2.8682  1.7322
 1172SOL     OW15148   3.983   0.465   2.669 -0.6341  0.4692  0.1381
 1172SOL    HW115149   3.906   0.522   2.663 -0.0210  1.3195  0.5138
 1172SOL    HW215150   4.054   0.520   2.636 -0.5113  0.4410  0.3580
 1173SOL     OW15151   1.301   2.858   5.085 -0.6305  0.1634 -0.2121
 1173SOL    HW115152   1.397   2.863   5.086 -0.5980 -0.4403 -1.0561
 1173SOL    HW215153   1.279   2.820   5.001 -0.3168  1.0074 -0.6765
 1174SOL     OW15154   0.716   1.654  11.063 -0.0829 -0.2058 -0.1123
 1174SOL    HW115155   0.765   1.722  11.109 -1.4950  0.0822  0.9526
 1174SOL    HW215156   0.754   1.579  11.108  0.8922 -1.6596 -3.3264
 1175SOL     OW15157   4.382   1.393   8.396 -0.1150  0.2466 -0.4146
 1175SOL    HW115158   4.400   1.482   8.427 -0.0279  0.7744 -1.9962
 1175SOL    HW215159   4.318   1.355   8.457  0.4576 -1.6614 -1.0460
 1176SOL     OW15160   1.163   2.142   8.107  0.0917 -0.7412 -0.2511
 1176SOL    HW115161   1.139   2.193   8.184 -1.5180 -1.2584 -0.3958
 1176SOL    HW215162   1.089   2.159   8.048  0.2556  1.4172  0.1616
 1177SOL     OW15163   3.794   3.098   6.950  0.0050  0.0700 -0.1087
 1177SOL    HW115164   3.779   3.095   7.044  0.8869 -0.8153 -0.0069
 1177SOL    HW215165   3.876   3.147   6.947 -0.5065  0.8711 -1.4087
 1178SOL     OW15166   3.913   3.096   2.102  0.0627 -0.1602 -0.2799
 1178SOL    HW115167   3.908   3.044   2.022  1.4697  0.2186 -0.6137
 1178SOL    HW215168   3.844   3.160   2.086  0.5324  0.4821  0.2760
 1179SOL     OW15169   0.019   0.322   1.863  0.1619 -0.4555 -0.6940
 1179SOL    HW115170   0.062   0.237   1.857 -0.5924 -0.9705  1.1406
 1179SOL    HW215171   0.081   0.379   1.818 -0.4863 -1.0708 -2.3602
 1180SOL     OW15172   1.861   2.652   6.867 -0.2019 -0.0107  0.3858
 1180SOL    HW115173   1.838   2.608   6.785 -0.5291  0.6462  0.1196
 1180SOL    HW215174   1.924   2.713   6.829  0.1255 -0.8459 -0.4007
 1181SOL     OW15175   4.332   4.565   4.128  0.3511  0.2645 -0.0380
 1181SOL    HW115176   4.240   4.567   4.100  0.6968  0.7979 -1.1293
 1181SOL    HW215177   4.353   4.482   4.085 -0.2823  0.4761 -0.7601
 1182SOL     OW15178   1.413   2.070   1.104 -0.0300 -0.1015 -0.3761
 1182SOL    HW115179   1.343   2.090   1.166 -0.4254  0.0576 -0.8757
 1182SOL    HW215180   1.375   1.995   1.059 -0.2775 -0.1616 -0.0735
 1183SOL     OW15181   1.352   4.270   6.451  0.5684 -0.3752  0.5438
 1183SOL    HW115182   1.349   4.290   6.545 -0.2373  0.5300  0.3162
 1183SOL    HW215183   1.417   4.199   6.452  2.0541  0.9842  0.3204
 1184SOL     OW15184   3.163   3.345   6.628 -0.3459  0.0073 -0.1456
 1184SOL    HW115185   3.184   3.257   6.658  0.8279  0.2359 -0.2806
 1184SOL    HW215186   3.164   3.397   6.709  0.4706 -1.4721  0.7839
 1185SOL     OW15187   2.187   4.064   2.820 -0.3932  0.0819  0.0547
 1185SOL    HW115188   2.148   4.082   2.905  0.7532  3.4771 -0.1420
 1185SOL    HW215189   2.275   4.088   2.847 -0.4892  0.3154  0.1599
 1186SOL     OW15190   1.521   0.688   0.800 -0.0250 -0.5482  0.0818
 1186SOL    HW115191   1.440   0.676   0.750  0.3410 -1.1447 -0.3662
 1186SOL    HW215192   1.483   0.698   0.887 -0.4179  2.0956 -0.3912
 1187SOL     OW15193   3.033   4.514   5.881  0.2908 -0.4307 -0.0150
 1187SOL    HW115194   2.990   4.519   5.795 -1.4791  2.0395  1.0304
 1187SOL    HW215195   2.987   4.578   5.936 -0.5785 -2.4147  1.5692
 1188SOL     OW15196   4.247   1.780   1.976 -0.6167  0.0149 -0.0963
 1188SOL    HW115197   4.257   1.808   2.067 -1.2253  0.0930 -0.0561
 1188SOL    HW215198   4.262   1.686   1.985  2.0872  0.5876  1.3004
 1189SOL     OW15199   0.883   3.010  11.975 -0.1465  0.0873  0.3532
 1189SOL    HW115200   0.886   3.066  11.897 -0.9212 -1.7251 -0.9677
 1189SOL    HW215201   0.921   3.074  12.036 -0.2962 -0.4981  1.0551
 1190SOL     OW15202   2.434   2.433   4.439 -0.4664  0.3047  0.1563
 1190SOL    HW115203   2.476   2.347   4.436 -0.5570  0.2680  0.0044
 1190SOL    HW215204   2.351   2.415   4.483 -1.1803 -0.2401 -1.4153
 1191SOL     OW15205   1.821   3.647   7.404  0.0491 -0.3768  0.2218
 1191SOL    HW115206   1.880   3.723   7.413  1.3527 -1.1588 -1.7507
 1191SOL    HW215207   1.793   3.629   7.494  0.9987 -0.9700  0.3979
 1192SOL     OW15208   4.416   3.075   4.475  0.3531 -0.1649  0.1892
 1192SOL    HW115209   4.374   3.153   4.512  0.2127  1.0426 -2.5145
 1192SOL    HW215210   4.343   3.013   4.474 -0.1002  0.3828 -1.0466
 1193SOL     OW15211   1.045   4.034   5.530 -0.1164  0.1002  0.1686
 1193SOL    HW115212   0.974   3.988   5.485  0.0273 -1.7840  1.8482
 1193SOL    HW215213   1.066   3.965   5.593  2.5991 -0.0275 -0.8848
 1194SOL     OW15214   2.084   2.675   4.472  0.5534 -0.2626  0.0853
 1194SOL    HW115215   2.095   2.737   4.400  0.2244  0.1165  0.3607
 1194SOL    HW215216   2.142   2.704   4.543 -0.3234 -2.6330  1.7602
 1195SOL     OW15217   4.633   2.571  12.625  0.2173  0.4584 -0.3223
 1195SOL    HW115218   4.677   2.582  12.541  0.3972 -0.4505 -0.3478
 1195SOL    HW215219   4.682   2.613  12.695  0.3169 -1.5330  0.8118
 1196SOL     OW15220   1.464   0.082   5.792  0.0601 -0.2198 -0.4906
 1196SOL    HW115221   1.494   0.013   5.850  0.9177  0.6958  0.1634
 1196SOL    HW215222   1.510   0.050   5.714 -0.3719 -1.2756 -0.3092
 1197SOL     OW15223   3.967   4.446  11.974 -0.4907 -0.0959  0.3378
 1197SOL    HW115224   3.958   4.540  11.960 -0.9641  0.2140  2.5958
 1197SOL    HW215225   3.901   4.405  11.918  0.1894  0.4620 -0.8713
 1198SOL     OW15226   0.549   4.480   2.960 -0.4936  0.3087  1.3229
 1198SOL    HW115227   0.588   4.553   2.912 -0.4315 -1.9103 -2.0700
 1198SOL    HW215228   0.481   4.528   3.006 -1.0459  3.6619 -2.9823
 1199SOL     OW15229   0.055   3.312  13.723  0.4702 -0.3833  0.3171
 1199SOL    HW115230   4.714   3.282  13.763 -0.6185  0.3024 -1.3696
 1199SOL    HW215231   0.074   3.231  13.675 -2.1041 -0.6230 -0.2693
 1200SOL     OW15232   0.735   0.027  11.872 -0.0890 -0.1413 -0.6212
 1200SOL    HW115233   0.795   0.101  11.858 -0.8802  0.1015 -2.7268
 1200SOL    HW215234   0.783   4.709  11.931 -0.9896 -0.1910  0.0594
 1201SOL     OW15235   2.492   0.430   4.690  0.2690  0.0410 -0.1870
 1201SOL    HW115236   2.431   0.501   4.670  0.3034  0.1905  0.2226
 1201SOL    HW215237   2.574   0.454   4.646  0.7270 -2.1251 -0.5040
 1202SOL     OW15238   1.706   0.181   2.949  0.2526  0.3062 -0.4369
 1202SOL    HW115239   1.724   0.125   2.874  0.0489  2.5031 -2.1221
 1202SOL    HW215240   1.648   0.128   3.004  1.7081  0.7818  1.5979
 1203SOL     OW15241   4.228   0.152   8.806 -0.1232  0.7242 -0.3569
 1203SOL    HW115242   4.165   0.222   8.789 -0.9197  0.2239  0.5597
 1203SOL    HW215243   4.288   0.194   8.867  0.0115 -0.5519  0.3924
 1204SOL     OW15244   3.060   3.732   4.939  0.1842  0.2843  0.2834
 1204SOL    HW115245   3.035   3.720   5.031  0.6034 -2.9656 -0.0240
 1204SOL    HW215246   2.983   3.771   4.898  1.3232  2.3095  0.0836
 1205SOL     OW15247   0.252   3.252   3.518 -0.7864  0.6190 -0.5192
 1205SOL    HW115248   0.185   3.184   3.514  0.4054 -0.4818 -1.9859
 1205SOL    HW215249   0.329   3.204   3.549 -0.6648 -0.2017 -2.0814
 1206SOL     OW15250   4.181   4.388   2.720 -0.7517 -0.1248 -0.4197
 1206SOL    HW115251   4.185   4.346   2.634  0.7256 -0.4920 -0.1678
 1206SOL    HW215252   4.228   4.470   2.706 -2.1853  0.8492  0.4914
 1207SOL     OW15253   3.293   0.089   6.372 -0.3022 -0.3660  0.3290
 1207SOL    HW115254   3.327   0.145   6.302  0.4949 -0.3261  0.7484
 1207SOL    HW215255   3.276   0.008   6.323 -1.1184 -0.2108  0.3648
 1208SOL     OW15256   0.987   3.280   5.800  0.0964  0.2066 -0.2913
 1208SOL    HW115257   0.972   3.330   5.720  1.6440  2.4536  0.8117
 1208SOL    HW215258   0.920   3.211   5.791  0.2057  0.0888 -0.1958
 1209SOL     OW15259   1.730   4.401   4.421 -0.1340  0.3365 -0.2709
 1209SOL    HW115260   1.737   4.306   4.409 -0.4656  0.0431  1.8736
 1209SOL    HW215261   1.757   4.407   4.512  0.9251 -0.5135 -0.5196
 1210SOL     OW15262   4.728   3.934  11.660  0.3300  0.3264  0.4954
 1210SOL    HW115263   4.654   3.981  11.699 -0.5188 -0.3572 -0.2905
 1210SOL    HW215264   4.724   3.983  11.577  0.7771 -0.2344  0.1459
 1211SOL     OW15265   1.550   2.111   5.729 -0.3333 -0.0715  0.2933
 1211SOL    HW115266   1.545   2.088   5.636  0.5419 -0.0900  0.2430
 1211SOL    HW215267   1.620   2.053   5.761 -1.2320 -0.1271  2.1655
 1212SOL     OW15268   4.544   0.344   3.355  0.4666  0.4906 -0.1175
 1212SOL    HW115269   4.574   0.408   3.290 -2.1890  0.7325 -1.0868
 1212SOL    HW215270   4.605   0.363   3.427  1.7544  0.7165 -1.2509
 1213SOL     OW15271   4.641   1.956   8.826  0.1803  0.0372 -0.4132
 1213SOL    HW115272   4.598   2.040   8.836 -0.5372 -0.1243 -2.0323
 1213SOL    HW215273   4.628   1.922   8.914 -1.2908 -0.6503 -0.8800
 1214SOL     OW15274   1.114   3.815   7.183 -0.4637  0.3128  0.2706
 1214SOL    HW115275   1.044   3.878   7.166  0.3008  0.9509 -0.5641
 1214SOL    HW215276   1.158   3.833   7.100 -1.3511  1.7614  0.1143
 1215SOL     OW15277   3.873   1.790  16.624  0.2536 -0.2823  0.1901
 1215SOL    HW115278   3.925   1.863  16.658 -1.1937  1.3041 -0.9973
 1215SOL    HW215279   3.787   1.832  16.612 -0.8426 -2.5167  0.3007
 1216SOL     OW15280   3.960   4.568   1.560  0.1383 -0.1207  0.2551
 1216SOL    HW115281   3.959   4.628   1.635  0.3201  0.2831 -0.0653
 1216SOL    HW215282   3.874   4.594   1.526  0.0442 -1.1404 -0.2610
 1217SOL     OW15283   0.713   0.653   4.597 -0.4744  0.0709 -0.1067
 1217SOL    HW115284   0.808   0.654   4.601 -0.5706 -2.7607  2.7520
 1217SOL    HW215285   0.701   0.705   4.517 -0.6295  1.3771  0.7692
 1218SOL     OW15286   1.641   4.529   2.775  0.2588  0.1244 -0.4388
 1218SOL    HW115287   1.651   4.443   2.735 -1.8585 -0.4666  0.3227
 1218SOL    HW215288   1.623   4.505   2.865 -0.8122  0.3149 -0.6102
 1219SOL     OW15289   4.500   2.195   8.915  0.0691  0.2857  0.1864
 1219SOL    HW115290   4.445   2.208   8.838 -1.1142  0.5769  1.0888
 1219SOL    HW215291   4.502   2.288   8.940 -0.8726  0.1099  0.8783
 1220SOL     OW15292   3.348   2.366   1.288  0.1797  0.0985  0.0391
 1220SOL    HW115293   3.425   2.405   1.330 -0.0570 -1.2595  1.7382
 1220SOL    HW215294   3.319   2.433   1.227 -2.7707 -1.4730 -0.2848
 1221SOL     OW15295   2.190   0.909  10.360 -0.5569  0.3180  0.3706
 1221SOL    HW115296   2.124   0.847  10.392 -1.5868  0.6591 -1.1024
 1221SOL    HW215297   2.173   0.903  10.266  0.7732  1.3237  0.0664
 1222SOL     OW15298   1.536   1.997   3.888  0.1968  0.0542 -0.5650
 1222SOL    HW115299   1.487   1.915   3.883 -0.1847  0.1649  1.3384
 1222SOL    HW215300   1.469   2.064   3.900 -1.7427 -2.1324  0.8371
 1223SOL     OW15301   2.963   1.876   2.872  0.4307 -0.1823  0.0604
 1223SOL    HW115302   2.981   1.908   2.960  0.4205  0.4846 -0.1805
 1223SOL    HW215303   2.872   1.901   2.852 -0.0808  0.3733  3.1514
 1224SOL     OW15304   2.189   1.403   2.068  0.1689  0.3298 -0.3272
 1224SOL    HW115305   2.279   1.438   2.069  0.4193 -0.3013 -0.7805
 1224SOL    HW215306   2.133   1.480   2.066 -0.5643 -0.1754  1.0218
 1225SOL     OW15307   3.189   2.831   2.735 -0.3359  0.0628  0.4476
 1225SOL    HW115308   3.240   2.897   2.689  3.2194 -1.0383  2.7907
 1225SOL    HW215309   3.251   2.796   2.799 -1.6946 -3.5603 -0.2070
 1226SOL     OW15310   0.724   0.171   4.680 -0.2242 -0.6572 -0.2542
 1226SOL    HW115311   0.689   0.260   4.685  1.1355 -0.0784 -1.0462
 1226SOL    HW215312   0.679   0.144   4.601  3.0759 -1.9555 -1.7127
 1227SOL     OW15313   1.479   1.753   4.180 -0.0768 -0.1092 -0.4278
 1227SOL    HW115314   1.535   1.818   4.138 -0.0101  0.6718  0.8732
 1227SOL    HW215315   1.428   1.799   4.247 -0.9307  1.4204 -2.1227
 1228SOL     OW15316   0.308   2.326  12.850  0.2278  0.6938  0.0607
 1228SOL    HW115317   0.281   2.238  12.877  1.1521 -0.6542 -3.4631
 1228SOL    HW215318   0.239   2.354  12.789  0.0252 -0.4509 -0.2256
 1229SOL     OW15319   4.598   2.740   8.081  0.2635 -0.0005  0.1095
 1229SOL    HW115320   4.552   2.678   8.138  0.4083 -1.3630 -1.2449
 1229SOL    HW215321   4.542   2.816   8.064  0.1194  0.2193  1.5640
 1230SOL     OW15322   0.996   0.738  14.281  0.2991  0.0367  0.9672
 1230SOL    HW115323   0.903   0.747  14.263  0.1620 -0.1968  1.5798
 1230SOL    HW215324   0.992   0.662  14.338  2.0807  0.9578  2.3318
 1231SOL     OW15325   0.750   3.363   0.841 -0.2622  0.1724 -0.5721
 1231SOL    HW115326   0.841   3.365   0.811  0.4490  0.3427  1.5799
 1231SOL    HW215327   0.757   3.344   0.935  0.3628 -1.4460 -0.9448
 1232SOL     OW15328   2.578   2.541   0.394  0.2761  0.3385 -0.2739
 1232SOL    HW115329   2.519   2.586   0.333 -0.1182  0.0908 -0.0782
 1232SOL    HW215330   2.658   2.590   0.379  0.0665  0.9663  0.6246
 1233SOL     OW15331   3.068   0.931  12.904  0.3637 -0.4137 -0.2450
 1233SOL    HW115332   3.034   0.901  12.988  0.9909  4.1455  1.6347
 1233SOL    HW215333   2.992   0.927  12.846 -0.1155  1.7683  0.2466
 1234SOL     OW15334   0.522   3.931  11.997 -0.0938  0.7015  0.5687
 1234SOL    HW115335   0.498   3.847  12.036  3.1064 -0.8087 -0.7099
 1234SOL    HW215336   0.608   3.949  12.036 -0.4964  1.4252  1.1242
 1235SOL     OW15337   2.763   2.747   0.498  0.0634 -0.4315  0.0716
 1235SOL    HW115338   2.706   2.776   0.570  0.1547 -3.1117  1.2098
 1235SOL    HW215339   2.758   2.828   0.446  3.6314 -1.0514 -1.2352
 1236SOL     OW15340   2.085   1.314   5.741 -0.3173 -0.0143  0.5181
 1236SOL    HW115341   2.136   1.263   5.677 -0.7372  0.5310 -0.2526
 1236SOL    HW215342   2.113   1.269   5.820 -0.3290  0.7661  0.9673
 1237SOL     OW15343   4.252   1.032  16.963  0.1817  0.0719 -0.0897
 1237SOL    HW115344   4.203   1.111  16.984 -0.1895 -0.1940  0.0428
 1237SOL    HW215345   4.206   0.995  16.887 -0.8768  0.6350  0.2857
 1238SOL     OW15346   1.604   2.853   3.281 -0.4025  0.1234  0.6516
 1238SOL    HW115347   1.653   2.773   3.265  1.8315  1.5542  0.3612
 1238SOL    HW215348   1.667   2.923   3.301  1.1004 -0.6168 -1.5253
 1239SOL     OW15349   3.526   1.978   3.145 -0.2188  0.2247 -0.1049
 1239SOL    HW115350   3.593   1.939   3.089 -1.4401 -0.6827 -0.9479
 1239SOL    HW215351   3.450   1.938   3.102  0.8298 -0.0158 -1.7564
 1240SOL     OW15352   1.211   2.456   2.854  0.7875 -0.2607  0.5236
 1240SOL    HW115353   1.168   2.372   2.870  1.7637 -1.4199 -2.9412
 1240SOL    HW215354   1.305   2.438   2.853  0.6431 -0.9589  0.0212
 1241SOL     OW15355   2.100   1.842   7.275  0.2388 -0.0422  0.0860
 1241SOL    HW115356   2.041   1.777   7.238  0.3168 -0.9506  1.5612
 1241SOL    HW215357   2.150   1.871   7.199  2.0878 -1.6110  0.7075
 1242SOL     OW15358   3.334   2.784   4.777 -0.0723 -0.2084 -0.4418
 1242SOL    HW115359   3.306   2.803   4.866  1.7478  1.6145 -0.2615
 1242SOL    HW215360   3.250   2.762   4.738 -0.2355 -1.1213  0.4341
 1243SOL     OW15361   2.906   2.288  15.846  0.0469 -0.2638  0.3620
 1243SOL    HW115362   2.850   2.339  15.904 -0.0244  0.2910 -0.1890
 1243SOL    HW215363   2.837   2.237  15.804 -1.3353  1.6445  0.3109
 1244SOL     OW15364   3.341   1.291   7.453 -0.8528  0.5046  0.3513
 1244SOL    HW115365   3.418   1.303   7.397 -0.1993 -0.1825  1.0904
 1244SOL    HW215366   3.286   1.248   7.388  1.1647 -2.1812  0.3704
 1245SOL     OW15367   4.116   1.424   7.516  0.7612  0.3850  0.1050
 1245SOL    HW115368   4.102   1.378   7.433  0.9982  1.7072 -0.6620
 1245SOL    HW215369   4.192   1.378   7.551  0.9065  1.8435  1.7011
 1246SOL     OW15370   0.836   2.505   2.691  0.3281  0.3074  0.3835
 1246SOL    HW115371   0.786   2.473   2.766 -0.3512 -1.0847 -0.6753
 1246SOL    HW215372   0.811   2.436   2.630 -0.2092 -0.9699  2.0384
 1247SOL     OW15373   1.435   1.920   6.392 -0.4921 -0.4137  0.0108
 1247SOL    HW115374   1.442   2.013   6.413  0.2927 -0.2316 -1.0571
 1247SOL    HW215375   1.392   1.933   6.308  0.3884  2.3871  0.0086
 1248SOL     OW15376   2.355   0.144   2.169  0.2128 -0.0851 -0.3705
 1248SOL    HW115377   2.271   0.188   2.155  0.2291  0.6633  1.9689
 1248SOL    HW215378   2.418   0.214   2.150  0.2863  0.3470  1.5263
 1249SOL     OW15379   3.981   0.005   5.438 -0.1566  0.2575  0.1558
 1249SOL    HW115380   3.954   0.097   5.445 -1.7490 -0.2690  0.8820
 1249SOL    HW215381   4.037   0.004   5.516  1.3511  2.8649 -0.8719
 1250SOL     OW15382   3.621   4.159  12.435 -0.4234 -0.2027  0.8181
 1250SOL    HW115383   3.588   4.070  12.421  3.2817 -1.5444  0.8015
 1250SOL    HW215384   3.689   4.150  12.501  1.1606 -1.7691 -1.0292
 1251SOL     OW15385   1.885   1.194   7.507  0.5732  0.3254  0.1352
 1251SOL    HW115386   1.856   1.182   7.598 -0.6183 -0.0191 -0.2887
 1251SOL    HW215387   1.843   1.280   7.500  1.0422  0.5602  0.1774
 1252SOL     OW15388   4.414   2.782   0.306 -0.1502 -0.1055  0.2420
 1252SOL    HW115389   4.445   2.800   0.217 -0.8912  0.8785  0.1691
 1252SOL    HW215390   4.482   2.718   0.324  3.0621  3.2248  0.0095
 1253SOL     OW15391   2.390   4.079  11.959 -0.0880  0.2370  0.3619
 1253SOL    HW115392   2.345   4.146  12.011  0.7421 -0.5043  2.0025
 1253SOL    HW215393   2.334   4.002  11.953 -0.3178  0.3287  1.3966
 1254SOL     OW15394   2.223   0.081   2.920 -0.1322  0.3992  0.2344
 1254SOL    HW115395   2.236   0.173   2.941 -0.4406  0.9526 -1.9832
 1254SOL    HW215396   2.130   0.086   2.901  0.2310  0.9940 -1.4385
 1255SOL     OW15397   1.332   1.068   8.596  0.1003  0.2772  0.3501
 1255SOL    HW115398   1.427   1.066   8.598  0.1561  1.6162 -0.9385
 1255SOL    HW215399   1.306   1.052   8.506  1.4651  1.5160 -0.2699
 1256SOL     OW15400   2.534   2.314   6.679  0.2158  0.3462 -0.5783
 1256SOL    HW115401   2.629   2.319   6.668 -0.1364 -0.6998 -4.0930
 1256SOL    HW215402   2.508   2.405   6.667 -0.7214 -0.0327 -1.5133
 1257SOL     OW15403   1.797   4.699  16.708 -0.0732  0.1904  0.3673
 1257SOL    HW115404   1.722   4.718  16.653  0.8490 -0.2255 -1.0143
 1257SOL    HW215405   1.817   0.045  16.744 -0.0037  0.4849 -0.3943
 1258SOL     OW15406   2.005   2.768  12.515 -0.4046 -0.3751 -0.3561
 1258SOL    HW115407   1.962   2.696  12.469  0.3539 -0.4485 -0.9401
 1258SOL    HW215408   1.935   2.831  12.498 -1.1973 -1.5694 -1.5184
 1259SOL     OW15409   2.420   0.204   1.708 -0.4278  0.5600 -0.4329
 1259SOL    HW115410   2.333   0.165   1.696  0.2175 -0.7716 -0.8389
 1259SOL    HW215411   2.451   0.230   1.621 -1.6782 -0.5468 -1.2174
 1260SOL     OW15412   1.716   0.072   4.059  0.2573  0.0604  0.1787
 1260SOL    HW115413   1.639   0.060   4.003 -1.2716 -0.4352  2.3507
 1260SOL    HW215414   1.699   4.734   4.111 -2.2114  1.2525  1.1778
 1261SOL     OW15415   0.478   3.629  15.435 -0.5254  0.1890  0.4660
 1261SOL    HW115416   0.461   3.718  15.467  1.5405 -0.1130  2.4203
 1261SOL    HW215417   0.468   3.628  15.340 -4.4515 -3.0692  0.8996
 1262SOL     OW15418   4.073   1.281  15.811  0.2040  0.4183  0.8208
 1262SOL    HW115419   4.135   1.352  15.798 -0.7066  0.7331 -1.8415
 1262SOL    HW215420   4.029   1.294  15.727  0.4209 -2.0697  0.3092
 1263SOL     OW15421   3.632   2.432   3.487  0.6065  0.1576 -0.1801
 1263SOL    HW115422   3.696   2.461   3.422 -0.7591  1.4167 -0.9744
 1263SOL    HW215423   3.603   2.509   3.536  1.6603  1.3523 -1.4299
 1264SOL     OW15424   0.669   1.429  12.307  0.2685  0.3479 -0.4435
 1264SOL    HW115425   0.762   1.449  12.296  0.4838  0.0944  0.9656
 1264SOL    HW215426   0.644   1.519  12.327  2.4296  0.7580  0.2745
 1265SOL     OW15427   2.347   3.013  13.105 -0.1425 -0.6867  0.0100
 1265SOL    HW115428   2.312   2.933  13.067 -0.4307  0.3252 -1.8754
 1265SOL    HW215429   2.433   2.982  13.132 -0.4148 -0.3019  1.3211
 1266SOL     OW15430   0.000   1.721   8.446 -0.3276  0.1302  0.4188
 1266SOL    HW115431   4.676   1.703   8.377 -1.2582 -0.2330  1.3964
 1266SOL    HW215432   0.011   1.629   8.471  0.0920  0.3096  0.9015
 1267SOL     OW15433   0.620   0.917   5.785  0.2494  0.8525 -0.1146
 1267SOL    HW115434   0.702   0.886   5.824 -1.5661 -1.6944  1.6847
 1267SOL    HW215435   0.645   0.995   5.735  1.6167  0.6594  0.2874
 1268SOL     OW15436   3.786   1.630   7.607  0.6641  0.4276  0.0699
 1268SOL    HW115437   3.837   1.646   7.527 -0.3718 -1.6848 -0.9996
 1268SOL    HW215438   3.700   1.665   7.581  1.5336  2.0505 -0.5831
 1269SOL     OW15439   0.959   3.279   4.996  0.1466 -0.2423 -0.9218
 1269SOL    HW115440   1.034   3.316   5.043 -1.6095  0.3652  1.4497
 1269SOL    HW215441   0.964   3.188   5.023  1.5323 -0.1770 -0.9948
 1270SOL     OW15442   3.300   4.450  11.779 -0.1176  0.6526 -0.3567
 1270SOL    HW115443   3.243   4.493  11.716  0.3353 -1.8457 -2.4814
 1270SOL    HW215444   3.238   4.401  11.833  0.8283  0.1403  0.2613
 1271SOL     OW15445   1.171   0.822   2.140  0.0723  0.1348 -0.0626
 1271SOL    HW115446   1.214   0.740   2.164  0.9226  0.9064  1.0456
 1271SOL    HW215447   1.200   0.839   2.050 -2.3968  1.3364 -0.6321
 1272SOL     OW15448   0.382   2.614   6.720 -0.1037 -0.0913  0.2648
 1272SOL    HW115449   0.297   2.653   6.740 -0.8421 -0.7074 -1.6482
 1272SOL    HW215450   0.405   2.556   6.792  0.9836  0.1610  0.1260
 1273SOL     OW15451   3.896   1.572   6.037  0.1980  0.6836  0.1826
 1273SOL    HW115452   3.869   1.650   6.087 -2.1648 -0.8449  1.2976
 1273SOL    HW215453   3.812   1.539   6.006  0.0031  0.3224  1.0988
 1274SOL     OW15454   3.217   4.294   7.749 -0.3529 -0.1592 -0.2239
 1274SOL    HW115455   3.219   4.198   7.755 -3.1364 -0.2627 -1.2577
 1274SOL    HW215456   3.279   4.321   7.817  2.8449 -0.3851 -3.0115
 1275SOL     OW15457   3.929   4.456   5.583  0.4706  0.0713 -0.1160
 1275SOL    HW115458   3.928   4.360   5.589 -2.2101  0.1352  0.4465
 1275SOL    HW215459   4.021   4.452   5.556 -0.3844 -4.7566 -2.4473
 1276SOL     OW15460   0.128   1.433   6.379 -0.5209  0.0438  0.0972
 1276SOL    HW115461   0.111   1.406   6.470  1.3433 -1.3613  0.0292
 1276SOL    HW215462   0.102   1.525   6.382  0.0554  0.1376  2.2996
 1277SOL     OW15463   2.654   0.426  12.156 -0.3584 -0.1530 -0.5629
 1277SOL    HW115464   2.659   0.476  12.237 -1.0370  1.7872 -1.7371
 1277SOL    HW215465   2.706   0.476  12.093  0.0583  1.0956  0.7722
 1278SOL     OW15466   2.885   2.588   2.063  0.6676  0.1918 -0.3361
 1278SOL    HW115467   2.808   2.535   2.045 -1.0120  2.3877  0.4274
 1278SOL    HW215468   2.957   2.529   2.041  1.1538  1.6513 -2.6038
 1279SOL     OW15469   1.868   2.256   7.561 -0.2662  0.6430  0.2106
 1279SOL    HW115470   1.778   2.282   7.544 -0.8337 -1.1092  0.6117
 1279SOL    HW215471   1.875   2.311   7.639 -3.5578  2.0791 -0.5161
 1280SOL     OW15472   0.282   3.410   0.606  0.0399 -0.3372 -0.6740
 1280SOL    HW115473   0.209   3.434   0.662  0.9600 -1.8875  1.2102
 1280SOL    HW215474   0.349   3.384   0.670  1.2743  0.9633 -1.4237
 1281SOL     OW15475   1.548   3.802   9.002 -0.4344 -0.0657 -0.3855
 1281SOL    HW115476   1.571   3.781   8.911  1.1133  0.7300 -0.1870
 1281SOL    HW215477   1.498   3.882   8.988 -1.2589 -0.4963  0.1615
 1282SOL     OW15478   2.103   2.227   0.815 -0.2700 -0.3312 -0.3087
 1282SOL    HW115479   2.085   2.306   0.866 -1.1482 -0.3178 -0.6367
 1282SOL    HW215480   2.117   2.160   0.882 -2.2305 -0.4338  0.0069
 1283SOL     OW15481   4.305   1.924  13.479  0.3290 -0.0129 -0.1987
 1283SOL    HW115482   4.231   1.973  13.513  1.0463  0.3561  0.8222
 1283SOL    HW215483   4.274   1.897  13.392  1.1437  0.2794 -0.5760
 1284SOL     OW15484   1.220   1.394   3.877  0.1949  0.1326  0.5656
 1284SOL    HW115485   1.275   1.471   3.863  0.3905  0.1933  1.6403
 1284SOL    HW215486   1.137   1.420   3.837  0.1111 -0.2618  0.4845
 1285SOL     OW15487   3.517   0.679   9.319  0.3860 -0.7935 -0.1054
 1285SOL    HW115488   3.606   0.707   9.338 -0.4926  1.3587  0.9114
 1285SOL    HW215489   3.494   0.635   9.400 -1.8573  0.8463  0.1454
 1286SOL     OW15490   1.819   4.083   3.067 -0.2889  0.6879  0.3038
 1286SOL    HW115491   1.837   4.111   3.156  2.6876 -1.8242  0.5127
 1286SOL    HW215492   1.818   3.988   3.081 -0.3539  0.5739 -0.4460
 1287SOL     OW15493   0.126   3.981   0.897  0.5106  0.5234 -0.7473
 1287SOL    HW115494   0.078   4.054   0.857  0.8302 -0.3101 -2.6239
 1287SOL    HW215495   0.188   4.036   0.945  2.5511 -0.9408 -1.7440
 1288SOL     OW15496   2.466   2.894   7.827  0.0710  0.0138 -0.3145
 1288SOL    HW115497   2.528   2.961   7.797  0.9041 -0.1833  0.9509
 1288SOL    HW215498   2.390   2.949   7.809 -0.1743 -0.3595 -0.4095
 1289SOL     OW15499   0.857   2.737   0.688  0.3452 -0.1500  0.1481
 1289SOL    HW115500   0.779   2.780   0.722  0.8662  1.1347 -0.2805
 1289SOL    HW215501   0.881   2.790   0.612 -0.4541  0.9306  0.6710
 1290SOL     OW15502   3.523   2.082   5.907 -0.5405  0.0704 -0.0438
 1290SOL    HW115503   3.472   2.102   5.986 -1.7813  0.5498 -0.9573
 1290SOL    HW215504   3.498   2.147   5.840 -0.0377  0.2647 -0.0409
 1291SOL     OW15505   0.122   0.442  17.400 -0.1277 -0.5555  0.0829
 1291SOL    HW115506   0.050   0.468  17.458 -1.0678 -0.4464 -1.1153
 1291SOL    HW215507   0.167   0.384  17.461  0.2067 -1.1442 -0.7358
 1292SOL     OW15508   2.488   1.217  14.171  0.1804 -0.1581 -0.0118
 1292SOL    HW115509   2.407   1.262  14.147  0.0014  0.8694  2.4396
 1292SOL    HW215510   2.513   1.177  14.088 -0.2803  0.5704 -0.4902
 1293SOL     OW15511   1.714   2.740   8.918 -0.1798  0.4336  0.3243
 1293SOL    HW115512   1.639   2.785   8.955 -1.1357  0.2694 -1.4305
 1293SOL    HW215513   1.782   2.742   8.985  2.6395 -0.9232 -2.4497
 1294SOL     OW15514   2.613   4.456   2.838 -0.0946  0.1962  0.1967
 1294SOL    HW115515   2.566   4.467   2.756  0.5463  1.5660  0.0058
 1294SOL    HW215516   2.543   4.475   2.900  0.2436  0.9260  0.3504
 1295SOL     OW15517   2.042   2.295   8.213 -0.3260 -0.1782  0.1429
 1295SOL    HW115518   1.955   2.320   8.244 -0.0050  1.1366 -0.0247
 1295SOL    HW215519   2.099   2.353   8.263 -1.0829  0.5804  0.1350
 1296SOL     OW15520   4.144   0.389   7.837  0.4074  0.2271  0.7724
 1296SOL    HW115521   4.084   0.452   7.877 -0.4599  0.8097 -1.4173
 1296SOL    HW215522   4.108   0.310   7.876 -0.5433 -0.6393 -1.8452
 1297SOL     OW15523   3.170   1.606   4.255  0.2640  0.0906  0.2979
 1297SOL    HW115524   3.144   1.645   4.338 -2.3555 -1.1560  0.0492
 1297SOL    HW215525   3.196   1.520   4.289  0.2319 -0.2676 -0.5634
 1298SOL     OW15526   3.342   2.887   1.526 -0.5747 -0.1272 -0.4010
 1298SOL    HW115527   3.300   2.910   1.443  0.0233 -2.5265 -1.3770
 1298SOL    HW215528   3.432   2.917   1.512  0.4407 -1.7239  2.6590
 1299SOL     OW15529   3.077   0.307   2.821  0.1766  0.1919 -0.4607
 1299SOL    HW115530   2.985   0.331   2.828 -0.4250 -1.4726 -2.8529
 1299SOL    HW215531   3.061   0.213   2.830  1.5609 -0.0532 -0.5382
 1300SOL     OW15532   1.903   2.865   4.256  0.0176 -0.2170 -0.3848
 1300SOL    HW115533   1.857   2.789   4.219  4.1466 -3.3965  1.0552
 1300SOL    HW215534   1.984   2.859   4.206  0.1237 -0.0152 -0.2372
 1301SOL     OW15535   3.119   4.426   8.014 -0.6518 -0.3534  0.2027
 1301SOL    HW115536   3.033   4.408   8.052 -0.1348  1.7584  2.3703
 1301SOL    HW215537   3.106   4.514   7.978  2.5933 -0.1244 -0.3869
 1302SOL     OW15538   3.761   2.149   2.100 -0.3085  0.2822 -0.0239
 1302SOL    HW115539   3.687   2.210   2.101  0.0027  0.6648 -0.2682
 1302SOL    HW215540   3.708   2.070   2.095  0.8903 -0.3618 -2.4771
 1303SOL     OW15541   3.344   1.827  13.101 -0.1445 -0.6192 -0.5024
 1303SOL    HW115542   3.361   1.896  13.165 -3.4647 -0.2621 -0.0194
 1303SOL    HW215543   3.311   1.754  13.154  1.1804 -2.2785 -1.9383
 1304SOL     OW15544   4.525   3.711   8.574 -0.0905 -0.1542  0.1472
 1304SOL    HW115545   4.500   3.728   8.664  3.4123  0.4748  1.0069
 1304SOL    HW215546   4.526   3.615   8.578 -0.5409 -0.1958 -0.7315
 1305SOL     OW15547   2.080   2.020   3.302  0.6390  0.0387  0.1973
 1305SOL    HW115548   2.032   1.963   3.242  0.2972  0.6898 -0.1425
 1305SOL    HW215549   2.134   2.072   3.243 -1.1582  2.0114  0.2711
 1306SOL     OW15550   3.694   4.562   6.069 -0.0173  0.4374  0.2716
 1306SOL    HW115551   3.761   4.613   6.116  3.2823 -1.7489 -2.0361
 1306SOL    HW215552   3.648   4.625   6.015  0.0608 -0.1978 -0.5255
 1307SOL     OW15553   1.360   0.197   5.463 -0.0602 -0.4097  0.3580
 1307SOL    HW115554   1.276   0.213   5.421  0.7674  2.1438 -0.3479
 1307SOL    HW215555   1.326   0.169   5.548  0.1829 -2.3158 -0.1822
 1308SOL     OW15556   1.308   4.023   3.978 -0.4395  0.0498  0.0058
 1308SOL    HW115557   1.293   3.946   4.033  0.4914 -0.5729 -0.6126
 1308SOL    HW215558   1.356   3.978   3.908  2.6427 -0.4894  2.4619
 1309SOL     OW15559   3.951   0.948   9.811  0.3630  0.6861 -0.2856
 1309SOL    HW115560   4.019   0.957   9.744 -1.2009  3.9920 -1.4148
 1309SOL    HW215561   4.000   0.962   9.892 -0.6503 -1.6641  0.7543
 1310SOL     OW15562   3.310   4.307   9.822  0.4277 -0.3655 -0.0598
 1310SOL    HW115563   3.272   4.266   9.744  0.0204  0.4297 -0.2732
 1310SOL    HW215564   3.309   4.221   9.865 -1.4601 -0.5736 -0.5423
 1311SOL     OW15565   2.083   2.150  15.070  0.4450  0.0799 -0.7369
 1311SOL    HW115566   2.040   2.221  15.117  1.0553  0.5035 -0.8135
 1311SOL    HW215567   2.045   2.161  14.983 -0.2272 -1.0437 -0.5866
 1312SOL     OW15568   4.590   1.919  13.287 -0.2042  0.1933  0.1223
 1312SOL    HW115569   4.604   2.009  13.258  0.3031 -0.1811 -0.8150
 1312SOL    HW215570   4.673   1.902  13.333  0.1293  0.7217 -0.2873
 1313SOL     OW15571   3.425   0.684   1.542  0.1874  0.0508  0.2808
 1313SOL    HW115572   3.415   0.608   1.600  1.4436  0.2006  0.7005
 1313SOL    HW215573   3.371   0.749   1.586  0.2735  0.3537 -0.0617
 1314SOL     OW15574   2.332   0.133  17.707  0.2183 -0.6364  0.2965
 1314SOL    HW115575   2.298   0.211  17.662  0.6528 -1.4498 -1.4686
 1314SOL    HW215576   2.373   0.173   0.024 -0.4772  0.1560  0.2604
 1315SOL     OW15577   1.323   3.786   3.832  0.1381 -0.8872  0.0148
 1315SOL    HW115578   1.236   3.784   3.792 -0.9876  2.0009  2.2829
 1315SOL    HW215579   1.379   3.796   3.756  0.6339 -1.1607  0.3435
 1316SOL     OW15580   1.859   1.622   7.221 -0.5016  0.1293  0.6270
 1316SOL    HW115581   1.770   1.648   7.196  0.1934  0.5600 -1.3344
 1316SOL    HW215582   1.829   1.555   7.283 -1.2030 -0.8418 -0.7669
 1317SOL     OW15583   4.512   0.296   5.717  0.0629  0.2123  0.1500
 1317SOL    HW115584   4.537   0.261   5.803 -0.5535  0.2001  0.3242
 1317SOL    HW215585   4.517   0.390   5.731  2.1328  0.2276 -0.7636
 1318SOL     OW15586   0.112   0.618   4.030 -0.0206  0.0454  0.4562
 1318SOL    HW115587   0.106   0.713   4.033  1.4508  0.1815 -1.2081
 1318SOL    HW215588   0.025   0.593   3.999 -0.4159 -0.0648  1.6558
 1319SOL     OW15589   3.017   4.674  10.406 -0.7027 -0.2405  0.1114
 1319SOL    HW115590   2.996   4.582  10.388 -0.5850  0.1456 -1.9029
 1319SOL    HW215591   3.051   4.663  10.495  2.8724  3.7876 -0.7712
 1320SOL     OW15592   2.090   3.254  14.549 -0.4794  0.5646 -0.1813
 1320SOL    HW115593   2.014   3.305  14.521 -0.4947 -0.0089 -1.1685
 1320SOL    HW215594   2.046   3.185  14.598  1.4024 -0.6943 -0.2548
 1321SOL     OW15595   1.150   1.649  17.580 -0.0127  0.1007  0.0251
 1321SOL    HW115596   1.086   1.600  17.529  0.4010  0.1471 -0.5357
 1321SOL    HW215597   1.146   1.595  17.659 -0.1768 -0.1958 -0.1861
 1322SOL     OW15598   3.993   3.362   4.800 -0.2370 -0.2392  0.2149
 1322SOL    HW115599   4.063   3.427   4.785  0.0734 -0.7130 -0.3893
 1322SOL    HW215600   4.021   3.291   4.742 -1.8016 -0.6561 -0.0233
 1323SOL     OW15601   0.384   3.913   2.898 -0.7050  0.1577 -0.9082
 1323SOL    HW115602   0.343   3.882   2.979  2.9199 -0.7710  0.5583
 1323SOL    HW215603   0.414   4.002   2.916 -1.1837 -0.3450  2.4227
 1324SOL     OW15604   1.890   2.448   1.586  0.5431  0.6172 -0.0215
 1324SOL    HW115605   1.980   2.420   1.605  0.7432  1.3487  0.1162
 1324SOL    HW215606   1.914   2.539   1.570  0.6183  0.7075  0.6156
 1325SOL     OW15607   4.223   4.318   1.485 -0.9519  0.5729  0.2791
 1325SOL    HW115608   4.172   4.252   1.439  0.1571  0.2462 -0.4945
 1325SOL    HW215609   4.226   4.271   1.568  0.5043 -0.3545 -0.3065
 1326SOL     OW15610   4.522   3.953   2.151 -0.2299 -0.2194 -0.0396
 1326SOL    HW115611   4.522   4.011   2.228 -0.6124 -0.4401  0.1254
 1326SOL    HW215612   4.430   3.968   2.130  0.0700  0.6442 -0.7478
 1327SOL     OW15613   3.375   0.636   8.866 -0.3945 -0.0284 -0.2411
 1327SOL    HW115614   3.285   0.609   8.846 -0.6795  1.4043 -0.9222
 1327SOL    HW215615   3.383   0.590   8.949  0.2900  0.9338  0.2174
 1328SOL     OW15616   0.416   2.503   7.199 -0.5160 -0.1642 -0.3113
 1328SOL    HW115617   0.326   2.489   7.229 -0.0093  1.0566  1.8071
 1328SOL    HW215618   0.458   2.562   7.263 -1.2601  1.0308 -0.9193
 1329SOL     OW15619   2.233   1.429   4.086 -0.6256 -0.2151 -0.0303
 1329SOL    HW115620   2.185   1.347   4.098 -0.0631 -0.6849 -1.0444
 1329SOL    HW215621   2.280   1.406   4.006 -3.6573 -1.5905 -1.4230
 1330SOL     OW15622   0.984   2.587   9.070 -0.3427  0.1780 -0.1491
 1330SOL    HW115623   0.963   2.524   9.001  1.2665 -0.6346  0.1138
 1330SOL    HW215624   0.892   2.610   9.087 -0.4594  0.2029 -0.7870
 1331SOL     OW15625   2.567   2.473   5.994  0.2903  0.0806  0.1177
 1331SOL    HW115626   2.648   2.426   5.976 -0.3163  0.0909 -2.5992
 1331SOL    HW215627   2.525   2.425   6.066 -1.8128 -1.0491 -1.8696
 1332SOL     OW15628   4.185   0.792   9.255  0.0857  0.2460 -0.3392
 1332SOL    HW115629   4.094   0.812   9.277  1.4434  3.2168  2.5981
 1332SOL    HW215630   4.223   0.878   9.272 -0.6983  0.2170  1.6125
 1333SOL     OW15631   4.346   0.381   6.628  0.4758  0.0075  0.3437
 1333SOL    HW115632   4.281   0.431   6.579  3.7012  2.7799 -1.0847
 1333SOL    HW215633   4.403   0.449   6.665 -1.1491  1.1148  0.8191
 1334SOL     OW15634   0.663   1.382   1.560 -0.8143  0.0823  0.1629
 1334SOL    HW115635   0.583   1.361   1.608  0.1562  2.1877  2.7275
 1334SOL    HW215636   0.725   1.403   1.630 -1.6418 -3.3512  1.9191
 1335SOL     OW15637   4.075   2.124   8.902 -0.2696  0.1231  0.3548
 1335SOL    HW115638   3.995   2.175   8.907 -0.2930 -0.0081  1.2828
 1335SOL    HW215639   4.054   2.066   8.975  2.4592  0.6127  1.5285
 1336SOL     OW15640   3.316   2.573   1.505 -0.4026 -0.0786 -0.5879
 1336SOL    HW115641   3.405   2.545   1.526 -0.5655 -0.4903 -0.4281
 1336SOL    HW215642   3.327   2.663   1.475 -2.2815 -0.1918 -1.5965
 1337SOL     OW15643   2.895   0.116   9.469 -0.1516  0.2109 -0.0136
 1337SOL    HW115644   2.805   0.141   9.488 -0.1217  1.1775 -1.1321
 1337SOL    HW215645   2.902   0.036   9.521  1.8037  0.4832  0.1186
 1338SOL     OW15646   1.279   3.272   2.760  0.2799 -0.1265 -0.4015
 1338SOL    HW115647   1.225   3.351   2.752 -0.7338 -0.6900  1.0964
 1338SOL    HW215648   1.210   3.207   2.773 -0.2874  0.4718 -0.4192
 1339SOL     OW15649   3.786   2.630  10.603 -0.2950 -0.1951  0.8775
 1339SOL    HW115650   3.805   2.660  10.692  0.7899 -0.4187  0.7227
 1339SOL    HW215651   3.697   2.597  10.617 -0.9573  0.8418 -0.8041
 1340SOL     OW15652   2.676   3.568   0.809 -0.2323  0.0924  0.5419
 1340SOL    HW115653   2.620   3.510   0.757 -1.4040  2.3772 -0.7114
 1340SOL    HW215654   2.635   3.654   0.818  0.4461  0.5177 -0.4361
 1341SOL     OW15655   1.352   0.980   8.857 -0.1218 -0.2643  0.0656
 1341SOL    HW115656   1.350   1.029   8.775 -2.1352 -0.9651 -0.3178
 1341SOL    HW215657   1.267   0.936   8.854  0.3441 -1.0126 -1.7623
 1342SOL     OW15658   0.478   0.089   7.477  0.1994  0.1788  0.1929
 1342SOL    HW115659   0.416   0.122   7.413 -0.0693  2.9140  1.8743
 1342SOL    HW215660   0.421   0.045   7.541  0.6166 -0.7037 -0.0433
 1343SOL     OW15661   0.560   3.893  15.268 -0.0943 -0.2348 -0.3523
 1343SOL    HW115662   0.655   3.904  15.277 -0.4214  0.1355  2.9214
 1343SOL    HW215663   0.536   3.896  15.361  0.0694  0.5282 -0.3325
 1344SOL     OW15664   2.015   0.067   8.980 -0.0063  0.2626  0.1198
 1344SOL    HW115665   1.946   0.037   8.921  1.1644 -2.6892  0.2547
 1344SOL    HW215666   1.988   0.043   9.068 -1.1630 -1.2191 -0.6481
 1345SOL     OW15667   3.729   1.110   8.340 -1.0500 -0.3225  0.4813
 1345SOL    HW115668   3.818   1.078   8.324 -1.6459 -2.2106  0.9712
 1345SOL    HW215669   3.740   1.205   8.327  0.8725 -0.5939  0.0011
 1346SOL     OW15670   3.437   0.403   7.637 -0.3004 -0.2631 -0.2559
 1346SOL    HW115671   3.402   0.441   7.556  0.4414 -0.1463 -0.5175
 1346SOL    HW215672   3.504   0.339   7.612 -0.5468 -0.6118 -0.0182
 1347SOL     OW15673   2.891   0.344   0.696  0.0590  0.1666  0.3569
 1347SOL    HW115674   2.886   0.249   0.685  2.6277  0.0025  0.5932
 1347SOL    HW215675   2.873   0.361   0.604  0.4486 -2.0937 -0.1311
 1348SOL     OW15676   4.608   3.613   7.172 -0.1038  0.8158 -0.2698
 1348SOL    HW115677   4.675   3.561   7.217  0.0907  2.3351  1.1774
 1348SOL    HW215678   4.595   3.559   7.093 -2.2511  0.7176  0.1596
 1349SOL     OW15679   3.430   1.435   5.236 -0.3299  0.7246  0.1997
 1349SOL    HW115680   3.389   1.514   5.271 -0.6185  0.5013  0.3693
 1349SOL    HW215681   3.497   1.478   5.182 -0.1526 -0.9245 -0.9275
 1350SOL     OW15682   2.523   0.293  14.963 -0.4698 -0.3442  0.0408
 1350SOL    HW115683   2.483   0.288  14.876 -0.7130 -0.0513  0.1326
 1350SOL    HW215684   2.463   0.354  15.006  1.1163  0.8187  0.5908
 1351SOL     OW15685   3.187   4.034   4.808  0.1597 -0.3502 -0.4653
 1351SOL    HW115686   3.245   4.008   4.879  0.6848 -0.1445 -0.8191
 1351SOL    HW215687   3.204   3.965   4.744  0.6847  1.6530 -2.4739
 1352SOL     OW15688   0.044   4.706   3.281 -0.2151 -0.4169  0.3563
 1352SOL    HW115689   0.091   4.734   3.360 -0.6190  0.5555  0.2454
 1352SOL    HW215690   0.010   0.039   3.231  0.4113 -2.8406 -3.6424
 1353SOL     OW15691   0.704   4.129   4.502 -0.4185  0.5501  0.1957
 1353SOL    HW115692   0.652   4.059   4.540 -1.5147  1.6981  0.8287
 1353SOL    HW215693   0.768   4.094   4.441 -1.1341 -0.1108 -0.1641
 1354SOL     OW15694   1.750   0.276  13.101  0.1558 -0.1889  0.0321
 1354SOL    HW115695   1.674   0.274  13.160 -1.3017 -0.6944 -1.8813
 1354SOL    HW215696   1.741   0.364  13.065  2.8102 -0.2453 -0.8097
 1355SOL     OW15697   4.599   0.526   3.172  0.0078  0.1843  0.2998
 1355SOL    HW115698   4.692   0.531   3.194 -0.2851  1.9370  1.1149
 1355SOL    HW215699   4.601   0.559   3.082 -0.4054 -0.2488  0.1303
 1356SOL     OW15700   4.023   2.439   4.827  0.2337  0.2376  0.4163
 1356SOL    HW115701   3.975   2.496   4.887 -0.0263  0.1383  0.3029
 1356SOL    HW215702   4.029   2.491   4.746 -3.1944  0.3270  0.2181
 1357SOL     OW15703   3.841   1.661   5.546  0.2292 -0.4288  0.2400
 1357SOL    HW115704   3.752   1.691   5.565  0.3767 -0.0380  0.3034
 1357SOL    HW215705   3.863   1.636   5.635 -0.4308  0.0515  0.5418
 1358SOL     OW15706   1.079   4.152   3.628  0.2299 -0.1133  0.3359
 1358SOL    HW115707   1.010   4.215   3.606  0.6791  0.0831 -0.5139
 1358SOL    HW215708   1.024   4.089   3.674  0.0079  0.3156  0.6578
 1359SOL     OW15709   3.111   3.583  15.601  0.1184 -0.0965  0.4320
 1359SOL    HW115710   3.046   3.565  15.533 -0.3702 -0.3778  0.9713
 1359SOL    HW215711   3.060   3.645  15.654 -0.0794 -0.2519  0.4225
 1360SOL     OW15712   3.637   0.988   2.127  0.4950  0.5086  0.0003
 1360SOL    HW115713   3.600   1.066   2.086  1.7401 -0.2787 -2.6181
 1360SOL    HW215714   3.625   0.925   2.056  0.4261  1.1268 -0.5328
 1361SOL     OW15715   4.485   4.709  11.570  0.4278 -0.4428  0.0682
 1361SOL    HW115716   4.546   4.718  11.497 -1.4813  0.6182 -1.3741
 1361SOL    HW215717   4.401   0.007  11.544  0.8217  2.9943  3.9278
 1362SOL     OW15718   2.196   1.219   5.503  0.2368  0.1688 -0.2239
 1362SOL    HW115719   2.229   1.305   5.477  0.7109  0.8781  2.7399
 1362SOL    HW215720   2.276   1.167   5.499 -0.6973 -1.2276 -0.9147
 1363SOL     OW15721   4.628   3.475   2.904  0.4997 -0.6631  0.3930
 1363SOL    HW115722   4.654   3.457   2.813  0.0101 -1.3233  0.3859
 1363SOL    HW215723   4.680   3.412   2.954 -1.1373 -2.5896 -0.3175
 1364SOL     OW15724   2.099   1.717   4.476  0.5218 -0.1985 -0.0754
 1364SOL    HW115725   2.038   1.777   4.433 -0.7851 -1.3221  0.2053
 1364SOL    HW215726   2.079   1.641   4.421 -0.9547 -0.5618  0.9634
 1365SOL     OW15727   2.319   4.649   5.351  0.4622  0.0542 -0.4589
 1365SOL    HW115728   2.326   4.731   5.401  0.8930 -1.1209  1.4154
 1365SOL    HW215729   2.248   4.604   5.396  0.0343  1.5685  0.3822
 1366SOL     OW15730   4.026   1.021   2.250 -0.0216  0.3378 -0.5505
 1366SOL    HW115731   4.084   0.959   2.207 -1.0913 -1.1328  0.1444
 1366SOL    HW215732   4.082   1.098   2.236 -1.5224  1.3237 -1.1411
 1367SOL     OW15733   4.041   0.643   9.546  0.3788 -0.3988 -0.0601
 1367SOL    HW115734   4.125   0.682   9.570 -1.7135  3.9022  0.2686
 1367SOL    HW215735   4.046   0.559   9.591 -1.2166 -0.1292  0.6459
 1368SOL     OW15736   4.097   0.315   7.139  0.4454 -0.4398 -0.3792
 1368SOL    HW115737   4.027   0.376   7.165 -0.7730 -1.4669 -1.2435
 1368SOL    HW215738   4.077   0.301   7.046 -0.8395  0.9566 -0.3139
 1369SOL     OW15739   3.986   3.097  16.746 -0.2935 -0.5059 -0.4582
 1369SOL    HW115740   3.986   3.122  16.838  1.9261  0.1817 -0.6563
 1369SOL    HW215741   3.955   3.178  16.705  1.5219  1.3234  1.7525
 1370SOL     OW15742   1.617   3.658   7.632  0.8962  0.2572  0.2250
 1370SOL    HW115743   1.595   3.568   7.656  0.1550 -0.1006 -1.7565
 1370SOL    HW215744   1.660   3.695   7.709 -0.8926  1.1703  0.7932
 1371SOL     OW15745   2.388   4.663   8.675 -0.2290 -0.0066 -0.6812
 1371SOL    HW115746   2.328   4.734   8.700 -0.1349 -0.9761  2.2663
 1371SOL    HW215747   2.358   4.655   8.584  0.5248 -2.8945 -0.6566
 1372SOL     OW15748   1.879   3.067   7.299 -0.0364 -0.3531 -0.1400
 1372SOL    HW115749   1.954   3.071   7.241  1.4697  3.2058  2.0551
 1372SOL    HW215750   1.867   2.973   7.305 -0.7572 -0.2324  0.3810
 1373SOL     OW15751   2.798   4.226   2.869 -0.2635 -0.6216  0.4490
 1373SOL    HW115752   2.779   4.173   2.791 -3.0513  0.2564  0.5342
 1373SOL    HW215753   2.730   4.293   2.872  1.9552  1.7239 -1.8868
 1374SOL     OW15754   4.380   3.585   8.150  0.0564 -1.0366 -0.1320
 1374SOL    HW115755   4.426   3.523   8.207 -0.3523 -2.1417 -1.0082
 1374SOL    HW215756   4.453   3.641   8.124  0.1917 -0.9224  0.5038
 1375SOL     OW15757   2.168   2.709   7.498  0.1459  0.1065 -0.3762
 1375SOL    HW115758   2.128   2.688   7.582  0.8540  0.2001 -0.0106
 1375SOL    HW215759   2.219   2.786   7.524 -0.2686  0.5595 -0.9006
 1376SOL     OW15760   2.476   1.462   7.835 -0.3558  0.5419 -0.3176
 1376SOL    HW115761   2.497   1.427   7.748  0.1749  1.3778 -0.5222
 1376SOL    HW215762   2.506   1.553   7.835  0.5107  0.2567  0.1263
 1377SOL     OW15763   4.347   0.226  16.226 -0.1061 -0.2083 -0.4156
 1377SOL    HW115764   4.317   0.236  16.316 -0.1761  0.5482 -0.5265
 1377SOL    HW215765   4.289   0.158  16.190  1.6039 -1.4812 -0.7838
 1378SOL     OW15766   4.220   0.954   3.627 -0.4154 -0.4188 -0.6956
 1378SOL    HW115767   4.144   0.916   3.672 -0.4551 -0.6612 -0.9731
 1378SOL    HW215768   4.251   1.011   3.698  0.3221 -0.8928 -0.6334
 1379SOL     OW15769   2.446   2.618  13.251  0.7076  0.0268  0.3218
 1379SOL    HW115770   2.423   2.543  13.197  1.2237  0.1133 -0.0075
 1379SOL    HW215771   2.363   2.630  13.299  0.5906 -0.3855  0.2197
 1380SOL     OW15772   0.406   2.562   2.412 -0.4742 -0.0984  0.4705
 1380SOL    HW115773   0.339   2.552   2.479 -1.2322  1.0275 -0.1048
 1380SOL    HW215774   0.454   2.642   2.434 -0.9321  0.4407 -0.4554
 1381SOL     OW15775   1.937   2.994   8.999 -0.3524 -1.1058  0.7430
 1381SOL    HW115776   1.969   3.079   9.028  0.1886 -1.0836  0.0870
 1381SOL    HW215777   1.887   2.957   9.072 -0.5779  0.5034  1.3925
 1382SOL     OW15778   0.710   4.212   5.430 -0.5497  0.3465  0.4690
 1382SOL    HW115779   0.682   4.159   5.355 -3.1366  0.2044  1.5428
 1382SOL    HW215780   0.671   4.295   5.404  0.7378  0.7747 -0.1117
 1383SOL     OW15781   3.620   4.369  15.530 -0.3762  0.6233 -0.9070
 1383SOL    HW115782   3.585   4.298  15.477  0.7910  0.5368 -1.5468
 1383SOL    HW215783   3.709   4.335  15.539 -0.0478  2.0195  1.1288
 1384SOL     OW15784   0.439   3.109   5.342  0.0122  0.3983 -0.2911
 1384SOL    HW115785   0.366   3.078   5.396  0.6237 -0.3243  0.1181
 1384SOL    HW215786   0.404   3.101   5.253  0.5629 -0.0669 -0.4639
 1385SOL     OW15787   0.701   2.678   7.031 -0.0421 -0.0797  0.6249
 1385SOL    HW115788   0.751   2.640   6.959 -0.1069  0.4333  0.3069
 1385SOL    HW215789   0.742   2.648   7.112 -0.5849 -0.1507  0.8701
 1386SOL     OW15790   0.709   0.445   6.164 -0.2975 -0.5696  0.4089
 1386SOL    HW115791   0.729   0.430   6.071  2.3335  4.1010  0.2040
 1386SOL    HW215792   0.670   0.362   6.190  1.1472 -1.0825  0.9596
 1387SOL     OW15793   4.614   1.878   1.665  1.1331  0.0408 -0.5498
 1387SOL    HW115794   4.524   1.907   1.681  1.2510 -0.5634  1.1820
 1387SOL    HW215795   4.624   1.810   1.732 -0.3428 -0.1239 -0.5048
 1388SOL     OW15796   2.820   3.939   7.222 -0.7177  0.4087  0.1719
 1388SOL    HW115797   2.901   3.892   7.200 -2.3900 -1.7482 -1.3328
 1388SOL    HW215798   2.769   3.879   7.277 -0.7697  0.9052  0.6668
 1389SOL     OW15799   2.334   4.661   7.285  0.2202 -0.7795 -0.4448
 1389SOL    HW115800   2.257   4.680   7.339  0.6101  2.6192 -1.1034
 1389SOL    HW215801   2.397   4.651   7.357  1.4190  2.0487 -1.0756
 1390SOL     OW15802   1.247   2.938  14.218  0.1969  0.2041  0.4783
 1390SOL    HW115803   1.247   2.939  14.122  1.3022  0.1997  0.4782
 1390SOL    HW215804   1.282   2.851  14.235  2.1648  1.4328  2.7150
 1391SOL     OW15805   1.876   1.990   4.628  0.1281  0.5618  0.2078
 1391SOL    HW115806   1.851   1.919   4.687  0.5020 -0.1383 -0.4795
 1391SOL    HW215807   1.805   2.054   4.639  1.6050  2.2283  0.1491
 1392SOL     OW15808   3.605   4.044   9.028 -0.1363 -0.4353 -0.3754
 1392SOL    HW115809   3.646   3.958   9.038 -0.0164 -0.4275 -0.7776
 1392SOL    HW215810   3.515   4.020   9.048 -0.2689 -1.9370 -2.7523
 1393SOL     OW15811   4.312   1.049   5.432  0.0025 -0.3665 -0.0384
 1393SOL    HW115812   4.284   0.960   5.455 -0.4821 -0.6048 -1.5416
 1393SOL    HW215813   4.302   1.095   5.515  1.5091  0.0365 -0.0765
 1394SOL     OW15814   4.672   1.438   1.850  0.5104 -0.0661 -0.2080
 1394SOL    HW115815   4.722   1.373   1.901  0.9972  1.7027  1.5786
 1394SOL    HW215816   4.603   1.383   1.814 -1.1856  0.4472  2.2719
 1395SOL     OW15817   3.026   1.720   4.062  0.3942  0.2346 -0.0659
 1395SOL    HW115818   3.072   1.803   4.074  1.2943 -0.3652  0.6027
 1395SOL    HW215819   3.068   1.665   4.128 -0.1725  0.9226  0.8601
 1396SOL     OW15820   1.383   0.268   4.323 -0.2015  0.2880 -0.3626
 1396SOL    HW115821   1.428   0.300   4.245 -1.7649  3.9525  0.2312
 1396SOL    HW215822   1.294   0.300   4.316 -0.6651 -0.7719  0.5957
 1397SOL     OW15823   0.088   0.371   3.772 -0.5761 -0.3644 -0.1262
 1397SOL    HW115824   0.000   0.376   3.810 -0.5775  2.3595 -0.4961
 1397SOL    HW215825   0.132   0.307   3.828 -2.4587 -0.0861  1.6856
 1398SOL     OW15826   0.501   3.021   7.632 -0.4569 -0.4067 -0.1445
 1398SOL    HW115827   0.594   3.043   7.645 -1.0144  1.8230  0.1268
 1398SOL    HW215828   0.500   2.927   7.649 -0.4710 -1.0155 -3.5229
 1399SOL     OW15829   2.977   0.736   7.021  0.2615  0.4022 -0.2790
 1399SOL    HW115830   2.993   0.642   7.019  2.3062  0.7032  2.2205
 1399SOL    HW215831   2.961   0.759   7.113 -2.9253  2.9564 -1.4698
 1400SOL     OW15832   1.352   1.264   6.002 -0.2163  0.4244  0.1078
 1400SOL    HW115833   1.363   1.228   6.090  0.1807  2.4300  0.8901
 1400SOL    HW215834   1.429   1.224   5.963 -0.7621 -0.9216  0.4198
 1401SOL     OW15835   4.725   1.484   8.170  0.0188 -0.6202 -0.2146
 1401SOL    HW115836   4.659   1.551   8.190  0.9202  1.0710 -2.8844
 1401SOL    HW215837   4.669   1.407   8.163  0.6785 -1.2157  1.0606
 1402SOL     OW15838   2.961   1.066   7.148  0.1368 -0.3038  0.1689
 1402SOL    HW115839   2.908   1.061   7.069  0.5450 -0.5317 -0.0932
 1402SOL    HW215840   2.900   1.053   7.220 -1.5421 -1.3603 -1.4573
 1403SOL     OW15841   4.115   1.706   1.029  0.6256  0.3225  0.1483
 1403SOL    HW115842   4.065   1.626   1.013  1.1582  0.4484 -2.1200
 1403SOL    HW215843   4.051   1.769   1.064  1.6776 -0.1314  2.9320
 1404SOL     OW15844   3.960   2.401   7.501  0.3400 -0.5117  0.1463
 1404SOL    HW115845   4.027   2.412   7.434  1.2360 -0.6103  1.0307
 1404SOL    HW215846   3.965   2.305   7.504 -0.2095 -0.4917  1.6976
 1405SOL     OW15847   4.160   2.532  10.299 -0.0883 -0.2216  0.8589
 1405SOL    HW115848   4.195   2.457  10.252 -1.7097 -0.9848  0.8838
 1405SOL    HW215849   4.116   2.492  10.375 -1.0305 -0.2587  0.2922
 1406SOL     OW15850   0.402   3.572   3.262 -0.4751 -0.5058  0.5243
 1406SOL    HW115851   0.485   3.540   3.226 -0.1976  0.9723 -0.1139
 1406SOL    HW215852   0.413   3.568   3.357  0.8000 -0.6459  0.3685
 1407SOL     OW15853   2.133   2.818   0.905 -0.3988  0.1053  0.2899
 1407SOL    HW115854   2.040   2.794   0.905  0.1534 -1.9746  0.8812
 1407SOL    HW215855   2.171   2.731   0.915 -1.3542 -0.4403 -0.7320
 1408SOL     OW15856   3.362   4.063   8.741  0.1872 -0.3084  0.2766
 1408SOL    HW115857   3.355   4.120   8.817 -2.1695  0.9614 -0.9000
 1408SOL    HW215858   3.302   4.110   8.683  1.0086 -0.7300 -0.9235
 1409SOL     OW15859   1.689   2.970   5.753  0.0417  0.2829 -0.2459
 1409SOL    HW115860   1.706   3.014   5.837  0.7665  0.9329 -0.7363
 1409SOL    HW215861   1.689   3.045   5.694 -1.4152  0.8521  0.4937
 1410SOL     OW15862   3.756   2.085   6.015 -0.0555 -0.1199 -0.0821
 1410SOL    HW115863   3.671   2.077   5.973  0.3564  2.9219 -1.5006
 1410SOL    HW215864   3.803   2.130   5.945  0.0687  0.9910  0.7210
 1411SOL     OW15865   2.823   2.629   5.585  0.0473  0.0503  0.4762
 1411SOL    HW115866   2.751   2.669   5.536 -0.0281 -1.8010 -0.9324
 1411SOL    HW215867   2.819   2.543   5.542  1.6294 -0.4245  1.2670
 1412SOL     OW15868   3.868   3.278   7.221  0.4992  0.1994  0.3559
 1412SOL    HW115869   3.774   3.273   7.203  0.1998 -1.0869  2.3040
 1412SOL    HW215870   3.894   3.186   7.228 -3.1926 -0.7636  1.0397
 1413SOL     OW15871   0.693   1.450   2.095 -0.0678 -0.3403  0.3561
 1413SOL    HW115872   0.610   1.484   2.061  0.6466  0.6859 -0.3870
 1413SOL    HW215873   0.749   1.490   2.028 -0.9645 -1.2124 -0.9323
 1414SOL     OW15874   0.925   1.936  16.064 -0.2254 -0.1999  0.5600
 1414SOL    HW115875   0.921   1.912  15.972 -2.9686 -1.4839  1.0158
 1414SOL    HW215876   0.997   1.998  16.071 -1.4957  1.0360  2.6529
 1415SOL     OW15877   0.058   3.361  16.716 -0.2067 -0.2143 -0.5512
 1415SOL    HW115878   0.001   3.438  16.710  0.7025  0.4871 -0.3185
 1415SOL    HW215879   0.128   3.393  16.659 -0.3616  2.3284  0.6652
 1416SOL     OW15880   1.819   1.354   5.798 -0.1749  0.2287  0.7066
 1416SOL    HW115881   1.911   1.336   5.779 -1.0543 -1.1519 -2.1865
 1416SOL    HW215882   1.801   1.289   5.865 -2.0550 -0.8516 -0.8570
 1417SOL     OW15883   0.327   0.416   8.175  0.0369  0.5334  0.0658
 1417SOL    HW115884   0.282   0.333   8.160  0.7068  0.5078 -1.7920
 1417SOL    HW215885   0.246   0.465   8.163  0.8321  2.4044  2.2710
 1418SOL     OW15886   4.219   4.004   1.170 -0.0000  0.0364  0.2053
 1418SOL    HW115887   4.309   3.971   1.179  0.1304  0.2259 -0.3633
 1418SOL    HW215888   4.235   4.076   1.109  1.1929 -1.0460 -0.7757
 1419SOL     OW15889   3.253   4.107   6.361  0.0732 -0.1178  0.4293
 1419SOL    HW115890   3.317   4.036   6.356 -0.1499 -0.2435 -0.7473
 1419SOL    HW215891   3.308   4.186   6.357 -1.6653  1.1465  1.6875
 1420SOL     OW15892   1.635   3.770   7.080 -0.4665  0.5279 -0.0191
 1420SOL    HW115893   1.586   3.737   7.156 -3.0141  1.8275 -1.1196
 1420SOL    HW215894   1.722   3.784   7.118 -0.1342  1.5886 -1.1932
 1421SOL     OW15895   1.901   1.283   3.479  0.1684  0.3889  0.0435
 1421SOL    HW115896   1.893   1.371   3.515 -3.1205  1.0232 -2.2487
 1421SOL    HW215897   1.855   1.304   3.397  0.1811  0.6145  0.0948
 1422SOL     OW15898   0.431   2.423  17.057  0.0029 -0.6678  0.3435
 1422SOL    HW115899   0.374   2.493  17.027 -0.0338 -0.0787  1.8103
 1422SOL    HW215900   0.388   2.406  17.141 -2.8206  1.2302 -0.7578
 1423SOL     OW15901   0.330   4.655  11.560  0.3610  0.1580  0.7489
 1423SOL    HW115902   0.362   4.685  11.645  2.2439  1.1683 -0.3096
 1423SOL    HW215903   0.238   4.676  11.574  0.1853  1.1750 -2.0319
 1424SOL     OW15904   2.256   2.827  17.728  0.0731  0.3445 -0.4408
 1424SOL    HW115905   2.178   2.875  17.703 -0.0985  0.1743 -0.2284
 1424SOL    HW215906   2.263   2.863   0.056 -2.2013  0.8962 -0.4861
 1425SOL     OW15907   3.806   2.338   2.304  0.0864 -0.5835  0.0554
 1425SOL    HW115908   3.823   2.263   2.247  0.5894 -0.7497  0.4236
 1425SOL    HW215909   3.874   2.402   2.284 -1.2349 -0.1185 -2.9220
 1426SOL     OW15910   2.194   3.208   4.976  0.7629  0.1675  0.3718
 1426SOL    HW115911   2.270   3.162   5.012  0.9290  1.0747  1.1786
 1426SOL    HW215912   2.235   3.285   4.935 -0.4815 -0.5766 -2.2856
 1427SOL     OW15913   0.427   1.607  15.389  0.3383 -0.5201  0.5771
 1427SOL    HW115914   0.401   1.516  15.400 -2.5206  0.2193 -0.0589
 1427SOL    HW215915   0.504   1.609  15.447  0.1390  1.7021  0.7546
 1428SOL     OW15916   1.717   2.030   2.257  0.4035 -0.4651 -0.4320
 1428SOL    HW115917   1.773   2.106   2.273  0.2654 -0.1337 -1.5113
 1428SOL    HW215918   1.695   2.039   2.164  0.7927  1.4934 -0.3400
 1429SOL     OW15919   3.903   0.712   2.773  0.3254  0.1448 -0.0192
 1429SOL    HW115920   3.970   0.781   2.777  1.3648 -0.9200  0.8406
 1429SOL    HW215921   3.824   0.749   2.733 -0.4496 -0.0449  1.3196
 1430SOL     OW15922   3.355   3.493   3.900  0.2295 -0.1565  0.0869
 1430SOL    HW115923   3.290   3.535   3.844 -0.8052 -2.6614 -0.5702
 1430SOL    HW215924   3.357   3.406   3.860 -1.5695  0.7108 -1.9272
 1431SOL     OW15925   0.742   4.125  16.494  0.3500 -0.2746 -0.3776
 1431SOL    HW115926   0.718   4.143  16.585 -0.2026 -2.8425 -0.0255
 1431SOL    HW215927   0.657   4.095  16.462 -0.4528  1.7638 -0.1710
 1432SOL     OW15928   3.913   3.681  17.622  0.1410  0.1963 -0.5011
 1432SOL    HW115929   3.923   3.699  17.715 -0.7658  0.4207 -0.4484
 1432SOL    HW215930   3.969   3.749  17.585 -2.4126  1.3534 -2.2733
 1433SOL     OW15931   3.258   1.766  16.505 -0.0720  0.5061  0.1232
 1433SOL    HW115932   3.233   1.775  16.413  0.7282 -1.2529 -0.2611
 1433SOL    HW215933   3.307   1.685  16.489 -0.6551  0.0633  0.5823
 1434SOL     OW15934   4.299   2.998   6.892 -0.7866 -0.1006 -0.2978
 1434SOL    HW115935   4.312   2.906   6.915  1.4898  0.2053 -0.3531
 1434SOL    HW215936   4.210   2.997   6.857 -0.4924 -1.3839 -0.9935
 1435SOL     OW15937   2.464   1.862   3.150  0.9809  0.1125  0.9325
 1435SOL    HW115938   2.446   1.768   3.142 -0.4682  0.3851  0.9159
 1435SOL    HW215939   2.470   1.895   3.240 -2.4271  1.1255  0.7997
 1436SOL     OW15940   0.829   0.888   5.476  0.2498 -0.7227 -0.4315
 1436SOL    HW115941   0.906   0.935   5.509  0.8022  0.1619 -2.9730
 1436SOL    HW215942   0.862   0.801   5.454 -0.1350 -0.9536 -0.0912
 1437SOL     OW15943   1.116   0.951  15.797  0.5428 -0.3339 -0.1142
 1437SOL    HW115944   1.177   0.899  15.745  0.7628 -1.4374  1.2217
 1437SOL    HW215945   1.063   0.883  15.838  0.6514 -0.1480  0.3407
 1438SOL     OW15946   1.487   3.420  17.287  0.1765 -0.3203 -0.2116
 1438SOL    HW115947   1.494   3.327  17.306  1.2818  0.2185  2.0177
 1438SOL    HW215948   1.540   3.467  17.351 -1.9666  0.2400  1.1661
 1439SOL     OW15949   2.795   4.097   2.629 -0.3419 -0.4145  0.1887
 1439SOL    HW115950   2.804   4.041   2.552 -1.4782  0.3498 -0.5049
 1439SOL    HW215951   2.807   4.172   2.571  1.2140 -1.5293 -0.9202
 1440SOL     OW15952   3.318   0.866   1.730 -0.1402  0.3513  0.2951
 1440SOL    HW115953   3.291   0.822   1.811 -0.4033  3.1715  1.7567
 1440SOL    HW215954   3.230   0.870   1.693 -0.2978  1.7217  0.8126
 1441SOL     OW15955   3.574   2.079   4.655 -0.1855 -0.4638 -0.2145
 1441SOL    HW115956   3.638   2.021   4.697  1.5212  0.1663 -1.9247
 1441SOL    HW215957   3.545   2.028   4.579 -0.9959 -0.8818  0.3761
 1442SOL     OW15958   2.162   3.649  14.440 -0.2820 -0.4597  0.2074
 1442SOL    HW115959   2.072   3.674  14.461 -0.0351  0.5169  0.1388
 1442SOL    HW215960   2.158   3.591  14.365 -0.5342 -0.7952  0.4822
 1443SOL     OW15961   1.981   2.334  17.417  0.1782 -0.1852  0.4541
 1443SOL    HW115962   1.996   2.406  17.478  0.5557 -0.1421  0.3085
 1443SOL    HW215963   1.994   2.378  17.333 -1.1007 -1.6788 -0.5259
 1444SOL     OW15964   1.075   0.055   8.081  0.6603 -0.1347 -0.5327
 1444SOL    HW115965   1.098   4.703   8.088  1.7736  0.0213 -2.1151
 1444SOL    HW215966   1.055   0.051   7.988 -0.5395  1.5374 -0.3388
 1445SOL     OW15967   3.573   2.618   2.050  0.2083 -0.1974  0.0633
 1445SOL    HW115968   3.518   2.689   2.014 -2.2476 -1.5110  1.2152
 1445SOL    HW215969   3.559   2.541   1.994  1.0886 -0.2316 -0.1028
 1446SOL     OW15970   2.872   0.893   2.924 -0.1604  0.0006  0.6556
 1446SOL    HW115971   2.852   0.855   3.009  0.5292  1.3356  1.4195
 1446SOL    HW215972   2.908   0.809   2.895  2.8093  1.3543  0.3766
 1447SOL     OW15973   3.498   1.967   6.616 -0.2708 -0.3208 -0.1772
 1447SOL    HW115974   3.544   1.898   6.664 -1.0772 -2.3667 -2.3642
 1447SOL    HW215975   3.405   1.948   6.633 -0.3062 -0.1191 -0.1416
 1448SOL     OW15976   3.087   2.747   9.296  0.1111 -0.1909 -0.7789
 1448SOL    HW115977   3.020   2.815   9.285  1.4323  1.1662 -0.5391
 1448SOL    HW215978   3.032   2.683   9.341  0.1058 -0.1328 -0.7015
 1449SOL     OW15979   0.191   2.703   5.867  0.6633 -0.4854  0.0029
 1449SOL    HW115980   0.249   2.754   5.923  2.5510 -0.0092 -2.3717
 1449SOL    HW215981   0.256   2.677   5.802 -0.4765  2.0178 -2.1213
 1450SOL     OW15982   3.470   0.663  10.784 -0.3600  0.4070 -0.3647
 1450SOL    HW115983   3.424   0.732  10.832  3.4750  1.0907  2.3410
 1450SOL    HW215984   3.515   0.717  10.718  1.7711 -1.0008 -0.0745
 1451SOL     OW15985   2.551   4.733   8.396  0.3369 -0.5344  0.0768
 1451SOL    HW115986   2.519   0.083   8.399  0.8463 -0.2483 -2.8320
 1451SOL    HW215987   2.644   4.735   8.419  0.5120 -1.4325 -0.5667
 1452SOL     OW15988   1.370   1.992  14.916  0.1982 -0.5507  0.8697
 1452SOL    HW115989   1.332   2.063  14.968  1.0574  1.8813 -1.8081
 1452SOL    HW215990   1.295   1.937  14.894  0.0111  0.6927 -1.6490
 1453SOL     OW15991   0.018   2.759  13.747 -0.3356 -0.5745  0.1751
 1453SOL    HW115992   0.085   2.697  13.717  0.3520 -0.8626  2.3497
 1453SOL    HW215993   4.673   2.722  13.724 -0.6918  0.2800  0.1398
 1454SOL     OW15994   1.227   1.404   1.942  0.5291 -0.1961  0.1363
 1454SOL    HW115995   1.269   1.428   2.025  0.5780  0.2052 -0.0043
 1454SOL    HW215996   1.149   1.361   1.977  0.7749 -0.4528  0.3724
 1455SOL     OW15997   0.933   0.414   2.097 -0.0072 -0.4890 -0.1286
 1455SOL    HW115998   0.868   0.343   2.092  0.4288 -0.6605 -3.1431
 1455SOL    HW215999   0.948   0.416   2.191 -0.4539 -0.9768 -0.0460
 1456SOL     OW16000   2.793   3.593  12.567 -0.2698 -0.0229 -0.5380
 1456SOL    HW116001   2.824   3.533  12.635 -1.7519 -0.2252 -0.0356
 1456SOL    HW216002   2.866   3.655  12.572 -2.2537  2.4064 -1.6166
 1457SOL     OW16003   3.797   4.396   7.985  0.1902 -0.1623  0.5341
 1457SOL    HW116004   3.787   4.318   8.040 -0.0598 -1.8279 -1.8646
 1457SOL    HW216005   3.729   4.449   8.027  2.1978  2.2191  0.7866
 1458SOL     OW16006   2.808   2.980   6.733 -0.4695  0.1940 -0.0108
 1458SOL    HW116007   2.739   2.943   6.789  0.7640 -0.6186  0.9812
 1458SOL    HW216008   2.868   2.907   6.740 -0.0821  0.3858 -1.3237
 1459SOL     OW16009   3.283   1.029   2.743 -0.4955 -0.2592  0.2888
 1459SOL    HW116010   3.322   1.117   2.737 -0.8101 -0.1643 -0.4428
 1459SOL    HW216011   3.304   0.984   2.661  0.0834  2.1315 -0.8818
 1460SOL     OW16012   0.898   3.565   2.005  0.3431  0.4699 -0.0077
 1460SOL    HW116013   0.845   3.590   1.930  0.6288 -0.7438 -0.6241
 1460SOL    HW216014   0.887   3.470   1.998  1.3985  0.3168  0.3639
 1461SOL     OW16015   2.656   1.596   4.642  0.0826 -0.5748 -0.1919
 1461SOL    HW116016   2.731   1.655   4.634  0.7051 -1.3103  0.1521
 1461SOL    HW216017   2.611   1.619   4.561  4.6394  0.5303 -2.3860
 1462SOL     OW16018   4.309   0.993   2.713  0.6430 -0.0313 -0.6623
 1462SOL    HW116019   4.325   1.080   2.677  1.5199 -0.0146 -0.2304
 1462SOL    HW216020   4.383   0.986   2.773  1.1102 -0.8012 -1.3319
 1463SOL     OW16021   2.673   0.303   0.846  0.7473 -0.0131  0.6351
 1463SOL    HW116022   2.598   0.354   0.813  1.3936  0.9386  0.6445
 1463SOL    HW216023   2.736   0.350   0.791  0.0460 -0.1896 -0.3398
 1464SOL     OW16024   2.741   0.225   6.615 -0.2326 -0.5290 -0.3316
 1464SOL    HW116025   2.754   0.252   6.706 -0.3525 -0.1233 -0.4374
 1464SOL    HW216026   2.832   0.222   6.585 -0.0728 -0.0264  0.0932
 1465SOL     OW16027   0.540   0.030   2.418 -0.3493 -0.5983 -0.4945
 1465SOL    HW116028   0.526   4.737   2.330 -0.6850  0.2056 -0.7507
 1465SOL    HW216029   0.489   4.705   2.466 -0.3209  0.0998  0.5008
 1466SOL     OW16030   2.423   3.314   1.799 -0.6691  0.1229  0.6072
 1466SOL    HW116031   2.513   3.321   1.832 -0.4297  1.0220 -0.2324
 1466SOL    HW216032   2.415   3.219   1.799 -0.5098  0.1075  0.9028
 1467SOL     OW16033   3.296   0.825  12.808 -0.8712 -0.6391  0.4150
 1467SOL    HW116034   3.316   0.800  12.898 -1.9416 -2.1984  0.2219
 1467SOL    HW216035   3.214   0.869  12.830 -0.4219  0.4271 -0.0594
 1468SOL     OW16036   0.503   4.414  14.515 -0.2521  0.2942  0.0558
 1468SOL    HW116037   0.548   4.348  14.568  0.8316 -0.9113 -2.3839
 1468SOL    HW216038   0.426   4.367  14.483 -0.5646  1.1334 -0.4071
 1469SOL     OW16039   3.491   2.615  16.165  0.1787 -0.6390  0.6787
 1469SOL    HW116040   3.498   2.521  16.181  0.8686 -0.8956 -1.0164
 1469SOL    HW216041   3.536   2.642  16.245  1.7209  1.4306 -0.8794
 1470SOL     OW16042   3.993   2.772   3.564  0.4595  0.0755  0.0870
 1470SOL    HW116043   4.023   2.844   3.509 -0.9079  2.2620  2.1727
 1470SOL    HW216044   4.072   2.720   3.575 -0.0806 -0.4428  1.5923
 1471SOL     OW16045   3.651   1.492   5.896 -0.6226 -0.0385  0.1989
 1471SOL    HW116046   3.678   1.474   5.806 -1.1492 -1.3959  0.3221
 1471SOL    HW216047   3.562   1.519   5.875 -0.6857 -0.7736 -0.4965
 1472SOL     OW16048   3.892   0.986   6.960 -0.0775 -0.3381 -0.1033
 1472SOL    HW116049   3.897   1.005   6.866  1.9252  1.4800  0.3587
 1472SOL    HW216050   3.829   0.915   6.960  0.5507 -0.8907 -0.7363
 1473SOL     OW16051   2.285   3.236   5.937  0.2469 -0.0806 -0.2584
 1473SOL    HW116052   2.376   3.208   5.923 -0.1205 -1.4423  0.1723
 1473SOL    HW216053   2.242   3.231   5.851 -0.2243  1.1504 -0.0931
 1474SOL     OW16054   2.055   2.667   7.735 -0.9366  0.0978  0.1307
 1474SOL    HW116055   1.962   2.646   7.746 -0.3822 -1.8780  1.0076
 1474SOL    HW216056   2.064   2.719   7.815 -2.6332 -0.5255  0.7204
 1475SOL     OW16057   4.080   3.125  10.372 -0.1862 -0.2173  0.3741
 1475SOL    HW116058   4.176   3.117  10.376 -0.3233  0.4892  4.8711
 1475SOL    HW216059   4.073   3.215  10.339  0.6744 -0.3847 -0.2678
 1476SOL     OW16060   2.408   1.925   7.641  0.3533 -0.1522 -0.3851
 1476SOL    HW116061   2.391   1.861   7.572  1.9461  0.3249 -1.2229
 1476SOL    HW216062   2.388   1.876   7.721 -0.4029  1.5687  0.4774
 1477SOL     OW16063   3.911   1.666   0.321 -0.3108 -0.1778  0.0110
 1477SOL    HW116064   3.944   1.647   0.233  4.5455  0.3821  1.7272
 1477SOL    HW216065   3.816   1.674   0.310 -0.2768 -1.2571 -1.0853
 1478SOL     OW16066   3.076   1.346   8.191 -0.2077  0.5401 -0.0265
 1478SOL    HW116067   3.081   1.264   8.141 -0.9729  1.1176 -1.0525
 1478SOL    HW216068   3.148   1.340   8.253 -0.3856  1.4878  0.2754
 1479SOL     OW16069   0.630   0.066   3.105  0.5818  0.7271 -0.2713
 1479SOL    HW116070   0.548   0.033   3.143  0.6166  2.1127  0.9965
 1479SOL    HW216071   0.609   0.052   3.012 -1.8472  0.2537  0.3577
 1480SOL     OW16072   2.254   1.750   6.819  0.1219 -0.1259  0.4606
 1480SOL    HW116073   2.243   1.656   6.810  2.2012 -0.4581  1.5418
 1480SOL    HW216074   2.187   1.783   6.758  1.6741 -0.4181 -1.4048
 1481SOL     OW16075   0.386   4.729   7.773 -0.7479 -0.0887 -0.7143
 1481SOL    HW116076   0.414   0.078   7.790  2.0620 -0.8337 -1.4214
 1481SOL    HW216077   0.335   4.717   7.853 -1.6143  2.2436 -0.9454
 1482SOL     OW16078   2.445   0.689  16.530 -0.7125  0.5760 -0.3111
 1482SOL    HW116079   2.493   0.607  16.539  0.2988  1.0424 -1.4280
 1482SOL    HW216080   2.439   0.707  16.436 -0.4458 -1.8108 -0.7946
 1483SOL     OW16081   3.800   3.720   1.968  0.2537  0.4452 -0.6204
 1483SOL    HW116082   3.738   3.782   1.930 -0.1035  0.1800 -0.4635
 1483SOL    HW216083   3.886   3.742   1.933  1.6021 -2.3640  0.9521
 1484SOL     OW16084   0.738   0.190   6.801 -0.9904 -0.5292 -0.5954
 1484SOL    HW116085   0.729   0.173   6.895 -1.9602  0.0778 -0.5806
 1484SOL    HW216086   0.655   0.233   6.780 -0.2823  1.1956  0.1531
 1485SOL     OW16087   2.247   3.187   9.409  0.2857 -0.8314  0.5837
 1485SOL    HW116088   2.289   3.262   9.365  0.8523 -2.1625 -1.1462
 1485SOL    HW216089   2.207   3.220   9.489  2.1091 -0.1021  1.1925
 1486SOL     OW16090   2.254   4.434   3.550 -0.1208 -0.8420 -0.1362
 1486SOL    HW116091   2.183   4.498   3.554 -0.0766 -0.7469 -1.0292
 1486SOL    HW216092   2.250   4.396   3.638  1.1561 -0.6703 -0.0018
 1487SOL     OW16093   0.374   3.740   8.640 -0.0503 -0.4290  0.7040
 1487SOL    HW116094   0.385   3.681   8.566 -1.3137  0.4046 -0.1560
 1487SOL    HW216095   0.461   3.739   8.679 -0.1696 -0.9095  0.9610
 1488SOL     OW16096   3.542   1.262  12.908  0.2121 -0.0642 -0.6223
 1488SOL    HW116097   3.514   1.294  12.822 -1.4638 -0.2352 -0.1370
 1488SOL    HW216098   3.594   1.337  12.936 -0.5180  0.9555 -2.0181
 1489SOL     OW16099   4.624   3.722   9.823 -0.4670 -0.4145 -0.4454
 1489SOL    HW116100   4.649   3.811   9.800  1.3529 -0.9684 -0.5898
 1489SOL    HW216101   4.529   3.715   9.809 -0.6918  3.3623 -0.7741
 1490SOL     OW16102   0.396   1.981  10.518  0.1046  0.1709  0.5808
 1490SOL    HW116103   0.340   1.995  10.594 -0.7372  0.6937 -0.1380
 1490SOL    HW216104   0.433   1.900  10.553  0.7330  0.1904 -0.0384
 1491SOL     OW16105   0.117   1.581   3.654 -0.7290  0.0061  0.4043
 1491SOL    HW116106   0.036   1.556   3.610  1.3572 -4.2650 -1.0012
 1491SOL    HW216107   0.165   1.635   3.591  2.5442 -0.9605  2.0531
 1492SOL     OW16108   1.339   1.099   0.274  1.0746  0.4114 -0.1034
 1492SOL    HW116109   1.422   1.130   0.239  0.0234  1.9667 -1.1765
 1492SOL    HW216110   1.288   1.080   0.195  0.2833  1.0526  0.2571
 1493SOL     OW16111   0.710   3.271   8.380  0.0553 -0.0993 -0.1476
 1493SOL    HW116112   0.775   3.302   8.318 -1.0832  1.9773 -0.3143
 1493SOL    HW216113   0.677   3.190   8.341  1.6795 -0.2445 -1.1923
 1494SOL     OW16114   0.363   2.967   6.816  0.5511 -0.5000 -0.4191
 1494SOL    HW116115   0.348   3.004   6.903 -3.6792 -0.1092 -1.3077
 1494SOL    HW216116   0.292   2.903   6.811  0.9786 -1.1138  1.2484
 1495SOL     OW16117   2.290   2.346   6.954 -0.3783  0.5607  0.0167
 1495SOL    HW116118   2.370   2.364   6.904 -0.8241 -0.3582 -1.0144
 1495SOL    HW216119   2.305   2.258   6.989 -2.2075  0.7045  1.1321
 1496SOL     OW16120   3.110   1.657   8.550 -0.4613  0.1494 -0.1523
 1496SOL    HW116121   3.107   1.571   8.592  1.2741 -0.8639 -2.0701
 1496SOL    HW216122   3.087   1.631   8.461 -1.4999  0.4764  0.0240
 1497SOL     OW16123   3.995   4.473   7.774  0.3159  0.1454  0.4969
 1497SOL    HW116124   3.924   4.454   7.836 -0.7768  0.3055 -0.6964
 1497SOL    HW216125   4.022   4.385   7.749  0.5901 -0.0458  1.4581
 1498SOL     OW16126   2.985   0.053   2.862  0.1148 -0.7008 -0.1883
 1498SOL    HW116127   2.935   4.728   2.910  0.0777 -1.9151 -1.8928
 1498SOL    HW216128   3.061   4.740   2.838 -0.3421 -2.2360  1.7423
 1499SOL     OW16129   1.461   1.334  12.144 -0.3461  0.4836 -0.3987
 1499SOL    HW116130   1.525   1.380  12.090  1.0814 -0.4738  0.4734
 1499SOL    HW216131   1.522   1.288  12.202 -0.4925  1.7424  0.7607
 1500SOL     OW16132   2.100   0.466   7.937 -0.7904  0.3897 -0.2669
 1500SOL    HW116133   2.183   0.444   7.980  0.0819  1.7740 -1.2320
 1500SOL    HW216134   2.130   0.540   7.883 -3.2412  0.3828 -1.6187
 1501SOL     OW16135   1.823   4.583   8.259  0.0430  0.3559  0.0921
 1501SOL    HW116136   1.878   4.507   8.240  0.6686  2.0463 -5.0092
 1501SOL    HW216137   1.744   4.534   8.279 -0.7118  1.2761 -0.6195
 1502SOL     OW16138   4.599   2.576   3.389  0.2662 -0.6804 -0.4442
 1502SOL    HW116139   4.640   2.643   3.445 -1.7849 -1.2873  1.7560
 1502SOL    HW216140   4.570   2.622   3.311 -0.9936 -1.7530 -0.5893
 1503SOL     OW16141   4.190   1.012  15.829 -0.3092 -0.2009 -0.6852
 1503SOL    HW116142   4.218   0.981  15.743  1.3532 -1.2051  0.2338
 1503SOL    HW216143   4.164   1.102  15.809 -0.8642 -0.0951  0.5203
 1504SOL     OW16144   1.713   2.054  16.041 -0.6206 -0.1309 -1.0761
 1504SOL    HW116145   1.748   2.053  16.129 -1.6978  3.2564 -0.5786
 1504SOL    HW216146   1.636   2.111  16.050 -1.4894 -1.5954  0.7379
 1505SOL     OW16147   4.048   0.336   9.065  0.3600  0.6396  0.0151
 1505SOL    HW116148   4.086   0.256   9.028 -0.6997  0.2141 -0.1711
 1505SOL    HW216149   4.111   0.360   9.133  0.8227  0.5653 -0.3862
 1506SOL     OW16150   3.378   3.184   4.207 -0.2318 -0.1872 -0.0014
 1506SOL    HW116151   3.442   3.113   4.217  1.9234  1.9350  1.2693
 1506SOL    HW216152   3.316   3.139   4.265 -1.0264 -2.9537 -2.9866
 1507SOL     OW16153   2.824   0.176   4.250  0.1339  0.4435  0.0581
 1507SOL    HW116154   2.824   0.081   4.240  0.7128  0.8128 -3.4739
 1507SOL    HW216155   2.845   0.202   4.160 -0.3915 -0.6567 -0.3885
 1508SOL     OW16156   3.699   4.184   8.168 -0.6626  0.0875 -0.7587
 1508SOL    HW116157   3.646   4.109   8.141  1.1875 -2.1681  1.8370
 1508SOL    HW216158   3.764   4.146   8.226 -1.3410  1.3350  0.8418
 1509SOL     OW16159   2.069   0.140  17.618  0.1530 -0.5761  0.0402
 1509SOL    HW116160   2.046   0.059  17.572  1.3769  0.1477 -1.8266
 1509SOL    HW216161   2.159   0.114  17.641  0.4296  0.3039 -0.0535
 1510SOL     OW16162   2.737   0.317   3.122  0.0311  0.2175  0.3971
 1510SOL    HW116163   2.642   0.310   3.117  0.2326 -1.7464 -0.5519
 1510SOL    HW216164   2.752   0.314   3.028  0.6336  1.0250  0.4696
 1511SOL     OW16165   3.238   2.587   6.921  0.0927  0.3843  0.1729
 1511SOL    HW116166   3.226   2.663   6.864 -1.3301 -0.8757 -1.1797
 1511SOL    HW216167   3.301   2.629   6.980  1.6245  0.5654 -1.5862
 1512SOL     OW16168   1.788   2.040   9.694 -0.0221  0.0933 -0.0924
 1512SOL    HW116169   1.716   2.004   9.642 -0.3385  0.2420  0.2478
 1512SOL    HW216170   1.802   1.985   9.771  0.8968  1.8889  1.0414
 1513SOL     OW16171   4.670   1.254   6.884 -0.3671  0.5283  0.3361
 1513SOL    HW116172   4.614   1.177   6.893 -0.5672  0.7582  1.0182
 1513SOL    HW216173   4.632   1.322   6.938 -0.9389  0.1079  0.4572
 1514SOL     OW16174   2.426   2.524  16.918 -0.0291  0.2617  0.2601
 1514SOL    HW116175   2.364   2.452  16.904 -1.8308  2.0924 -1.1041
 1514SOL    HW216176   2.478   2.514  16.839  0.0282 -2.4207  0.6529
 1515SOL     OW16177   1.060   2.763   5.608  0.0239  0.8760  0.8602
 1515SOL    HW116178   1.139   2.752   5.661  0.8653  0.9034 -0.4122
 1515SOL    HW216179   1.086   2.724   5.525  0.7514 -1.3125  2.1067
 1516SOL     OW16180   3.444   4.333  12.366  0.3894  0.2385 -0.3559
 1516SOL    HW116181   3.519   4.281  12.396 -1.2052 -1.5340  0.5020
 1516SOL    HW216182   3.379   4.264  12.374 -0.3107  0.7591 -1.5400
 1517SOL     OW16183   4.374   2.035   4.747 -0.4360  0.1507 -0.0757
 1517SOL    HW116184   4.402   2.037   4.839  1.9411 -1.2507 -0.7640
 1517SOL    HW216185   4.326   2.118   4.749 -1.2166 -0.3162  0.8706
 1518SOL     OW16186   1.600   2.189   8.818  1.0304  0.2587  0.2994
 1518SOL    HW116187   1.590   2.282   8.798 -1.0735 -0.0067  0.1615
 1518SOL    HW216188   1.556   2.143   8.747 -0.5376  0.7793  0.9253
 1519SOL     OW16189   2.240   0.033   9.883  0.1426 -0.4627 -0.2679
 1519SOL    HW116190   2.205   0.024   9.971  0.4647 -0.2126 -0.1149
 1519SOL    HW216191   2.185   4.709   9.839 -0.4116 -1.0499  1.3002
 1520SOL     OW16192   0.145   1.358   9.376  0.0973 -0.3390  0.3447
 1520SOL    HW116193   0.223   1.398   9.414  1.0669 -2.4376  0.5811
 1520SOL    HW216194   0.173   1.267   9.386 -1.2426 -0.4992  2.6531
 1521SOL     OW16195   1.585   2.922   4.076 -0.2111  0.4177  0.2570
 1521SOL    HW116196   1.535   2.960   4.004  1.2567 -2.1386 -2.1594
 1521SOL    HW216197   1.672   2.928   4.036 -0.3133  1.6760  0.2259
 1522SOL     OW16198   1.629   0.911  10.814 -0.0881  0.1445 -0.1453
 1522SOL    HW116199   1.559   0.850  10.838 -0.7318  0.8954 -0.1251
 1522SOL    HW216200   1.670   0.931  10.898 -0.6612  0.2103  0.1202
 1523SOL     OW16201   0.621   4.361   9.704  0.1595 -0.4023  0.2924
 1523SOL    HW116202   0.664   4.423   9.645 -2.3719 -0.0863 -1.1975
 1523SOL    HW216203   0.592   4.415   9.778  1.0225 -0.0419  0.3626
 1524SOL     OW16204   1.873   4.370   4.164 -0.0982 -0.0038  0.3792
 1524SOL    HW116205   1.793   4.402   4.207  0.1451 -0.7480  1.3968
 1524SOL    HW216206   1.940   4.367   4.232 -0.5967 -0.4944  0.8480
 1525SOL     OW16207   3.996   0.807  10.721  0.2236  0.6094 -0.3180
 1525SOL    HW116208   4.060   0.790  10.790  2.1556 -0.1727 -2.2870
 1525SOL    HW216209   3.996   0.901  10.706  1.0474  0.6366 -0.1147
 1526SOL     OW16210   1.251   3.194   4.926  0.6537  0.3047  0.0368
 1526SOL    HW116211   1.334   3.179   4.971  1.3469  1.2862 -0.9174
 1526SOL    HW216212   1.270   3.210   4.834  0.9191 -0.3760 -0.0232
 1527SOL     OW16213   1.159   3.413   3.513 -0.0881  0.5733 -0.2239
 1527SOL    HW116214   1.065   3.415   3.534  0.1474  1.8152  0.7181
 1527SOL    HW216215   1.166   3.356   3.437  2.8410  0.2083  0.3148
 1528SOL     OW16216   3.874   4.581   2.256 -0.4056 -1.0680 -0.3100
 1528SOL    HW116217   3.896   4.585   2.163 -1.3558 -0.5214 -0.5110
 1528SOL    HW216218   3.850   4.489   2.268  0.0633 -0.8828  2.0342
 1529SOL     OW16219   4.043   2.564   9.111 -0.1118  0.0315  0.7856
 1529SOL    HW116220   3.949   2.574   9.127  0.2129  1.9628  1.5556
 1529SOL    HW216221   4.052   2.580   9.017  1.1210 -0.1930  0.8666
 1530SOL     OW16222   3.616   1.510  16.797 -0.3861  0.3417 -0.4187
 1530SOL    HW116223   3.642   1.523  16.888 -2.6214 -0.3491  0.3299
 1530SOL    HW216224   3.640   1.596  16.762  0.2153 -0.3532 -1.6861
 1531SOL     OW16225   4.532   2.703  14.027  0.1792  0.3390 -0.0649
 1531SOL    HW116226   4.465   2.735  14.087  0.1385  1.4701 -0.7128
 1531SOL    HW216227   4.564   2.626  14.074  1.2236  1.4509  1.0648
 1532SOL     OW16228   3.718   4.518  10.995  0.1200  0.3051  0.2951
 1532SOL    HW116229   3.704   4.535  11.089 -2.1328 -1.6725  0.3237
 1532SOL    HW216230   3.726   4.423  10.999 -1.6138  0.1350  0.0890
 1533SOL     OW16231   2.655   0.499   4.917  0.0991 -0.1380  0.5206
 1533SOL    HW116232   2.730   0.486   4.859  0.1741  0.3203  0.5199
 1533SOL    HW216233   2.585   0.481   4.855 -0.9094  0.7647  1.3997
 1534SOL     OW16234   2.015   1.001   4.653  0.3097 -0.5193 -0.7892
 1534SOL    HW116235   2.103   0.996   4.689 -0.5235 -0.6341  1.2078
 1534SOL    HW216236   1.981   0.918   4.688  1.4533 -1.5183 -2.0223
 1535SOL     OW16237   4.182   4.446   9.049  0.7940  0.4959  0.0332
 1535SOL    HW116238   4.216   4.486   8.969 -1.6724  0.4831 -1.0072
 1535SOL    HW216239   4.188   4.352   9.031 -1.8554  0.2152  0.6277
 1536SOL     OW16240   4.151   3.492  16.052 -0.5984  0.3973  0.2354
 1536SOL    HW116241   4.144   3.408  16.006 -1.2592  2.6452 -3.7753
 1536SOL    HW216242   4.081   3.485  16.117 -0.1945 -1.8320  0.4370
 1537SOL     OW16243   1.197   2.743   9.044  0.4700  0.2097 -0.4343
 1537SOL    HW116244   1.265   2.705   9.100  0.7483  0.5261 -0.5588
 1537SOL    HW216245   1.120   2.687   9.048 -0.4698  1.3556 -2.4440
 1538SOL     OW16246   0.191   2.179   6.040 -0.1157  0.0183 -0.2648
 1538SOL    HW116247   0.269   2.138   6.079  0.1314 -1.1471 -2.0016
 1538SOL    HW216248   0.230   2.237   5.975  1.5652 -0.1614  0.5852
 1539SOL     OW16249   3.524   2.296   2.111 -0.1620  0.4014  0.1308
 1539SOL    HW116250   3.438   2.280   2.072  0.2312  0.4265 -0.7471
 1539SOL    HW216251   3.498   2.359   2.179  1.3489  2.4941 -1.2424
 1540SOL     OW16252   4.530   3.424   2.269 -0.2334 -0.4437 -0.3196
 1540SOL    HW116253   4.546   3.397   2.178 -0.9695  3.3312 -1.5673
 1540SOL    HW216254   4.620   3.405   2.297 -0.8970 -0.1451  1.9555
 1541SOL     OW16255   2.509   4.190   3.638 -0.1928  0.3403  0.6630
 1541SOL    HW116256   2.530   4.234   3.720  1.4199  2.2329 -0.7581
 1541SOL    HW216257   2.444   4.250   3.602 -0.1932 -0.5839 -0.8914
 1542SOL     OW16258   4.306   0.847  14.581  0.7102  0.9808  0.1755
 1542SOL    HW116259   4.345   0.866  14.666 -1.3527 -0.7292  1.4970
 1542SOL    HW216260   4.314   0.752  14.588 -1.3554  0.7961  0.0636
 1543SOL     OW16261   1.455   0.897  17.411  0.1570 -0.0860  0.5573
 1543SOL    HW116262   1.460   0.910  17.506 -1.5023 -1.3536  0.8033
 1543SOL    HW216263   1.547   0.885  17.387  0.1055 -1.1906  0.8888
 1544SOL     OW16264   1.471   1.234  16.274  0.0868  0.3239  0.0537
 1544SOL    HW116265   1.497   1.207  16.362  2.6289  0.9890 -0.4929
 1544SOL    HW216266   1.417   1.313  16.285 -1.7841 -1.3234  2.6168
 1545SOL     OW16267   1.818   2.233   0.766  0.1357 -0.1600 -0.4946
 1545SOL    HW116268   1.913   2.230   0.762  0.0970 -0.3779 -1.3505
 1545SOL    HW216269   1.800   2.160   0.707 -0.5402  0.7010 -1.3530
 1546SOL     OW16270   4.658   2.523   7.328  0.4853  0.0788 -0.2351
 1546SOL    HW116271   4.661   2.547   7.236 -0.7239  1.2480  0.0290
 1546SOL    HW216272   4.671   2.430   7.314 -0.4566 -0.1654  0.5149
 1547SOL     OW16273   3.657   1.518   0.069  0.2060 -0.4579  0.3112
 1547SOL    HW116274   3.650   1.602   0.114  0.1230 -1.3015  1.8824
 1547SOL    HW216275   3.582   1.467   0.099  0.5377 -0.9590  0.2919
 1548SOL     OW16276   2.544   3.444   2.441 -0.3340 -0.1285 -0.3940
 1548SOL    HW116277   2.602   3.410   2.373 -1.6032 -0.6950 -1.1803
 1548SOL    HW216278   2.562   3.538   2.444 -0.8783 -0.0525  0.5392
 1549SOL     OW16279   4.265   1.650   6.517  0.8375 -0.9215  0.7806
 1549SOL    HW116280   4.263   1.608   6.604  1.2394 -1.5493  0.4892
 1549SOL    HW216281   4.345   1.607   6.487 -0.2670 -1.7447 -0.9905
 1550SOL     OW16282   2.804   4.198   7.314  0.0010  0.1923 -0.0874
 1550SOL    HW116283   2.893   4.191   7.349 -0.0629  0.4696  0.1340
 1550SOL    HW216284   2.801   4.109   7.280 -2.3674  0.5280 -0.7630
 1551SOL     OW16285   0.909   3.126   5.247 -0.2844  0.2482 -0.5733
 1551SOL    HW116286   0.965   3.114   5.324  0.3030 -0.4801 -1.1091
 1551SOL    HW216287   0.876   3.214   5.263 -0.9250 -0.2868  1.1505
 1552SOL     OW16288   0.435   3.452   4.023  0.3401 -0.1428 -0.1891
 1552SOL    HW116289   0.521   3.414   4.006  1.6206  2.5102  0.3351
 1552SOL    HW216290   0.381   3.434   3.946 -0.7431  1.2512  0.2324
 1553SOL     OW16291   4.238   2.206  17.459  0.3011  0.0711 -0.3220
 1553SOL    HW116292   4.245   2.119  17.419  1.6548 -1.4537  3.2551
 1553SOL    HW216293   4.158   2.246  17.426 -0.4127 -0.7642  0.4190
 1554SOL     OW16294   3.704   1.853   9.101 -1.0934  0.0128 -0.6037
 1554SOL    HW116295   3.684   1.805   9.021  1.0441 -1.0115 -0.5369
 1554SOL    HW216296   3.663   1.804   9.172  0.9040 -0.6423  0.1160
 1555SOL     OW16297   2.112   0.549   7.077  0.2589 -0.4186 -0.0587
 1555SOL    HW116298   2.122   0.455   7.091  0.8607 -0.4438 -0.6949
 1555SOL    HW216299   2.079   0.553   6.987 -2.8062 -0.5436  1.0419
 1556SOL     OW16300   2.432   1.867   6.270 -0.3213 -0.2741  0.4011
 1556SOL    HW116301   2.420   1.947   6.218 -1.6626 -0.1030  0.9797
 1556SOL    HW216302   2.500   1.892   6.332  0.6732 -0.4311 -0.6341
 1557SOL     OW16303   3.781   1.478  15.813 -0.6025 -0.4654  0.2522
 1557SOL    HW116304   3.747   1.403  15.863 -1.0079  0.1075  0.8444
 1557SOL    HW216305   3.816   1.422  15.744 -2.4831  1.0238 -1.8878
 1558SOL     OW16306   2.225   2.778  16.262 -0.1431 -0.1418  0.0667
 1558SOL    HW116307   2.149   2.827  16.295  0.7631 -1.5578  4.2927
 1558SOL    HW216308   2.222   2.702  16.320 -0.2363  1.9678  2.8312
 1559SOL     OW16309   2.364   1.162  10.878 -0.0565  0.0341 -0.3832
 1559SOL    HW116310   2.346   1.256  10.874 -0.9190 -0.2525 -2.9178
 1559SOL    HW216311   2.321   1.139  10.795  1.1624 -1.0551 -0.7061
 1560SOL     OW16312   1.853   1.462  17.032  0.3241 -0.5871 -0.5755
 1560SOL    HW116313   1.802   1.392  16.992 -0.0328 -0.0943 -0.9810
 1560SOL    HW216314   1.861   1.430  17.122  1.6185 -2.4559 -1.3363
 1561SOL     OW16315   1.791   0.815   6.843  0.1328  0.7065  0.5951
 1561SOL    HW116316   1.758   0.850   6.760 -1.1963 -2.1030 -0.0677
 1561SOL    HW216317   1.706   0.792   6.879 -0.6871  0.2364 -1.6154
 1562SOL     OW16318   1.407   3.302   3.889  0.0018 -0.5212 -0.2451
 1562SOL    HW116319   1.452   3.323   3.807 -0.1471  0.1239 -0.1652
 1562SOL    HW216320   1.339   3.368   3.899 -0.7365 -1.0270 -1.9948
 1563SOL     OW16321   4.298   2.473   5.070 -0.5427 -0.0717  0.0126
 1563SOL    HW116322   4.329   2.564   5.067  1.0995 -0.6498 -0.7027
 1563SOL    HW216323   4.371   2.431   5.025 -0.9387  0.7942 -1.4603
 1564SOL     OW16324   3.960   3.687   6.617  0.2767  0.4722  0.4477
 1564SOL    HW116325   4.020   3.748   6.575 -0.4465  0.9424  0.0892
 1564SOL    HW216326   3.885   3.742   6.595 -1.7709 -1.8043  1.6234
 1565SOL     OW16327   0.990   0.785   4.584  0.1158  0.0010  0.2730
 1565SOL    HW116328   1.008   0.747   4.498  1.6130 -2.7018  1.7690
 1565SOL    HW216329   1.061   0.848   4.596 -0.8235  0.8358  1.4166
 1566SOL     OW16330   2.433   2.298   9.315  0.0477  0.0878 -0.1463
 1566SOL    HW116331   2.379   2.319   9.391 -0.2145  0.0764 -0.3285
 1566SOL    HW216332   2.428   2.202   9.323  0.6979 -0.1115 -2.0674
 1567SOL     OW16333   3.896   3.496   3.841 -0.5274 -0.2252 -0.0662
 1567SOL    HW116334   3.921   3.439   3.768  1.7366 -0.2628  0.7217
 1567SOL    HW216335   3.824   3.449   3.884 -1.9153  0.2844 -1.8269
 1568SOL     OW16336   0.352   4.420   6.267  1.0576  0.5960 -0.6399
 1568SOL    HW116337   0.448   4.416   6.260  1.0711  0.4155 -0.3530
 1568SOL    HW216338   0.329   4.328   6.278 -0.0721  1.0518  0.7701
 1569SOL     OW16339   2.231   4.229  11.508 -0.0640  0.4850  0.3292
 1569SOL    HW116340   2.241   4.186  11.423  0.4285  1.2422 -0.0041
 1569SOL    HW216341   2.247   4.317  11.473  0.1414 -0.3301 -1.6121
 1570SOL     OW16342   2.865   0.354  12.940  0.3102 -0.4891  0.0319
 1570SOL    HW116343   2.909   0.273  12.913  1.4539  0.4297 -0.8786
 1570SOL    HW216344   2.942   0.404  12.965  1.3248 -1.0447 -1.9072
 1571SOL     OW16345   1.108   4.603   6.750 -0.3629 -0.1767  0.6070
 1571SOL    HW116346   1.183   4.553   6.718  1.3257  0.8384  3.0101
 1571SOL    HW216347   1.114   4.684   6.699 -2.0833 -0.1406  0.4568
 1572SOL     OW16348   0.526   2.702   3.749 -0.3538  0.2108  0.4779
 1572SOL    HW116349   0.459   2.769   3.745 -0.1379  0.5091  1.8183
 1572SOL    HW216350   0.561   2.724   3.836  2.1947 -0.6200 -0.3275
 1573SOL     OW16351   4.036   3.762   3.830 -0.1063 -0.5019  0.1687
 1573SOL    HW116352   4.127   3.767   3.800  0.0210 -0.1047  0.6045
 1573SOL    HW216353   4.062   3.727   3.916  1.0472  0.6952  0.3099
 1574SOL     OW16354   0.936   4.640   3.683 -0.1150  0.7869 -0.0633
 1574SOL    HW116355   0.942   4.696   3.760  0.0226  0.6056  0.0574
 1574SOL    HW216356   0.845   4.615   3.697 -0.4897  0.7396 -2.5621
 1575SOL     OW16357   1.218   2.770   7.327  0.0480 -0.4464  0.0098
 1575SOL    HW116358   1.267   2.809   7.255 -1.1579  0.8389 -0.1126
 1575SOL    HW216359   1.289   2.749   7.387  0.8715 -1.6743 -1.4199
 1576SOL     OW16360   0.257   1.492   4.279  0.3321  0.0957 -0.3578
 1576SOL    HW116361   0.306   1.544   4.342 -0.6209 -1.8032  1.9285
 1576SOL    HW216362   0.326   1.461   4.220  1.9911 -0.3626  1.8172
 1577SOL     OW16363   4.139   3.724   6.345  0.5721 -0.1963 -0.1843
 1577SOL    HW116364   4.185   3.741   6.263 -0.0705 -0.7345 -0.6575
 1577SOL    HW216365   4.158   3.632   6.362  0.4587 -0.3672 -0.9876
 1578SOL     OW16366   0.174   2.469   3.607  0.5246 -0.2103 -0.2557
 1578SOL    HW116367   0.096   2.419   3.581 -0.6086  1.1588  0.5444
 1578SOL    HW216368   0.137   2.556   3.591  1.8161  0.3649 -0.0608
 1579SOL     OW16369   4.519   0.530   2.736  0.1983  0.9719  0.0683
 1579SOL    HW116370   4.470   0.469   2.682  3.1175 -0.0700 -1.3648
 1579SOL    HW216371   4.450   0.554   2.798 -0.1256 -0.2776  0.1822
 1580SOL     OW16372   3.513   1.023   6.062 -0.1487 -0.2734 -0.3951
 1580SOL    HW116373   3.592   0.971   6.048 -0.5361 -1.2216  0.9582
 1580SOL    HW216374   3.550   1.103   6.097 -0.6363 -0.8133  1.3265
 1581SOL     OW16375   3.091   3.982  15.376  0.0244  0.5662 -0.6456
 1581SOL    HW116376   3.089   3.898  15.331  0.2232  1.1247 -1.7061
 1581SOL    HW216377   3.063   4.035  15.301  0.2639  1.8025  0.1297
 1582SOL     OW16378   0.127   1.783   7.291 -0.4703  0.1010  0.5991
 1582SOL    HW116379   0.214   1.777   7.331 -0.4641  0.4162  0.6350
 1582SOL    HW216380   0.060   1.760   7.356  0.9717  1.2894  2.5368
 1583SOL     OW16381   0.442   2.086   1.601 -0.0268 -0.2213  0.8155
 1583SOL    HW116382   0.385   2.124   1.669  0.0858 -0.4239  1.0216
 1583SOL    HW216383   0.524   2.109   1.645  0.9526  0.2418 -1.2465
 1584SOL     OW16384   1.669   0.326   2.615 -0.2325  0.1084 -0.5682
 1584SOL    HW116385   1.665   0.303   2.522  0.5747 -0.2984 -0.5064
 1584SOL    HW216386   1.680   0.238   2.651  0.3883 -1.3175 -4.2739
 1585SOL     OW16387   1.621   2.963   2.072  0.1831 -0.1795  0.2728
 1585SOL    HW116388   1.612   2.968   2.167  2.6874  0.4102  0.4637
 1585SOL    HW216389   1.676   2.885   2.065  0.2401 -0.3614  2.9505
 1586SOL     OW16390   1.063   4.325   8.847  0.2215 -0.1826 -0.8787
 1586SOL    HW116391   1.005   4.267   8.896 -0.5246 -0.8607 -2.5589
 1586SOL    HW216392   1.085   4.267   8.774  1.7349 -2.2944  1.2868
 1587SOL     OW16393   3.411   2.610  11.254 -0.5084  0.0784 -0.8965
 1587SOL    HW116394   3.506   2.603  11.245 -0.7017 -1.0175 -2.2024
 1587SOL    HW216395   3.390   2.535  11.197 -2.5301  0.6021 -0.8390
 1588SOL     OW16396   0.525   2.993   8.607 -0.2844  0.9195 -0.2690
 1588SOL    HW116397   0.602   2.999   8.552 -2.7543  2.5143 -3.5159
 1588SOL    HW216398   0.522   2.897   8.610  0.4420  0.9249  0.6679
 1589SOL     OW16399   3.893   4.541   3.134 -0.0023  0.6252 -0.3037
 1589SOL    HW116400   3.803   4.564   3.158  0.7685  1.4256  1.8311
 1589SOL    HW216401   3.944   4.549   3.214 -0.2240  1.9302 -0.3034
 1590SOL     OW16402   1.775   1.477   3.910 -0.4936 -0.4031 -0.7698
 1590SOL    HW116403   1.823   1.541   3.963 -1.3760 -0.0295 -0.4193
 1590SOL    HW216404   1.725   1.534   3.852 -0.4440 -1.4827 -1.8492
 1591SOL     OW16405   4.203   4.450   5.506 -0.3330 -0.3483 -1.0211
 1591SOL    HW116406   4.210   4.396   5.585 -3.1451  2.0765  0.8858
 1591SOL    HW216407   4.295   4.473   5.496 -0.3589 -0.4314 -1.4230
 1592SOL     OW16408   0.233   1.252   3.740 -0.4232 -0.1798 -0.1262
 1592SOL    HW116409   0.152   1.248   3.689  0.7547  0.0283 -1.9929
 1592SOL    HW216410   0.262   1.343   3.731 -0.7569 -0.0218  0.3589
 1593SOL     OW16411   4.192   3.204   7.164 -0.3245  0.4274  0.6867
 1593SOL    HW116412   4.187   3.112   7.187  2.3433 -0.4884 -2.4008
 1593SOL    HW216413   4.130   3.207   7.092 -0.3608 -0.8419  0.6706
 1594SOL     OW16414   4.496   1.172   3.266 -0.0390  0.1192 -0.0528
 1594SOL    HW116415   4.426   1.177   3.332 -0.7497  0.0242 -0.7961
 1594SOL    HW216416   4.466   1.094   3.218 -0.1690 -0.9357  1.7641
 1595SOL     OW16417   3.020   0.474   2.012  0.6898 -0.0237  0.4643
 1595SOL    HW116418   2.959   0.408   1.980 -0.0465 -0.1716  2.1506
 1595SOL    HW216419   2.975   0.552   1.979  1.3979  0.5769  0.9188
 1596SOL     OW16420   4.529   2.341   2.191 -0.7207 -0.1259  0.4291
 1596SOL    HW116421   4.623   2.326   2.178 -0.4188  1.1099  1.1803
 1596SOL    HW216422   4.506   2.274   2.127  1.0986  1.3230 -1.7358
 1597SOL     OW16423   3.441   0.706   6.613 -0.4615 -0.4182  0.0776
 1597SOL    HW116424   3.481   0.622   6.588 -0.6972 -0.5870  0.2678
 1597SOL    HW216425   3.362   0.692   6.562  0.1721 -2.5437 -0.3477
 1598SOL     OW16426   0.018   0.644   9.160  0.1784  0.3051 -0.0565
 1598SOL    HW116427   4.735   0.734   9.136 -1.9456 -0.4512 -0.8509
 1598SOL    HW216428   4.668   0.613   9.160  0.2374  0.1330 -0.2221
 1599SOL     OW16429   4.018   0.918   7.365 -0.4266  0.0206  0.6783
 1599SOL    HW116430   4.099   0.866   7.371 -0.8055 -0.6854 -0.1787
 1599SOL    HW216431   4.038   0.988   7.303 -2.2597  0.2750  0.3760
 1600SOL     OW16432   2.286   2.658   3.992  0.5093  0.2678  0.1144
 1600SOL    HW116433   2.318   2.583   3.942 -1.4643  1.6685 -3.2916
 1600SOL    HW216434   2.354   2.723   3.975 -0.8870  1.3757 -1.3363
 1601SOL     OW16435   2.709   1.865  16.051 -0.1879 -0.5574  0.6099
 1601SOL    HW116436   2.636   1.853  16.112 -1.0910  2.5292  0.1129
 1601SOL    HW216437   2.720   1.960  16.053 -0.5809 -0.4924 -0.3133
 1602SOL     OW16438   3.426   0.012  17.479 -0.1906 -0.1213 -0.1724
 1602SOL    HW116439   3.436   0.054  17.565 -1.3374  0.5698 -0.3785
 1602SOL    HW216440   3.384   0.082  17.428 -0.0717  0.9468  1.1883
 1603SOL     OW16441   0.572   3.715   8.110  0.3323 -0.6486 -1.1562
 1603SOL    HW116442   0.499   3.775   8.127  0.6686 -0.6670  0.3757
 1603SOL    HW216443   0.538   3.631   8.140  1.4385 -1.4349 -2.1297
 1604SOL     OW16444   3.139   0.571   4.201 -0.0014 -0.3131 -0.2271
 1604SOL    HW116445   3.173   0.634   4.138 -0.1438  1.0196  1.0112
 1604SOL    HW216446   3.160   0.608   4.287  2.3172 -0.9469 -0.5122
 1605SOL     OW16447   1.162   1.908   6.997 -0.8054  0.5604 -0.3508
 1605SOL    HW116448   1.123   1.972   7.057  0.1423 -0.2073  1.0872
 1605SOL    HW216449   1.157   1.949   6.911 -0.3637 -1.5793 -1.3973
 1606SOL     OW16450   2.970   1.732   5.453 -0.0762  0.2542 -0.1228
 1606SOL    HW116451   2.985   1.818   5.492 -1.3147  0.2426  0.3729
 1606SOL    HW216452   2.934   1.753   5.367 -2.8944  0.4141  1.0865
 1607SOL     OW16453   2.543   2.252   2.193 -0.3354 -0.4743 -0.0571
 1607SOL    HW116454   2.498   2.207   2.121  0.0922 -1.8229  0.5204
 1607SOL    HW216455   2.606   2.312   2.153  0.5665 -1.5797 -0.3010
 1608SOL     OW16456   2.256   0.855   7.031  0.1574 -0.6569  0.4145
 1608SOL    HW116457   2.209   0.806   7.099 -0.1310  1.2238  1.5711
 1608SOL    HW216458   2.179   0.905   7.004 -0.3805 -0.2506  2.7042
 1609SOL     OW16459   0.564   3.209   0.097  0.1293  0.0662 -0.5565
 1609SOL    HW116460   0.564   3.231   0.004 -0.0928  2.2664 -0.0295
 1609SOL    HW216461   0.500   3.278   0.114  1.6077  1.4824 -0.7066
 1610SOL     OW16462   0.793   2.592   3.689  0.2109 -0.5375 -0.5031
 1610SOL    HW116463   0.845   2.634   3.621  1.3108 -0.6261  0.2785
 1610SOL    HW216464   0.709   2.635   3.676  0.4105  0.7830  2.6616
 1611SOL     OW16465   0.373   2.592   4.877 -0.4825 -0.0247  0.5020
 1611SOL    HW116466   0.294   2.599   4.824 -0.9668 -0.4297  1.1782
 1611SOL    HW216467   0.375   2.669   4.934 -1.1106 -0.8419  1.6088
 1612SOL     OW16468   1.482   0.546   2.276  0.0911 -0.0721  0.3593
 1612SOL    HW116469   1.553   0.609   2.276 -2.4731  2.7991 -0.4350
 1612SOL    HW216470   1.430   0.568   2.199  0.6532 -1.0196 -0.2949
 1613SOL     OW16471   2.252   2.587   1.252  0.5450  0.2632 -0.2936
 1613SOL    HW116472   2.163   2.595   1.287  0.1277 -0.8157 -1.1162
 1613SOL    HW216473   2.278   2.504   1.290 -0.7870 -0.1977 -0.3904
 1614SOL     OW16474   1.821   2.946   4.513  0.2609 -0.1660  0.1613
 1614SOL    HW116475   1.862   2.878   4.566  1.8597  0.8293  0.1869
 1614SOL    HW216476   1.826   2.913   4.423 -2.3982 -0.9639  0.2854
 1615SOL     OW16477   4.348   4.091  13.653 -0.3116  0.3690  0.1497
 1615SOL    HW116478   4.356   4.007  13.609  0.3831 -0.4226  1.8013
 1615SOL    HW216479   4.354   4.061  13.744  0.6374  0.6784  0.1899
 1616SOL     OW16480   2.956   1.143  15.072 -0.4407  0.3299  0.4551
 1616SOL    HW116481   2.946   1.047  15.076  1.0081  0.1085 -1.3967
 1616SOL    HW216482   2.969   1.144  14.977 -1.5547 -0.0798  0.2888
 1617SOL     OW16483   2.919   4.327  12.739  0.2044  0.3343  0.7757
 1617SOL    HW116484   2.869   4.305  12.818 -0.9617 -0.0360 -0.0610
 1617SOL    HW216485   2.864   4.399  12.710  1.9827  1.4891  0.2740
 1618SOL     OW16486   4.188   3.409  16.786  0.1352 -0.1508 -0.5906
 1618SOL    HW116487   4.222   3.361  16.862 -0.8553 -0.4816 -0.3458
 1618SOL    HW216488   4.266   3.459  16.763  1.5646 -1.9369  0.3607
 1619SOL     OW16489   2.504   0.317   4.168  0.0011 -0.2872  0.3086
 1619SOL    HW116490   2.429   0.328   4.110  0.2969 -1.2878 -0.2678
 1619SOL    HW216491   2.481   0.385   4.231 -0.8221 -0.5927  0.3331
 1620SOL     OW16492   4.230   3.494   8.423 -0.1978  0.4142 -0.0246
 1620SOL    HW116493   4.212   3.552   8.497 -0.8723  2.0246 -1.4748
 1620SOL    HW216494   4.322   3.473   8.437 -0.7000 -0.6474  1.6883
 1621SOL     OW16495   4.436   0.689  10.655 -0.4915  0.5550 -0.4122
 1621SOL    HW116496   4.518   0.738  10.660  0.6165 -1.6149  2.6155
 1621SOL    HW216497   4.392   0.735  10.583  2.9962  1.5782 -1.8580
 1622SOL     OW16498   2.994   0.237   7.696 -0.0199  0.1798  0.4925
 1622SOL    HW116499   2.906   0.210   7.671  0.3913  0.7750 -1.5528
 1622SOL    HW216500   3.001   0.303   7.628  0.0332  0.4329  0.7411
 1623SOL     OW16501   3.600   2.375  15.173  0.2361  0.4506  0.1247
 1623SOL    HW116502   3.524   2.371  15.231 -0.3803 -1.0712 -0.7701
 1623SOL    HW216503   3.642   2.289  15.180 -1.7226 -0.4847  0.2563
 1624SOL     OW16504   0.038   0.832   3.088  0.1487  0.6377 -0.0773
 1624SOL    HW116505   0.010   0.761   3.031  1.9100 -1.1500  1.3230
 1624SOL    HW216506   0.122   0.855   3.047  0.4085 -0.7365 -0.2942
 1625SOL     OW16507   2.683   1.219  13.078 -0.5394 -0.4627  0.0475
 1625SOL    HW116508   2.754   1.174  13.122 -0.9433 -2.5056 -1.4101
 1625SOL    HW216509   2.706   1.205  12.986  1.1051  0.2510  0.3599
 1626SOL     OW16510   3.749   3.526   4.790 -0.1880 -0.9874 -0.0557
 1626SOL    HW116511   3.819   3.460   4.791 -1.8420 -2.7992 -1.9953
 1626SOL    HW216512   3.686   3.470   4.744 -0.5318  0.3061 -1.1748
 1627SOL     OW16513   4.068   2.814   8.850  0.0553  0.8334  0.6176
 1627SOL    HW116514   4.158   2.810   8.881  0.7843 -0.2326 -1.6402
 1627SOL    HW216515   4.053   2.905   8.872  1.4739  0.8254  1.6025
 1628SOL     OW16516   2.357   1.375   2.931 -0.0088 -0.0503 -0.6026
 1628SOL    HW116517   2.437   1.324   2.942 -1.6113 -2.4149  0.3011
 1628SOL    HW216518   2.312   1.313   2.873  0.1040 -0.1513 -0.5828
 1629SOL     OW16519   2.440   3.721   8.785 -0.2753  0.6567  0.0695
 1629SOL    HW116520   2.485   3.721   8.700  0.4500 -0.2260  0.4566
 1629SOL    HW216521   2.354   3.736   8.745  0.1570  0.0376 -1.0901
 1630SOL     OW16522   1.168   2.284   5.887  0.1303 -0.3139  0.6578
 1630SOL    HW116523   1.224   2.219   5.845  0.9935  0.1775  1.0371
 1630SOL    HW216524   1.116   2.306   5.810  0.7294  2.0430  0.9107
 1631SOL     OW16525   2.182   4.651   4.288  0.2832 -0.1058 -0.3806
 1631SOL    HW116526   2.268   4.684   4.315  0.1975  0.6082 -0.9782
 1631SOL    HW216527   2.219   4.568   4.257 -0.5189 -0.4458 -0.4383
 1632SOL     OW16528   2.480   4.238   8.629 -0.0895 -0.0478  0.7698
 1632SOL    HW116529   2.510   4.151   8.605  0.5706  0.6583 -1.0146
 1632SOL    HW216530   2.502   4.290   8.551 -1.3023  0.5107  0.7920
 1633SOL     OW16531   3.330   2.458   7.446 -0.1140 -0.2680  0.0704
 1633SOL    HW116532   3.376   2.400   7.386  1.3565  1.5421 -0.5506
 1633SOL    HW216533   3.372   2.441   7.530 -0.7015 -1.1220  0.1916
 1634SOL     OW16534   1.541   3.350   4.855  0.1129  0.5312 -0.0918
 1634SOL    HW116535   1.502   3.339   4.768  0.9555 -0.6357 -0.3125
 1634SOL    HW216536   1.496   3.432   4.877 -0.7299 -0.4451  1.8397
 1635SOL     OW16537   4.549   4.352   8.219 -0.0664 -0.2760 -0.2164
 1635SOL    HW116538   4.548   4.292   8.294 -0.5282 -0.0403 -0.0372
 1635SOL    HW216539   4.472   4.407   8.231  1.1801  1.5066 -0.4073
 1636SOL     OW16540   2.758   3.967  14.733  0.0495  0.7671  0.4067
 1636SOL    HW116541   2.668   3.932  14.730  1.2069 -1.9656 -2.2353
 1636SOL    HW216542   2.794   3.897  14.679 -0.2526 -1.3364  2.8710
 1637SOL     OW16543   2.803   4.414  10.052 -0.3015 -0.0900  0.0222
 1637SOL    HW116544   2.875   4.352  10.044 -1.2609 -0.9742 -1.5742
 1637SOL    HW216545   2.830   4.486   9.995 -2.0414 -0.3899 -1.1615
 1638SOL     OW16546   2.844   3.788   3.251  0.2741 -0.1788 -0.1202
 1638SOL    HW116547   2.912   3.791   3.318 -0.8784  2.8735  0.9437
 1638SOL    HW216548   2.800   3.869   3.276 -0.4920  0.3328 -3.0747
 1639SOL     OW16549   0.537   0.185  17.265 -0.3075 -0.4132 -0.3528
 1639SOL    HW116550   0.579   0.224  17.342  0.8262 -2.9118  0.2869
 1639SOL    HW216551   0.448   0.218  17.278 -0.7008 -0.4481 -2.9067
 1640SOL     OW16552   2.576   0.449  16.453  0.3515  0.0687 -0.5568
 1640SOL    HW116553   2.610   0.510  16.387  0.4998  0.2928 -0.2680
 1640SOL    HW216554   2.657   0.412  16.489  0.4944  0.6943 -0.2382
 1641SOL     OW16555   1.844   2.165  11.413  0.2928  0.5466  0.0229
 1641SOL    HW116556   1.883   2.215  11.484 -0.8574 -0.0316  1.0732
 1641SOL    HW216557   1.904   2.093  11.391  1.8370  1.6324  0.7488
 1642SOL     OW16558   3.436   1.607  15.118 -0.1631 -0.4677 -0.3038
 1642SOL    HW116559   3.392   1.677  15.166 -2.8586 -0.3105 -3.0008
 1642SOL    HW216560   3.529   1.628  15.113 -0.1386 -0.9757 -2.2106
 1643SOL     OW16561   2.611   3.380   4.149  0.6447 -0.1650 -0.0769
 1643SOL    HW116562   2.706   3.391   4.152  0.6301 -0.2340  0.7189
 1643SOL    HW216563   2.579   3.438   4.219 -1.8056 -0.6850 -0.7656
 1644SOL     OW16564   2.909   1.153   0.955 -0.0264  0.0523  0.0521
 1644SOL    HW116565   2.845   1.096   0.912  1.0568  0.7926 -2.5300
 1644SOL    HW216566   2.928   1.216   0.886 -0.8974  1.4226  1.0720
 1645SOL     OW16567   0.733   1.097  15.017  0.0822 -0.5404 -0.2455
 1645SOL    HW116568   0.738   1.043  14.938 -1.2742 -0.6434 -0.2626
 1645SOL    HW216569   0.826   1.115  15.030  0.1857  0.4418 -2.2766
 1646SOL     OW16570   2.043   2.394   4.236 -0.2542 -0.0652  0.3420
 1646SOL    HW116571   2.122   2.365   4.191  0.2654 -0.0802  1.2762
 1646SOL    HW216572   2.078   2.456   4.300  0.2272 -0.7595  0.7377
 1647SOL     OW16573   0.280   0.761  10.426 -0.1279  0.2155 -0.7173
 1647SOL    HW116574   0.191   0.759  10.461  0.7239 -1.1325  1.3795
 1647SOL    HW216575   0.334   0.737  10.502 -1.2657 -2.4360 -0.7441
 1648SOL     OW16576   2.418   3.108   4.637  0.0829 -0.5432  0.3342
 1648SOL    HW116577   2.459   3.154   4.564  0.9658 -0.6895  0.7315
 1648SOL    HW216578   2.332   3.149   4.634 -0.4355 -1.4893  2.7257
 1649SOL     OW16579   2.990   1.887   3.827  0.2930  0.2366  0.0365
 1649SOL    HW116580   3.023   1.889   3.918 -0.1182  3.2636  0.1263
 1649SOL    HW216581   2.944   1.803   3.833 -0.1311  0.5332  0.9225
 1650SOL     OW16582   3.094   2.957  14.525  0.4602 -0.1934 -0.1672
 1650SOL    HW116583   3.005   2.921  14.531  0.4120 -0.2244 -1.1254
 1650SOL    HW216584   3.108   2.981  14.617 -0.4262 -0.3552  0.0064
 1651SOL     OW16585   0.102   3.025   3.491 -0.0503  0.3683  0.3651
 1651SOL    HW116586   0.137   2.970   3.422  1.7510  0.5148  1.1579
 1651SOL    HW216587   0.009   3.006   3.478 -0.3124  1.3668  0.7539
 1652SOL     OW16588   0.144   3.381   4.150  0.2131 -0.1522 -0.2559
 1652SOL    HW116589   0.197   3.441   4.098  0.6593  1.5856  2.1683
 1652SOL    HW216590   0.204   3.306   4.147  1.6077  1.0112 -1.4096
 1653SOL     OW16591   4.035   1.282  10.306  0.8974  0.3207  0.1357
 1653SOL    HW116592   4.090   1.360  10.308  0.2633  0.7752 -0.1988
 1653SOL    HW216593   3.949   1.316  10.330 -0.1902 -1.0200 -1.8387
 1654SOL     OW16594   3.774   3.961   7.185 -0.5765 -0.3498 -0.0660
 1654SOL    HW116595   3.867   3.939   7.180 -0.2887  0.8213  0.0415
 1654SOL    HW216596   3.772   4.032   7.249 -1.8486 -1.0632  0.6814
 1655SOL     OW16597   0.291   2.315  15.737 -0.0162 -0.1488 -0.2631
 1655SOL    HW116598   0.227   2.249  15.713  0.4286 -0.0855 -1.5822
 1655SOL    HW216599   0.303   2.305  15.832  1.3110 -4.2695 -0.8942
 1656SOL     OW16600   1.720   1.616  15.875  0.3071  0.8149 -0.0235
 1656SOL    HW116601   1.725   1.669  15.795  1.6341  1.6464  0.6094
 1656SOL    HW216602   1.631   1.629  15.907 -0.0082  2.3972 -1.5919
 1657SOL     OW16603   0.822   1.066  16.011  0.1713  0.1898  0.2932
 1657SOL    HW116604   0.871   1.024  15.940  0.7389 -1.3653  1.6139
 1657SOL    HW216605   0.801   1.150  15.971 -1.2430 -0.0023  0.6481
 1658SOL     OW16606   0.781   1.608   4.942  0.1097  0.1442 -0.7479
 1658SOL    HW116607   0.694   1.568   4.952  0.0931  0.6910  1.3436
 1658SOL    HW216608   0.831   1.537   4.983 -0.1843 -0.5890 -1.6551
 1659SOL     OW16609   1.888   3.150   4.198  0.4488 -0.1480  0.2659
 1659SOL    HW116610   1.968   3.147   4.251 -0.5710 -1.4304  1.7195
 1659SOL    HW216611   1.868   3.058   4.186 -1.6740  0.1860  1.3813
 1660SOL     OW16612   1.334   3.616  12.675  0.6868  0.5413  0.3015
 1660SOL    HW116613   1.310   3.523  12.674  1.7566  0.2466  1.4754
 1660SOL    HW216614   1.428   3.617  12.653  0.0988  0.4794 -2.2370
 1661SOL     OW16615   2.362   2.166   5.302 -0.1658  0.1759 -0.3292
 1661SOL    HW116616   2.394   2.085   5.342  0.1458  0.5553  0.2008
 1661SOL    HW216617   2.285   2.130   5.259 -0.1842 -2.7051  2.1693
 1662SOL     OW16618   1.834   0.838   3.268  0.1339 -0.7140  0.8714
 1662SOL    HW116619   1.878   0.828   3.184  1.8213  1.4061  1.5124
 1662SOL    HW216620   1.905   0.859   3.328  2.3783 -0.1949 -2.0218
 1663SOL     OW16621   0.287   2.339   5.871 -0.3543 -0.2109 -0.3744
 1663SOL    HW116622   0.322   2.428   5.877 -0.8790 -0.0946  0.7950
 1663SOL    HW216623   0.373   2.296   5.870 -1.4651 -2.4481  1.8750
 1664SOL     OW16624   2.069   0.065   2.165 -0.2058 -0.4094 -0.6424
 1664SOL    HW116625   2.053   4.711   2.158  3.2091 -0.9827 -0.6002
 1664SOL    HW216626   1.985   0.097   2.132 -0.7765  0.2000  1.3863
 1665SOL     OW16627   3.630   0.125   1.881  0.0563 -0.4705 -0.1109
 1665SOL    HW116628   3.707   0.181   1.875  0.0757 -0.7018 -1.8557
 1665SOL    HW216629   3.630   0.104   1.975 -0.5470 -0.1344 -0.0351
 1666SOL     OW16630   3.215   3.347  17.390  0.0983  0.3640  0.4654
 1666SOL    HW116631   3.267   3.308  17.320 -1.9487 -1.4734 -0.0076
 1666SOL    HW216632   3.277   3.419  17.403 -0.5619  0.4493  3.1151
 1667SOL     OW16633   3.554   1.208   7.954  0.9095 -0.9123 -0.0334
 1667SOL    HW116634   3.494   1.274   7.989  1.8780 -1.1832  2.1717
 1667SOL    HW216635   3.627   1.264   7.926 -0.2772  2.0523  2.7649
 1668SOL     OW16636   0.799   3.933   2.378 -0.5564  0.1979  0.3291
 1668SOL    HW116637   0.763   3.857   2.333  0.5489 -0.6222  0.8546
 1668SOL    HW216638   0.839   3.982   2.306 -0.5106 -0.0187  0.2079
 1669SOL     OW16639   1.966   0.006   2.877 -0.0915  0.1784  0.0103
 1669SOL    HW116640   1.975   4.652   2.884 -0.1473  0.1620 -0.1296
 1669SOL    HW216641   1.949   0.021   2.783  3.4894 -2.9505 -1.1250
 1670SOL     OW16642   3.525   1.518   4.165  0.7880 -1.4350 -0.3098
 1670SOL    HW116643   3.545   1.469   4.245  1.4816 -1.6750 -0.6289
 1670SOL    HW216644   3.461   1.460   4.124 -0.4350  0.1768 -0.6947
 1671SOL     OW16645   1.662   3.254   7.416  0.4204  0.6238  0.2063
 1671SOL    HW116646   1.684   3.185   7.355 -0.5420  1.7963 -1.4624
 1671SOL    HW216647   1.687   3.334   7.370  1.5782  0.0515 -0.1483
 1672SOL     OW16648   0.079   2.596   5.001 -0.2680  0.5460 -0.3988
 1672SOL    HW116649   0.114   2.507   5.005 -1.5293  0.1817  2.0612
 1672SOL    HW216650   0.102   2.625   5.089 -0.3610 -1.5983  0.3060
 1673SOL     OW16651   3.759   2.710  14.488  0.2647  0.0130  0.2745
 1673SOL    HW116652   3.730   2.632  14.537  1.4693 -3.0024 -3.7721
 1673SOL    HW216653   3.680   2.763  14.497  1.0120  1.3602 -1.2839
 1674SOL     OW16654   3.102   2.199  16.394 -0.0633  0.2864 -0.5605
 1674SOL    HW116655   3.161   2.181  16.321 -2.0431 -1.9740 -1.6061
 1674SOL    HW216656   3.034   2.135  16.376 -1.4777  1.7928 -0.5651
 1675SOL     OW16657   3.468   1.799   0.478  0.8627 -0.6191 -0.9662
 1675SOL    HW116658   3.479   1.893   0.466 -0.4172 -0.6291 -2.2196
 1675SOL    HW216659   3.381   1.801   0.439 -0.4848  2.0136  2.1863
 1676SOL     OW16660   3.509   3.160   9.226  0.1793  0.0027 -0.4914
 1676SOL    HW116661   3.484   3.252   9.222 -0.0685 -0.0581 -0.3606
 1676SOL    HW216662   3.438   3.120   9.176 -1.2522  3.0844 -0.9201
 1677SOL     OW16663   0.307   0.722   9.068 -0.4300 -0.3143 -0.1060
 1677SOL    HW116664   0.226   0.764   9.039 -1.4800 -1.3898  1.2383
 1677SOL    HW216665   0.279   0.632   9.084 -0.9183 -0.2547 -0.5985
 1678SOL     OW16666   1.673   2.405  13.657  0.4923 -0.3295  0.0044
 1678SOL    HW116667   1.769   2.410  13.652  0.4182  1.6565  0.4560
 1678SOL    HW216668   1.662   2.311  13.671  0.7225 -0.5163 -1.0160
 1679SOL     OW16669   1.882   1.821   1.933 -0.3223  0.8939  0.0157
 1679SOL    HW116670   1.832   1.757   1.985  0.1101 -0.9363 -1.8276
 1679SOL    HW216671   1.963   1.823   1.983 -0.8890 -0.9062  1.0064
 1680SOL     OW16672   2.767   3.121   5.029  0.1517  0.1334 -0.3986
 1680SOL    HW116673   2.692   3.076   5.069  0.3057  0.6120  0.4400
 1680SOL    HW216674   2.758   3.105   4.936  0.5588  1.5196 -0.6859
 1681SOL     OW16675   2.832   4.094   9.629 -0.4952 -0.0444  0.6023
 1681SOL    HW116676   2.791   4.153   9.692  1.2433  0.9305  0.8091
 1681SOL    HW216677   2.891   4.149   9.577 -1.2703 -0.3335 -0.5985
 1682SOL     OW16678   4.635   1.683  13.900  0.5575 -0.2796  0.3448
 1682SOL    HW116679   4.659   1.761  13.950  0.4963  0.3907 -0.6745
 1682SOL    HW216680   4.695   1.682  13.826 -1.7359 -2.0486 -1.5124
 1683SOL     OW16681   0.244   4.684  12.493  0.1108 -0.7037 -0.2309
 1683SOL    HW116682   0.280   4.684  12.404 -0.0300 -1.6265 -0.2889
 1683SOL    HW216683   0.265   4.604  12.542  1.2012 -0.4262 -0.2356
 1684SOL     OW16684   1.403   3.623   0.317  0.2069  0.4638 -0.6851
 1684SOL    HW116685   1.434   3.691   0.376 -2.5076 -0.9072  2.2956
 1684SOL    HW216686   1.454   3.549   0.349 -0.5427 -0.1088 -0.8207
 1685SOL     OW16687   4.310   0.409   7.302 -0.1626 -0.6544  0.2933
 1685SOL    HW116688   4.298   0.317   7.326 -3.0277 -0.4550 -0.3018
 1685SOL    HW216689   4.271   0.408   7.214 -1.1669  1.1560  0.7171
 1686SOL     OW16690   1.109   2.655  15.342  0.7116 -0.7284 -0.3337
 1686SOL    HW116691   1.034   2.617  15.387  1.1734  0.7083  1.6635
 1686SOL    HW216692   1.124   2.599  15.266 -0.0220 -0.1718 -0.8822
 1687SOL     OW16693   2.514   4.014   0.730  0.0663 -0.3397  0.3827
 1687SOL    HW116694   2.536   4.052   0.816 -1.5148 -0.7113  0.9424
 1687SOL    HW216695   2.494   4.091   0.676  2.7571  0.6529  0.7988
 1688SOL     OW16696   0.495   4.254   7.608 -0.1925  0.3494 -0.0173
 1688SOL    HW116697   0.410   4.286   7.578 -0.2144  1.4684  1.2808
 1688SOL    HW216698   0.482   4.238   7.701  1.1503  1.1522  0.3115
 1689SOL     OW16699   2.132   2.888   5.081 -0.2677  0.0884 -0.1702
 1689SOL    HW116700   2.057   2.942   5.058  0.3810  1.2864  0.5076
 1689SOL    HW216701   2.099   2.816   5.136  3.0525  0.3238  2.1412
 1690SOL     OW16702   0.721   2.616   4.203 -0.2395  0.6065  0.1493
 1690SOL    HW116703   0.712   2.521   4.211  0.0351  0.4154 -1.7598
 1690SOL    HW216704   0.631   2.640   4.224 -0.6135 -1.1330  0.5112
 1691SOL     OW16705   1.193   0.724   5.021  0.0434 -0.1372 -0.1951
 1691SOL    HW116706   1.243   0.709   4.940  1.9449  1.1240  0.7374
 1691SOL    HW216707   1.109   0.683   5.002  1.7352 -1.5613 -4.8105
 1692SOL     OW16708   1.556   2.476  13.368 -0.6412  0.2152  0.4279
 1692SOL    HW116709   1.554   2.386  13.400 -0.0122  0.3760  0.9235
 1692SOL    HW216710   1.640   2.514  13.395 -0.9383 -0.6208  2.5603
 1693SOL     OW16711   2.339   0.903  13.285 -0.2514  0.3185  0.0811
 1693SOL    HW116712   2.319   0.976  13.343 -1.6884  0.5112 -0.6726
 1693SOL    HW216713   2.266   0.904  13.223  0.5684  0.5633 -0.8767
 1694SOL     OW16714   0.895   0.801   8.027  0.7823 -0.3649  0.2461
 1694SOL    HW116715   0.828   0.868   8.041  2.6208  1.6219 -0.3804
 1694SOL    HW216716   0.963   0.832   8.088  1.3472 -0.9892 -0.0671
 1695SOL     OW16717   4.273   0.428   1.441 -0.0274  0.0701 -0.5681
 1695SOL    HW116718   4.275   0.506   1.386 -0.1398 -0.0836 -0.7877
 1695SOL    HW216719   4.365   0.402   1.451  0.3343  0.6527 -2.4758
 1696SOL     OW16720   2.800   1.093   9.218 -0.2328 -0.1193  0.5259
 1696SOL    HW116721   2.728   1.031   9.204 -0.3423  0.3206 -0.8554
 1696SOL    HW216722   2.802   1.099   9.313 -0.8319 -2.4971  0.7082
 1697SOL     OW16723   1.229   1.733   4.805  0.2775 -0.6156 -0.2153
 1697SOL    HW116724   1.270   1.707   4.887  0.0132  1.0917  0.4565
 1697SOL    HW216725   1.138   1.709   4.819 -0.0093  0.8502  0.3488
 1698SOL     OW16726   3.852   0.821   4.679  0.0157  0.0068 -0.1270
 1698SOL    HW116727   3.857   0.768   4.600 -0.7156 -0.1397 -0.0775
 1698SOL    HW216728   3.944   0.824   4.705  0.1266 -1.8157 -0.3221
 1699SOL     OW16729   0.704   4.107  17.016  0.1913 -0.1675 -0.5636
 1699SOL    HW116730   0.726   4.155  17.096  1.9075 -1.7183 -0.1053
 1699SOL    HW216731   0.785   4.062  16.994  0.6593 -0.0615  0.9508
 1700SOL     OW16732   0.212   1.185  17.226  0.2567 -0.0023  0.5839
 1700SOL    HW116733   0.121   1.157  17.212  2.0728 -5.1773 -0.9667
 1700SOL    HW216734   0.220   1.269  17.181 -3.2649 -0.2854 -0.6188
 1701SOL     OW16735   1.142   4.542  14.067 -0.0136  0.4709  0.5389
 1701SOL    HW116736   1.146   4.457  14.110 -0.5010  0.3585  0.3612
 1701SOL    HW216737   1.051   4.556  14.042 -0.0800  0.0397  0.5517
 1702SOL     OW16738   2.660   4.652   5.196 -0.1778 -0.6765 -0.6958
 1702SOL    HW116739   2.753   4.674   5.197 -0.0703 -1.1672 -0.3645
 1702SOL    HW216740   2.621   4.727   5.242  0.4225 -1.3346  0.8800
 1703SOL     OW16741   0.685   4.697  10.253  0.1203 -0.1109 -0.1405
 1703SOL    HW116742   0.635   4.644  10.315 -3.0959  1.0702 -1.7123
 1703SOL    HW216743   0.747   4.635  10.214  1.2156 -0.2382  1.7811
 1704SOL     OW16744   1.686   4.633  13.086  0.4028  0.5371 -0.4314
 1704SOL    HW116745   1.648   4.562  13.138 -0.1717  0.7625 -0.5403
 1704SOL    HW216746   1.775   4.645  13.119 -0.0632  0.9329  0.6567
 1705SOL     OW16747   0.719   3.318   5.106  0.2850 -0.1228  0.0689
 1705SOL    HW116748   0.806   3.323   5.067  0.5635 -2.4490  0.3739
 1705SOL    HW216749   0.679   3.258   5.042  1.2923 -1.3393  0.5906
 1706SOL     OW16750   3.069   1.214   9.547  0.3107 -0.0852  0.5070
 1706SOL    HW116751   3.069   1.159   9.625 -0.7712 -1.4479 -0.4570
 1706SOL    HW216752   3.146   1.186   9.499  0.9342  0.4582  1.1849
 1707SOL     OW16753   0.970   3.507  16.209 -0.6144  0.0338 -0.6317
 1707SOL    HW116754   0.928   3.574  16.155 -0.4313 -0.0321 -0.8597
 1707SOL    HW216755   1.053   3.495  16.162  0.4269  0.9098  0.9659
 1708SOL     OW16756   1.040   0.528  11.712  0.3861  0.3999  0.4148
 1708SOL    HW116757   1.061   0.484  11.795 -2.0133 -1.4654  0.0403
 1708SOL    HW216758   1.052   0.456  11.651 -2.1479 -1.0136  1.5568
 1709SOL     OW16759   4.372   1.013  11.230  0.5960  0.2736  0.1452
 1709SOL    HW116760   4.426   0.990  11.306 -0.5449 -0.0562  0.8543
 1709SOL    HW216761   4.303   1.064  11.271  0.8729  1.1991 -0.5328
 1710SOL     OW16762   2.837   1.631   7.859  0.4452  0.0806  0.2772
 1710SOL    HW116763   2.751   1.673   7.850  0.1385 -0.3854  1.0452
 1710SOL    HW216764   2.840   1.633   7.954 -2.0590  1.9361  0.3248
 1711SOL     OW16765   0.285   2.622  16.864  0.3035 -0.8456 -0.4102
 1711SOL    HW116766   0.242   2.636  16.779 -2.4566  2.4715  1.5235
 1711SOL    HW216767   0.209   2.615  16.921  1.8206  1.1527  1.8697
 1712SOL     OW16768   3.699   1.181   3.992 -0.1524 -0.0245  0.4810
 1712SOL    HW116769   3.759   1.220   4.055  0.1426  2.4258 -1.2851
 1712SOL    HW216770   3.619   1.228   4.016  0.3053  2.0766 -2.1293
 1713SOL     OW16771   2.965   1.874   3.412  0.2418 -0.3470  0.1535
 1713SOL    HW116772   2.928   1.793   3.445  1.5238 -1.4200 -1.0491
 1713SOL    HW216773   3.043   1.887   3.467  1.3161 -0.0983 -1.4271
 1714SOL     OW16774   4.592   1.438   2.456 -0.1305 -0.0230  0.5854
 1714SOL    HW116775   4.561   1.375   2.520 -2.4412  0.1703 -0.3511
 1714SOL    HW216776   4.650   1.485   2.516 -2.4588 -0.3922  3.1262
 1715SOL     OW16777   1.784   1.293   6.944 -0.2826  0.4601  0.5469
 1715SOL    HW116778   1.844   1.251   6.883  1.5915  2.4892  0.9798
 1715SOL    HW216779   1.825   1.279   7.029 -2.7983 -3.8622  1.0073
 1716SOL     OW16780   4.361   1.047   7.502 -0.0862  0.3052 -0.1537
 1716SOL    HW116781   4.420   0.971   7.501  0.1784  0.4831  1.3591
 1716SOL    HW216782   4.324   1.046   7.414  1.0180  0.5395 -0.6222
 1717SOL     OW16783   0.841   1.296   3.763  0.4929 -0.3099 -0.6798
 1717SOL    HW116784   0.869   1.211   3.796 -1.1427  0.4945  2.6538
 1717SOL    HW216785   0.819   1.264   3.675  1.6330 -0.3791 -0.9427
 1718SOL     OW16786   4.627   4.491   1.740 -0.8084 -0.2428  0.4350
 1718SOL    HW116787   4.593   4.467   1.654  1.1570 -0.4838 -0.2825
 1718SOL    HW216788   4.586   4.574   1.764  1.1549  0.6926  0.5829
 1719SOL     OW16789   2.950   2.941   8.008  0.4474  0.0936 -0.8238
 1719SOL    HW116790   3.035   2.950   7.964  1.2412 -1.4588  0.3987
 1719SOL    HW216791   2.911   3.021   7.974  0.6079  0.5423  0.0526
 1720SOL     OW16792   3.729   2.857  17.471 -0.1721 -0.2758  0.1427
 1720SOL    HW116793   3.719   2.764  17.452 -0.9309 -0.3484  0.9126
 1720SOL    HW216794   3.822   2.865  17.493  0.0685 -0.0096 -0.9953
 1721SOL     OW16795   0.097   2.340   9.691 -0.4311 -0.7708 -0.1348
 1721SOL    HW116796   0.147   2.297   9.760 -1.0312  1.6313  1.8130
 1721SOL    HW216797   0.012   2.294   9.688 -0.6096 -0.4093 -0.6723
 1722SOL     OW16798   0.587   1.666   4.631 -0.1668 -0.3386  0.2952
 1722SOL    HW116799   0.630   1.747   4.602 -0.0056 -0.5045  0.0732
 1722SOL    HW216800   0.643   1.599   4.593  0.0202 -1.5607  2.7351
 1723SOL     OW16801   0.474   3.446  13.212 -0.0256  0.8425  0.4214
 1723SOL    HW116802   0.394   3.394  13.206 -0.0345  1.0476 -1.1386
 1723SOL    HW216803   0.519   3.399  13.283  2.0077 -0.7849 -1.9381
 1724SOL     OW16804   0.974   0.579   1.898  0.1242 -0.2330  0.4808
 1724SOL    HW116805   0.929   0.654   1.938  1.2480  0.2863  0.7639
 1724SOL    HW216806   0.957   0.522   1.973 -1.7023 -0.1538  0.1250
 1725SOL     OW16807   4.341   0.556   2.046  0.2143  0.4725 -0.5495
 1725SOL    HW116808   4.331   0.585   1.955  2.0344  1.2385 -0.5072
 1725SOL    HW216809   4.422   0.506   2.043 -1.2957 -1.9861  0.1707
 1726SOL     OW16810   1.743   0.685  15.816 -0.2520 -0.8044 -0.7779
 1726SOL    HW116811   1.737   0.754  15.882  1.0354 -0.7722 -0.6879
 1726SOL    HW216812   1.834   0.657  15.830 -1.0240 -1.5437  2.6938
 1727SOL     OW16813   3.590   1.926   6.350 -0.5653 -0.0112  0.1480
 1727SOL    HW116814   3.676   1.939   6.390 -0.9362  1.3942  0.5008
 1727SOL    HW216815   3.530   1.929   6.424 -0.9889  0.1966 -0.2056
 1728SOL     OW16816   4.208   0.730   7.376  0.5406  0.6201 -0.3377
 1728SOL    HW116817   4.299   0.739   7.349  1.0027 -0.3659  0.8682
 1728SOL    HW216818   4.189   0.640   7.349  2.1527  0.3022 -0.3954
 1729SOL     OW16819   3.901   3.400  16.682  0.1336  0.4811 -0.6178
 1729SOL    HW116820   3.838   3.380  16.751 -0.7012  2.1139 -0.9151
 1729SOL    HW216821   3.982   3.428  16.725  0.1942 -0.2193 -0.2712
 1730SOL     OW16822   3.318   3.869   5.864 -0.2877  0.5773 -0.0463
 1730SOL    HW116823   3.317   3.908   5.777 -0.0692  1.7033  0.4625
 1730SOL    HW216824   3.395   3.818   5.842  0.8044  0.8892  3.0302
 1731SOL     OW16825   2.881   1.168   5.673  0.7143  0.1012  0.3504
 1731SOL    HW116826   2.835   1.174   5.757 -3.2361 -0.5382 -1.7822
 1731SOL    HW216827   2.974   1.181   5.691  1.2510 -2.6759 -0.5080
 1732SOL     OW16828   4.185   1.453   7.021 -0.1368  0.5788  0.0673
 1732SOL    HW116829   4.210   1.453   6.929 -0.1293  1.2108  0.0721
 1732SOL    HW216830   4.171   1.359   7.034  1.9862  0.1535 -0.8087
 1733SOL     OW16831   1.110   3.486   4.611  0.7410 -0.4421 -0.2659
 1733SOL    HW116832   1.049   3.468   4.682  0.1687  1.7349 -0.2255
 1733SOL    HW216833   1.140   3.575   4.627  0.2784 -0.4734  0.7781
 1734SOL     OW16834   2.160   3.518   5.702 -0.5235  0.3422  0.0195
 1734SOL    HW116835   2.180   3.427   5.725  1.8397  0.2027 -2.5548
 1734SOL    HW216836   2.248   3.555   5.690  0.2972 -0.8207  2.4776
 1735SOL     OW16837   0.984   3.780   9.987  0.0876  0.0086 -0.4680
 1735SOL    HW116838   0.891   3.801   9.993  0.0421 -0.1069 -0.7946
 1735SOL    HW216839   1.030   3.861   9.965  0.5053  0.6125  2.5659
 1736SOL     OW16840   1.291   3.247   6.684  0.0409  0.3145 -0.3296
 1736SOL    HW116841   1.229   3.319   6.678 -0.5875 -0.2175 -0.1148
 1736SOL    HW216842   1.332   3.267   6.768  1.2979  2.0102 -1.3455
 1737SOL     OW16843   2.410   1.107  13.023  0.7351 -0.2137 -0.5366
 1737SOL    HW116844   2.477   1.038  13.027  0.8537  0.1108  2.5805
 1737SOL    HW216845   2.410   1.130  12.930 -2.2345 -0.3113 -0.5378
 1738SOL     OW16846   1.833   2.788  13.620 -0.1654  0.1781  0.6909
 1738SOL    HW116847   1.761   2.795  13.558 -0.5481  2.8210  1.4050
 1738SOL    HW216848   1.840   2.877  13.656  1.7594  0.6221 -0.7887
 1739SOL     OW16849   4.487   2.561  14.518  0.8474 -0.7897 -0.5328
 1739SOL    HW116850   4.393   2.578  14.515  0.9334 -0.0921  0.6049
 1739SOL    HW216851   4.505   2.497  14.449  2.8623 -2.2900  1.3386
 1740SOL     OW16852   3.938   3.333  17.513 -0.0262 -0.6661 -0.5576
 1740SOL    HW116853   3.945   3.289  17.429  2.5065 -1.9180  0.2876
 1740SOL    HW216854   3.973   3.269  17.575  0.4316  0.6716  0.5728
 1741SOL     OW16855   3.189   1.411  14.935  0.0100  0.3019 -0.2208
 1741SOL    HW116856   3.158   1.322  14.920 -0.8401  0.4572  0.5620
 1741SOL    HW216857   3.193   1.402  15.030  0.4389  0.1077 -0.2591
 1742SOL     OW16858   2.794   0.257   2.842  0.6244 -0.2270 -0.0079
 1742SOL    HW116859   2.833   0.172   2.821 -0.8741 -1.0332  0.5065
 1742SOL    HW216860   2.703   0.240   2.817  0.1278  0.3870  1.3999
 1743SOL     OW16861   0.188   0.800   5.465 -0.0365  0.4315  0.2051
 1743SOL    HW116862   0.280   0.822   5.478  0.1677  0.4623 -1.3221
 1743SOL    HW216863   0.201   0.763   5.378 -0.2241  1.5129 -0.2849
 1744SOL     OW16864   4.629   3.547   0.527  0.1970 -0.2715  0.0707
 1744SOL    HW116865   4.709   3.587   0.562 -0.7569  0.6133  1.1927
 1744SOL    HW216866   4.638   3.452   0.536  2.8388  0.3023  3.4068
 1745SOL     OW16867   1.583   2.992  16.746 -0.4590  0.0472  0.3645
 1745SOL    HW116868   1.496   2.962  16.719 -0.6327  1.9141 -1.1943
 1745SOL    HW216869   1.581   3.078  16.704 -1.6284  0.1442  0.6350
 1746SOL     OW16870   0.662   1.188   8.675 -0.2908 -0.0322  0.2649
 1746SOL    HW116871   0.635   1.209   8.764 -1.1527  2.1915 -0.5103
 1746SOL    HW216872   0.649   1.094   8.672  0.1069 -0.0694 -0.3246
 1747SOL     OW16873   4.482   4.709   3.080 -0.1970 -0.1408 -0.3377
 1747SOL    HW116874   4.528   0.047   3.050 -1.4351  1.5699  2.2854
 1747SOL    HW216875   4.393   4.736   3.058 -1.3481 -0.4211  3.9012
 1748SOL     OW16876   0.878   1.265   6.239 -0.0576  0.7828 -0.2114
 1748SOL    HW116877   0.945   1.209   6.278 -1.2810  0.0121  0.7768
 1748SOL    HW216878   0.918   1.259   6.152 -0.5110  0.5555 -0.4009
 1749SOL     OW16879   1.334   4.662   2.364 -0.5231  0.5469 -0.3511
 1749SOL    HW116880   1.306   4.590   2.307 -1.7753 -1.2905  2.6154
 1749SOL    HW216881   1.357   4.608   2.439 -1.9747  1.5763  0.8281
 1750SOL     OW16882   2.837   2.913   9.217  0.2602  0.4407 -0.2640
 1750SOL    HW116883   2.809   2.987   9.272 -3.4063  0.3856 -2.0503
 1750SOL    HW216884   2.921   2.953   9.195 -1.0256  1.2002 -3.9157
 1751SOL     OW16885   1.687   2.630  14.945 -0.9079  0.1949 -0.0732
 1751SOL    HW116886   1.691   2.606  15.038  1.7747  0.9719  0.0216
 1751SOL    HW216887   1.676   2.543  14.907  2.6292 -1.3564  2.4316
 1752SOL     OW16888   1.943   0.255   5.137 -0.3341 -0.1572 -0.3551
 1752SOL    HW116889   1.965   0.162   5.145 -1.6184 -0.3958  0.5525
 1752SOL    HW216890   2.014   0.289   5.083 -0.2831  0.4209  0.0788
 1753SOL     OW16891   0.773   0.976   4.728 -0.0152 -0.5531  0.3937
 1753SOL    HW116892   0.769   0.966   4.633 -0.0890 -0.2840  0.3670
 1753SOL    HW216893   0.681   0.957   4.748 -0.1509  0.1797  0.4853
 1754SOL     OW16894   4.304   0.132   5.405  0.2904 -0.0263  0.6548
 1754SOL    HW116895   4.276   0.088   5.485 -0.9502 -0.5931 -0.0939
 1754SOL    HW216896   4.249   0.093   5.337 -0.6204 -0.4805  1.6472
 1755SOL     OW16897   0.202   2.789   2.227 -0.1827  0.3069  0.4907
 1755SOL    HW116898   0.236   2.701   2.216 -0.9369  0.2710 -1.5472
 1755SOL    HW216899   0.175   2.824   2.142 -1.6232  0.1772  0.8848
 1756SOL     OW16900   2.957   1.987   9.078 -0.0546 -0.3979  0.2765
 1756SOL    HW116901   2.923   1.987   9.168 -1.8147 -1.1177 -0.3944
 1756SOL    HW216902   2.936   1.900   9.044 -2.5138  0.0248  0.7522
 1757SOL     OW16903   0.307   0.905   6.850  0.0180 -0.8187  0.2543
 1757SOL    HW116904   0.218   0.875   6.868  0.0926 -2.3829 -1.9532
 1757SOL    HW216905   0.287   0.989   6.808 -2.0398 -1.6879 -0.5213
 1758SOL     OW16906   0.960   2.373   7.322 -0.5515  0.1032  0.8190
 1758SOL    HW116907   0.879   2.329   7.296 -0.4163  0.6863 -0.5764
 1758SOL    HW216908   1.011   2.316   7.380 -0.3294  0.7882  1.3003
 1759SOL     OW16909   0.719   3.833   6.783 -0.1587 -0.3630 -0.0260
 1759SOL    HW116910   0.633   3.798   6.757 -0.9205  0.8445  0.9068
 1759SOL    HW216911   0.697   3.850   6.875 -1.0584 -0.3775 -0.2351
 1760SOL     OW16912   4.032   4.490   3.366 -0.2274 -0.1549  0.2600
 1760SOL    HW116913   4.098   4.497   3.435  0.1210 -3.9949  0.3429
 1760SOL    HW216914   4.006   4.397   3.371 -0.0783 -0.0970  2.0802
 1761SOL     OW16915   0.295   3.290   4.485 -0.5054  0.2788  0.3083
 1761SOL    HW116916   0.329   3.378   4.469 -0.0192 -0.0065 -0.2326
 1761SOL    HW216917   0.377   3.241   4.479 -1.3174 -1.1529  0.7764
 1762SOL     OW16918   2.102   4.714  16.778 -0.4980 -0.7728  0.5190
 1762SOL    HW116919   2.008   4.713  16.797 -0.8209  0.2612 -0.9750
 1762SOL    HW216920   2.125   0.066  16.786 -1.0600 -0.7376  1.7695
 1763SOL     OW16921   0.329   2.546   6.130 -0.3051  0.1681 -0.1289
 1763SOL    HW116922   0.356   2.462   6.166  1.4200  0.2260 -1.2981
 1763SOL    HW216923   0.235   2.538   6.111 -0.1593 -1.7597 -0.0170
 1764SOL     OW16924   1.831   2.156   5.974  0.3779 -0.3004  0.0554
 1764SOL    HW116925   1.746   2.118   5.954 -0.0674  0.9336 -0.4154
 1764SOL    HW216926   1.891   2.092   5.936 -0.6973 -1.5477  0.4524
 1765SOL     OW16927   1.731   0.986   4.219 -0.4521 -0.1037  0.0151
 1765SOL    HW116928   1.645   1.014   4.249 -1.2963 -1.8530 -0.8011
 1765SOL    HW216929   1.789   1.018   4.288 -0.7035 -0.6294  0.4650
 1766SOL     OW16930   1.365   2.281   0.596  0.3707 -0.3149 -0.0228
 1766SOL    HW116931   1.364   2.187   0.578  0.2806 -0.0574 -1.3795
 1766SOL    HW216932   1.287   2.302   0.545  2.7470  3.1534 -2.2030
 1767SOL     OW16933   2.192   2.481  16.135 -0.1367 -0.3603  0.1464
 1767SOL    HW116934   2.158   2.394  16.112  1.6207 -1.0962  0.3625
 1767SOL    HW216935   2.107   2.525  16.132  0.8312  1.2478 -3.5252
 1768SOL     OW16936   0.429   2.787   6.004 -0.0110  0.3101 -0.6078
 1768SOL    HW116937   0.429   2.828   6.090 -0.3282 -0.7128 -0.1129
 1768SOL    HW216938   0.467   2.700   6.013 -1.7881 -0.2356  1.6903
 1769SOL     OW16939   0.576   2.548   8.804 -0.0197 -0.4975  0.1368
 1769SOL    HW116940   0.508   2.513   8.861 -0.1634 -1.6803 -0.7569
 1769SOL    HW216941   0.597   2.633   8.844 -0.6217  0.0333 -0.6731
 1770SOL     OW16942   4.051   4.174   1.348  0.3728  0.1416 -0.5865
 1770SOL    HW116943   4.078   4.112   1.281 -0.3449  1.4270 -2.0743
 1770SOL    HW216944   3.979   4.219   1.303 -0.6155 -1.0299 -0.1624
 1771SOL     OW16945   1.180   0.507  10.190 -0.3033 -0.1329 -0.9375
 1771SOL    HW116946   1.219   0.420  10.191 -2.3265 -1.0245 -1.2184
 1771SOL    HW216947   1.087   0.489  10.181 -0.4131 -0.0668  0.0171
 1772SOL     OW16948   3.250   0.585  13.285  0.0663  0.4129 -0.4931
 1772SOL    HW116949   3.274   0.616  13.372 -1.1352 -0.0388  0.0065
 1772SOL    HW216950   3.164   0.543  13.295  0.2403  0.4456  1.0901
 1773SOL     OW16951   4.204   3.424   6.028 -0.0316 -0.7771 -0.1605
 1773SOL    HW116952   4.186   3.363   5.957 -0.1417 -0.1746 -0.6509
 1773SOL    HW216953   4.288   3.465   6.004 -0.1759  0.4254  1.4122
 1774SOL     OW16954   1.284   4.182   6.122  0.5954  0.2831 -0.0052
 1774SOL    HW116955   1.352   4.124   6.154  1.5395  1.2061 -0.3376
 1774SOL    HW216956   1.238   4.201   6.204 -1.3280  0.2789 -1.0863
 1775SOL     OW16957   3.113   0.263  17.747  0.3394  0.2526 -0.4819
 1775SOL    HW116958   3.119   0.355  17.723 -1.3296 -0.1992 -2.6435
 1775SOL    HW216959   3.057   0.226  17.678  0.5324 -1.8879  0.5022
 1776SOL     OW16960   0.064   1.431   7.189 -0.0039 -0.3965 -0.2043
 1776SOL    HW116961   0.064   1.494   7.261  1.6366  0.6049 -1.0833
 1776SOL    HW216962   4.721   1.440   7.143  0.6171  1.5749 -0.9489
 1777SOL     OW16963   2.889   4.132   2.152 -0.0264  0.2364 -0.0653
 1777SOL    HW116964   2.825   4.184   2.200 -0.3544  2.1511 -2.5031
 1777SOL    HW216965   2.893   4.161   2.060  1.2422 -0.6681 -0.3023
 1778SOL     OW16966   1.998   4.702   5.229 -0.0253 -0.3211  0.3605
 1778SOL    HW116967   1.992   4.659   5.315 -2.4695  1.6900  1.2318
 1778SOL    HW216968   2.064   4.651   5.183  0.7116 -0.5289  1.6474
 1779SOL     OW16969   4.460   2.003   4.271  0.2663 -0.7797  0.2699
 1779SOL    HW116970   4.401   1.931   4.248 -1.6135  1.0183 -0.5437
 1779SOL    HW216971   4.535   1.980   4.216 -0.5645 -2.5366 -0.1537
 1780SOL     OW16972   0.102   3.476   4.544  0.9174 -0.3501 -0.0673
 1780SOL    HW116973   0.130   3.387   4.520 -0.9766 -0.7198 -0.9131
 1780SOL    HW216974   0.010   3.463   4.519  1.1103 -2.1569  0.1485
 1781SOL     OW16975   0.645   4.436  15.725  0.2697 -0.1080  0.4031
 1781SOL    HW116976   0.680   4.365  15.778 -0.1532 -0.1115  0.6734
 1781SOL    HW216977   0.571   4.461  15.780  0.7253  1.3721  0.3415
 1782SOL     OW16978   4.504   0.816   4.237  0.5734 -0.4594 -0.5131
 1782SOL    HW116979   4.517   0.723   4.255  1.9100 -0.3316 -0.8079
 1782SOL    HW216980   4.435   0.826   4.303  0.5067 -0.0882 -0.6372
 1783SOL     OW16981   0.595   2.354  11.366  0.5600  0.3005  0.1812
 1783SOL    HW116982   0.691   2.357  11.365  0.5235  1.2131  0.1228
 1783SOL    HW216983   0.562   2.434  11.406  1.6378  1.4939 -1.3619
 1784SOL     OW16984   1.042   3.840   3.968 -0.2218 -0.3645  0.2192
 1784SOL    HW116985   0.985   3.775   4.009  0.1117  0.0007  1.2568
 1784SOL    HW216986   1.110   3.848   4.035  0.4769 -1.5510 -0.3638
 1785SOL     OW16987   1.015   4.439   8.200  0.2636  0.3012 -0.1746
 1785SOL    HW116988   1.082   4.402   8.142  2.1089  3.0414  0.2099
 1785SOL    HW216989   0.944   4.454   8.138  1.5327  0.5557 -1.5768
 1786SOL     OW16990   0.087   2.601  15.504 -0.0214  0.0849 -0.0045
 1786SOL    HW116991   0.092   2.693  15.531  0.1850  0.8076 -2.4992
 1786SOL    HW216992   0.025   2.557  15.562 -0.1733 -0.5826 -0.6782
 1787SOL     OW16993   2.667   4.595   3.129 -0.3992 -0.1108  0.3912
 1787SOL    HW116994   2.589   4.647   3.114  0.7842  2.0541  1.7877
 1787SOL    HW216995   2.707   4.632   3.207 -1.4892  0.5389  0.6364
 1788SOL     OW16996   2.214   1.567   2.340 -0.2953 -0.3174 -0.3384
 1788SOL    HW116997   2.272   1.535   2.270  1.1557 -0.4405  0.9131
 1788SOL    HW216998   2.287   1.616   2.377  0.1562  0.3731 -2.1476
 1789SOL     OW16999   4.541   4.564   4.798 -0.3421 -0.2815  0.2641
 1789SOL    HW117000   4.460   4.602   4.765 -0.0993  0.5391  0.6165
 1789SOL    HW217001   4.562   4.507   4.723  0.5916 -0.4070  0.6216
 1790SOL     OW17002   1.000   2.057   4.414 -0.2168  0.9916  0.4493
 1790SOL    HW117003   1.051   2.135   4.433  0.7586  0.0833  1.5321
 1790SOL    HW217004   0.956   2.051   4.499  1.0356  0.1211  1.0334
 1791SOL     OW17005   1.357   2.512   5.924 -0.3049 -0.0841 -0.7088
 1791SOL    HW117006   1.301   2.450   5.972 -1.0217  1.2622  0.2019
 1791SOL    HW217007   1.328   2.595   5.962  0.7890  1.1166 -2.4987
 1792SOL     OW17008   4.379   1.595   7.526 -0.6976 -0.1048 -0.9551
 1792SOL    HW117009   4.367   1.505   7.555 -1.2659  0.8034  1.5645
 1792SOL    HW217010   4.326   1.643   7.590  1.4137  0.6344  0.2266
 1793SOL     OW17011   1.973   3.647   5.529 -0.0611 -0.1161 -0.8093
 1793SOL    HW117012   1.902   3.648   5.594 -0.0317  0.2164 -0.7838
 1793SOL    HW217013   2.048   3.613   5.578  0.2148  0.9787 -0.4828
 1794SOL     OW17014   4.153   3.721   7.389  0.0913  0.7499  0.2139
 1794SOL    HW117015   4.135   3.628   7.403 -0.8477  0.4501 -2.9834
 1794SOL    HW217016   4.246   3.722   7.411 -0.6429  0.7724  3.3212
 1795SOL     OW17017   0.605   1.348  15.026  0.6375 -0.3436 -0.0138
 1795SOL    HW117018   0.640   1.264  14.996  1.0643  0.1281 -0.8296
 1795SOL    HW217019   0.675   1.380  15.084  2.4316 -3.6246 -0.3684
 1796SOL     OW17020   1.421   1.422   7.942  0.0797 -0.0668 -0.3990
 1796SOL    HW117021   1.363   1.494   7.970 -1.1513 -0.7689 -1.1446
 1796SOL    HW217022   1.487   1.468   7.889  0.6051 -0.7242 -0.3112
 1797SOL     OW17023   2.309   2.806  17.330 -0.1863  0.2922 -0.4582
 1797SOL    HW117024   2.219   2.832  17.311 -0.4344 -1.5595 -1.8865
 1797SOL    HW217025   2.330   2.763  17.247  1.3690  0.8993 -0.3734
 1798SOL     OW17026   1.254   1.749   3.011  0.3755 -0.7452  0.3040
 1798SOL    HW117027   1.237   1.759   2.918 -1.8518  3.1496  1.1472
 1798SOL    HW217028   1.222   1.833   3.042  1.3200 -0.1951 -0.2344
 1799SOL     OW17029   1.117   0.090   9.657  0.0029 -0.3112 -0.4593
 1799SOL    HW117030   1.047   0.026   9.642 -1.4403  1.2755 -0.4941
 1799SOL    HW217031   1.181   0.044   9.602  0.8851  0.3942 -0.0201
 1800SOL     OW17032   0.994   2.347   3.612  0.1848 -0.2593 -0.4186
 1800SOL    HW117033   0.950   2.263   3.600  2.0588 -1.4036  0.8728
 1800SOL    HW217034   0.931   2.397   3.664  2.2571  1.3226  0.5596
 1801SOL     OW17035   0.654   1.389   9.827 -0.0476 -0.1367 -0.1307
 1801SOL    HW117036   0.635   1.360   9.737 -1.8990 -2.2188  0.9155
 1801SOL    HW217037   0.749   1.393   9.818 -0.1470  2.2890 -0.1732
 1802SOL     OW17038   4.450   2.744   7.194 -0.3159  0.2458  0.8057
 1802SOL    HW117039   4.514   2.707   7.133  0.2984  1.5820  0.6348
 1802SOL    HW217040   4.475   2.689   7.268  1.0999 -1.5456 -0.9899
 1803SOL     OW17041   4.202   1.044  10.543 -0.7549  0.3959 -0.5145
 1803SOL    HW117042   4.236   1.020  10.629  0.5694 -3.6665 -2.1390
 1803SOL    HW217043   4.246   1.128  10.531 -0.7678  0.3199 -1.1045
 1804SOL     OW17044   3.131   2.686   3.555  0.0733  0.1979 -0.3804
 1804SOL    HW117045   3.156   2.767   3.511 -2.4125  0.9931 -0.3449
 1804SOL    HW217046   3.043   2.706   3.587 -0.4821 -2.3279 -0.3395
 1805SOL     OW17047   4.026   4.333   6.346 -0.2614 -0.9163 -0.2847
 1805SOL    HW117048   4.085   4.260   6.365 -0.1254 -0.5871  0.5437
 1805SOL    HW217049   3.965   4.299   6.281 -1.8896 -1.6575  1.6797
 1806SOL     OW17050   0.715   0.068   6.122  0.0532  0.5867  0.2575
 1806SOL    HW117051   0.720   0.041   6.030 -2.2563  2.7626 -0.5082
 1806SOL    HW217052   0.781   0.015   6.166  0.7736  0.9317 -0.4118
 1807SOL     OW17053   4.132   0.513   6.520 -0.0373 -0.6084 -0.6837
 1807SOL    HW117054   4.065   0.453   6.488  0.4315 -1.1543 -0.6462
 1807SOL    HW217055   4.095   0.535   6.606 -1.5525 -0.5343 -1.3646
 1808SOL     OW17056   1.208   3.943   4.906  0.1564 -0.1376 -0.9516
 1808SOL    HW117057   1.273   3.921   4.972  0.1021 -0.6770 -1.0793
 1808SOL    HW217058   1.165   4.018   4.949 -1.0767  1.5071 -4.9987
 1809SOL     OW17059   1.560   2.541   3.161  0.2144  0.0579 -0.3939
 1809SOL    HW117060   1.546   2.604   3.090 -0.6287  0.7920  0.4180
 1809SOL    HW217061   1.472   2.506   3.176  0.4821 -0.3055  0.3263
 1810SOL     OW17062   1.152   0.137   6.356  0.2045  0.4753 -0.3349
 1810SOL    HW117063   1.151   0.229   6.385 -1.1545  0.3451  0.0280
 1810SOL    HW217064   1.195   0.149   6.272  0.6378 -0.2098 -0.2138
 1811SOL     OW17065   1.288   0.596   3.946 -0.6237  0.1477  0.3096
 1811SOL    HW117066   1.201   0.618   3.911 -1.2589  1.5802  2.8240
 1811SOL    HW217067   1.301   0.505   3.919 -2.4586  0.6230 -2.1719
 1812SOL     OW17068   4.426   0.956   3.080 -0.3207  0.4436  0.2324
 1812SOL    HW117069   4.343   0.921   3.113 -0.3894  0.2881 -0.1046
 1812SOL    HW217070   4.492   0.921   3.141 -0.6466  2.0390  1.4779
 1813SOL     OW17071   4.477   2.307  13.144  0.1948 -0.2685 -0.2327
 1813SOL    HW117072   4.452   2.248  13.073  0.0732  0.3153 -0.6761
 1813SOL    HW217073   4.538   2.243  13.181 -0.3014 -0.0249  1.0173
 1814SOL     OW17074   2.738   4.381  14.465  0.1772  0.4630 -0.4471
 1814SOL    HW117075   2.763   4.326  14.391  0.0403  0.7428 -0.7029
 1814SOL    HW217076   2.654   4.350  14.499  0.5274 -1.2750 -1.2141
 1815SOL     OW17077   4.309   4.591   2.065  0.6643 -0.5695  0.2340
 1815SOL    HW117078   4.345   4.525   2.125  2.1327 -1.0618 -1.1875
 1815SOL    HW217079   4.389   4.633   2.033 -0.1930  0.4847 -0.5336
 1816SOL     OW17080   2.274   4.328   1.705  0.1104  0.0636 -0.4078
 1816SOL    HW117081   2.351   4.275   1.725 -0.8159 -0.5639  1.4609
 1816SOL    HW217082   2.210   4.260   1.683 -0.2493  1.0106 -2.3438
 1817SOL     OW17083   1.086   2.269   6.585 -0.5507 -0.7783  0.0714
 1817SOL    HW117084   1.030   2.216   6.528  0.3118 -0.2484 -1.2741
 1817SOL    HW217085   1.070   2.356   6.548 -1.3654 -1.1681 -0.5086
 1818SOL     OW17086   3.906   3.440   5.794 -0.5846  0.0758 -0.4429
 1818SOL    HW117087   3.879   3.406   5.879 -0.2974  0.2683 -0.2785
 1818SOL    HW217088   3.931   3.529   5.821 -0.6961 -0.2099  0.5984
 1819SOL     OW17089   2.209   3.468  12.963  0.0971 -0.3759 -0.0300
 1819SOL    HW117090   2.212   3.376  12.935 -0.7096 -0.5756  0.5722
 1819SOL    HW217091   2.301   3.469  12.992 -0.5053 -1.6991  1.9291
 1820SOL     OW17092   4.056   2.752   6.650 -0.0901 -0.2435  0.6089
 1820SOL    HW117093   4.117   2.749   6.577 -0.8760  0.8339 -0.0941
 1820SOL    HW217094   3.973   2.727   6.608 -0.0765  0.6554  0.0536
 1821SOL     OW17095   1.211   1.194   8.990 -0.0010  0.1285  0.0122
 1821SOL    HW117096   1.253   1.220   9.072  0.7393  1.6104 -0.8306
 1821SOL    HW217097   1.249   1.107   8.974 -0.4438 -0.5058  2.4466
 1822SOL     OW17098   2.084   2.327   7.420  0.2755  0.2483 -0.1216
 1822SOL    HW117099   2.161   2.282   7.455 -0.3353 -0.3192  0.4949
 1822SOL    HW217100   2.018   2.281   7.471  0.8239 -2.9545 -2.2504
 1823SOL     OW17101   3.880   4.474  16.516  0.2473 -0.0141 -0.4198
 1823SOL    HW117102   3.811   4.476  16.583  0.9182 -1.1419  0.3141
 1823SOL    HW217103   3.950   4.433  16.566  1.1279  3.1490  0.9370
 1824SOL     OW17104   3.873   1.917  12.826 -0.5640  0.1628  0.0313
 1824SOL    HW117105   3.824   1.959  12.755 -0.2050 -1.3257 -1.0911
 1824SOL    HW217106   3.804   1.897  12.890 -0.7388  0.5531 -0.0340
 1825SOL     OW17107   2.045   2.270  16.698 -0.0730  0.2165 -0.3210
 1825SOL    HW117108   2.053   2.183  16.660  0.5229  0.4609 -0.7408
 1825SOL    HW217109   2.062   2.334  16.629  1.8397  0.4581  0.3823
 1826SOL     OW17110   3.551   1.725  16.080 -0.1737 -0.2341  0.0952
 1826SOL    HW117111   3.639   1.693  16.103 -0.0414 -0.1790 -0.3325
 1826SOL    HW217112   3.557   1.807  16.031 -0.2249 -0.2669  0.0340
 1827SOL     OW17113   3.269   1.001  15.102  0.2114 -0.3093  0.3348
 1827SOL    HW117114   3.190   0.947  15.103  0.1082 -0.1520  0.7423
 1827SOL    HW217115   3.237   1.085  15.135 -0.7446 -0.6107  0.1887
 1828SOL     OW17116   1.356   2.930   4.635 -0.1975  0.1762  0.5316
 1828SOL    HW117117   1.402   2.934   4.551  0.5574  2.1009  1.0293
 1828SOL    HW217118   1.267   2.963   4.620 -0.7787 -1.2870  0.7861
 1829SOL     OW17119   1.925   4.371   5.014 -0.7095  0.3156 -0.3769
 1829SOL    HW117120   1.927   4.313   4.938  0.5535  2.9285 -2.3424
 1829SOL    HW217121   1.845   4.423   5.008 -0.4442  0.8749  0.7823
 1830SOL     OW17122   4.018   3.781   7.148 -0.0374  0.0894 -0.3223
 1830SOL    HW117123   4.061   3.776   7.234 -1.4246  2.3823  0.5062
 1830SOL    HW217124   3.978   3.694   7.150  1.0313 -0.4013 -0.5128
 1831SOL     OW17125   1.330   1.360   3.171 -0.1913  0.3532  0.0026
 1831SOL    HW117126   1.299   1.445   3.200 -1.1480 -0.0277  0.1123
 1831SOL    HW217127   1.299   1.292   3.230 -0.1477  0.3006 -0.0343
 1832SOL     OW17128   3.592   0.381   2.248  0.1503  0.0458  0.0017
 1832SOL    HW117129   3.596   0.471   2.217 -2.2941 -0.0323 -0.5472
 1832SOL    HW217130   3.525   0.395   2.315 -1.3795 -1.5219 -1.2068
 1833SOL     OW17131   2.200   2.733   2.552 -0.4938  0.7347  0.6536
 1833SOL    HW117132   2.167   2.820   2.530 -2.2079 -0.4681 -1.5349
 1833SOL    HW217133   2.201   2.730   2.647  0.5196  3.5387  0.7446
 1834SOL     OW17134   0.524   1.438   7.969  0.2118  0.1849 -0.4410
 1834SOL    HW117135   0.524   1.477   8.057 -0.3090  1.7957 -1.1514
 1834SOL    HW217136   0.619   1.432   7.964  0.3362  0.4291  1.6146
 1835SOL     OW17137   3.542   3.182   2.261  0.4145 -0.1872  0.1282
 1835SOL    HW117138   3.581   3.153   2.179 -2.3911 -0.0429 -1.2446
 1835SOL    HW217139   3.510   3.271   2.245 -0.5118 -0.4470  0.5935
 1836SOL     OW17140   0.463   2.377   2.189 -0.4930  0.7648  0.3314
 1836SOL    HW117141   0.446   2.434   2.264  1.4383  0.6318  0.8623
 1836SOL    HW217142   0.451   2.286   2.218 -0.2128  1.2595  1.9688
 1837SOL     OW17143   2.923   0.525   2.292 -0.5781  0.5114  0.3725
 1837SOL    HW117144   2.963   0.535   2.205 -0.7904  2.8029  0.5419
 1837SOL    HW217145   2.960   0.437   2.298 -1.8191  0.0102  0.6812
 1838SOL     OW17146   3.793   0.401  14.971  0.0802  0.0860 -0.4011
 1838SOL    HW117147   3.787   0.496  14.977 -0.2582  0.0428  0.0006
 1838SOL    HW217148   3.840   0.386  14.890 -0.3079 -1.8150 -0.2774
 1839SOL     OW17149   4.642   3.565   5.068 -0.1164  0.2788  0.4274
 1839SOL    HW117150   4.635   3.474   5.039 -0.1711  0.4103  0.0186
 1839SOL    HW217151   4.726   3.564   5.114  0.4316  2.2120 -0.5457
 1840SOL     OW17152   4.391   4.484  10.029 -0.4115  0.0056 -0.3496
 1840SOL    HW117153   4.319   4.492  10.091  0.2107 -0.5528  0.4381
 1840SOL    HW217154   4.472   4.490  10.079 -0.5265  2.3927 -0.4633
 1841SOL     OW17155   4.663   2.036  17.365  0.2135  0.2595 -0.4586
 1841SOL    HW117156   4.610   2.089  17.305  0.0056  0.9805  0.3451
 1841SOL    HW217157   4.620   1.951  17.356 -0.0455  0.6783 -2.9981
 1842SOL     OW17158   1.951   2.093  13.675  0.6456  0.2915  0.5869
 1842SOL    HW117159   1.891   2.058  13.742 -2.4495 -0.9632 -2.8152
 1842SOL    HW217160   2.028   2.049  13.710 -0.0890  0.5343  2.5293
 1843SOL     OW17161   0.889   3.382   8.750  0.6822  0.4173  0.3299
 1843SOL    HW117162   0.808   3.341   8.719  0.6313  0.7455  0.0282
 1843SOL    HW217163   0.950   3.309   8.745 -2.4581 -2.2405  0.7732
 1844SOL     OW17164   2.930   3.022   8.452 -0.4761 -0.5219 -0.0751
 1844SOL    HW117165   3.020   3.049   8.467 -0.3919 -0.8764  0.0478
 1844SOL    HW217166   2.899   2.981   8.533  0.6440  0.8703  1.0736
 1845SOL     OW17167   1.720   2.336   5.425 -0.5322  0.1204 -0.3876
 1845SOL    HW117168   1.690   2.245   5.431 -1.3903  0.1202 -4.4883
 1845SOL    HW217169   1.699   2.364   5.513 -0.7483  0.6356 -0.6061
 1846SOL     OW17170   0.921   2.714   1.394  0.1363 -0.6902  0.9622
 1846SOL    HW117171   0.832   2.679   1.397 -0.3440  0.4413 -0.1032
 1846SOL    HW217172   0.987   2.646   1.380 -0.6254 -1.2338 -0.0122
 1847SOL     OW17173   1.453   4.065   8.104 -0.2609 -0.4908 -0.1148
 1847SOL    HW117174   1.393   4.062   8.179  0.8535 -3.1901  0.6886
 1847SOL    HW217175   1.406   4.121   8.043 -2.4495 -3.3060 -1.0053
 1848SOL     OW17176   3.757   1.851  12.449  0.0345  0.4223 -0.0749
 1848SOL    HW117177   3.811   1.920  12.488  2.1133 -0.4211 -1.4665
 1848SOL    HW217178   3.671   1.877  12.482 -0.7332 -1.5413 -0.5516
 1849SOL     OW17179   2.854   4.033   4.550  0.5025  0.4800  0.1032
 1849SOL    HW117180   2.827   3.942   4.549 -2.1665  1.2927 -2.1929
 1849SOL    HW217181   2.885   4.045   4.460 -0.4339  2.4201  0.0336
 1850SOL     OW17182   0.956   3.309  11.389 -0.0068 -0.0403  0.0389
 1850SOL    HW117183   0.966   3.231  11.444 -1.2776 -0.3581 -0.1705
 1850SOL    HW217184   0.865   3.300  11.360 -0.2308 -0.9119  1.0366
 1851SOL     OW17185   3.177   2.149   7.442  0.5681  0.7560  0.0226
 1851SOL    HW117186   3.156   2.208   7.514 -0.3738 -2.2319  2.1827
 1851SOL    HW217187   3.267   2.126   7.463  0.0318  1.0001  2.5242
 1852SOL     OW17188   0.091   4.492  13.658  0.1440 -0.0763 -0.3768
 1852SOL    HW117189   0.073   4.498  13.564 -1.9739 -1.3819 -0.0385
 1852SOL    HW217190   0.119   4.582  13.677  1.9605 -0.2371 -2.3341
 1853SOL     OW17191   3.337   3.071   6.891  0.1127  0.2042  0.3031
 1853SOL    HW117192   3.278   3.087   6.966  0.4600 -0.9515  0.8250
 1853SOL    HW217193   3.391   3.150   6.896 -0.5254  0.6872 -0.4211
 1854SOL     OW17194   0.025   3.402   1.791 -0.8688  0.4698 -0.2595
 1854SOL    HW117195   0.052   3.470   1.729  1.4509 -0.5559 -0.3878
 1854SOL    HW217196   0.033   3.328   1.732 -0.2230  0.0207  0.3907
 1855SOL     OW17197   3.433   4.678   2.920 -0.3636  0.2726 -0.0147
 1855SOL    HW117198   3.513   4.723   2.947 -0.1094 -0.5250  0.5603
 1855SOL    HW217199   3.457   4.586   2.927 -0.5166  0.1086 -1.7237
 1856SOL     OW17200   3.324   3.031   6.610  0.2875 -0.1081  0.1668
 1856SOL    HW117201   3.347   3.079   6.690  0.1973  1.5873 -0.8192
 1856SOL    HW217202   3.229   3.040   6.613  0.1353 -2.1119  0.8133
 1857SOL     OW17203   0.256   0.284   8.493 -0.3585 -0.6023 -0.3247
 1857SOL    HW117204   0.197   0.348   8.534 -0.0989  1.1962 -2.7239
 1857SOL    HW217205   0.332   0.341   8.479 -0.1625 -0.5781  0.7920
 1858SOL     OW17206   2.762   1.233   6.160  0.4520 -0.5635 -0.2887
 1858SOL    HW117207   2.848   1.271   6.140  0.7029 -0.9959 -0.0211
 1858SOL    HW217208   2.763   1.219   6.254  1.8504 -2.7235 -0.6240
 1859SOL     OW17209   4.104   3.178  12.931 -0.3495  0.8677 -0.1119
 1859SOL    HW117210   4.062   3.132  12.859 -0.3025 -1.0849  1.0986
 1859SOL    HW217211   4.164   3.106  12.953 -0.2540  1.1288  0.4769
 1860SOL     OW17212   0.832   3.949  11.522 -0.4836  0.2245  0.1650
 1860SOL    HW117213   0.795   3.964  11.608  1.1849  0.8382  0.7778
 1860SOL    HW217214   0.908   3.894  11.542 -0.9495 -0.1073  1.0308
 1861SOL     OW17215   4.726   1.980   0.034  0.2212  0.2935  0.3466
 1861SOL    HW117216   0.061   2.018  17.749  1.6969  0.0224  2.5813
 1861SOL    HW217217   0.023   1.949   0.117 -2.1501 -1.3750  0.7903
 1862SOL     OW17218   3.867   2.632   4.142  0.4800 -0.1577 -0.1868
 1862SOL    HW117219   3.883   2.580   4.220 -1.4668  0.1722  0.4253
 1862SOL    HW217220   3.954   2.664   4.118  0.5802  0.6769  1.2429
 1863SOL     OW17221   4.739   1.980  12.948  0.1789 -0.2190 -0.3734
 1863SOL    HW117222   4.735   2.016  12.860  2.3736 -3.2261 -1.7266
 1863SOL    HW217223   0.078   2.018  12.984 -1.0532  1.5100  0.4901
 1864SOL     OW17224   1.350   1.075  12.121  0.0273 -0.2162  0.1102
 1864SOL    HW117225   1.381   1.164  12.137  0.7976 -0.4790  0.0514
 1864SOL    HW217226   1.410   1.044  12.053  1.4429  2.6626  0.0622
 1865SOL     OW17227   2.554   2.925   3.648  0.0183  0.6298  0.0667
 1865SOL    HW117228   2.643   2.958   3.662 -0.0328  1.2984 -1.1571
 1865SOL    HW217229   2.529   2.975   3.570 -0.8410 -0.0169 -0.0639
 1866SOL     OW17230   1.527   3.003   8.168  0.5196 -0.3905  0.1588
 1866SOL    HW117231   1.456   3.053   8.126 -0.2650  0.2395  2.1946
 1866SOL    HW217232   1.531   2.920   8.121 -1.1056 -0.0822 -0.5228
 1867SOL     OW17233   0.605   1.721   1.874 -0.3535  0.2770 -0.5590
 1867SOL    HW117234   0.531   1.769   1.911 -0.2478 -0.4083  0.5401
 1867SOL    HW217235   0.562   1.668   1.808 -0.2412 -0.9556  0.3734
 1868SOL     OW17236   0.852   2.027   9.450 -0.1571 -0.0089  0.6090
 1868SOL    HW117237   0.900   1.950   9.481 -2.3476 -1.2499  0.9490
 1868SOL    HW217238   0.926   2.079   9.421  0.0946  1.0992  3.2947
 1869SOL     OW17239   4.538   1.703   8.247 -0.7265 -0.1376  0.1015
 1869SOL    HW117240   4.487   1.773   8.289 -1.5882 -0.1699 -0.8992
 1869SOL    HW217241   4.475   1.648   8.201 -0.8469  0.3912 -0.3722
 1870SOL     OW17242   0.265   3.448   2.494  0.2631 -0.4271  0.1125
 1870SOL    HW117243   0.346   3.434   2.445  0.1708 -0.5356 -0.0076
 1870SOL    HW217244   0.303   3.516   2.550 -1.1705  0.5759 -0.1597
 1871SOL     OW17245   2.859   4.555   2.928  0.1555  0.6871 -0.2588
 1871SOL    HW117246   2.791   4.503   2.884 -0.9335 -0.4604  2.7738
 1871SOL    HW217247   2.802   4.588   2.998 -1.0739 -1.6229 -0.1548
 1872SOL     OW17248   1.788   3.670   4.317 -0.4108 -0.0315 -0.5770
 1872SOL    HW117249   1.707   3.720   4.307 -1.1911 -0.8024  1.7766
 1872SOL    HW217250   1.761   3.578   4.318 -0.1280 -0.1113 -0.0099
 1873SOL     OW17251   3.262   0.279   5.403 -0.1549 -0.3483  0.4558
 1873SOL    HW117252   3.346   0.303   5.364 -0.6576 -0.3783 -0.6409
 1873SOL    HW217253   3.247   0.193   5.362  1.1065  0.2264 -1.1724
 1874SOL     OW17254   3.345   1.347   6.977 -0.1983  0.0982  0.6410
 1874SOL    HW117255   3.358   1.305   7.062 -0.7118  1.2979  1.3212
 1874SOL    HW217256   3.402   1.424   6.981  0.2456 -0.1339 -1.5060
 1875SOL     OW17257   0.297   1.681  12.731 -0.1639 -0.3193  0.1910
 1875SOL    HW117258   0.222   1.669  12.673  0.5302  2.3476 -1.2865
 1875SOL    HW217259   0.320   1.591  12.753 -3.1054 -1.4573 -1.4003
 1876SOL     OW17260   2.838   0.165   2.507 -0.3941  0.4133  0.2274
 1876SOL    HW117261   2.848   0.071   2.493 -0.4645  0.2129  1.5429
 1876SOL    HW217262   2.897   0.208   2.445  1.3730  1.4300  2.6144
 1877SOL     OW17263   2.130   3.901  12.904  0.1268 -0.0547  0.3342
 1877SOL    HW117264   2.083   3.832  12.950 -0.8209 -0.9760 -1.9882
 1877SOL    HW217265   2.222   3.886  12.928  0.4552 -0.1480 -0.9762
 1878SOL     OW17266   3.630   3.085  12.074  0.5032 -0.5035 -0.0309
 1878SOL    HW117267   3.668   3.003  12.042 -0.5109 -1.5842  1.5625
 1878SOL    HW217268   3.605   3.127  11.991  0.0316  0.2860  0.5145
 1879SOL     OW17269   0.750   4.352   7.030 -0.3230  0.3590 -0.4073
 1879SOL    HW117270   0.828   4.402   7.007  0.0210  0.0670  0.1104
 1879SOL    HW217271   0.781   4.262   7.033  1.5317  1.0522  1.3704
 1880SOL     OW17272   0.870   1.223   2.365  0.0237  0.5534 -0.2514
 1880SOL    HW117273   0.842   1.228   2.273 -1.0164  0.1778  0.0413
 1880SOL    HW217274   0.866   1.129   2.381 -1.2152  0.4872 -0.9590
 1881SOL     OW17275   4.006   1.235   7.968 -0.4716 -0.5536 -0.4114
 1881SOL    HW117276   4.058   1.311   7.944 -1.2511  0.1890  0.2331
 1881SOL    HW217277   3.919   1.258   7.934 -0.3955  0.7115  0.2548
 1882SOL     OW17278   3.721   3.282  11.365 -0.5143 -0.1977  0.5467
 1882SOL    HW117279   3.679   3.234  11.293  1.5440  0.2842 -1.0041
 1882SOL    HW217280   3.813   3.263  11.350  0.1218  0.9323  3.1244
 1883SOL     OW17281   1.030   0.331   2.809 -0.5812 -0.0930 -0.8848
 1883SOL    HW117282   1.020   0.329   2.904  1.8828 -2.0700 -0.6559
 1883SOL    HW217283   1.109   0.385   2.798  1.3013 -2.8219 -0.8444
 1884SOL     OW17284   3.026   2.886   5.186  0.4870  0.1377 -0.0354
 1884SOL    HW117285   3.054   2.958   5.242  0.9436 -0.4149  0.4619
 1884SOL    HW217286   2.932   2.903   5.194  0.5485  0.5838 -0.2983
 1885SOL     OW17287   4.490   0.642  12.917 -0.0291  0.0938 -0.2396
 1885SOL    HW117288   4.500   0.582  12.843 -1.1178 -0.3108 -0.0591
 1885SOL    HW217289   4.399   0.669  12.908 -0.3162 -0.1157  1.9884
 1886SOL     OW17290   2.912   2.138   5.989  0.1547  0.3615 -0.7226
 1886SOL    HW117291   3.005   2.139   6.009  0.0781  1.6520 -0.3668
 1886SOL    HW217292   2.900   2.227   5.955 -0.5792  1.0686  1.3051
 1887SOL     OW17293   2.470   0.501   6.574 -0.4619  0.3686  0.4648
 1887SOL    HW117294   2.522   0.518   6.652 -0.5969 -1.4329  0.9421
 1887SOL    HW217295   2.506   0.566   6.513  1.8408 -1.5340 -0.2121
 1888SOL     OW17296   3.561   4.576  17.020  0.4015  0.4089 -0.0845
 1888SOL    HW117297   3.575   4.654  17.074  1.7821 -0.5572  0.9250
 1888SOL    HW217298   3.537   4.627  16.942  1.3908 -0.5274 -0.9881
 1889SOL     OW17299   2.899   1.712   9.018 -0.4877  0.3338 -0.8018
 1889SOL    HW117300   2.915   1.629   9.063 -0.8860  0.0628 -1.1550
 1889SOL    HW217301   2.806   1.717   9.041 -0.5332 -0.7243 -0.7313
 1890SOL     OW17302   0.758   2.947   8.475 -0.0329  0.1127  0.0763
 1890SOL    HW117303   0.812   2.934   8.397  1.1057 -0.3220  0.9431
 1890SOL    HW217304   0.822   2.934   8.544 -0.4136  1.4354  0.6759
 1891SOL     OW17305   2.060   4.414   5.880  0.4170  0.0007 -0.0507
 1891SOL    HW117306   1.969   4.403   5.910  1.1197 -2.7149  1.1076
 1891SOL    HW217307   2.100   4.438   5.964 -2.1325 -0.0233  1.1709
 1892SOL     OW17308   2.045   2.967   2.501  0.1387 -0.3973  0.0522
 1892SOL    HW117309   2.023   3.052   2.463 -1.0257 -0.8995 -0.3856
 1892SOL    HW217310   1.960   2.933   2.530 -0.6954  3.6124  2.2381
 1893SOL     OW17311   3.964   1.678   8.121 -0.1072  0.1464 -0.5803
 1893SOL    HW117312   3.910   1.683   8.042 -2.4173  0.8778  1.0577
 1893SOL    HW217313   4.022   1.752   8.104 -0.1650 -0.0518 -1.6469
 1894SOL     OW17314   0.599   3.267   6.479 -0.1917  0.3793  0.1688
 1894SOL    HW117315   0.620   3.347   6.528 -0.0355 -0.1667  0.9899
 1894SOL    HW217316   0.521   3.233   6.522  0.8972  0.7303  2.4182
 1895SOL     OW17317   1.104   4.414   9.527  0.3406  0.0831  0.4736
 1895SOL    HW117318   1.085   4.465   9.448  1.3334 -0.1884  0.0640
 1895SOL    HW217319   1.047   4.467   9.584 -1.0641 -0.4334 -0.4397
 1896SOL     OW17320   0.785   0.140  10.071  0.1619 -0.0801 -0.4250
 1896SOL    HW117321   0.738   0.077  10.126  0.5209  2.4716  2.8163
 1896SOL    HW217322   0.852   0.085  10.032 -0.5104 -1.8288  0.8736
 1897SOL     OW17323   2.466   4.723   2.351  0.0602  0.0169 -0.3065
 1897SOL    HW117324   2.437   0.053   2.293 -2.7088 -2.3342 -1.8110
 1897SOL    HW217325   2.424   4.649   2.307  2.3750 -1.9561  0.7609
 1898SOL     OW17326   1.179   3.904   3.098  0.0397 -0.2769  0.0553
 1898SOL    HW117327   1.146   3.969   3.161  1.2585 -1.0254  1.4716
 1898SOL    HW217328   1.105   3.848   3.073 -0.8588  1.7040 -1.7247
 1899SOL     OW17329   0.842   0.179   4.385  0.0315  0.0782 -0.0682
 1899SOL    HW117330   0.788   0.114   4.341 -2.4596  2.5529 -0.6207
 1899SOL    HW217331   0.887   0.120   4.446 -1.1783  0.6172  1.3368
 1900SOL     OW17332   2.983   2.505   4.954  0.1013  0.1991 -0.2712
 1900SOL    HW117333   2.898   2.499   4.910  0.1823 -1.0728 -0.2558
 1900SOL    HW217334   2.956   2.541   5.038 -0.7442 -0.4047 -0.2725
 1901SOL     OW17335   2.601   4.425   9.099 -0.5579  0.2397  0.1899
 1901SOL    HW117336   2.602   4.348   9.041 -0.6388 -0.0289  0.5438
 1901SOL    HW217337   2.580   4.384   9.183  1.6873 -0.3752  0.4702
 1902SOL     OW17338   4.579   1.439   4.442 -0.3946  0.1517  0.6411
 1902SOL    HW117339   4.663   1.409   4.407 -1.0885  1.5177 -2.1886
 1902SOL    HW217340   4.584   1.423   4.536  0.5132  0.9818  0.7322
 1903SOL     OW17341   2.110   3.156   3.672  0.5883 -0.3256 -0.2480
 1903SOL    HW117342   2.131   3.212   3.598 -0.2676 -0.5267 -0.6503
 1903SOL    HW217343   2.183   3.095   3.667  0.5164 -0.4260 -0.0677
 1904SOL     OW17344   3.457   4.446   8.915 -0.1534 -0.7042  0.3894
 1904SOL    HW117345   3.552   4.462   8.915 -0.3391  0.4039 -1.0946
 1904SOL    HW217346   3.417   4.532   8.903 -1.7399 -1.7222 -1.5747
 1905SOL     OW17347   3.315   1.853   2.999 -0.1187 -0.0704  0.2012
 1905SOL    HW117348   3.277   1.790   2.938 -0.5369  0.1080  0.2741
 1905SOL    HW217349   3.288   1.816   3.083 -0.8366  1.7878  0.7935
 1906SOL     OW17350   4.217   0.248   4.735 -0.6820 -0.8630 -0.2845
 1906SOL    HW117351   4.307   0.214   4.732  0.2538  1.6216 -0.8417
 1906SOL    HW217352   4.185   0.243   4.645 -0.3441  0.9855 -0.5170
 1907SOL     OW17353   4.036   2.990   8.340  0.2567 -0.2110  0.4511
 1907SOL    HW117354   4.050   2.964   8.431  0.8889 -0.2337  0.3460
 1907SOL    HW217355   4.107   3.054   8.333  0.1694 -0.0405  1.1375
 1908SOL     OW17356   2.528   1.628   0.019 -0.3652 -0.8419  0.0325
 1908SOL    HW117357   2.449   1.595  17.736  0.0715 -0.0702 -1.3991
 1908SOL    HW217358   2.563   1.696  17.720 -3.7896  2.3947  1.7610
 1909SOL     OW17359   2.251   2.111   9.080 -0.6440  0.2110  0.0461
 1909SOL    HW117360   2.177   2.163   9.110 -1.6635 -1.6924  0.8025
 1909SOL    HW217361   2.241   2.047   9.150 -0.0603 -1.8803 -1.7695
 1910SOL     OW17362   3.590   1.099  12.514  0.0219  0.7871  0.6927
 1910SOL    HW117363   3.552   1.012  12.530  1.9106  0.1930  1.8418
 1910SOL    HW217364   3.669   1.082  12.463 -0.3998  1.6594 -0.2562
 1911SOL     OW17365   4.463   4.527   5.052 -0.1534  0.0143 -0.1775
 1911SOL    HW117366   4.381   4.485   5.027  0.4754 -0.4988 -1.3713
 1911SOL    HW217367   4.508   4.534   4.967  1.1779 -2.2163  0.3455
 1912SOL     OW17368   2.549   4.124   2.263  0.2291  0.2237 -0.4234
 1912SOL    HW117369   2.493   4.058   2.222 -0.3783 -0.9939  2.3573
 1912SOL    HW217370   2.492   4.162   2.330 -3.8341 -2.5586 -2.2932
 1913SOL     OW17371   0.760   3.160   4.717  0.2768  0.7857 -0.1488
 1913SOL    HW117372   0.714   3.097   4.662 -0.1731 -0.6025  1.8339
 1913SOL    HW217373   0.850   3.128   4.707  0.3319  0.8094  0.2612
 1914SOL     OW17374   4.477   3.869  15.160  0.0505 -0.3270  0.1314
 1914SOL    HW117375   4.482   3.930  15.086 -2.0968  0.6689  0.7995
 1914SOL    HW217376   4.571   3.860  15.173  0.1011  1.0247  0.7075
 1915SOL     OW17377   4.664   1.719  12.461 -0.6186  0.3026 -0.5113
 1915SOL    HW117378   4.603   1.645  12.460 -0.0687 -0.1672  1.1110
 1915SOL    HW217379   0.002   1.682  12.501 -0.0998  1.8069 -0.1453
 1916SOL     OW17380   4.364   2.725  10.397 -0.3943  0.2529  0.3101
 1916SOL    HW117381   4.307   2.671  10.343  0.4793  0.3161 -0.6774
 1916SOL    HW217382   4.300   2.753  10.462 -2.4129  1.4100 -2.1606
 1917SOL     OW17383   4.040   0.942   1.588  0.1550  0.3609 -0.4128
 1917SOL    HW117384   4.043   1.012   1.523 -2.0310 -0.8200 -1.7501
 1917SOL    HW217385   3.963   0.965   1.640 -0.1377  1.0783 -1.1790
 1918SOL     OW17386   2.922   0.263   9.252  0.5128  0.0671 -0.1056
 1918SOL    HW117387   2.991   0.227   9.197 -0.8600 -1.3105 -0.9416
 1918SOL    HW217388   2.941   0.225   9.337 -0.3942 -0.0546  0.0393
 1919SOL     OW17389   1.585   1.992   3.115 -0.1403 -0.4154 -0.0693
 1919SOL    HW117390   1.510   2.053   3.113  0.2315 -0.1022 -3.9825
 1919SOL    HW217391   1.553   1.959   3.199 -1.2910  0.9219  0.0191
 1920SOL     OW17392   1.898   0.678  14.960 -0.4287 -0.3879 -0.2102
 1920SOL    HW117393   1.895   0.681  15.055 -1.7668  1.2189 -0.3044
 1920SOL    HW217394   1.991   0.692  14.942 -0.4959  1.8475  1.2454
 1921SOL     OW17395   3.657   2.872   4.049 -0.8313  0.5258  0.4938
 1921SOL    HW117396   3.608   2.796   4.081 -0.8540  0.1079 -0.5342
 1921SOL    HW217397   3.745   2.837   4.058 -0.9528  0.2307  0.5505
 1922SOL     OW17398   3.381   1.820   3.410  0.1686 -0.0864  0.0717
 1922SOL    HW117399   3.339   1.797   3.327  2.2566 -2.2540 -0.3637
 1922SOL    HW217400   3.303   1.859   3.449  0.6957  0.7095  0.3232
 1923SOL     OW17401   1.927   0.272   3.676 -0.2922 -0.5364  0.0787
 1923SOL    HW117402   1.911   0.192   3.724  0.5505  0.7125  2.4262
 1923SOL    HW217403   1.884   0.333   3.736  0.3207 -0.6940  0.6751
 1924SOL     OW17404   2.761   3.970   1.614  0.3392  0.4226 -0.0504
 1924SOL    HW117405   2.828   3.911   1.581 -1.3032 -0.0417 -2.4925
 1924SOL    HW217406   2.799   4.052   1.581 -0.3188  1.3378  1.4294
 1925SOL     OW17407   3.567   2.357   2.445 -0.0896  0.5909  0.1152
 1925SOL    HW117408   3.654   2.343   2.406 -0.0465  0.2794  0.3167
 1925SOL    HW217409   3.545   2.434   2.393 -1.3958 -0.2252 -0.5323
 1926SOL     OW17410   3.712   2.212   7.313  0.0124  0.2699  0.2829
 1926SOL    HW117411   3.723   2.118   7.299  2.0972  0.6717 -0.8791
 1926SOL    HW217412   3.682   2.217   7.403 -4.0054 -1.0432 -0.9675
 1927SOL     OW17413   4.623   3.229   6.709 -0.3186 -0.0388  0.5156
 1927SOL    HW117414   4.591   3.219   6.799 -1.4046  3.9874  0.5958
 1927SOL    HW217415   4.540   3.236   6.662  0.5254 -0.5629 -1.0489
 1928SOL     OW17416   3.222   3.893  10.296  0.3418 -0.3590  0.4427
 1928SOL    HW117417   3.182   3.948  10.363  1.3591  0.1234  0.6504
 1928SOL    HW217418   3.300   3.944  10.274  0.0847 -0.8347 -1.6118
 1929SOL     OW17419   0.154   0.505   2.402  0.5574 -0.5571 -0.0176
 1929SOL    HW117420   0.080   0.491   2.342  1.8685  1.0411 -2.0078
 1929SOL    HW217421   0.138   0.596   2.426 -0.3352 -1.1232  1.5348
 1930SOL     OW17422   0.760   3.456   3.413 -0.3871 -0.3014  0.2926
 1930SOL    HW117423   0.822   3.527   3.395 -1.5087  0.7180  0.4640
 1930SOL    HW217424   0.677   3.498   3.392 -0.2438  0.0809  0.4939
 1931SOL     OW17425   3.692   0.617  13.058  0.0003  0.2464  0.0777
 1931SOL    HW117426   3.652   0.593  13.142 -1.8328  0.7693 -0.6577
 1931SOL    HW217427   3.781   0.607  13.092  1.0191  2.5743 -1.8975
 1932SOL     OW17428   1.080   1.642   3.471  0.1805 -0.1677  0.4175
 1932SOL    HW117429   1.045   1.695   3.543  2.0772  1.0480  0.4359
 1932SOL    HW217430   1.109   1.565   3.520 -1.0963 -0.1402  1.2250
 1933SOL     OW17431   0.634   3.509   6.639 -0.0170  0.4565 -0.1196
 1933SOL    HW117432   0.640   3.572   6.567  1.6319  1.4315  0.8640
 1933SOL    HW217433   0.576   3.562   6.693  0.8326  1.8385 -0.5384
 1934SOL     OW17434   0.288   3.193   6.320  0.0634 -0.0123  0.6465
 1934SOL    HW117435   0.291   3.196   6.416 -0.4767  1.4787  0.6195
 1934SOL    HW217436   0.255   3.104   6.309  0.5435 -0.3206  1.6899
 1935SOL     OW17437   2.909   1.834   1.380 -0.4474 -0.5288 -0.1928
 1935SOL    HW117438   2.991   1.794   1.409 -1.2826  0.0511  3.0415
 1935SOL    HW217439   2.942   1.896   1.315  3.3982 -2.0032  0.3626
 1936SOL     OW17440   1.044   2.976   8.068  0.1613  0.5248 -0.2148
 1936SOL    HW117441   1.106   3.032   8.115  0.2762  1.3684 -1.3697
 1936SOL    HW217442   1.092   2.894   8.058 -0.0647 -0.0686  3.4462
 1937SOL     OW17443   0.654   0.918   9.664 -0.1718  0.3621  0.0090
 1937SOL    HW117444   0.718   0.956   9.725  1.6075 -2.8157  0.0619
 1937SOL    HW217445   0.657   0.825   9.686 -0.2516 -0.2679 -2.6991
 1938SOL     OW17446   0.391   2.427   6.950 -0.3715  0.6953 -0.6868
 1938SOL    HW117447   0.355   2.351   6.995  1.9505 -1.3419 -2.3183
 1938SOL    HW217448   0.434   2.473   7.022 -0.0202 -2.4768  1.1249
 1939SOL     OW17449   1.440   0.246   7.372 -0.1366 -0.1440  0.6272
 1939SOL    HW117450   1.535   0.256   7.367 -0.2149 -0.4041 -1.2344
 1939SOL    HW217451   1.398   0.309   7.313  1.5836  1.6822  1.3251
 1940SOL     OW17452   0.865   1.124   5.746  0.2302 -0.2728 -0.0356
 1940SOL    HW117453   0.860   1.190   5.815 -1.6209 -0.8731  0.3965
 1940SOL    HW217454   0.891   1.053   5.805 -0.2398  0.0735  0.5798
 1941SOL     OW17455   0.397   2.407  17.581  0.5170  0.5310 -0.3226
 1941SOL    HW117456   0.449   2.332  17.609  0.4274  0.4386 -0.4024
 1941SOL    HW217457   0.445   2.476  17.626  3.7633 -3.4211  2.2615
 1942SOL     OW17458   2.131   3.288   9.650  0.1321  0.5944 -0.0493
 1942SOL    HW117459   2.167   3.207   9.687  0.0771  0.1416 -0.9726
 1942SOL    HW217460   2.141   3.355   9.717 -1.3181 -0.7511  1.5027
 1943SOL     OW17461   3.730   1.503  12.947  0.4990 -0.5071  0.1912
 1943SOL    HW117462   3.784   1.464  13.015 -0.1132 -0.9890  0.4061
 1943SOL    HW217463   3.778   1.481  12.867  0.3224 -1.5457  0.3693
 1944SOL     OW17464   4.029   3.929   8.137  0.1488 -0.2345  0.0339
 1944SOL    HW117465   4.103   3.892   8.184  1.1984  0.1950 -1.2966
 1944SOL    HW217466   3.970   3.960   8.207  0.9648  0.9550  0.1961
 1945SOL     OW17467   0.889   1.149  10.038  0.0543  0.1289 -0.4382
 1945SOL    HW117468   0.972   1.104  10.052 -0.8571 -1.3410  0.3201
 1945SOL    HW217469   0.901   1.243  10.034  1.1322 -0.0267 -0.8610
 1946SOL     OW17470   0.601   3.056   9.429  0.1802  0.3216 -1.1753
 1946SOL    HW117471   0.583   2.969   9.394  1.0631  0.1676 -1.2269
 1946SOL    HW217472   0.539   3.051   9.502  0.8694  0.0800 -0.6046
 1947SOL     OW17473   2.709   3.411  13.730  0.3817  0.0303  0.3141
 1947SOL    HW117474   2.677   3.402  13.640 -0.2954  0.1246  0.5428
 1947SOL    HW217475   2.699   3.506  13.737  1.6018  0.1829  0.0140
 1948SOL     OW17476   1.123   2.913  15.243 -0.3707 -0.0462 -0.0684
 1948SOL    HW117477   1.055   2.956  15.296 -1.4953 -3.5790  1.3688
 1948SOL    HW217478   1.108   2.829  15.287 -1.4130  1.4173  2.3951
 1949SOL     OW17479   4.102   0.823  12.502  0.7233 -0.1214  0.3061
 1949SOL    HW117480   4.049   0.870  12.438 -0.9357 -2.2559  0.1042
 1949SOL    HW217481   4.100   0.877  12.580  0.7595  0.5886 -0.1850
 1950SOL     OW17482   3.470   3.046   4.954 -0.1219  0.2606 -0.0700
 1950SOL    HW117483   3.380   3.012   4.954  0.1282 -0.3890 -3.4836
 1950SOL    HW217484   3.513   2.976   5.002  1.7001  3.0634  2.3948
 1951SOL     OW17485   2.574   0.525   3.889  0.3680 -0.1677 -0.1099
 1951SOL    HW117486   2.521   0.518   3.968 -1.4431  0.8493 -1.2332
 1951SOL    HW217487   2.507   0.508   3.822 -1.4136 -1.4674  1.9682
 1952SOL     OW17488   2.221   2.617  13.411  0.3524 -0.0439  0.1217
 1952SOL    HW117489   2.195   2.530  13.440  1.2163  0.0791  1.2635
 1952SOL    HW217490   2.268   2.643  13.490 -0.2976  1.4216  0.0471
 1953SOL     OW17491   4.284   1.545   5.249  0.0177 -0.0188  0.1075
 1953SOL    HW117492   4.351   1.577   5.309  0.3787 -1.3707  0.4212
 1953SOL    HW217493   4.252   1.460   5.282  0.5559 -0.1376  0.3152
 1954SOL     OW17494   0.099   1.561  12.593 -0.6512 -1.1711  0.4013
 1954SOL    HW117495   0.026   1.530  12.646 -0.2994  0.0378  1.6002
 1954SOL    HW217496   0.140   1.477  12.575 -0.5762 -1.4323  1.8003
 1955SOL     OW17497   1.087   2.524   4.229  0.4841 -0.0821 -0.0662
 1955SOL    HW117498   1.035   2.454   4.191 -1.8680  3.3814 -3.2770
 1955SOL    HW217499   1.020   2.586   4.256 -0.7837 -1.4407 -0.1080
 1956SOL     OW17500   4.316   2.861   3.455 -0.7635  0.0354  0.4106
 1956SOL    HW117501   4.350   2.870   3.366 -1.7250 -0.2823  0.0149
 1956SOL    HW217502   4.328   2.950   3.490  0.7096 -0.0884  0.2164
 1957SOL     OW17503   2.402   1.547   2.157 -0.2105  0.5305 -0.2383
 1957SOL    HW117504   2.436   1.636   2.153 -3.2510  1.7657  1.5803
 1957SOL    HW217505   2.478   1.489   2.149  1.5822  2.6566  1.4404
 1958SOL     OW17506   3.146   1.989   9.505  0.2977 -0.0384 -0.1687
 1958SOL    HW117507   3.206   2.053   9.466 -0.2617  0.0951 -0.8182
 1958SOL    HW217508   3.142   2.019   9.596  0.3138  1.7879 -0.7708
 1959SOL     OW17509   3.625   0.467   1.337  0.2912 -0.0245 -0.4212
 1959SOL    HW117510   3.529   0.470   1.342  0.0993 -1.6451 -3.3944
 1959SOL    HW217511   3.633   0.479   1.243 -0.7175 -1.2005 -0.6588
 1960SOL     OW17512   1.558   4.497  12.395 -0.1714  0.4433  0.2508
 1960SOL    HW117513   1.518   4.414  12.369 -0.5234  0.7241 -0.1149
 1960SOL    HW217514   1.497   4.557  12.352  0.1603  0.6081  0.0009
 1961SOL     OW17515   1.621   3.214  12.678 -0.7226 -0.4201  0.4502
 1961SOL    HW117516   1.685   3.145  12.696  1.5220  1.5947  0.1442
 1961SOL    HW217517   1.655   3.255  12.599  0.7283 -0.8457  0.8596
 1962SOL     OW17518   4.335   0.617   2.908 -0.4530  0.0500 -0.4977
 1962SOL    HW117519   4.261   0.624   2.968  0.8032  1.2390  0.9194
 1962SOL    HW217520   4.410   0.646   2.961 -0.4100 -2.1714  0.6556
 1963SOL     OW17521   4.406   1.776   5.886 -0.2673  0.2691  0.2623
 1963SOL    HW117522   4.361   1.827   5.954  1.3036  2.1076 -0.0562
 1963SOL    HW217523   4.350   1.699   5.890 -1.7535  1.3828  0.7146
 1964SOL     OW17524   2.536   3.141   5.921  0.2433  0.1821  0.3669
 1964SOL    HW117525   2.592   3.071   5.956  0.1100  0.9976  2.1934
 1964SOL    HW217526   2.602   3.211   5.922 -0.3024  0.7029 -0.2895
 1965SOL     OW17527   1.078   3.183  16.831  0.0766 -0.0829  0.2325
 1965SOL    HW117528   1.027   3.264  16.838  0.4979  0.1062  1.2161
 1965SOL    HW217529   1.037   3.131  16.762  0.3531 -0.5748  0.4363
 1966SOL     OW17530   2.183   3.705   8.659 -0.3598 -0.6019 -0.1205
 1966SOL    HW117531   2.093   3.720   8.687 -0.1990  1.4001 -0.7094
 1966SOL    HW217532   2.174   3.614   8.628  0.2816 -0.0431 -1.9643
 1967SOL     OW17533   1.591   2.199  14.515 -0.1757 -0.1981 -0.4066
 1967SOL    HW117534   1.551   2.122  14.475 -2.6962 -0.4075  2.5082
 1967SOL    HW217535   1.556   2.261  14.450 -2.4656  0.6836  1.6618
 1968SOL     OW17536   1.627   1.777   0.541  0.2758  0.2197  0.0134
 1968SOL    HW117537   1.631   1.689   0.578  0.6248 -0.6395 -2.0710
 1968SOL    HW217538   1.659   1.772   0.451 -0.5117 -0.4132 -0.2311
 1969SOL     OW17539   2.311   2.013  10.466  0.3812 -0.5050  0.0243
 1969SOL    HW117540   2.264   2.082  10.419  0.6376  0.2637  0.9093
 1969SOL    HW217541   2.348   1.954  10.400  0.0831 -0.5680 -0.0878
 1970SOL     OW17542   3.337   1.660  16.259  0.0328 -0.0752  0.3897
 1970SOL    HW117543   3.326   1.569  16.232  2.3553 -0.1143 -0.4673
 1970SOL    HW217544   3.392   1.689  16.186 -1.0118  3.0768  0.8630
 1971SOL     OW17545   4.036   3.112  12.023 -0.0236 -0.3521 -0.3883
 1971SOL    HW117546   4.047   3.025  12.059  1.7376  0.8269  1.9007
 1971SOL    HW217547   3.978   3.097  11.948 -0.0349 -0.4009 -0.3696
 1972SOL     OW17548   4.165   3.141   3.325 -0.9147 -0.0035 -0.0745
 1972SOL    HW117549   4.257   3.152   3.351 -0.8684  1.7280 -0.9441
 1972SOL    HW217550   4.157   3.192   3.244  0.4499 -0.4863 -0.5077
 1973SOL     OW17551   0.763   1.493   6.743 -0.3277  0.0994 -0.8427
 1973SOL    HW117552   0.702   1.437   6.694 -1.0209  0.7309 -0.7004
 1973SOL    HW217553   0.830   1.525   6.683  0.0817  2.0271  0.6343
 1974SOL     OW17554   1.881   4.366   7.486  0.1015 -0.2539 -0.4874
 1974SOL    HW117555   1.912   4.351   7.396 -1.9189 -2.7205 -0.7756
 1974SOL    HW217556   1.963   4.369   7.536 -0.3368  0.2595  0.1954
 1975SOL     OW17557   1.395   1.983  14.520 -0.7620  0.3475  0.1274
 1975SOL    HW117558   1.443   1.966  14.602 -1.1341  1.0069  0.4749
 1975SOL    HW217559   1.360   1.897  14.497 -0.2738  0.3235 -0.5374
 1976SOL     OW17560   3.506   2.827   3.160  0.1194 -0.0445  0.4607
 1976SOL    HW117561   3.572   2.767   3.125 -0.0836 -0.3855  0.6639
 1976SOL    HW217562   3.424   2.789   3.130  0.8338 -1.1680 -0.0887
 1977SOL     OW17563   4.537   2.694   4.550 -0.1596  0.4903  0.4753
 1977SOL    HW117564   4.509   2.729   4.465  2.3197  0.9097 -0.1565
 1977SOL    HW217565   4.530   2.773   4.603 -0.4462 -0.1361  1.3618
 1978SOL     OW17566   2.061   2.739   2.138  0.1606 -0.1783  0.3445
 1978SOL    HW117567   2.065   2.835   2.129 -0.6812  0.0107  1.9469
 1978SOL    HW217568   2.097   2.723   2.225 -0.2243  0.5952  0.6476
 1979SOL     OW17569   0.140   4.663   9.069  0.1762 -0.6760 -0.8222
 1979SOL    HW117570   0.055   4.646   9.030  0.2593  0.6421 -1.5834
 1979SOL    HW217571   0.131   0.011   9.103 -0.9391 -0.4476 -1.7213
 1980SOL     OW17572   3.957   2.124   5.142 -0.0771 -0.5152  0.0595
 1980SOL    HW117573   3.906   2.196   5.179 -0.7661 -1.6415  1.3243
 1980SOL    HW217574   4.045   2.160   5.126 -0.3724 -0.2178 -0.8771
 1981SOL     OW17575   4.374   0.928   6.757 -0.5778  0.3362  0.2410
 1981SOL    HW117576   4.337   0.853   6.710  1.2029  0.3069 -1.1038
 1981SOL    HW217577   4.311   0.945   6.827 -2.4243  1.9653 -1.8045
 1982SOL     OW17578   2.563   2.820   7.548  0.6291  0.2990 -0.2707
 1982SOL    HW117579   2.557   2.726   7.564 -0.9934 -0.2318 -4.1404
 1982SOL    HW217580   2.478   2.849   7.580  1.1233  0.3465  1.0294
 1983SOL     OW17581   4.295   1.121   7.882 -0.0784 -0.1001  0.1047
 1983SOL    HW117582   4.254   1.112   7.968  1.7030 -2.8359  0.6692
 1983SOL    HW217583   4.310   1.215   7.877  1.6934 -0.3370  0.8302
 1984SOL     OW17584   0.121   1.416   7.742 -0.5983  0.1283 -0.1728
 1984SOL    HW117585   0.084   1.361   7.811 -0.2849 -0.5668 -0.5633
 1984SOL    HW217586   0.178   1.472   7.794 -1.8875  0.0006  1.3666
 1985SOL     OW17587   3.863   2.890   8.547 -0.0916  0.3305  0.0498
 1985SOL    HW117588   3.785   2.946   8.545 -0.5063 -0.2493  0.1552
 1985SOL    HW217589   3.822   2.804   8.549  1.3831 -0.4420 -2.4730
 1986SOL     OW17590   2.432   0.889   3.953 -0.0760  0.2209  0.2224
 1986SOL    HW117591   2.509   0.833   3.943  0.0050  0.2568  0.6511
 1986SOL    HW217592   2.388   0.885   3.868 -0.4780  0.5156  0.4129
 1987SOL     OW17593   1.795   1.848   3.379 -0.5626 -0.1785 -0.3975
 1987SOL    HW117594   1.872   1.792   3.374 -1.0066 -0.8561  0.4543
 1987SOL    HW217595   1.799   1.910   3.306 -1.8373  0.6471  0.2292
 1988SOL     OW17596   0.965   2.383   4.787  0.0306  0.4268  1.0631
 1988SOL    HW117597   0.973   2.329   4.866 -2.0697  1.3796  1.9114
 1988SOL    HW217598   1.058   2.407   4.786  0.3338 -0.7041  1.3246
 1989SOL     OW17599   3.309   4.390   2.732  0.4715 -0.2115 -0.1839
 1989SOL    HW117600   3.229   4.416   2.778  0.8152 -0.0063  0.2964
 1989SOL    HW217601   3.363   4.391   2.811  0.0725 -0.3843  0.0927
 1990SOL     OW17602   1.013   0.666   2.846 -0.2518  0.3215  0.4110
 1990SOL    HW117603   1.061   0.654   2.764  0.4454 -2.5143  1.2437
 1990SOL    HW217604   1.079   0.717   2.894  1.6183 -1.7454  0.0158
 1991SOL     OW17605   0.046   1.454   8.448 -0.5441  0.2552 -0.8250
 1991SOL    HW117606   4.739   1.399   8.510  0.2450 -0.6812 -1.0678
 1991SOL    HW217607   4.734   1.447   8.368 -1.4594  2.4720 -0.4332
 1992SOL     OW17608   3.630   0.414   3.334 -0.0979  0.0285  0.0592
 1992SOL    HW117609   3.623   0.345   3.399 -0.3004 -0.6967 -0.7303
 1992SOL    HW217610   3.722   0.441   3.344 -0.3998  0.6388  1.1203
 1993SOL     OW17611   1.198   3.931   3.520 -0.5860  0.8015  0.2606
 1993SOL    HW117612   1.236   3.975   3.444 -0.3176 -1.1398 -0.7137
 1993SOL    HW217613   1.173   4.009   3.570  4.4064  1.5682  1.5363
 1994SOL     OW17614   2.908   3.095   3.232 -0.0855  0.3090 -0.0651
 1994SOL    HW117615   2.876   3.124   3.146  0.0219  0.5691 -0.0182
 1994SOL    HW217616   2.851   3.021   3.254 -0.5157  1.1883  1.8070
 1995SOL     OW17617   0.899   1.433   7.595 -0.0200  0.2154 -0.1064
 1995SOL    HW117618   0.903   1.358   7.653  0.4711  1.7764  1.8735
 1995SOL    HW217619   0.827   1.422   7.532 -0.6234  1.8960  0.2818
 1996SOL     OW17620   1.769   2.489   0.858  0.3642  0.3550  0.1212
 1996SOL    HW117621   1.688   2.500   0.809  0.3758  1.4131  0.3515
 1996SOL    HW217622   1.786   2.397   0.836 -0.2836 -0.2757  2.2254
 1997SOL     OW17623   0.405   3.986   3.270  0.6898 -0.2813  0.1286
 1997SOL    HW117624   0.363   4.021   3.349 -1.7285 -0.7607 -0.9285
 1997SOL    HW217625   0.396   4.058   3.207  2.0868  2.4607  3.0552
 1998SOL     OW17626   0.066   4.179   8.155  0.4748 -0.1246 -0.8633
 1998SOL    HW117627   4.711   4.175   8.148  0.3804 -1.5316  1.2119
 1998SOL    HW217628   0.081   4.178   8.250  1.8385  0.3163 -1.0872
 1999SOL     OW17629   2.849   1.948   5.772 -0.0192  0.3937 -0.1555
 1999SOL    HW117630   2.793   1.873   5.790 -1.1480  1.0804 -0.7778
 1999SOL    HW217631   2.864   1.988   5.858 -1.8907 -0.7087  0.6877
 2000SOL     OW17632   3.901   2.134   7.590  0.8609 -0.6326 -0.3655
 2000SOL    HW117633   3.806   2.150   7.593  0.5992 -2.6613  1.7604
 2000SOL    HW217634   3.920   2.071   7.520  2.2482 -1.5865  0.8772
 2001SOL     OW17635   3.463   1.526   9.289 -0.0991  0.1538 -0.3179
 2001SOL    HW117636   3.491   1.445   9.332  1.8896  0.1037 -1.7114
 2001SOL    HW217637   3.542   1.576   9.310 -0.6015  0.2763  1.3017
 2002SOL     OW17638   2.912   4.201   1.520  0.1511 -0.5378  0.8141
 2002SOL    HW117639   2.954   4.266   1.577 -2.7011  1.3860  0.7046
 2002SOL    HW217640   2.989   4.157   1.482  1.5981  2.4374  0.3020
 2003SOL     OW17641   1.319   2.704  16.782 -0.2761 -0.2508 -0.0793
 2003SOL    HW117642   1.257   2.634  16.760  0.0411 -0.1632 -1.2876
 2003SOL    HW217643   1.399   2.653  16.775 -1.0299 -1.3833 -0.4875
 2004SOL     OW17644   2.414   3.343   3.718 -0.0973  0.5088  0.0846
 2004SOL    HW117645   2.352   3.327   3.647 -0.4181 -1.6088  0.8617
 2004SOL    HW217646   2.400   3.431   3.754 -0.7132  0.7383 -0.7128
 2005SOL     OW17647   1.543   2.490   8.840  0.1032  0.3390  0.0410
 2005SOL    HW117648   1.536   2.489   8.936  2.0772 -0.7658  0.1861
 2005SOL    HW217649   1.554   2.584   8.827 -1.5629  0.8178  2.0554
 2006SOL     OW17650   1.004   1.551  10.633  0.0956  0.1506  0.7604
 2006SOL    HW117651   0.989   1.466  10.674  1.2065 -0.7917 -0.8131
 2006SOL    HW217652   1.097   1.557  10.655 -0.6137  1.6767  3.3961
 2007SOL     OW17653   3.635   2.999  14.196  0.2698  0.3137  0.6015
 2007SOL    HW117654   3.543   3.019  14.181  0.3740 -0.5038 -1.1468
 2007SOL    HW217655   3.654   3.021  14.105  1.6720 -1.8650  0.3667
 2008SOL     OW17656   0.493   0.118   3.825 -0.5656  0.8991 -0.0433
 2008SOL    HW117657   0.554   0.176   3.871  0.7101 -0.9635  0.6251
 2008SOL    HW217658   0.494   0.040   3.880 -1.2800  1.5560  0.9018
 2009SOL     OW17659   1.953   2.860   3.024  0.4842  0.6067  0.6422
 2009SOL    HW117660   1.913   2.773   3.018 -0.3930  0.8968  2.2348
 2009SOL    HW217661   1.916   2.913   2.953  1.5483 -0.1023 -0.4284
 2010SOL     OW17662   2.961   3.781   4.229  0.0974  0.1040 -0.0090
 2010SOL    HW117663   3.019   3.707   4.242 -0.3690 -0.7116 -2.5337
 2010SOL    HW217664   2.967   3.794   4.134 -0.8503  0.7595  0.0221
 2011SOL     OW17665   1.701   3.138   9.790 -0.1095  0.1584 -0.4693
 2011SOL    HW117666   1.635   3.157   9.723 -1.5637 -3.5501 -0.0729
 2011SOL    HW217667   1.712   3.226   9.826  2.5481 -0.1292 -0.5596
 2012SOL     OW17668   2.388   3.945   4.808 -0.9927 -0.1589 -0.0691
 2012SOL    HW117669   2.396   4.024   4.755 -2.1399 -0.0240 -0.0410
 2012SOL    HW217670   2.317   3.896   4.766 -0.7486  1.6404 -2.5525
 2013SOL     OW17671   0.740   3.447   2.871  0.1568  0.2066 -0.3318
 2013SOL    HW117672   0.766   3.539   2.870  2.0428 -0.3235 -0.7532
 2013SOL    HW217673   0.647   3.455   2.855  0.0520 -0.4103 -0.0313
 2014SOL     OW17674   2.925   1.694   3.163  0.5156  0.7015 -0.4990
 2014SOL    HW117675   2.858   1.738   3.110 -0.0523  2.7186  1.8699
 2014SOL    HW217676   2.902   1.723   3.251 -0.7239  0.9090 -0.9001
 2015SOL     OW17677   3.630   0.974   4.771 -0.4719 -0.2468 -0.0917
 2015SOL    HW117678   3.623   1.059   4.727 -0.9849  0.2251  0.9243
 2015SOL    HW217679   3.702   0.940   4.718 -0.1188 -0.0594  0.2691
 2016SOL     OW17680   0.402   1.758   6.505 -0.4608 -0.1543  0.8435
 2016SOL    HW117681   0.477   1.725   6.455 -1.4020 -1.5408  0.3521
 2016SOL    HW217682   0.397   1.848   6.472  3.4153 -0.8595 -1.6641
 2017SOL     OW17683   0.150   3.898  11.293  0.0836  0.6875  0.8326
 2017SOL    HW117684   0.215   3.929  11.230  1.0987  0.0449  1.5438
 2017SOL    HW217685   0.126   3.814  11.254  1.2326  1.2343 -1.0540
 2018SOL     OW17686   1.499   1.152   9.664 -0.0435 -0.5465 -0.2292
 2018SOL    HW117687   1.471   1.229   9.616 -1.8951 -2.0513 -1.5616
 2018SOL    HW217688   1.456   1.075   9.627 -1.8891  1.1028 -1.5249
 2019SOL     OW17689   0.900   0.793   3.354 -0.0631  0.4401  0.0108
 2019SOL    HW117690   0.890   0.794   3.259 -0.4917  3.4726  0.0805
 2019SOL    HW217691   0.909   0.886   3.375 -3.0819  0.6499  0.3181
 2020SOL     OW17692   4.355   3.961   8.860  0.1557  0.1627 -0.3602
 2020SOL    HW117693   4.331   4.001   8.777  0.7540  0.2691 -0.4808
 2020SOL    HW217694   4.428   3.911   8.823 -1.2502 -1.7017 -0.6405
 2021SOL     OW17695   3.524   3.670   3.116  0.1918 -0.5661  0.3038
 2021SOL    HW117696   3.618   3.678   3.105 -0.1372 -0.1266 -2.1095
 2021SOL    HW217697   3.506   3.754   3.160  2.1587  1.2137 -2.3312
 2022SOL     OW17698   1.310   2.351  17.424 -0.3524  0.1519 -0.3222
 2022SOL    HW117699   1.391   2.397  17.443 -0.4041 -0.8017  2.2176
 2022SOL    HW217700   1.259   2.415  17.375 -0.6311  0.9994  1.0807
 2023SOL     OW17701   4.424   4.373   7.652 -0.5048  0.0737 -0.2870
 2023SOL    HW117702   4.348   4.409   7.698  0.5920  1.3393  0.5353
 2023SOL    HW217703   4.421   4.287   7.695 -0.8396  0.7850  1.1060
 2024SOL     OW17704   1.863   3.397   5.453  0.3095 -0.2833 -0.2306
 2024SOL    HW117705   1.808   3.415   5.377  0.7165  0.7482 -0.2747
 2024SOL    HW217706   1.902   3.482   5.473 -0.0616 -0.2175  0.2265
 2025SOL     OW17707   2.985   0.611   8.443 -0.2797 -0.1127  0.1434
 2025SOL    HW117708   2.908   0.554   8.440 -0.8025  0.6416 -0.6791
 2025SOL    HW217709   3.037   0.575   8.371 -2.8641  1.2374 -2.3724
 2026SOL     OW17710   1.106   4.638   4.520  0.1618 -0.1432 -0.8490
 2026SOL    HW117711   1.164   4.676   4.455  2.9932  1.0795  2.4007
 2026SOL    HW217712   1.082   4.707   4.582  0.7633  0.1798 -0.9817
 2027SOL     OW17713   3.492   2.388   7.235 -0.3493  0.0111 -0.1833
 2027SOL    HW117714   3.566   2.330   7.247  0.7797  1.4036 -0.4717
 2027SOL    HW217715   3.463   2.364   7.147  0.1692 -1.8547  0.1702
 2028SOL     OW17716   2.895   2.288   7.932  0.1513  0.2637 -0.5524
 2028SOL    HW117717   2.914   2.276   8.025 -0.7890 -1.3344 -0.5548
 2028SOL    HW217718   2.910   2.198   7.901  0.5122  0.5863 -1.3058
 2029SOL     OW17719   0.433   2.001  12.376  0.2651  0.0233 -0.0684
 2029SOL    HW117720   0.370   2.043  12.317 -1.0014  1.4322  2.3167
 2029SOL    HW217721   0.400   1.911  12.375  2.3077 -0.7699  2.4454
 2030SOL     OW17722   0.952   4.700  13.548  0.1382 -0.2761 -0.2351
 2030SOL    HW117723   0.982   0.047  13.568 -1.1874 -0.5798  2.9829
 2030SOL    HW217724   1.028   4.647  13.570 -0.0949 -0.1270  0.9285
 2031SOL     OW17725   0.537   2.656  14.402  0.0415 -0.3851  0.5179
 2031SOL    HW117726   0.495   2.680  14.319  2.4784  1.5217 -0.1721
 2031SOL    HW217727   0.560   2.564  14.388  3.9684  0.9041 -1.6046
 2032SOL     OW17728   3.134   3.155  14.365 -0.2378 -0.1629 -0.1543
 2032SOL    HW117729   3.123   3.081  14.425 -3.4410 -0.3619 -1.0006
 2032SOL    HW217730   3.213   3.198  14.400 -0.3498 -0.6745  0.7210
 2033SOL     OW17731   2.522   2.598   8.396 -0.1646  0.0865  0.1994
 2033SOL    HW117732   2.473   2.524   8.432 -1.0914 -0.1617 -1.5873
 2033SOL    HW217733   2.574   2.559   8.326 -0.7867 -0.8014  0.2361
 2034SOL     OW17734   1.012   3.748   3.479  0.5042 -0.2408  0.5038
 2034SOL    HW117735   1.078   3.818   3.482  0.4766 -0.1438 -0.9917
 2034SOL    HW217736   1.017   3.720   3.570  3.1809 -0.0473  0.4371
 2035SOL     OW17737   0.376   0.532   3.975 -0.5362 -0.4559 -0.2423
 2035SOL    HW117738   0.350   0.532   4.067 -0.1142 -1.4497 -0.1289
 2035SOL    HW217739   0.290   0.527   3.933 -0.2180  2.3120 -1.2472
 2036SOL     OW17740   0.620   4.689   1.363  0.5759 -0.0163 -0.1875
 2036SOL    HW117741   0.581   4.602   1.356  1.3344 -0.3331 -0.4587
 2036SOL    HW217742   0.547   0.010   1.359 -0.4068 -1.1227  0.7991
 2037SOL     OW17743   0.969   4.003  12.293 -0.0497 -0.0227  0.0233
 2037SOL    HW117744   1.012   4.035  12.372  1.2983 -0.8055 -0.3817
 2037SOL    HW217745   1.051   3.994  12.244 -0.0574 -0.0170  0.0094
 2038SOL     OW17746   0.880   0.216   4.915  0.3087 -0.0554 -0.2076
 2038SOL    HW117747   0.868   0.305   4.950  0.1539 -1.4196  3.1721
 2038SOL    HW217748   0.819   0.213   4.841  0.3963  0.4186 -0.3015
 2039SOL     OW17749   0.277   2.135  14.151  0.0592  0.3914 -0.3180
 2039SOL    HW117750   0.253   2.109  14.240 -2.2325 -0.1033 -1.0677
 2039SOL    HW217751   0.369   2.158  14.158  0.0917 -0.4246  1.8674
 2040SOL     OW17752   1.573   0.198  16.870  0.1427 -0.3873  0.5336
 2040SOL    HW117753   1.492   0.202  16.820 -0.4578 -0.9044  1.4738
 2040SOL    HW217754   1.635   0.208  16.797 -1.6432  2.1987 -0.6226
 2041SOL     OW17755   0.805   3.247   1.155  0.3949 -0.1107  0.2643
 2041SOL    HW117756   0.894   3.251   1.120 -0.5654  1.4584 -1.9886
 2041SOL    HW217757   0.819   3.256   1.249  1.3253 -0.1276  0.1286
 2042SOL     OW17758   1.024   0.596   7.867  0.2338 -0.3440 -0.6548
 2042SOL    HW117759   0.950   0.596   7.805  0.8181 -1.2081 -1.3596
 2042SOL    HW217760   0.985   0.643   7.940 -0.2564 -0.7087 -0.6830
 2043SOL     OW17761   0.961   2.745   7.300 -0.2236  0.0523 -0.3066
 2043SOL    HW117762   1.057   2.750   7.307 -0.1052 -2.8795  0.1820
 2043SOL    HW217763   0.971   2.697   7.218 -0.4273  1.1355 -0.9737
 2044SOL     OW17764   1.616   1.792   7.141  0.0037  0.6791  0.5587
 2044SOL    HW117765   1.671   1.870   7.151  2.1677 -0.5450 -1.7984
 2044SOL    HW217766   1.597   1.805   7.048  0.1940 -1.5456  0.1923
 2045SOL     OW17767   2.286   1.887   4.577  0.0052 -0.0590  0.1490
 2045SOL    HW117768   2.222   1.822   4.549  0.5393 -0.5555  0.0703
 2045SOL    HW217769   2.367   1.840   4.556 -0.0162  0.1097 -0.3067
 2046SOL     OW17770   1.782   0.100   0.831  0.3428 -0.9565 -0.1440
 2046SOL    HW117771   1.771   0.092   0.736 -0.2255 -0.2258 -0.1434
 2046SOL    HW217772   1.708   0.148   0.868  1.6764  1.2122 -0.2993
 2047SOL     OW17773   1.756   0.531   6.271 -0.2521  0.1723 -0.6426
 2047SOL    HW117774   1.807   0.458   6.236 -0.1794 -1.2678  2.4092
 2047SOL    HW217775   1.773   0.607   6.216  0.4275  0.9291  0.6115
 2048SOL     OW17776   2.375   2.066   6.035  0.1906  0.2597 -0.0132
 2048SOL    HW117777   2.280   2.080   6.035  0.2702  0.8051  0.2775
 2048SOL    HW217778   2.402   2.126   5.964  1.2657  0.1230  0.2827
 2049SOL     OW17779   0.535   1.189   2.578 -0.5446  0.4198  0.2548
 2049SOL    HW117780   0.519   1.245   2.654  2.0440  0.5003  0.7187
 2049SOL    HW217781   0.492   1.245   2.512 -2.8131 -0.7003  0.7715
 2050SOL     OW17782   1.288   3.884   4.612 -0.1047 -0.1560  0.0747
 2050SOL    HW117783   1.257   3.968   4.580  0.3816 -0.2964 -0.7594
 2050SOL    HW217784   1.264   3.889   4.705  2.1719  1.6535  0.5628
 2051SOL     OW17785   1.373   3.158  12.789  0.5036  0.0918  0.4181
 2051SOL    HW117786   1.360   3.063  12.781 -2.2626  0.5317 -0.2234
 2051SOL    HW217787   1.453   3.172  12.738  1.1214 -0.9653  1.0934
 2052SOL     OW17788   4.736   4.110   5.683  0.3028 -0.2655 -0.5725
 2052SOL    HW117789   0.046   4.037   5.720  1.0790  0.4417 -0.2359
 2052SOL    HW217790   0.059   4.176   5.710  0.0329 -0.2020 -0.0873
 2053SOL     OW17791   3.270   0.837  11.158  0.5383 -0.5868 -0.2077
 2053SOL    HW117792   3.204   0.768  11.155  0.4317 -0.4687 -0.5688
 2053SOL    HW217793   3.348   0.783  11.146  0.2769 -0.5288 -2.1600
 2054SOL     OW17794   0.359   1.848   5.234  0.1229 -0.4649  0.0001
 2054SOL    HW117795   0.311   1.856   5.316 -0.9433  0.2474 -0.6912
 2054SOL    HW217796   0.429   1.912   5.244  0.5605 -1.2392  1.8599
 2055SOL     OW17797   3.616   1.545   4.961 -0.0268 -0.1382  0.6044
 2055SOL    HW117798   3.711   1.533   4.969 -0.1828  0.0057  2.7820
 2055SOL    HW217799   3.598   1.627   5.008 -2.1721 -0.9139  1.1066
 2056SOL     OW17800   3.363   3.578  11.571 -0.4729 -0.8185 -0.1329
 2056SOL    HW117801   3.456   3.557  11.561 -0.2991  0.4674 -1.2097
 2056SOL    HW217802   3.341   3.534  11.654 -1.1641 -0.2337 -0.0024
 2057SOL     OW17803   0.067   3.466   0.798 -0.1682  0.0821 -0.7602
 2057SOL    HW117804   0.021   3.432   0.875  1.6870  1.6853  1.0567
 2057SOL    HW217805   0.040   3.557   0.810 -0.9172 -0.3933  1.2774
 2058SOL     OW17806   3.709   2.884   0.015  0.3533 -0.2182 -0.3001
 2058SOL    HW117807   3.715   2.926  17.689 -0.7568  0.3721 -0.0895
 2058SOL    HW217808   3.707   2.790   0.001 -0.3774 -0.4802  1.6647
 2059SOL     OW17809   2.948   1.466   9.436 -0.0751  0.1874  0.6374
 2059SOL    HW117810   2.998   1.393   9.472  0.1040 -0.0289 -0.0381
 2059SOL    HW217811   3.006   1.535   9.467 -0.5402  1.8744 -2.2069
 2060SOL     OW17812   3.071   2.429   5.550  0.3086 -0.0179 -0.4674
 2060SOL    HW117813   3.058   2.432   5.456  0.0384  0.9655 -0.3967
 2060SOL    HW217814   3.159   2.397   5.572  0.6584  1.2328 -0.0529
 2061SOL     OW17815   0.395   1.909   8.650  0.0413 -0.4804  0.2681
 2061SOL    HW117816   0.375   1.883   8.560 -2.0993 -0.7171  0.8158
 2061SOL    HW217817   0.314   1.908   8.701 -0.9644 -0.0433 -1.3186
 2062SOL     OW17818   4.582   4.384  13.536  0.1800  0.7932  0.2332
 2062SOL    HW117819   4.625   4.362  13.619  0.8898  0.4708 -0.2178
 2062SOL    HW217820   4.651   4.418  13.478  1.7976  0.3198  1.8608
 2063SOL     OW17821   2.402   1.823   3.783 -0.2304 -0.1976  0.5209
 2063SOL    HW117822   2.389   1.753   3.719 -3.0763  0.5582  0.2814
 2063SOL    HW217823   2.369   1.767   3.853  0.4940 -0.2580  0.8133
 2064SOL     OW17824   0.608   0.298   3.347  0.2266 -0.5375  0.3299
 2064SOL    HW117825   0.659   0.257   3.277  2.2531 -0.4388  1.7568
 2064SOL    HW217826   0.665   0.373   3.365 -0.4855 -0.4548  2.2675
 2065SOL     OW17827   4.139   1.691   7.192 -0.0933 -0.3358  0.3062
 2065SOL    HW117828   4.137   1.602   7.159  0.8396  0.1398 -1.0571
 2065SOL    HW217829   4.153   1.740   7.111  2.5357 -1.0562  0.3382
 2066SOL     OW17830   3.310   2.364   8.180  0.2769  0.2875 -0.1901
 2066SOL    HW117831   3.281   2.306   8.251  0.3239  0.6502  0.1210
 2066SOL    HW217832   3.355   2.431   8.232 -1.1472  1.2668 -0.2272
 2067SOL     OW17833   3.351   2.388   5.620 -0.0534  0.0727 -0.1076
 2067SOL    HW117834   3.411   2.433   5.560 -0.6453 -2.9728 -2.9931
 2067SOL    HW217835   3.412   2.315   5.626 -0.0809  0.1856  1.5646
 2068SOL     OW17836   2.928   1.833   0.798  0.4364  0.4290 -0.2333
 2068SOL    HW117837   2.878   1.845   0.879 -1.6831 -2.7711 -1.0853
 2068SOL    HW217838   2.998   1.897   0.808  1.4816 -0.9108  0.9361
 2069SOL     OW17839   0.107   2.725   3.545 -0.1447  0.1290  0.2022
 2069SOL    HW117840   0.152   2.777   3.478  0.0746 -0.9100 -0.4600
 2069SOL    HW217841   0.081   2.797   3.602 -0.8385  0.3963 -0.4598
 2070SOL     OW17842   3.356   4.679   8.807  0.1850 -0.2812 -0.3050
 2070SOL    HW117843   3.444   4.682   8.768  0.6968  0.1444  0.8639
 2070SOL    HW217844   3.306   4.622   8.749  0.7788 -1.5056  0.3855
 2071SOL     OW17845   2.408   3.969   5.099  0.3495  0.3530 -0.0178
 2071SOL    HW117846   2.411   3.945   5.006 -1.3601  0.5413 -0.1337
 2071SOL    HW217847   2.389   4.063   5.096  1.4083  0.5974  1.3462
 2072SOL     OW17848   4.131   2.877   8.595  0.2022  0.4057  0.2030
 2072SOL    HW117849   4.040   2.871   8.565  0.4383 -1.7667 -0.0715
 2072SOL    HW217850   4.124   2.846   8.685  2.9183  0.0965  0.3044
 2073SOL     OW17851   4.152   3.713   4.075  0.3677  0.4245 -0.5057
 2073SOL    HW117852   4.155   3.645   4.142  2.3736  0.0710 -0.9385
 2073SOL    HW217853   4.227   3.766   4.103  1.1554 -1.6702  1.3523
 2074SOL     OW17854   3.497   1.501   4.702  0.1933 -0.4323 -0.5394
 2074SOL    HW117855   3.510   1.518   4.796  2.7656  0.1988 -0.9913
 2074SOL    HW217856   3.525   1.587   4.669 -0.5386  0.1407  0.3151
 2075SOL     OW17857   1.195   3.487   3.994 -0.1429  0.2219 -0.2330
 2075SOL    HW117858   1.161   3.476   4.083  0.4520  1.0622  0.1009
 2075SOL    HW217859   1.224   3.578   3.991  1.8137 -0.4929 -3.3181
 2076SOL     OW17860   1.517   2.926  12.503 -0.0700  0.7654  0.1476
 2076SOL    HW117861   1.452   2.868  12.464 -0.6226  0.5041  1.4485
 2076SOL    HW217862   1.496   2.939  12.595  0.3406 -0.4076  0.4050
 2077SOL     OW17863   3.274   3.919   7.030  0.1381  0.5060 -0.4662
 2077SOL    HW117864   3.273   3.838   6.979  1.9672  0.8410 -1.0205
 2077SOL    HW217865   3.348   3.899   7.087  1.0921 -0.7115 -2.1432
 2078SOL     OW17866   4.728   2.904  16.503 -0.6197  0.3410 -0.2211
 2078SOL    HW117867   4.734   2.910  16.408 -0.6128 -2.9722 -0.4565
 2078SOL    HW217868   4.729   2.993  16.537  1.8031  0.2516 -0.1014
 2079SOL     OW17869   2.889   0.483   5.251 -0.2815 -0.8779 -0.5324
 2079SOL    HW117870   2.923   0.411   5.197 -2.0925 -1.9027 -0.2858
 2079SOL    HW217871   2.935   0.458   5.331  0.0444 -0.6526 -0.6488
 2080SOL     OW17872   4.118   1.618   4.660 -0.7309 -0.8566  0.4228
 2080SOL    HW117873   4.105   1.710   4.683  0.4093 -0.1644 -1.7240
 2080SOL    HW217874   4.148   1.590   4.746  0.0205 -1.0267  0.1045
 2081SOL     OW17875   0.370   0.504   6.295 -0.6002  0.8128 -0.0445
 2081SOL    HW117876   0.381   0.417   6.333 -0.7226  0.8948  0.1778
 2081SOL    HW217877   0.428   0.504   6.220  0.6312  0.3794  0.9109
 2082SOL     OW17878   3.568   0.990  17.259  0.3004 -0.3830 -0.2112
 2082SOL    HW117879   3.512   1.040  17.318 -1.8653 -1.3750 -1.3915
 2082SOL    HW217880   3.634   0.961  17.321 -0.2158  1.8212  1.3407
 2083SOL     OW17881   3.396   1.042   8.311  0.2188  0.1888  0.0185
 2083SOL    HW117882   3.396   0.959   8.263 -2.0518  0.0318  0.2660
 2083SOL    HW217883   3.487   1.069   8.302  0.6207 -0.9998  0.6163
 2084SOL     OW17884   1.327   2.096  17.539 -0.3744 -1.0474  0.1023
 2084SOL    HW117885   1.294   2.133  17.620 -2.2235 -0.9285 -0.7169
 2084SOL    HW217886   1.345   2.180  17.497 -1.0089 -1.2091 -0.4876
 2085SOL     OW17887   3.344   4.693   7.303 -0.3523 -0.3508  0.1651
 2085SOL    HW117888   3.400   4.637   7.249 -0.8852 -0.9070  0.1988
 2085SOL    HW217889   3.393   0.035   7.300  1.8416 -1.6430  0.5651
 2086SOL     OW17890   1.705   1.739   0.130  0.4476  0.1016 -0.1303
 2086SOL    HW117891   1.743   1.656   0.158 -0.3857  0.5349  2.2726
 2086SOL    HW217892   1.611   1.721   0.121  0.0342  2.2982 -0.3056
 2087SOL     OW17893   1.311   2.969  16.751 -0.2359 -0.5771  0.4784
 2087SOL    HW117894   1.219   2.968  16.722  0.8305 -0.8327 -2.9285
 2087SOL    HW217895   1.319   2.882  16.790 -0.7616 -0.6642  0.4025
 2088SOL     OW17896   0.349   3.258   7.818  0.2850  0.2101 -0.3928
 2088SOL    HW117897   0.348   3.271   7.913  2.3291  0.4863 -0.4133
 2088SOL    HW217898   0.442   3.274   7.800  1.2380 -1.9829  2.5738
 2089SOL     OW17899   0.705   3.173   3.284 -0.1800 -0.0804  0.2223
 2089SOL    HW117900   0.720   3.267   3.297 -3.2425  0.9294 -3.4703
 2089SOL    HW217901   0.787   3.151   3.240 -0.5430  0.4905 -0.7383
 2090SOL     OW17902   0.235   1.335  12.570  0.4469 -0.3606  0.0104
 2090SOL    HW117903   0.327   1.343  12.595 -0.1318  1.9459  1.3902
 2090SOL    HW217904   0.220   1.248  12.608 -2.1069  1.0005  2.0765
 2091SOL     OW17905   2.647   0.161  12.279  0.1885 -0.2816  0.7943
 2091SOL    HW117906   2.692   0.233  12.233  1.0613 -0.5315  1.2505
 2091SOL    HW217907   2.569   0.200  12.318 -0.1110 -1.9714  1.8603
 2092SOL     OW17908   2.776   0.858   6.087  0.8136  0.1357 -0.0600
 2092SOL    HW117909   2.762   0.782   6.030  1.3754  0.7259 -0.9759
 2092SOL    HW217910   2.707   0.924   6.085  1.1371  0.5066  1.1159
 2093SOL     OW17911   0.783   1.431   7.970 -0.0057  0.2399  0.8383
 2093SOL    HW117912   0.873   1.460   7.988 -0.1849  0.3796  1.5027
 2093SOL    HW217913   0.763   1.408   8.060  0.6389  0.9147  1.1524
 2094SOL     OW17914   1.589   3.085  16.994  0.0127  0.0953 -0.6162
 2094SOL    HW117915   1.495   3.071  17.005 -0.1398  0.5425 -1.3409
 2094SOL    HW217916   1.591   3.049  16.906 -0.9175  0.4690 -0.7951
 2095SOL     OW17917   1.260   4.567   8.000  0.5889 -0.5472  0.2184
 2095SOL    HW117918   1.298   4.567   7.912  0.3323  0.0973  0.1014
 2095SOL    HW217919   1.318   4.627   8.048 -1.6120  2.5808 -0.9696
 2096SOL     OW17920   2.404   1.393   9.380 -0.6359  0.0398  0.4582
 2096SOL    HW117921   2.320   1.362   9.414 -0.6411  1.0425  1.3568
 2096SOL    HW217922   2.426   1.322   9.320 -0.5216  0.2521  0.2440
 2097SOL     OW17923   0.851   4.451   5.532  0.4509 -0.1775  0.8273
 2097SOL    HW117924   0.831   4.395   5.608  0.3904 -1.0695  0.1517
 2097SOL    HW217925   0.824   4.389   5.464 -0.5344  2.5944 -1.3057
 2098SOL     OW17926   3.387   0.940   2.508  0.1858  0.2559  0.2183
 2098SOL    HW117927   3.439   0.989   2.445  0.5091  2.4475  2.1737
 2098SOL    HW217928   3.445   0.867   2.530  1.6483  1.5775  0.7283
 2099SOL     OW17929   4.105   0.082   6.520 -0.2487  0.1494  0.0885
 2099SOL    HW117930   4.095   4.728   6.516  1.4852 -0.1118  2.3501
 2099SOL    HW217931   4.172   0.088   6.587  0.0696  0.2750 -0.2416
 2100SOL     OW17932   0.991   4.544   9.019 -0.2787  0.1047 -0.3601
 2100SOL    HW117933   0.925   4.488   9.060  1.0096 -2.3365 -1.6013
 2100SOL    HW217934   1.034   4.473   8.972 -0.7363  0.8068 -1.8300
 2101SOL     OW17935   2.398   1.592   3.070  0.3109  0.8317 -0.6658
 2101SOL    HW117936   2.375   1.510   3.027 -0.2549  1.8113 -2.2149
 2101SOL    HW217937   2.317   1.637   3.048  0.7284  0.7919 -2.2883
 2102SOL     OW17938   0.846   2.368   1.607 -0.1604  0.7821 -0.6217
 2102SOL    HW117939   0.814   2.363   1.517  1.0730 -1.4576 -0.9293
 2102SOL    HW217940   0.789   2.306   1.651 -0.2683  0.2434 -1.5239
 2103SOL     OW17941   3.306   3.764   0.745  0.1862  0.2775 -0.3132
 2103SOL    HW117942   3.364   3.802   0.811  2.3535 -0.8035 -1.5677
 2103SOL    HW217943   3.362   3.761   0.667  0.1007  0.6581 -0.3932
 2104SOL     OW17944   0.972   4.653  16.508 -0.0563  0.1181 -0.2735
 2104SOL    HW117945   0.882   4.622  16.510 -0.6248  1.7755 -0.1921
 2104SOL    HW217946   0.970   4.731  16.565 -0.5029  0.1887 -0.3897
 2105SOL     OW17947   2.166   0.737   1.945 -0.7204  0.6906  0.0549
 2105SOL    HW117948   2.079   0.747   1.984 -0.5664 -0.8313  0.7928
 2105SOL    HW217949   2.208   0.821   1.962  1.9503 -1.0488  1.9291
 2106SOL     OW17950   3.488   0.713   7.315  0.2786  0.6117  0.7346
 2106SOL    HW117951   3.452   0.679   7.233  0.6784  0.3329  0.6722
 2106SOL    HW217952   3.577   0.678   7.316  1.1213  2.7461  1.4152
 2107SOL     OW17953   0.128   3.507   8.463 -0.4108  0.1439 -0.0951
 2107SOL    HW117954   0.119   3.505   8.558 -2.9369 -0.7264 -0.3526
 2107SOL    HW217955   0.197   3.573   8.454  1.6523 -2.0348 -0.3817
 2108SOL     OW17956   3.453   3.772   0.534 -0.0117 -0.3370  0.3050
 2108SOL    HW117957   3.533   3.815   0.505  0.1669 -0.9233 -0.0738
 2108SOL    HW217958   3.455   3.686   0.492 -1.2315  0.1110 -0.7018
 2109SOL     OW17959   1.584   0.299  13.306 -0.4013  0.1264  0.3833
 2109SOL    HW117960   1.664   0.276  13.354 -0.1811  1.1226  0.4910
 2109SOL    HW217961   1.529   0.320  13.381  0.4919  0.2155  1.0187
 2110SOL     OW17962   1.305   2.724   6.854  0.3866 -0.1648 -0.0063
 2110SOL    HW117963   1.389   2.705   6.813 -1.1623  0.3425 -3.3624
 2110SOL    HW217964   1.237   2.673   6.810 -0.6873  1.0934  0.2001
 2111SOL     OW17965   1.233   3.651  16.369 -0.0077  0.0726 -0.3641
 2111SOL    HW117966   1.142   3.636  16.394 -0.2099  1.5575 -0.1777
 2111SOL    HW217967   1.219   3.727  16.313 -0.2532 -0.5726 -1.1838
 2112SOL     OW17968   4.729   3.188   2.536  0.2115  0.4267  0.1626
 2112SOL    HW117969   0.016   3.111   2.486 -0.5405  1.6451 -2.1560
 2112SOL    HW217970   4.720   3.245   2.459  0.9042 -0.3991 -0.5347
 2113SOL     OW17971   4.567   3.461   7.593 -0.2398 -0.0044 -0.1737
 2113SOL    HW117972   4.525   3.415   7.520  1.0327 -0.2126 -0.7701
 2113SOL    HW217973   4.652   3.418   7.600  0.3795  1.2847  0.3184
 2114SOL     OW17974   0.595   3.343  17.607 -0.0496  0.5981 -0.0809
 2114SOL    HW117975   0.525   3.287  17.575 -0.5331  0.6666  0.8593
 2114SOL    HW217976   0.643   3.373  17.529 -2.7088  0.8179 -1.6328
 2115SOL     OW17977   3.365   3.468   4.182 -0.1905 -0.0275 -0.1951
 2115SOL    HW117978   3.391   3.377   4.191 -0.0584 -0.1242 -1.5384
 2115SOL    HW217979   3.390   3.501   4.096  0.1267 -0.8935 -0.4305
 2116SOL     OW17980   4.063   3.805   9.382  0.0609 -0.0809  0.1325
 2116SOL    HW117981   4.122   3.829   9.453  3.2391 -1.0231 -2.1724
 2116SOL    HW217982   4.050   3.891   9.343 -1.8040 -0.3723  0.1451
 2117SOL     OW17983   1.856   0.957   3.968  0.0673 -0.0481  0.5630
 2117SOL    HW117984   1.791   0.943   3.899  0.4759  1.9995 -0.2246
 2117SOL    HW217985   1.801   0.968   4.046  0.1719  1.4893  0.4061
 2118SOL     OW17986   0.960   0.890   7.418  0.5806 -0.2505 -0.1301
 2118SOL    HW117987   0.973   0.928   7.331 -1.1766  2.4164  0.7661
 2118SOL    HW217988   0.991   0.968   7.464 -1.5783  1.7340 -2.0292
 2119SOL     OW17989   0.732   0.618  15.376  0.0650 -0.5107  0.6146
 2119SOL    HW117990   0.643   0.596  15.404 -1.0200  0.3648 -2.1702
 2119SOL    HW217991   0.715   0.641  15.285  0.0172  0.1337  0.7857
 2120SOL     OW17992   0.010   3.118   0.297  0.3344 -0.0316 -0.0995
 2120SOL    HW117993   4.679   3.152   0.351  0.5340  0.0764  0.0935
 2120SOL    HW217994   4.734   3.117   0.203  0.8560  0.9459 -0.1970
 2121SOL     OW17995   4.593   3.478   5.761  0.0858 -0.0782 -0.6594
 2121SOL    HW117996   4.551   3.417   5.701 -0.2702 -2.2486  1.7912
 2121SOL    HW217997   4.675   3.429   5.768 -1.4543 -2.6167 -0.6184
 2122SOL     OW17998   4.036   3.624   3.514 -0.0398  0.0740  0.0204
 2122SOL    HW117999   3.963   3.567   3.491 -0.3881 -0.1336  1.6765
 2122SOL    HW218000   3.983   3.695   3.549  0.6587  0.4405  0.3530
 2123SOL     OW18001   0.705   2.222   2.259  0.1546 -0.2328  0.2494
 2123SOL    HW118002   0.642   2.219   2.331 -0.8580 -1.2128 -0.6671
 2123SOL    HW218003   0.755   2.142   2.274  1.9714  0.5169 -1.7721
 2124SOL     OW18004   3.086   2.974   9.132 -0.4763 -0.5931 -0.5123
 2124SOL    HW118005   3.094   3.009   9.044  0.5345  1.0197  0.2368
 2124SOL    HW218006   3.179   2.968   9.153 -1.0462 -0.9508  1.9502
 2125SOL     OW18007   1.585   4.322   3.448 -0.0164 -0.0765 -0.4037
 2125SOL    HW118008   1.595   4.302   3.355  0.8580 -1.3612 -0.0406
 2125SOL    HW218009   1.532   4.246   3.475  1.3386 -1.6387 -2.1988
 2126SOL     OW18010   3.014   1.838   4.441 -0.0539  0.6437  0.0625
 2126SOL    HW118011   2.947   1.852   4.373 -1.0463 -0.4213  0.8181
 2126SOL    HW218012   3.027   1.929   4.469 -1.0359  0.4869  1.0173
 2127SOL     OW18013   0.410   2.767   1.022  0.4728  0.1588 -0.6276
 2127SOL    HW118014   0.480   2.715   1.062  0.6198  1.2105  0.4814
 2127SOL    HW218015   0.379   2.714   0.948 -1.7048 -2.6519  2.2737
 2128SOL     OW18016   0.484   2.239   3.835  0.0680  0.3535 -0.1869
 2128SOL    HW118017   0.456   2.172   3.897  1.6121  0.0466  0.1954
 2128SOL    HW218018   0.405   2.243   3.782 -0.3214 -0.7297  0.3164
 2129SOL     OW18019   1.562   2.125   1.595 -0.1440  0.3531 -0.1142
 2129SOL    HW118020   1.535   2.079   1.516 -0.5377 -0.5772  0.5518
 2129SOL    HW218021   1.629   2.064   1.628 -0.4385  1.1173  1.9259
 2130SOL     OW18022   0.820   1.847   6.787  0.4358 -0.2796 -0.6755
 2130SOL    HW118023   0.873   1.801   6.722  2.5040  1.2621 -0.1044
 2130SOL    HW218024   0.760   1.895   6.731 -1.1398 -0.1124  1.1635
 2131SOL     OW18025   1.497   2.406   2.124  0.1774  0.2854 -0.1404
 2131SOL    HW118026   1.590   2.383   2.123  0.2942  0.8315 -1.3053
 2131SOL    HW218027   1.471   2.390   2.033  0.0266 -1.8067  0.2757
 2132SOL     OW18028   1.690   0.324  11.880 -0.1338 -0.1776 -0.3435
 2132SOL    HW118029   1.618   0.387  11.880 -1.7669 -2.0687 -0.9782
 2132SOL    HW218030   1.741   0.365  11.951 -2.7982  1.5317  0.5831
 2133SOL     OW18031   3.859   0.152  15.387 -0.5108  0.4242  0.0325
 2133SOL    HW118032   3.855   0.141  15.292 -0.9708 -1.4941  0.2594
 2133SOL    HW218033   3.808   0.231  15.403 -2.6448 -0.7831 -0.8160
 2134SOL     OW18034   1.610   1.147   8.512 -0.2359  0.6838  0.3361
 2134SOL    HW118035   1.656   1.141   8.596  0.9484  0.6840 -0.3080
 2134SOL    HW218036   1.654   1.094   8.446 -0.2157  1.1397 -0.0156
 2135SOL     OW18037   4.117   0.134   4.960 -0.1590 -0.1819 -0.3560
 2135SOL    HW118038   4.177   0.060   4.953  1.5787  1.0946  1.1053
 2135SOL    HW218039   4.146   0.187   4.886 -1.7565  0.8148 -0.2568
 2136SOL     OW18040   1.619   0.318   0.826 -0.5045  0.0927  0.2783
 2136SOL    HW118041   1.590   0.388   0.767 -3.0102 -1.5914 -0.5129
 2136SOL    HW218042   1.684   0.358   0.883  1.5294  0.0677 -2.0061
 2137SOL     OW18043   3.953   1.165   1.447 -0.6954 -0.0272  0.3461
 2137SOL    HW118044   3.958   1.225   1.521  1.1996 -1.8952  1.7364
 2137SOL    HW218045   3.861   1.142   1.432 -0.9300  1.2250 -0.0914
 2138SOL     OW18046   1.369   1.179   9.227 -0.4847 -0.3813 -0.3883
 2138SOL    HW118047   1.325   1.214   9.304 -1.5684 -2.2124 -0.1654
 2138SOL    HW218048   1.362   1.084   9.235  1.7234 -0.2996  2.5295
 2139SOL     OW18049   2.265   1.277  13.599 -0.5240  0.2194 -0.3483
 2139SOL    HW118050   2.355   1.259  13.571 -0.1800  0.3301  0.6982
 2139SOL    HW218051   2.240   1.316  13.515  1.6660  0.4862 -0.8562
 2140SOL     OW18052   1.288   1.548  10.939 -0.3430 -0.1143  0.1792
 2140SOL    HW118053   1.264   1.567  10.848  1.3464 -1.9748 -0.6530
 2140SOL    HW218054   1.383   1.541  10.930 -0.6082 -2.8795 -0.5499
 2141SOL     OW18055   3.161   0.431   6.477  0.1456 -0.4007  0.0741
 2141SOL    HW118056   3.095   0.383   6.427 -0.0034  1.4601 -1.5294
 2141SOL    HW218057   3.170   0.519   6.440  1.5215  0.6382  2.8748
 2142SOL     OW18058   3.710   3.336   3.219 -0.2308 -0.2956 -0.2456
 2142SOL    HW118059   3.742   3.246   3.217  2.3765  0.6335 -0.2267
 2142SOL    HW218060   3.628   3.311   3.260  0.4834 -0.2429  1.2086
 2143SOL     OW18061   3.047   4.676   8.540 -0.6531 -0.3401  0.1813
 2143SOL    HW118062   3.092   0.001   8.487 -2.6602  2.5072  2.0108
 2143SOL    HW218063   3.013   4.730   8.611 -0.1883  1.8460 -1.2811
 2144SOL     OW18064   0.819   2.845   3.417  0.2960 -0.2813  0.1060
 2144SOL    HW118065   0.884   2.784   3.451  2.0564  1.0425 -0.8520
 2144SOL    HW218066   0.853   2.925   3.376  1.0785 -0.3861  0.5554
 2145SOL     OW18067   4.407   4.463   0.221  0.0569 -0.1690  0.2548
 2145SOL    HW118068   4.448   4.548   0.205  0.9550 -0.4645  1.0100
 2145SOL    HW218069   4.334   4.476   0.160  1.5226  0.4959 -1.3592
 2146SOL     OW18070   3.166   3.954   5.138  0.3702  0.3466 -0.6740
 2146SOL    HW118071   3.242   3.975   5.084 -2.8332  2.8225 -4.1775
 2146SOL    HW218072   3.105   3.948   5.066  1.1437  0.8772 -1.3696
 2147SOL     OW18073   2.727   3.786   7.849 -0.0594  0.2197 -0.0038
 2147SOL    HW118074   2.670   3.860   7.867  0.7208  1.0131 -0.8632
 2147SOL    HW218075   2.756   3.812   7.762 -1.8093 -0.4014 -0.7743
 2148SOL     OW18076   0.640   2.783   3.979  0.0361 -0.2720  0.0343
 2148SOL    HW118077   0.702   2.853   3.963 -2.3416  2.0225  0.8910
 2148SOL    HW218078   0.692   2.740   4.047 -1.0871 -1.4704  0.1528
 2149SOL     OW18079   0.548   4.302   2.273  0.1419  0.2603  0.0412
 2149SOL    HW118080   0.615   4.339   2.331  1.5842  0.7151 -1.9438
 2149SOL    HW218081   0.512   4.235   2.331 -1.9769  0.2632 -1.2699
 2150SOL     OW18082   0.553   3.411   7.017 -0.0807  0.1674  0.0692
 2150SOL    HW118083   0.523   3.424   7.108 -0.6913 -0.0379 -0.1043
 2150SOL    HW218084   0.506   3.482   6.974  1.1545  1.2773  0.5562
 2151SOL     OW18085   1.074   1.225   5.986  0.5310 -0.0866 -0.8637
 2151SOL    HW118086   1.154   1.278   5.985  1.1414 -0.9888 -0.3157
 2151SOL    HW218087   1.099   1.141   6.024 -3.4349 -1.1873 -0.6764
 2152SOL     OW18088   2.137   1.586   3.516 -0.0480 -0.2894 -0.1002
 2152SOL    HW118089   2.056   1.577   3.567  0.8369 -1.3278  1.1079
 2152SOL    HW218090   2.114   1.569   3.425 -0.7148  1.1098 -0.1922
 2153SOL     OW18091   3.869   4.261   9.017  0.5074  0.2668 -0.4584
 2153SOL    HW118092   3.801   4.265   9.084 -1.2600  0.8881 -2.2779
 2153SOL    HW218093   3.864   4.344   8.970 -0.1564 -0.0543 -0.9624
 2154SOL     OW18094   2.790   4.113   5.402 -0.0767  0.7590  0.0163
 2154SOL    HW118095   2.881   4.113   5.435 -0.2371 -0.3987  0.4551
 2154SOL    HW218096   2.803   4.108   5.308 -0.2986  0.1078  0.0184
 2155SOL     OW18097   4.387   2.092   2.364 -0.2770 -0.1893 -0.0595
 2155SOL    HW118098   4.450   2.163   2.371 -1.3064  0.6949  0.2888
 2155SOL    HW218099   4.316   2.129   2.418  0.7321 -1.9715  2.4811
 2156SOL     OW18100   3.239   0.511   3.411  0.1009 -0.2578  0.3311
 2156SOL    HW118101   3.297   0.576   3.371 -0.5533  0.3121  0.3035
 2156SOL    HW218102   3.286   0.428   3.405  1.4612  0.6936 -2.0619
 2157SOL     OW18103   3.327   3.249   2.558  0.5406 -0.0006  0.2531
 2157SOL    HW118104   3.291   3.230   2.645  2.2076  0.7347  1.0896
 2157SOL    HW218105   3.249   3.216   2.511  0.4676  0.8120 -0.1865
 2158SOL     OW18106   2.456   0.532  11.446  0.7133  0.0216 -0.9167
 2158SOL    HW118107   2.394   0.600  11.471  0.0394 -1.4090  1.3127
 2158SOL    HW218108   2.418   0.458  11.493 -0.2793  1.3995  0.4230
 2159SOL     OW18109   1.228   1.829   9.219 -0.1549  0.0122 -0.0704
 2159SOL    HW118110   1.317   1.831   9.183 -0.2426  0.2294 -0.2727
 2159SOL    HW218111   1.188   1.771   9.154  1.4175  0.4652 -1.4612
 2160SOL     OW18112   1.154   0.745   2.519  0.1563 -0.0513  0.3304
 2160SOL    HW118113   1.146   0.840   2.519 -3.1624 -0.3272 -0.4248
 2160SOL    HW218114   1.070   0.713   2.552 -0.2324 -1.1213 -1.6992
 2161SOL     OW18115   0.064   0.268  13.437 -0.1738 -0.2063  0.3753
 2161SOL    HW118116   0.080   0.260  13.531 -0.6572 -0.6298  0.4207
 2161SOL    HW218117   4.714   0.298  13.436 -0.2637 -0.5189 -1.1625
 2162SOL     OW18118   4.405   4.197  15.964 -0.8271  0.4030  0.1327
 2162SOL    HW118119   4.459   4.275  15.978  1.4102 -0.7349 -1.9884
 2162SOL    HW218120   4.337   4.225  15.902 -2.0348  0.6728  1.5813
 2163SOL     OW18121   2.110   1.267  16.703  0.4998 -0.1599  0.0782
 2163SOL    HW118122   2.108   1.348  16.753 -0.6035 -0.1554  0.0325
 2163SOL    HW218123   2.173   1.213  16.750 -0.8876 -1.6935  0.2050
 2164SOL     OW18124   2.132   1.495   7.547  0.3104  0.3910  0.4922
 2164SOL    HW118125   2.117   1.427   7.613  0.1860 -1.2434 -1.2233
 2164SOL    HW218126   2.104   1.580   7.582  1.0630  0.7542  0.2189
 2165SOL     OW18127   0.232   2.619   9.779 -0.2157 -0.0913 -0.0469
 2165SOL    HW118128   0.200   2.533   9.753 -0.7987  0.4930 -1.2467
 2165SOL    HW218129   0.212   2.617   9.872  0.4441  1.5310  0.1414
 2166SOL     OW18130   1.494   4.486   5.814  0.0038 -0.2997 -0.3340
 2166SOL    HW118131   1.522   4.409   5.864  2.3219  0.1421 -0.9393
 2166SOL    HW218132   1.423   4.519   5.869 -1.1381 -0.2578 -1.8542
 2167SOL     OW18133   2.039   2.793   6.255  0.1171  0.2646  0.0203
 2167SOL    HW118134   1.987   2.847   6.195 -2.3990 -1.1124  0.9771
 2167SOL    HW218135   2.102   2.774   6.185  1.7319  1.8843  1.0532
 2168SOL     OW18136   1.333   3.506   7.140  0.2338  0.5518 -0.3062
 2168SOL    HW118137   1.331   3.547   7.054 -2.7190 -0.6484 -0.8213
 2168SOL    HW218138   1.247   3.463   7.142  0.5327 -0.0933 -1.7717
 2169SOL     OW18139   2.795   2.719   7.865 -0.0293 -0.1831 -0.2186
 2169SOL    HW118140   2.833   2.771   7.937 -1.5875  0.2256  0.3193
 2169SOL    HW218141   2.819   2.783   7.798  0.1548 -1.7132 -1.6079
 2170SOL     OW18142   2.721   2.712   6.377 -0.3327 -0.2005 -0.1354
 2170SOL    HW118143   2.691   2.801   6.357 -1.1902  0.0796  2.3404
 2170SOL    HW218144   2.719   2.716   6.473  2.3946  0.0495 -0.0965
 2171SOL     OW18145   3.714   3.760   4.908 -0.4877  0.1731  0.2079
 2171SOL    HW118146   3.650   3.750   4.978 -0.5619 -2.0162 -0.1619
 2171SOL    HW218147   3.724   3.672   4.870 -1.6132 -0.3924  1.2300
 2172SOL     OW18148   3.987   3.490  14.734  0.2756  0.3671 -0.0546
 2172SOL    HW118149   4.005   3.572  14.780  1.3314  1.4133 -2.3478
 2172SOL    HW218150   4.022   3.428  14.798 -0.6203  1.2127  1.2441
 2173SOL     OW18151   1.661   0.839  15.595 -0.0753 -0.5422 -0.4645
 2173SOL    HW118152   1.682   0.776  15.663  0.0426  0.5890  0.5343
 2173SOL    HW218153   1.659   0.783  15.517 -0.3856 -0.6296 -0.3928
 2174SOL     OW18154   4.173   1.232   4.195  0.4401  0.2038 -0.9200
 2174SOL    HW118155   4.170   1.285   4.274  2.0308  1.3093 -1.5916
 2174SOL    HW218156   4.190   1.145   4.229 -1.2364  0.0480 -0.5305
 2175SOL     OW18157   1.085   1.725   6.190  0.2069 -0.0742 -0.3625
 2175SOL    HW118158   1.032   1.794   6.231 -2.2642 -1.5669 -1.0657
 2175SOL    HW218159   1.013   1.663   6.178  0.4794 -0.7689  1.5052
 2176SOL     OW18160   4.151   0.049  13.525  0.3157 -0.2248 -0.1575
 2176SOL    HW118161   4.110   0.110  13.464 -1.6889 -0.4716  0.9350
 2176SOL    HW218162   4.235   0.043  13.480  0.7674 -0.5567  0.7228
 2177SOL     OW18163   0.665   2.786  17.662 -0.0532  0.5086  1.1556
 2177SOL    HW118164   0.722   2.842  17.609 -0.6600  1.1711  1.2000
 2177SOL    HW218165   0.618   2.749  17.587  0.0674  0.6929  0.9866
 2178SOL     OW18166   4.617   1.580   9.096 -0.1800  0.5391 -0.2498
 2178SOL    HW118167   4.527   1.554   9.077  0.5854 -0.9204 -1.8615
 2178SOL    HW218168   4.621   1.673   9.074 -2.3155  1.0682  1.5626
 2179SOL     OW18169   1.876   3.825   8.372  0.1926 -0.4971  0.0744
 2179SOL    HW118170   1.935   3.892   8.407 -0.7173 -0.9602  2.4991
 2179SOL    HW218171   1.819   3.875   8.313  0.6422  0.1854  0.2170
 2180SOL     OW18172   1.066   0.304  11.585  0.0059  0.2834 -0.0048
 2180SOL    HW118173   1.011   0.235  11.622  1.4885 -0.5318  0.6719
 2180SOL    HW218174   1.147   0.254  11.581  1.1364  2.3150 -2.1590
 2181SOL     OW18175   0.531   3.413   2.664 -0.2136  0.0255  0.2107
 2181SOL    HW118176   0.477   3.490   2.679  2.2269  2.3680 -3.1673
 2181SOL    HW218177   0.469   3.344   2.642 -0.6504 -0.1903  2.0954
 2182SOL     OW18178   2.601   2.908   1.377  0.4335 -0.1432  0.0942
 2182SOL    HW118179   2.576   2.834   1.321  2.2493 -0.3798 -0.4080
 2182SOL    HW218180   2.516   2.943   1.405 -0.5235 -3.6736  1.6926
 2183SOL     OW18181   3.947   3.911   4.163 -0.1125 -0.4351  0.5687
 2183SOL    HW118182   4.012   3.964   4.116  1.4056 -3.2611 -0.5222
 2183SOL    HW218183   3.975   3.823   4.137 -0.9782 -0.8100  0.9254
 2184SOL     OW18184   1.396   2.927  17.436  0.2753 -0.4429 -0.2739
 2184SOL    HW118185   1.476   2.875  17.429  1.6569  1.3889  1.5431
 2184SOL    HW218186   1.426   3.009  17.397 -1.3760  1.2751  2.0272
 2185SOL     OW18187   4.056   0.181   2.605  0.5934 -0.0007 -0.4754
 2185SOL    HW118188   4.006   0.112   2.562 -1.3890  1.1360 -0.0545
 2185SOL    HW218189   4.005   0.261   2.591  0.7383 -0.1425 -1.7940
 2186SOL     OW18190   2.081   2.473   3.833 -0.1834 -0.4290 -0.3988
 2186SOL    HW118191   2.144   2.526   3.785  1.6237 -0.6483  1.7252
 2186SOL    HW218192   2.015   2.543   3.839  3.3746  2.9846 -0.8164
 2187SOL     OW18193   1.618   2.921   8.425 -0.9741  0.3150 -0.3638
 2187SOL    HW118194   1.706   2.944   8.457 -1.7802 -2.0499  3.4664
 2187SOL    HW218195   1.620   2.982   8.351 -0.1238  0.2474 -0.3969
 2188SOL     OW18196   1.524   2.138  15.220 -0.7792  0.0251  0.6569
 2188SOL    HW118197   1.526   2.125  15.315 -0.2853 -2.5062  0.3068
 2188SOL    HW218198   1.483   2.224  15.210  2.4502  1.5609  0.5229
 2189SOL     OW18199   1.293   1.459  16.253 -0.2479 -0.1670 -0.4239
 2189SOL    HW118200   1.276   1.446  16.160 -2.8396 -0.5779  0.0900
 2189SOL    HW218201   1.260   1.548  16.260 -0.0096 -0.2835  2.0959
 2190SOL     OW18202   0.379   2.223   3.321 -0.2739  0.0909 -0.1910
 2190SOL    HW118203   0.465   2.180   3.318 -0.4121 -0.4250  3.8283
 2190SOL    HW218204   0.347   2.211   3.231  0.2688 -0.7041 -0.2803
 2191SOL     OW18205   2.837   0.809   4.801 -0.2215 -0.4255 -0.4502
 2191SOL    HW118206   2.909   0.777   4.746  0.4262  0.2473 -0.0020
 2191SOL    HW218207   2.873   0.807   4.890  1.5409  0.7162 -1.1335
 2192SOL     OW18208   4.516   1.820   2.301  0.0260  0.2512  0.2099
 2192SOL    HW118209   4.480   1.907   2.321  1.2675  1.3259 -2.0874
 2192SOL    HW218210   4.595   1.844   2.252 -0.1968  0.1095 -0.2136
 2193SOL     OW18211   2.814   1.651   3.914 -0.8580 -0.8398  0.6010
 2193SOL    HW118212   2.752   1.638   3.987 -0.4464 -0.0594  1.0892
 2193SOL    HW218213   2.891   1.682   3.961 -0.6403  2.2493 -1.8358
 2194SOL     OW18214   2.163   0.611   6.052  0.1969 -0.0205  0.1737
 2194SOL    HW118215   2.243   0.579   6.095 -0.1394 -2.0887 -0.7414
 2194SOL    HW218216   2.151   0.554   5.976 -1.8013 -1.9449  1.9063
 2195SOL     OW18217   0.131   3.185   4.705  0.7285 -0.7686 -0.3734
 2195SOL    HW118218   0.108   3.201   4.614  0.4018  0.7371 -0.0284
 2195SOL    HW218219   0.221   3.154   4.696  0.6500 -1.2649  0.6026
 2196SOL     OW18220   0.425   1.305   6.019 -1.0732 -0.3622 -0.0617
 2196SOL    HW118221   0.447   1.238   6.085 -1.2042  0.3130  0.6763
 2196SOL    HW218222   0.336   1.335   6.038 -1.4556 -0.9323 -0.9788
 2197SOL     OW18223   2.217   4.184   2.013 -0.2846  0.4772  0.2618
 2197SOL    HW118224   2.280   4.123   1.972 -1.8421  0.8433 -2.6448
 2197SOL    HW218225   2.143   4.130   2.041  1.3343 -2.2852 -0.7327
 2198SOL     OW18226   4.587   4.411   4.548  0.4891  0.1593  0.2459
 2198SOL    HW118227   4.556   4.459   4.471  0.7798 -2.1704 -1.3178
 2198SOL    HW218228   4.581   4.319   4.522  1.3283  0.0717  0.3754
 2199SOL     OW18229   3.936   0.664   4.995 -0.5607  0.6691  0.9615
 2199SOL    HW118230   4.021   0.630   5.021 -0.4673  1.8292  2.1956
 2199SOL    HW218231   3.965   0.741   4.946  0.7544 -1.0956 -0.9713
 2200SOL     OW18232   3.767   2.869  13.405 -0.0771  0.0671 -0.1199
 2200SOL    HW118233   3.793   2.840  13.493 -0.4003 -2.0025 -0.7063
 2200SOL    HW218234   3.719   2.792  13.375  4.1239 -2.1803 -1.0401
 2201SOL     OW18235   3.334   3.013   7.594 -0.0549 -0.4347  0.3133
 2201SOL    HW118236   3.310   3.090   7.542  3.1551 -1.1173 -2.1911
 2201SOL    HW218237   3.276   2.949   7.554 -0.0006 -0.3092  0.0314
 2202SOL     OW18238   0.328   3.146   8.353 -0.0759 -0.0624  0.2538
 2202SOL    HW118239   0.277   3.086   8.299  0.1622 -1.0334  1.1140
 2202SOL    HW218240   0.415   3.107   8.357 -1.3598 -2.7695  1.5461
 2203SOL     OW18241   3.260   4.141   9.588  0.4406 -0.8434 -0.9114
 2203SOL    HW118242   3.206   4.065   9.608 -1.1275  1.0738  2.0495
 2203SOL    HW218243   3.348   4.102   9.597  2.0920  3.3349  0.7575
 2204SOL     OW18244   1.602   4.243   3.182 -0.3026 -0.0004  0.1621
 2204SOL    HW118245   1.511   4.226   3.158 -0.6011  1.3222  0.3353
 2204SOL    HW218246   1.652   4.206   3.110 -1.8000 -3.3625  0.8640
 2205SOL     OW18247   2.379   0.884   2.683 -0.3681  0.0248 -0.3651
 2205SOL    HW118248   2.411   0.864   2.595  0.3049 -1.0602  0.1293
 2205SOL    HW218249   2.460   0.880   2.735 -0.1275 -1.4720 -0.8832
 2206SOL     OW18250   1.548   0.293   5.639 -0.2839 -0.2361 -0.1973
 2206SOL    HW118251   1.524   0.250   5.558 -0.7422 -1.1147  0.4027
 2206SOL    HW218252   1.528   0.227   5.705 -1.7986  1.1976  0.8182
 2207SOL     OW18253   4.588   3.867   7.041 -0.3313  0.2724 -0.6209
 2207SOL    HW118254   4.604   3.921   7.119  0.7185 -0.8202 -0.0833
 2207SOL    HW218255   4.571   3.781   7.078  1.8441 -0.8555 -2.2810
 2208SOL     OW18256   2.460   2.592   6.676 -0.0527 -0.6817  0.4053
 2208SOL    HW118257   2.553   2.613   6.665  0.2736 -1.7275  1.1099
 2208SOL    HW218258   2.466   2.581   6.771 -0.5600  2.7700  0.8378
 2209SOL     OW18259   3.607   1.151   2.805  0.1051  0.1721 -0.0114
 2209SOL    HW118260   3.530   1.205   2.825 -0.5010 -0.2071 -1.3264
 2209SOL    HW218261   3.619   1.119   2.894 -2.8961 -1.6669 -0.2705
 2210SOL     OW18262   4.407   3.043   3.728  0.1913  0.5699 -0.2409
 2210SOL    HW118263   4.466   2.999   3.788  0.5587 -0.2062 -1.1612
 2210SOL    HW218264   4.342   3.063   3.796  0.4941  0.5939  0.0386
 2211SOL     OW18265   1.722   4.029  12.155  0.3792  0.0214  0.0336
 2211SOL    HW118266   1.727   4.100  12.219  1.0268 -1.3504  1.5170
 2211SOL    HW218267   1.803   3.979  12.168  1.2653  1.9119  1.7854
 2212SOL     OW18268   2.633   2.243   3.295  0.2290 -0.0760  0.1319
 2212SOL    HW118269   2.678   2.162   3.318  0.2384 -0.4208 -1.1312
 2212SOL    HW218270   2.580   2.237   3.375  1.1742 -0.0497  0.7673
 2213SOL     OW18271   2.722   0.471   4.513 -0.0237 -0.8506 -0.1473
 2213SOL    HW118272   2.702   0.464   4.419 -1.6881 -2.5759  0.3237
 2213SOL    HW218273   2.680   0.556   4.529  2.4859  0.5789 -1.2567
 2214SOL     OW18274   1.501   4.495   4.116 -0.0887  0.7359 -0.1567
 2214SOL    HW118275   1.418   4.510   4.071  1.1240 -1.8118 -3.2546
 2214SOL    HW218276   1.566   4.506   4.046 -0.4218 -0.4063 -0.6396
 2215SOL     OW18277   4.444   3.812   3.531 -0.0556 -0.3024 -0.3337
 2215SOL    HW118278   4.528   3.768   3.519 -0.7736 -1.7677 -0.0911
 2215SOL    HW218279   4.381   3.751   3.490  0.7551 -0.1669 -1.7677
 2216SOL     OW18280   1.767   2.067   6.677  0.2978 -0.2654 -0.7794
 2216SOL    HW118281   1.824   2.131   6.720 -1.1048  0.4640 -0.0108
 2216SOL    HW218282   1.721   2.124   6.617 -1.9130 -1.6065 -0.3432
 2217SOL     OW18283   0.939   4.292  14.651  0.3352  0.2418 -0.2542
 2217SOL    HW118284   0.861   4.348  14.659  1.6371  1.8737  1.2759
 2217SOL    HW218285   0.923   4.239  14.573 -1.9761 -0.5822  0.7785
 2218SOL     OW18286   4.192   3.703   5.114 -0.7197 -0.6976 -0.1055
 2218SOL    HW118287   4.158   3.790   5.093  3.4434  0.9709  0.0378
 2218SOL    HW218288   4.110   3.654   5.114 -0.0897 -1.7329 -0.9141
 2219SOL     OW18289   3.313   1.419  14.306  0.2254  0.5681  0.0277
 2219SOL    HW118290   3.363   1.428  14.387  1.3593  0.4282 -0.6446
 2219SOL    HW218291   3.318   1.507  14.268  0.0596  1.0171  1.0498
 2220SOL     OW18292   2.313   1.722   6.553 -0.2695 -0.1091  0.6192
 2220SOL    HW118293   2.219   1.722   6.569 -0.7151 -0.6796 -2.0318
 2220SOL    HW218294   2.326   1.807   6.511 -0.7179 -0.3569 -0.0194
 2221SOL     OW18295   3.498   0.999   0.404 -0.4492  0.0500 -0.2410
 2221SOL    HW118296   3.483   1.077   0.458  0.6356  1.1994 -1.5925
 2221SOL    HW218297   3.555   1.033   0.335  0.0411 -1.5578 -0.6273
 2222SOL     OW18298   3.175   4.499  10.216  0.2636 -0.0927 -0.5360
 2222SOL    HW118299   3.147   4.474  10.128  0.0635 -0.6542 -0.3095
 2222SOL    HW218300   3.227   4.430  10.258 -0.0210 -1.0037 -1.6806
 2223SOL     OW18301   3.808   4.386  13.053 -0.2485 -0.5860  0.0913
 2223SOL    HW118302   3.892   4.425  13.028  1.0507 -3.0411  0.6776
 2223SOL    HW218303   3.768   4.410  12.969  1.3339  1.2542 -0.1606
 2224SOL     OW18304   0.125   1.077   7.476 -0.8220  0.7307 -0.1214
 2224SOL    HW118305   0.055   1.069   7.541 -1.3366  0.0216 -0.7467
 2224SOL    HW218306   0.183   1.143   7.512 -1.2652 -0.4269  2.7002
 2225SOL     OW18307   0.777   4.225  17.246  0.6487 -0.0792  0.4498
 2225SOL    HW118308   0.849   4.288  17.245 -0.8343  1.6004  1.0246
 2225SOL    HW218309   0.744   4.239  17.335  2.8975  0.5033  1.1999
 2226SOL     OW18310   1.679   2.404   0.450  0.1277  0.7617 -0.6227
 2226SOL    HW118311   1.611   2.372   0.509 -0.1169  1.7011 -0.3852
 2226SOL    HW218312   1.649   2.495   0.441 -2.9676 -0.4206 -2.0824
 2227SOL     OW18313   1.584   2.906   6.488 -0.8002  0.1323  0.0690
 2227SOL    HW118314   1.500   2.939   6.521 -0.9462 -0.9999  0.8163
 2227SOL    HW218315   1.640   2.920   6.564  0.0272 -0.4670 -0.4264
 2228SOL     OW18316   2.387   2.540   9.184 -0.0084 -0.5287 -0.5671
 2228SOL    HW118317   2.433   2.462   9.215  1.5185  0.3599 -0.5489
 2228SOL    HW218318   2.294   2.519   9.178 -0.3914  1.5149 -1.6834
 2229SOL     OW18319   3.092   0.554  17.433  0.3510  0.2238 -0.3371
 2229SOL    HW118320   3.111   0.553  17.527  0.8870 -1.2282 -0.4556
 2229SOL    HW218321   3.125   0.636  17.397 -1.8119  1.6103  0.8510
 2230SOL     OW18322   2.622   4.591  16.240  0.0601 -0.0181 -0.3885
 2230SOL    HW118323   2.692   4.623  16.184  1.3916 -0.9905  0.7107
 2230SOL    HW218324   2.634   4.658  16.307 -2.5702 -0.9987  1.1037
 2231SOL     OW18325   0.409   0.709   1.066  0.2319 -0.3046 -0.4257
 2231SOL    HW118326   0.441   0.777   1.007 -0.3974  1.2083  0.9518
 2231SOL    HW218327   0.346   0.674   1.003 -0.0132 -2.5658  1.0766
 2232SOL     OW18328   4.413   4.413  13.891  0.3605  0.1205 -0.2238
 2232SOL    HW118329   4.450   4.464  13.964 -1.7782 -0.8340  1.5354
 2232SOL    HW218330   4.367   4.479  13.839 -0.5581  0.1901  0.6733
 2233SOL     OW18331   3.472   0.493  15.701  0.2942  0.5115  0.4083
 2233SOL    HW118332   3.547   0.552  15.690  0.0164  0.7705 -0.0919
 2233SOL    HW218333   3.422   0.541  15.766  2.9084  0.6146  2.3726
 2234SOL     OW18334   0.979   1.515   6.955 -0.4886 -0.4989 -0.0767
 2234SOL    HW118335   0.912   1.521   6.886 -0.5560  1.3511  0.1487
 2234SOL    HW218336   0.977   1.423   6.981 -0.6914 -0.7712 -1.0360
 2235SOL     OW18337   4.352   0.307   9.011 -0.1392  0.7092 -0.0377
 2235SOL    HW118338   4.314   0.394   9.019  0.4039  1.0434 -1.0555
 2235SOL    HW218339   4.446   0.323   8.996 -0.3959  0.8294 -1.5783
 2236SOL     OW18340   2.332   1.892   5.352 -0.1316 -0.1437  0.0741
 2236SOL    HW118341   2.279   1.924   5.279 -0.8023 -0.5436  0.3798
 2236SOL    HW218342   2.263   1.882   5.418 -0.4440 -0.1300 -0.2498
 2237SOL     OW18343   1.825   4.147   5.634 -0.0288 -0.3805  0.1489
 2237SOL    HW118344   1.790   4.233   5.612  0.4858  0.3470  2.1106
 2237SOL    HW218345   1.918   4.167   5.627 -0.0975 -0.5386 -1.1466
 2238SOL     OW18346   1.217   0.150   1.557 -0.4410 -0.2708  0.4582
 2238SOL    HW118347   1.229   0.059   1.585 -1.2684 -0.6978 -0.5574
 2238SOL    HW218348   1.307   0.182   1.557 -1.3470  2.2713  0.5596
 2239SOL     OW18349   2.551   4.193   6.905 -0.4701  0.2279 -0.6491
 2239SOL    HW118350   2.512   4.232   6.827 -1.7238  0.9179  0.3392
 2239SOL    HW218351   2.637   4.235   6.903  0.7887 -2.2481  2.2092
 2240SOL     OW18352   1.002   0.972   1.742  0.0822 -0.1186 -0.0493
 2240SOL    HW118353   1.013   0.917   1.665 -0.6021  0.5806 -0.6550
 2240SOL    HW218354   0.965   0.912   1.806  1.9951  0.9693  2.0835
 2241SOL     OW18355   3.075   3.554   8.903 -0.8757  0.4559 -0.4357
 2241SOL    HW118356   2.987   3.541   8.936  0.0166  1.0357  2.1380
 2241SOL    HW218357   3.063   3.647   8.883  0.1569  0.5918 -0.4197
 2242SOL     OW18358   0.601   3.476   1.977 -0.1701 -0.2361 -0.9139
 2242SOL    HW118359   0.595   3.572   1.979 -2.9084 -0.4085 -0.1905
 2242SOL    HW218360   0.636   3.466   1.889 -0.0060  0.5184 -0.9326
 2243SOL     OW18361   4.514   1.175   5.825 -0.0114 -0.3025  0.1733
 2243SOL    HW118362   4.564   1.254   5.839  0.4984 -0.5611 -0.1880
 2243SOL    HW218363   4.557   1.123   5.893 -0.3269 -0.4235  0.2806
 2244SOL     OW18364   0.291   3.921   1.258 -0.2808 -0.2698 -0.1187
 2244SOL    HW118365   0.347   3.851   1.226 -0.1812  0.0825 -0.7207
 2244SOL    HW218366   0.361   3.976   1.295 -0.4846 -0.1719  0.1224
 2245SOL     OW18367   1.303   2.258   4.869  0.0578 -0.3045 -0.1260
 2245SOL    HW118368   1.276   2.342   4.907  0.7973 -0.1670  0.0865
 2245SOL    HW218369   1.382   2.240   4.919 -0.3115 -0.0682  0.5364
 2246SOL     OW18370   1.006   1.327   2.774  0.0521 -0.4129 -0.2239
 2246SOL    HW118371   1.045   1.261   2.831  0.7191 -0.6088 -0.9191
 2246SOL    HW218372   0.934   1.281   2.732  0.7936 -2.2224  0.5009
 2247SOL     OW18373   4.597   3.735   4.210  0.1576 -0.2333  0.0280
 2247SOL    HW118374   4.580   3.641   4.204  0.0653 -0.1737 -0.6363
 2247SOL    HW218375   4.523   3.755   4.268  0.2587 -2.4487  0.9220
 2248SOL     OW18376   3.552   4.594   8.010 -0.6112  0.2405  0.1364
 2248SOL    HW118377   3.554   4.573   8.104  1.7450  3.9525  0.9171
 2248SOL    HW218378   3.579   4.685   8.021 -0.7032 -0.0055  2.5275
 2249SOL     OW18379   1.321   4.412   8.883 -0.2483  0.0596  0.0038
 2249SOL    HW118380   1.239   4.369   8.858 -0.8044  0.7665  0.6312
 2249SOL    HW218381   1.323   4.387   8.976 -3.9333 -0.7419 -0.1234
 2250SOL     OW18382   2.203   3.970   8.199  0.6032 -0.4261 -0.0445
 2250SOL    HW118383   2.140   3.999   8.264 -1.8017 -1.3093 -1.9829
 2250SOL    HW218384   2.264   4.044   8.201  1.3159 -0.9979 -0.3997
 2251SOL     OW18385   3.609   3.385  14.498 -0.2523 -0.2352  0.1053
 2251SOL    HW118386   3.577   3.377  14.588 -0.7675  0.7510  0.0073
 2251SOL    HW218387   3.699   3.419  14.507 -0.3778 -0.1642  1.0737
 2252SOL     OW18388   2.437   3.673   2.632  0.0538  0.3887 -0.4782
 2252SOL    HW118389   2.461   3.603   2.692 -0.0697  1.3943  0.7457
 2252SOL    HW218390   2.507   3.735   2.650  0.5685 -1.2860  3.2606
 2253SOL     OW18391   4.660   1.848   7.965 -0.4256 -0.2523 -0.0217
 2253SOL    HW118392   4.643   1.871   8.056 -1.7641 -0.6003 -0.1758
 2253SOL    HW218393   4.568   1.842   7.937 -0.2228  0.5421 -0.8605
 2254SOL     OW18394   3.219   2.268   4.369  0.0765  0.1477  0.3278
 2254SOL    HW118395   3.158   2.297   4.302  0.5145  1.8789  0.6669
 2254SOL    HW218396   3.303   2.264   4.322 -0.5678  1.5414 -0.9379
 2255SOL     OW18397   2.490   3.973   7.903  0.3365 -0.2031 -0.0865
 2255SOL    HW118398   2.394   3.981   7.897  0.4784  2.7605  1.3315
 2255SOL    HW218399   2.508   4.045   7.964 -0.3821  0.7069 -0.9388
 2256SOL     OW18400   3.638   3.484  11.542 -0.1121  0.1351  0.4572
 2256SOL    HW118401   3.638   3.422  11.470  2.5066 -0.1800  0.7524
 2256SOL    HW218402   3.698   3.444  11.606  1.4838  0.9791 -0.5348
 2257SOL     OW18403   3.111   4.129   6.967 -0.6268 -0.0493 -0.1858
 2257SOL    HW118404   3.182   4.077   7.005 -0.6344  1.3082  1.6761
 2257SOL    HW218405   3.071   4.070   6.903  0.0840  0.5245 -1.1538
 2258SOL     OW18406   0.751   0.495   8.464 -0.8855 -0.7387  0.1879
 2258SOL    HW118407   0.658   0.497   8.442 -1.1118 -0.6533  1.1261
 2258SOL    HW218408   0.745   0.439   8.542 -1.0717  0.6486  1.1868
 2259SOL     OW18409   4.113   3.386  14.467  0.2619  0.0485 -0.1118
 2259SOL    HW118410   4.052   3.316  14.490  1.5825 -1.3152 -0.7481
 2259SOL    HW218411   4.133   3.426  14.552  0.8291 -0.2344 -0.1142
 2260SOL     OW18412   4.013   0.406   1.536  0.0397  0.1235  0.1229
 2260SOL    HW118413   4.107   0.393   1.527  0.0841 -0.7986  2.0103
 2260SOL    HW218414   4.011   0.499   1.513 -1.3292  0.5805  2.0787
 2261SOL     OW18415   4.061   2.298   3.533  0.0770 -0.1337  0.4450
 2261SOL    HW118416   4.064   2.231   3.465  0.1525  1.1542 -0.8130
 2261SOL    HW218417   3.975   2.336   3.517  0.1474 -0.1720 -0.0261
 2262SOL     OW18418   3.588   3.214   6.845  0.1291  0.5155 -0.2720
 2262SOL    HW118419   3.624   3.301   6.862  2.0874  0.1421 -2.6132
 2262SOL    HW218420   3.648   3.150   6.882  0.2931  1.8501  1.7835
 2263SOL     OW18421   2.206   3.231  13.167 -0.4404  0.2406 -0.4736
 2263SOL    HW118422   2.257   3.160  13.127  0.6851  1.0713 -0.5135
 2263SOL    HW218423   2.273   3.295  13.192 -0.3650  0.2723 -0.7567
 2264SOL     OW18424   0.409   2.331   4.575 -0.2125  0.1786 -0.0368
 2264SOL    HW118425   0.472   2.264   4.602  3.2202  3.3343 -0.0728
 2264SOL    HW218426   0.353   2.279   4.519 -1.4765  0.6280  0.8043
 2265SOL     OW18427   3.038   2.935   7.507 -0.0288 -0.7282  0.1186
 2265SOL    HW118428   3.015   2.862   7.451 -0.5173 -0.0598 -0.5539
 2265SOL    HW218429   2.962   2.934   7.565  0.0594  0.1848  0.2640
 2266SOL     OW18430   1.366   4.213   0.309  0.2272 -0.1335  0.0343
 2266SOL    HW118431   1.272   4.228   0.308 -0.2206 -3.0705 -0.3743
 2266SOL    HW218432   1.368   4.130   0.261  0.0197  0.1209 -0.4175
 2267SOL     OW18433   3.615   1.689   6.175 -0.6392  0.8009 -0.7046
 2267SOL    HW118434   3.533   1.727   6.142 -0.6422  0.1374 -1.4761
 2267SOL    HW218435   3.641   1.754   6.240 -2.1835  1.0117 -0.2955
 2268SOL     OW18436   1.562   3.706   3.020 -0.4431  0.5917  0.2567
 2268SOL    HW118437   1.477   3.671   2.994 -0.4026  1.1562 -0.6416
 2268SOL    HW218438   1.599   3.630   3.064 -2.1250 -0.3978 -0.0217
 2269SOL     OW18439   1.185   0.017  17.032  0.7523  0.0227 -0.2329
 2269SOL    HW118440   1.182   4.667  17.000 -0.5971  0.8406 -2.4203
 2269SOL    HW218441   1.222   0.011  17.120  1.4948 -0.4959 -0.5709
 2270SOL     OW18442   2.499   1.718   4.447 -0.4202 -0.7361  0.0292
 2270SOL    HW118443   2.540   1.772   4.380 -1.5596  1.0374  0.7419
 2270SOL    HW218444   2.470   1.642   4.398  0.3688 -0.4066 -0.9305
 2271SOL     OW18445   3.316   1.304   2.370  0.9014  0.5266 -0.1858
 2271SOL    HW118446   3.263   1.232   2.335 -0.4321 -0.4783  3.9564
 2271SOL    HW218447   3.338   1.342   2.285 -0.9122 -0.0802 -0.9240
 2272SOL     OW18448   3.503   2.773   6.136 -0.0939  0.0503 -0.3526
 2272SOL    HW118449   3.423   2.825   6.131  0.4086  0.9371  0.8429
 2272SOL    HW218450   3.556   2.830   6.080 -1.4711  0.3741 -1.3404
 2273SOL     OW18451   0.914   1.526   2.408 -0.1595  0.2458 -0.5663
 2273SOL    HW118452   1.003   1.499   2.386 -0.1204  0.9055 -1.2087
 2273SOL    HW218453   0.865   1.462   2.357 -2.0944 -0.3174  1.9613
 2274SOL     OW18454   0.514   4.686  11.776 -0.5735  0.2932  0.6900
 2274SOL    HW118455   0.595   4.730  11.803  0.3465 -0.7190 -0.3981
 2274SOL    HW218456   0.558   4.632  11.710  0.3399  2.0672 -0.1442
 2275SOL     OW18457   2.539   0.019   4.110  0.1561 -0.5649 -0.3912
 2275SOL    HW118458   2.528   0.098   4.163  4.6408  0.0818 -0.4015
 2275SOL    HW218459   2.529   4.685   4.168  0.0771 -2.1425 -2.4071
 2276SOL     OW18460   3.053   0.520  17.702 -0.0241  0.5861  0.3409
 2276SOL    HW118461   2.960   0.496  17.697 -0.0360  0.5337  0.8130
 2276SOL    HW218462   3.054   0.573   0.022  0.6845 -1.8829  1.9585
 2277SOL     OW18463   0.861   2.847   8.220 -0.1750  0.0952  0.2588
 2277SOL    HW118464   0.937   2.872   8.167 -0.7104  4.1823  1.4337
 2277SOL    HW218465   0.827   2.775   8.167  1.8378  0.1516 -1.1375
 2278SOL     OW18466   0.122   3.760   0.742 -0.1134  0.4797  0.8652
 2278SOL    HW118467   0.151   3.810   0.818 -1.2770  0.1045  1.5620
 2278SOL    HW218468   0.053   3.819   0.711 -0.6484 -0.2348  0.6860
 2279SOL     OW18469   3.952   3.900   6.299  0.1123  0.3918 -0.2678
 2279SOL    HW118470   3.891   3.916   6.371 -0.4668  0.4609 -0.7818
 2279SOL    HW218471   4.004   3.825   6.330  1.1110  1.1636 -0.0747
 2280SOL     OW18472   3.895   0.560   5.616  0.0817  0.5124  0.0289
 2280SOL    HW118473   3.933   0.545   5.529 -2.1656  3.4381 -1.4438
 2280SOL    HW218474   3.851   0.645   5.613  3.7714  2.3650 -1.3317
 2281SOL     OW18475   3.467   1.281   7.704  0.6356 -0.4287  0.0440
 2281SOL    HW118476   3.411   1.230   7.764 -1.0990  0.3713 -0.8907
 2281SOL    HW218477   3.406   1.287   7.630  2.2915 -1.5163 -1.3980
 2282SOL     OW18478   0.855   2.278  11.314  0.4641 -0.1098 -0.6289
 2282SOL    HW118479   0.834   2.296  11.222  2.4617  0.6204 -0.9248
 2282SOL    HW218480   0.944   2.243  11.314  0.3516 -0.4028 -1.8257
 2283SOL     OW18481   1.759   0.935   8.380  0.6049 -0.4668  0.1206
 2283SOL    HW118482   1.795   0.986   8.308  1.3459 -1.9353 -0.5263
 2283SOL    HW218483   1.824   0.866   8.391  1.1490 -0.1097 -0.9321
 2284SOL     OW18484   0.725   2.382  17.564  0.0806  0.3788  0.5295
 2284SOL    HW118485   0.784   2.320  17.520  1.8169  2.6684 -0.3768
 2284SOL    HW218486   0.769   2.464  17.540 -0.1555 -0.3395 -2.4678
 2285SOL     OW18487   3.062   1.695   9.492  0.6486 -0.1507  0.4754
 2285SOL    HW118488   3.111   1.672   9.571 -0.9300 -0.0438  1.4842
 2285SOL    HW218489   3.078   1.789   9.493 -0.6264  0.0732 -0.8005
 2286SOL     OW18490   0.363   4.260  13.919  0.7877 -0.7131  0.7203
 2286SOL    HW118491   0.298   4.258  13.849  1.8441  2.3643 -0.3453
 2286SOL    HW218492   0.362   4.352  13.946 -1.5026 -0.7378  0.7270
 2287SOL     OW18493   3.908   2.868   2.292  0.2428  0.1872  0.6814
 2287SOL    HW118494   3.911   2.962   2.276  0.6578  0.2776  1.2685
 2287SOL    HW218495   3.868   2.834   2.212  0.5426 -0.2415  0.7144
 2288SOL     OW18496   1.791   0.032   9.562  0.4726  0.0635 -0.7832
 2288SOL    HW118497   1.853   4.714   9.518 -0.4885 -0.6253 -1.2264
 2288SOL    HW218498   1.712   4.732   9.527 -0.2642  0.9733 -0.1836
 2289SOL     OW18499   0.548   2.284   5.903 -0.3297  0.2867  0.0509
 2289SOL    HW118500   0.536   2.231   5.982 -0.4332 -1.2424 -1.0047
 2289SOL    HW218501   0.640   2.267   5.884 -0.1799  1.6078 -0.3702
 2290SOL     OW18502   2.137   3.829  11.693 -0.4225 -0.8455  0.4340
 2290SOL    HW118503   2.129   3.924  11.692  0.3635 -0.7641  3.4278
 2290SOL    HW218504   2.125   3.816  11.598  0.5396 -0.2477  0.2349
 2291SOL     OW18505   2.121   1.329   9.368  0.0599 -0.2069 -0.2182
 2291SOL    HW118506   2.074   1.368   9.294 -0.8964 -0.0770  0.4700
 2291SOL    HW218507   2.104   1.237   9.349  1.4192 -0.7786  1.3306
 2292SOL     OW18508   0.692   1.174   5.537  0.7316  0.0066  0.4178
 2292SOL    HW118509   0.746   1.167   5.615  0.4455 -2.8532  0.3505
 2292SOL    HW218510   0.709   1.090   5.493 -0.4659 -0.2435  0.4276
 2293SOL     OW18511   1.130   3.236   7.737 -0.0384  0.0678 -0.1258
 2293SOL    HW118512   1.116   3.172   7.668  0.1180  1.2761 -1.2890
 2293SOL    HW218513   1.177   3.311   7.699 -0.5128  2.0551  3.2060
 2294SOL     OW18514   4.135   2.708   6.911 -0.0357 -0.0645  0.0982
 2294SOL    HW118515   4.083   2.725   6.832  1.9647  1.1259 -0.9525
 2294SOL    HW218516   4.077   2.752   6.973 -0.7005 -0.2720 -0.3739
 2295SOL     OW18517   3.340   2.775   6.485  0.4241 -0.2118 -0.2490
 2295SOL    HW118518   3.331   2.861   6.527  1.6762  0.4234 -1.2990
 2295SOL    HW218519   3.280   2.779   6.411  0.4578  0.7205 -0.2288
 2296SOL     OW18520   2.811   2.405   5.439 -0.0432  0.0816  0.0872
 2296SOL    HW118521   2.814   2.334   5.504  3.5756  0.4522  0.3476
 2296SOL    HW218522   2.834   2.359   5.358 -1.1809 -0.8042  0.2702
 2297SOL     OW18523   1.981   4.580  16.478 -0.3390  0.2758 -0.1255
 2297SOL    HW118524   1.898   4.617  16.507 -0.5290 -0.5069  0.3244
 2297SOL    HW218525   1.966   4.540  16.392 -0.0241  0.3095 -0.1974
 2298SOL     OW18526   2.542   0.851   4.341 -0.3863 -0.3420 -0.1015
 2298SOL    HW118527   2.493   0.828   4.419  0.9512 -1.9204  0.2754
 2298SOL    HW218528   2.470   0.875   4.282 -0.7498 -1.7961 -0.2530
 2299SOL     OW18529   0.103   3.482  16.106  0.1968 -0.3916 -0.3947
 2299SOL    HW118530   0.054   3.404  16.130  0.6437 -0.0244  1.7440
 2299SOL    HW218531   0.086   3.492  16.012  1.9428  0.9187 -0.5724
 2300SOL     OW18532   4.020   0.848   8.884  0.0277  0.2501  0.4288
 2300SOL    HW118533   3.986   0.770   8.928  1.1263 -1.0927 -1.1182
 2300SOL    HW218534   3.995   0.827   8.794  0.7640  1.5143 -0.0668
 2301SOL     OW18535   0.879   2.824  15.107  0.0343  0.5679 -0.5325
 2301SOL    HW118536   0.924   2.790  15.030 -2.1901 -1.0495 -1.1128
 2301SOL    HW218537   0.802   2.768  15.107  0.9733 -0.7224 -1.1584
 2302SOL     OW18538   2.985   4.362   4.588  0.0854 -0.3023 -0.5882
 2302SOL    HW118539   3.036   4.437   4.617 -1.4474  0.8195 -0.8363
 2302SOL    HW218540   2.908   4.380   4.642  0.0211  2.8821 -1.7333
 2303SOL     OW18541   3.628   3.494   1.912  0.1280 -0.1556 -0.3523
 2303SOL    HW118542   3.678   3.572   1.939 -0.6588  0.4590 -0.6765
 2303SOL    HW218543   3.641   3.509   1.818  0.2409 -1.5358 -0.5552
 2304SOL     OW18544   3.249   4.031   8.048 -0.2371 -0.0094 -0.0544
 2304SOL    HW118545   3.236   4.020   7.953  2.3309  0.6103 -0.4618
 2304SOL    HW218546   3.175   4.089   8.068 -0.7039 -0.8592  0.6651
 2305SOL     OW18547   0.179   2.356   5.075 -0.1847 -0.1568 -0.0374
 2305SOL    HW118548   0.254   2.359   5.135 -0.2836 -0.1954  0.0879
 2305SOL    HW218549   0.206   2.273   5.036 -2.4357 -0.0141 -1.8878
 2306SOL     OW18550   0.570   0.454   3.028  0.0456  0.0961  0.3060
 2306SOL    HW118551   0.554   0.547   3.041  2.4247  0.7766 -1.5136
 2306SOL    HW218552   0.660   0.448   2.996 -0.0313  1.6282 -0.1682
 2307SOL     OW18553   2.088   0.125   6.867  0.3161  0.1943 -0.0819
 2307SOL    HW118554   2.117   0.055   6.927  0.9540  1.1197  0.6853
 2307SOL    HW218555   2.040   0.084   6.796  0.0508  0.7058 -0.1945
 2308SOL     OW18556   1.493   3.800   3.625 -0.2883 -0.3288  0.0715
 2308SOL    HW118557   1.467   3.866   3.562 -0.2607 -0.5144 -0.1341
 2308SOL    HW218558   1.495   3.717   3.578 -0.5494  0.6180 -1.5959
 2309SOL     OW18559   0.710   0.621  14.854 -0.3568  0.3533 -0.1783
 2309SOL    HW118560   0.786   0.613  14.797 -0.3388  0.6995 -0.2029
 2309SOL    HW218561   0.647   0.577  14.797 -0.8203 -0.2147  0.7702
 2310SOL     OW18562   1.647   2.857   1.017 -0.2678  0.0586 -0.4571
 2310SOL    HW118563   1.588   2.819   0.952  1.7294 -0.5054 -1.9403
 2310SOL    HW218564   1.611   2.943   1.037 -0.1462  0.4475 -1.8952
 2311SOL     OW18565   4.395   3.443   0.772 -0.3796  0.2474 -0.3923
 2311SOL    HW118566   4.396   3.440   0.676  0.1723  1.5750 -0.4252
 2311SOL    HW218567   4.415   3.354   0.802  2.5311  1.1353  0.2499
 2312SOL     OW18568   3.900   1.188  12.886 -0.2248 -0.3355  0.0109
 2312SOL    HW118569   3.909   1.194  12.981  0.1564 -0.6184 -0.0096
 2312SOL    HW218570   3.946   1.268  12.861 -1.2061  0.5700  1.0996
 2313SOL     OW18571   4.547   3.262   7.856  0.0462  0.0946 -0.1696
 2313SOL    HW118572   4.559   3.350   7.820 -4.7086  1.0188  0.5794
 2313SOL    HW218573   4.597   3.268   7.938  1.8239 -2.5876 -1.0522
 2314SOL     OW18574   1.553   0.237   1.207  0.3443 -0.5052 -0.1291
 2314SOL    HW118575   1.642   0.235   1.173  0.7297 -1.0800  0.9242
 2314SOL    HW218576   1.505   0.213   1.127  1.9154  0.8641 -1.4889
 2315SOL     OW18577   0.581   1.521   7.009 -0.3681 -0.1183  0.2351
 2315SOL    HW118578   0.535   1.452   7.057 -1.3196  0.9133  0.8232
 2315SOL    HW218579   0.625   1.480   6.935  1.0286  2.5419 -0.4067
 2316SOL     OW18580   0.903   0.181   8.713 -0.2584 -0.5347  0.6467
 2316SOL    HW118581   0.853   0.253   8.673  0.7748 -1.1344 -1.7137
 2316SOL    HW218582   0.861   0.104   8.675 -1.3428  0.5002 -0.2435
 2317SOL     OW18583   4.362   2.164  15.558 -0.0625  0.1862 -0.2067
 2317SOL    HW118584   4.266   2.156  15.557  0.1213 -1.9448 -1.6455
 2317SOL    HW218585   4.384   2.117  15.477  1.5687 -0.8299  0.8337
 2318SOL     OW18586   3.301   0.027   4.824 -0.3381  0.2130  0.0101
 2318SOL    HW118587   3.323   4.676   4.812 -0.3953  0.4165 -1.6036
 2318SOL    HW218588   3.373   0.069   4.778  0.8322 -3.2492 -1.2831
 2319SOL     OW18589   4.082   2.337   9.700 -0.0715  0.0644 -0.0205
 2319SOL    HW118590   3.993   2.367   9.714 -0.4037 -1.3865  1.0221
 2319SOL    HW218591   4.116   2.362   9.787 -1.4119 -0.1851  0.5687
 2320SOL     OW18592   1.071   3.674  12.608 -0.2731 -0.4725 -0.2070
 2320SOL    HW118593   1.160   3.655  12.639 -0.7465 -1.9514  0.2292
 2320SOL    HW218594   1.085   3.730  12.532  0.4164  0.1161  0.3459
 2321SOL     OW18595   2.200   4.004   6.643 -0.7005 -0.6048 -0.1253
 2321SOL    HW118596   2.233   4.006   6.733  0.6812  0.7206 -0.6514
 2321SOL    HW218597   2.231   3.919   6.611  3.8792  0.5864  1.0873
 2322SOL     OW18598   1.288   4.623  17.307 -0.4749  0.0737 -0.2780
 2322SOL    HW118599   1.249   4.537  17.291 -0.7093  0.5978 -2.5404
 2322SOL    HW218600   1.372   4.590  17.276 -0.7221 -0.3839 -0.4755
 2323SOL     OW18601   2.211   2.858   8.286 -0.0194  0.1417 -0.3849
 2323SOL    HW118602   2.282   2.804   8.318 -1.1285 -0.3458  1.2737
 2323SOL    HW218603   2.166   2.886   8.366  1.0158 -3.8930  1.6038
 2324SOL     OW18604   0.172   4.553   3.831 -0.2348 -0.1419  0.0074
 2324SOL    HW118605   0.152   4.471   3.877  0.0484 -0.6183 -0.7139
 2324SOL    HW218606   0.265   4.565   3.846  0.2037  0.0746 -2.9620
 2325SOL     OW18607   0.085   1.773   6.363  0.2091  0.1932  0.0279
 2325SOL    HW118608   0.119   1.835   6.428 -0.8400 -0.7266  1.4449
 2325SOL    HW218609   4.732   1.787   6.358  0.2598  0.8189  1.0055
 2326SOL     OW18610   1.980   1.287   2.572  0.1574  0.2980 -0.4624
 2326SOL    HW118611   1.971   1.195   2.546 -1.1722  0.6775 -1.3721
 2326SOL    HW218612   1.993   1.339   2.493  0.5894 -2.1747 -2.0390
 2327SOL     OW18613   2.317   0.782   6.417 -0.3842  0.2228 -0.2323
 2327SOL    HW118614   2.399   0.733   6.409  0.2252  1.2473 -0.2152
 2327SOL    HW218615   2.259   0.715   6.452 -0.3653 -0.2398 -1.0804
 2328SOL     OW18616   1.288   0.210   8.404 -0.1830  0.1362  0.1529
 2328SOL    HW118617   1.320   0.171   8.485  2.8001 -0.8497 -1.5089
 2328SOL    HW218618   1.371   0.227   8.359  0.5371  2.6271  2.3876
 2329SOL     OW18619   2.776   0.942   9.696 -0.0143 -0.1635 -0.1040
 2329SOL    HW118620   2.766   0.855   9.657  1.5363  0.0562 -0.9729
 2329SOL    HW218621   2.855   0.934   9.749  0.1996  0.7375 -0.2896
 2330SOL     OW18622   2.941   1.703   4.653  0.1559  0.0900 -0.5897
 2330SOL    HW118623   3.004   1.631   4.662  0.0269  0.0476  0.0182
 2330SOL    HW218624   2.969   1.745   4.572  0.0191 -0.5753 -0.9843
 2331SOL     OW18625   4.657   2.541   7.051 -0.3621  0.0546 -0.0763
 2331SOL    HW118626   4.594   2.483   7.009 -0.4866  0.7162 -0.7926
 2331SOL    HW218627   4.727   2.544   6.987 -0.3582 -0.2543 -0.0887
 2332SOL     OW18628   4.111   0.558  11.960  0.2355  0.2169 -0.6147
 2332SOL    HW118629   4.071   0.641  11.986  0.5736  0.5463 -1.1559
 2332SOL    HW218630   4.098   0.494  12.030 -1.5634  0.8255 -0.3812
 2333SOL     OW18631   1.723   0.088   4.456  0.0298 -0.1428 -0.3061
 2333SOL    HW118632   1.799   0.053   4.409 -3.4270 -4.5854 -2.4905
 2333SOL    HW218633   1.653   0.025   4.441  0.9755 -1.7915  2.0487
 2334SOL     OW18634   3.867   2.620  14.929  0.1071 -0.0731 -0.2693
 2334SOL    HW118635   3.804   2.551  14.909  0.4467 -0.8495  1.3369
 2334SOL    HW218636   3.820   2.683  14.983 -0.3857  1.3265 -2.3462
 2335SOL     OW18637   2.350   1.632   4.803 -0.0153 -0.0427  0.6344
 2335SOL    HW118638   2.427   1.605   4.753  0.3919  1.2955  0.5407
 2335SOL    HW218639   2.290   1.558   4.793  1.1026 -0.9488  0.5727
 2336SOL     OW18640   1.015   0.611   9.642 -0.4662  0.5975  0.2651
 2336SOL    HW118641   1.071   0.632   9.717 -0.3205  4.9738 -1.0697
 2336SOL    HW218642   1.048   0.527   9.610 -2.2783 -0.5056  1.3164
 2337SOL     OW18643   2.130   2.088   4.639 -0.4326 -0.1172  0.0252
 2337SOL    HW118644   2.188   2.018   4.612 -0.6453  0.0933 -0.9819
 2337SOL    HW218645   2.045   2.049   4.621  0.0641 -1.5437  0.8619
 2338SOL     OW18646   0.670   4.297   8.750 -0.2304 -0.0173  0.1917
 2338SOL    HW118647   0.722   4.321   8.673  0.9347  0.7710  1.2312
 2338SOL    HW218648   0.692   4.367   8.811  1.0380  1.3206 -1.8286
 2339SOL     OW18649   0.400   3.374   4.890  0.0419  0.4663 -0.0622
 2339SOL    HW118650   0.459   3.443   4.919 -1.8205  2.1015 -0.1365
 2339SOL    HW218651   0.433   3.352   4.803  0.1066 -0.6019  0.2353
 2340SOL     OW18652   4.585   0.797  10.343  0.5667 -0.1797  0.8678
 2340SOL    HW118653   4.551   0.838  10.264  0.1689 -1.2282  0.5051
 2340SOL    HW218654   4.498   0.786  10.383  0.9102  0.9616  1.9445
 2341SOL     OW18655   1.721   2.796  13.162  0.0761 -0.1374 -0.5378
 2341SOL    HW118656   1.685   2.817  13.248  0.8059  0.2294 -0.3231
 2341SOL    HW218657   1.808   2.835  13.171 -1.0244  1.8207  1.4059
 2342SOL     OW18658   2.792   0.199  15.359 -0.2864 -0.4570  0.1830
 2342SOL    HW118659   2.886   0.192  15.347 -0.2589  0.5864 -0.2146
 2342SOL    HW218660   2.770   0.106  15.356  0.4153 -0.4650 -4.1016
 2343SOL     OW18661   3.931   2.294   7.787 -0.5386 -0.3280 -0.2043
 2343SOL    HW118662   3.880   2.351   7.729  0.7072  1.3042  0.3071
 2343SOL    HW218663   3.937   2.222   7.724 -1.0888  1.1911 -2.0160
 2344SOL     OW18664   4.503   1.742   5.237 -0.1022  0.1017 -0.0249
 2344SOL    HW118665   4.514   1.672   5.173 -1.6622 -0.1582 -0.0108
 2344SOL    HW218666   4.430   1.792   5.198  1.3584  1.6723 -0.7647
 2345SOL     OW18667   3.672   4.373  10.055  0.3698  0.1541  0.5246
 2345SOL    HW118668   3.743   4.435  10.036  0.2186 -0.1406 -1.0624
 2345SOL    HW218669   3.601   4.438  10.058 -1.3775 -1.6472 -1.9923
 2346SOL     OW18670   2.287   3.743   0.973  0.0301 -0.0488  0.5312
 2346SOL    HW118671   2.321   3.667   1.020  2.9117  1.4201  0.7973
 2346SOL    HW218672   2.208   3.708   0.931  1.1009 -1.0170 -0.6570
 2347SOL     OW18673   2.765   0.189   7.564 -0.2655 -0.2470  0.2900
 2347SOL    HW118674   2.767   0.100   7.529  0.2144 -1.0413  2.3371
 2347SOL    HW218675   2.688   0.233   7.527  0.3354 -0.1145 -0.7910
 2348SOL     OW18676   1.790   2.598   8.229 -0.5102  0.0337 -0.0163
 2348SOL    HW118677   1.817   2.686   8.204 -0.8144  0.2824  0.5351
 2348SOL    HW218678   1.755   2.611   8.317 -0.7715  2.2388 -0.4596
 2349SOL     OW18679   1.928   2.266  16.937 -0.3798 -0.4513  0.3598
 2349SOL    HW118680   2.006   2.242  16.986  0.0339  2.9413  1.4050
 2349SOL    HW218681   1.966   2.255  16.849 -1.1096  0.3619 -0.0617
 2350SOL     OW18682   3.559   1.993   0.245  0.4068  0.5619  0.1200
 2350SOL    HW118683   3.542   2.061   0.181  2.2309  1.3296  0.4586
 2350SOL    HW218684   3.555   2.042   0.327  1.0669 -1.7423  1.5222
 2351SOL     OW18685   3.116   2.081  12.792  0.1960 -0.2298 -0.6270
 2351SOL    HW118686   3.206   2.054  12.813 -0.3319 -1.2100  0.3596
 2351SOL    HW218687   3.121   2.175  12.806  1.2158  0.1839 -3.8526
 2352SOL     OW18688   0.875   0.184   5.263  0.1254 -0.0767  0.1444
 2352SOL    HW118689   0.838   0.117   5.206  3.8924 -0.6998 -1.5861
 2352SOL    HW218690   0.805   0.202   5.326 -2.0553 -1.5536 -1.8692
 2353SOL     OW18691   3.483   0.295   4.389  0.2088  0.1341 -0.1508
 2353SOL    HW118692   3.553   0.241   4.352 -1.6037 -1.4251 -1.2862
 2353SOL    HW218693   3.528   0.370   4.428  1.5102 -1.1531  0.8239
 2354SOL     OW18694   1.467   2.278   9.105  0.8605 -0.0305  0.3569
 2354SOL    HW118695   1.523   2.205   9.131 -1.3969 -2.4054 -1.4880
 2354SOL    HW218696   1.409   2.232   9.045  1.3987 -2.2611  1.5473
 2355SOL     OW18697   4.306   0.111   4.432 -0.4913  0.4103  0.1049
 2355SOL    HW118698   4.354   0.110   4.349 -1.3672 -0.1109 -0.3991
 2355SOL    HW218699   4.375   0.141   4.491 -1.2581  0.2137  1.1064
 2356SOL     OW18700   3.760   0.903   3.695  0.6749 -0.1325 -0.4065
 2356SOL    HW118701   3.727   0.872   3.779  2.3550 -2.9821 -0.7805
 2356SOL    HW218702   3.686   0.922   3.637  0.2946 -0.6755 -0.0969
 2357SOL     OW18703   3.586   4.421   3.362 -0.6639  0.1894  0.2400
 2357SOL    HW118704   3.656   4.456   3.417  1.3496 -2.4183 -0.6778
 2357SOL    HW218705   3.514   4.478   3.389  1.3341  3.3579 -1.1361
 2358SOL     OW18706   1.246   1.088   7.099  0.2640  0.5840  0.3201
 2358SOL    HW118707   1.240   1.090   7.004 -1.2370 -2.8415  0.3265
 2358SOL    HW218708   1.306   1.016   7.116 -0.4082  0.1485  0.8577
 2359SOL     OW18709   2.484   1.298   8.047 -0.1767 -0.1129  0.1051
 2359SOL    HW118710   2.473   1.339   7.961  0.8745 -1.6080 -0.7443
 2359SOL    HW218711   2.540   1.364   8.088  0.9717 -1.7228  1.1527
 2360SOL     OW18712   2.928   1.004   0.575 -0.2530 -0.0498 -0.0008
 2360SOL    HW118713   3.009   1.051   0.594 -0.7044 -0.1863  2.2529
 2360SOL    HW218714   2.886   0.977   0.656 -0.0679  0.7514  0.3586
 2361SOL     OW18715   3.176   2.996   9.552  0.0345 -0.1810 -0.7535
 2361SOL    HW118716   3.148   3.076   9.507 -1.7111 -0.4861 -0.1879
 2361SOL    HW218717   3.255   2.978   9.501  0.3856 -0.1815 -0.2147
 2362SOL     OW18718   3.265   1.855   9.289 -0.0758  0.4175 -0.0499
 2362SOL    HW118719   3.178   1.868   9.327  0.1700  0.6296  0.4283
 2362SOL    HW218720   3.309   1.818   9.365  0.0138  0.3505 -0.1335
 2363SOL     OW18721   0.206   4.218   4.212 -0.5554  0.0486 -0.1434
 2363SOL    HW118722   0.297   4.238   4.233 -0.4294 -1.5959  0.8487
 2363SOL    HW218723   0.196   4.129   4.246  2.6446  0.0425  0.7947
 2364SOL     OW18724   0.274   0.184  12.640 -0.4286 -0.2309 -0.1331
 2364SOL    HW118725   0.252   0.093  12.617 -0.9509 -0.2064  0.2746
 2364SOL    HW218726   0.275   0.193  12.735  1.5368  1.1194 -0.2847
 2365SOL     OW18727   2.755   0.222  15.086 -0.5945 -0.3133 -0.6523
 2365SOL    HW118728   2.676   0.266  15.054 -0.4141  0.3425 -0.1958
 2365SOL    HW218729   2.743   0.227  15.181 -0.6349 -0.8465 -0.6293
 2366SOL     OW18730   0.484   2.539   5.837 -0.7261  0.0264 -0.8795
 2366SOL    HW118731   0.506   2.447   5.824 -0.6353 -0.1609  0.6090
 2366SOL    HW218732   0.571   2.575   5.854 -0.9088  0.8559 -1.6811
 2367SOL     OW18733   2.543   2.976  15.652 -0.2126 -0.2414  0.5604
 2367SOL    HW118734   2.493   3.057  15.650  0.2253  0.0229  0.2618
 2367SOL    HW218735   2.487   2.913  15.607 -2.2902  2.7550 -1.0154
 2368SOL     OW18736   4.213   4.670   5.196 -0.0940 -0.1387 -0.6153
 2368SOL    HW118737   4.293   4.618   5.197  0.7779  1.1823 -1.7355
 2368SOL    HW218738   4.151   4.612   5.152 -0.7005 -2.1197  2.8361
 2369SOL     OW18739   1.422   0.795   2.643  0.1688 -0.1751  0.5628
 2369SOL    HW118740   1.327   0.792   2.655  0.3481 -0.2819  1.9256
 2369SOL    HW218741   1.434   0.701   2.649 -0.5044 -0.1989  1.6004
 2370SOL     OW18742   3.530   3.668   5.456 -0.0191 -0.3691 -0.5167
 2370SOL    HW118743   3.449   3.626   5.484  1.2910 -2.7072 -0.2215
 2370SOL    HW218744   3.499   3.736   5.396 -1.5446 -2.4402 -2.0625
 2371SOL     OW18745   4.488   0.291   5.154  0.0392 -0.7119 -0.6695
 2371SOL    HW118746   4.571   0.253   5.182 -0.5037  0.9418  3.1032
 2371SOL    HW218747   4.470   0.356   5.222  2.7745 -1.0698  0.3721
 2372SOL     OW18748   3.580   2.509   6.807 -0.0056  0.3401  0.3256
 2372SOL    HW118749   3.550   2.592   6.770  2.0464  1.3392  0.8955
 2372SOL    HW218750   3.623   2.538   6.887 -1.5333  0.2893  1.1832
 2373SOL     OW18751   0.152   4.100   0.501 -0.1520 -0.5573  0.1571
 2373SOL    HW118752   0.224   4.051   0.462 -0.8887 -1.3445 -0.2206
 2373SOL    HW218753   0.126   4.153   0.426 -0.7231  0.3610  0.9996
 2374SOL     OW18754   0.336   4.532   1.549  0.5960 -0.1169  0.3080
 2374SOL    HW118755   0.383   4.579   1.618 -2.8080  1.1659  1.7414
 2374SOL    HW218756   0.407   4.504   1.491 -1.7075  0.2610 -2.7146
 2375SOL     OW18757   0.882   3.157   7.799 -0.1873 -0.1374  0.0475
 2375SOL    HW118758   0.851   3.138   7.710 -1.7659  2.6221  0.0261
 2375SOL    HW218759   0.963   3.193   7.761  0.7374  0.0207  2.1664
 2376SOL     OW18760   1.821   1.226   7.781 -0.4284  0.0084  0.0711
 2376SOL    HW118761   1.784   1.164   7.844 -0.2304  1.2053  1.3518
 2376SOL    HW218762   1.748   1.286   7.770 -0.2199 -0.1029 -1.8492
 2377SOL     OW18763   3.389   3.837  13.641 -0.1596 -0.4034 -0.1923
 2377SOL    HW118764   3.352   3.764  13.591 -3.5027  0.6074  0.7964
 2377SOL    HW218765   3.482   3.823  13.623  0.0416  0.6423  0.0082
 2378SOL     OW18766   1.588   0.310   4.550 -0.3437 -0.0470  0.7578
 2378SOL    HW118767   1.500   0.305   4.512  0.8110 -0.5686 -1.7862
 2378SOL    HW218768   1.634   0.244   4.498  1.5627  0.8939  1.2857
 2379SOL     OW18769   1.918   1.773  11.574  0.1793 -0.2326  0.1745
 2379SOL    HW118770   1.942   1.836  11.506  0.3220 -0.3541  0.1121
 2379SOL    HW218771   1.938   1.833  11.646 -3.1287 -1.1693  1.8709
 2380SOL     OW18772   2.744   2.553  17.092 -0.2252  0.1873 -0.2759
 2380SOL    HW118773   2.726   2.584  17.181  0.5089  0.2653 -0.1571
 2380SOL    HW218774   2.713   2.625  17.037  2.7753  1.9538  0.3696
 2381SOL     OW18775   0.642   0.641   6.996  0.6191 -0.0498 -0.1372
 2381SOL    HW118776   0.651   0.617   6.903 -0.5032  0.9915 -0.5145
 2381SOL    HW218777   0.620   0.734   7.001  2.0486  0.2383  0.8334
 2382SOL     OW18778   0.469   3.199   0.494 -0.0042  0.2296 -0.2174
 2382SOL    HW118779   0.392   3.255   0.493 -1.3855 -1.6727  0.5586
 2382SOL    HW218780   0.491   3.217   0.585  1.7656 -2.5273 -0.1162
 2383SOL     OW18781   3.489   1.764   2.345  0.1364 -0.5173  0.5060
 2383SOL    HW118782   3.540   1.770   2.426  1.1386  1.7225 -0.3001
 2383SOL    HW218783   3.434   1.842   2.352 -0.1975 -0.8840  2.0472
 2384SOL     OW18784   2.427   4.342   2.616 -0.2112 -0.0814  0.1166
 2384SOL    HW118785   2.336   4.366   2.633  0.5303  2.3806  0.5972
 2384SOL    HW218786   2.411   4.267   2.559 -0.9957 -0.5600  0.9905
 2385SOL     OW18787   3.348   1.917  16.721 -0.2949  0.2179 -0.0227
 2385SOL    HW118788   3.287   1.990  16.712 -1.7098 -0.8554  0.9616
 2385SOL    HW218789   3.323   1.863  16.647  0.8540 -0.4711  0.0933
 2386SOL     OW18790   4.504   2.563   5.448  0.2269 -0.3188  0.4792
 2386SOL    HW118791   4.517   2.479   5.492 -1.8238  0.8650  3.3115
 2386SOL    HW218792   4.415   2.591   5.466 -1.4091 -4.7511 -0.8947
 2387SOL     OW18793   4.361   1.485  13.545  0.0677 -0.0335 -0.3208
 2387SOL    HW118794   4.329   1.446  13.464  0.8546 -0.8643 -0.2375
 2387SOL    HW218795   4.301   1.559  13.553  0.3356  0.1247  0.2210
 2388SOL     OW18796   4.009   0.349  15.948 -0.2081  0.3358 -0.5213
 2388SOL    HW118797   4.033   0.261  15.917  1.7789  0.8285 -0.3703
 2388SOL    HW218798   4.057   0.340  16.030  1.3846 -1.0824 -1.6015
 2389SOL     OW18799   3.111   3.581   1.678 -0.4957 -0.4210 -0.2358
 2389SOL    HW118800   3.148   3.617   1.759  0.4050 -0.6778 -0.5321
 2389SOL    HW218801   3.101   3.488   1.696  0.4233 -0.8432 -1.9748
 2390SOL     OW18802   2.414   3.852   5.713 -0.3949  0.5308  0.3756
 2390SOL    HW118803   2.322   3.878   5.703 -0.6688 -0.5123  0.1057
 2390SOL    HW218804   2.463   3.931   5.736  2.0026 -0.5154 -1.1495
 2391SOL     OW18805   0.101   1.784   9.405 -0.0770  0.7395  0.2839
 2391SOL    HW118806   0.134   1.866   9.368 -2.3934  0.2852 -2.8524
 2391SOL    HW218807   0.051   1.747   9.331 -1.2168  0.2133  1.3193
 2392SOL     OW18808   2.240   3.563  12.517  0.1338 -0.0721  0.2178
 2392SOL    HW118809   2.278   3.650  12.501  0.1553 -0.1792 -0.3040
 2392SOL    HW218810   2.306   3.527  12.576  1.3084  1.2055 -0.2965
 2393SOL     OW18811   0.291   3.769   3.121  0.4177 -0.2342 -0.4582
 2393SOL    HW118812   0.350   3.810   3.184  0.0977  0.1669 -0.4204
 2393SOL    HW218813   0.324   3.684   3.151  0.7061 -0.2832 -0.9217
 2394SOL     OW18814   3.820   1.007   2.416 -0.3180  0.3926 -0.3932
 2394SOL    HW118815   3.909   0.985   2.389  0.1914  1.9528  0.0197
 2394SOL    HW218816   3.813   1.085   2.360  0.7984  0.3422 -0.6008
 2395SOL     OW18817   3.715   4.686   6.464 -0.1138  0.6405  0.1841
 2395SOL    HW118818   3.694   4.593   6.469  0.9116  0.4479  0.8685
 2395SOL    HW218819   3.798   4.687   6.512 -0.6941  0.4844  1.1861
 2396SOL     OW18820   1.615   2.153  13.661  0.3808 -0.3248 -0.3600
 2396SOL    HW118821   1.636   2.166  13.569  1.4020 -0.2315 -0.1211
 2396SOL    HW218822   1.567   2.070  13.654 -1.4977  0.7277  0.2274
 2397SOL     OW18823   0.273   2.759   0.100  0.3937 -0.5111 -0.2396
 2397SOL    HW118824   0.226   2.777   0.018  0.8624 -0.8511 -0.5796
 2397SOL    HW218825   0.345   2.820   0.086  1.6523 -1.7107  0.9244
 2398SOL     OW18826   2.672   3.522   6.437  0.2207 -0.1380  0.3647
 2398SOL    HW118827   2.755   3.474   6.442 -0.3590 -1.1099  0.6295
 2398SOL    HW218828   2.702   3.611   6.417 -1.1513  0.4057  0.7692
 2399SOL     OW18829   4.735   3.783   2.710 -0.2205 -0.8805 -0.0861
 2399SOL    HW118830   0.050   3.765   2.786 -0.3182 -1.7753 -0.2196
 2399SOL    HW218831   0.014   3.876   2.698  0.7192 -1.0573  0.1138
 2400SOL     OW18832   4.365   1.338  10.171 -0.2953 -0.3385  0.3240
 2400SOL    HW118833   4.443   1.389  10.147 -0.2362 -0.6066 -0.0486
 2400SOL    HW218834   4.329   1.386  10.246  0.6436  0.8345  0.0318
 2401SOL     OW18835   0.184   3.577  17.728  0.1531  0.0688  0.0959
 2401SOL    HW118836   0.228   3.638  17.667  0.4251  0.6135  0.8360
 2401SOL    HW218837   0.097   3.583  17.690  0.5343  2.6201 -0.3798
 2402SOL     OW18838   1.066   4.062  10.530 -0.4131  0.7456  0.0703
 2402SOL    HW118839   1.144   4.062  10.586  0.4906  2.3345 -1.1946
 2402SOL    HW218840   1.008   4.124  10.575 -1.1490 -0.5469  0.9068
 2403SOL     OW18841   1.152   2.261  13.788 -0.6200  0.1434  0.1164
 2403SOL    HW118842   1.147   2.309  13.870 -0.2136 -1.1141  0.8832
 2403SOL    HW218843   1.087   2.311  13.740 -2.1280 -0.5251  1.4494
 2404SOL     OW18844   2.028   0.924   6.905  0.2622  0.2307 -0.1379
 2404SOL    HW118845   1.953   0.874   6.876  1.0705 -0.8333 -0.3806
 2404SOL    HW218846   2.019   0.998   6.845 -2.5380 -1.2408 -1.4978
 2405SOL     OW18847   1.253   1.936  10.399 -0.1389 -0.5191  0.0511
 2405SOL    HW118848   1.240   1.910  10.490 -2.8358  0.0018 -0.1759
 2405SOL    HW218849   1.198   1.868  10.359  1.2996 -1.1298 -0.9073
 2406SOL     OW18850   0.521   3.711   3.767 -0.0084 -0.0858  0.4137
 2406SOL    HW118851   0.544   3.632   3.816  0.9226 -0.2257 -0.2595
 2406SOL    HW218852   0.441   3.687   3.719 -0.2060 -0.8819  1.1535
 2407SOL     OW18853   4.279   0.594   8.687 -0.5277 -0.0039 -0.1155
 2407SOL    HW118854   4.293   0.679   8.730 -0.5852  1.6048 -3.2369
 2407SOL    HW218855   4.269   0.621   8.596  2.0124 -0.0259 -0.3988
 2408SOL     OW18856   3.102   2.964  15.818  0.4734 -0.0729 -0.3280
 2408SOL    HW118857   3.096   3.060  15.819  1.7049 -0.0327  1.7266
 2408SOL    HW218858   3.024   2.937  15.770 -1.8776  0.6633  3.1270
 2409SOL     OW18859   1.261   4.330  17.201  0.6913 -0.2093  0.1304
 2409SOL    HW118860   1.328   4.265  17.180  1.8219  2.0121 -3.2345
 2409SOL    HW218861   1.258   4.385  17.123 -0.9324 -1.8522 -0.9637
 2410SOL     OW18862   0.696   4.540   3.681  0.5244 -0.1298 -0.2938
 2410SOL    HW118863   0.660   4.452   3.688 -0.2915  0.2799  0.7496
 2410SOL    HW218864   0.642   4.585   3.746  0.0923  1.6500 -1.9140
 2411SOL     OW18865   4.070   3.457   3.231  0.2612 -0.0704 -0.1463
 2411SOL    HW118866   4.139   3.515   3.198  0.8262  0.3107  1.6500
 2411SOL    HW218867   4.078   3.391   3.162 -0.6391  0.4988 -0.8016
 2412SOL     OW18868   4.592   4.214   1.816 -0.7353 -0.2924  0.4484
 2412SOL    HW118869   4.565   4.246   1.902  1.4655 -2.9429  2.1323
 2412SOL    HW218870   4.637   4.289   1.778 -1.4533  0.9039  2.0190
 2413SOL     OW18871   2.658   1.300   0.311 -0.1200  0.0320  0.4805
 2413SOL    HW118872   2.601   1.375   0.294 -0.6176  0.0584  2.2891
 2413SOL    HW218873   2.747   1.335   0.305  0.4311 -1.2254  1.2377
 2414SOL     OW18874   3.755   2.843   6.840  0.0385  0.4710  1.0324
 2414SOL    HW118875   3.766   2.793   6.921  2.3757 -1.2413 -0.3631
 2414SOL    HW218876   3.735   2.930   6.875  0.2818  1.4367 -1.2606
 2415SOL     OW18877   2.376   0.493   4.328 -0.1719  0.8437  0.0926
 2415SOL    HW118878   2.328   0.569   4.295  1.6385  1.9265 -0.0678
 2415SOL    HW218879   2.360   0.502   4.421  0.5925 -0.5486  0.3628
 2416SOL     OW18880   0.988   4.273   2.683  0.2617  0.1049 -0.1011
 2416SOL    HW118881   1.016   4.359   2.716  1.1516  0.0122 -0.6009
 2416SOL    HW218882   0.945   4.297   2.600  1.0099 -0.1940 -0.5730
 2417SOL     OW18883   0.191   1.532  13.337  0.4923 -0.2906  0.2778
 2417SOL    HW118884   0.121   1.582  13.380 -0.7814  1.0174 -3.3447
 2417SOL    HW218885   0.151   1.523  13.250  0.9173  0.8218 -0.0276
 2418SOL     OW18886   3.396   2.925  17.377 -0.6016 -1.1051  0.7079
 2418SOL    HW118887   3.449   2.851  17.407 -1.0046 -1.4116  0.6720
 2418SOL    HW218888   3.445   2.988  17.429  0.7281 -0.9257 -0.7425
 2419SOL     OW18889   0.784   2.143   3.385 -0.0798  0.1862 -0.0255
 2419SOL    HW118890   0.787   2.124   3.479  0.3097 -1.8310 -0.4471
 2419SOL    HW218891   0.765   2.237   3.391 -0.1399  0.3578 -2.9185
 2420SOL     OW18892   2.996   2.903   5.868 -0.3058 -0.2510  0.6527
 2420SOL    HW118893   3.007   2.824   5.816  1.6068  0.3673  0.1162
 2420SOL    HW218894   2.921   2.873   5.920 -1.1849  0.0563 -0.4352
 2421SOL     OW18895   2.996   0.273   2.321  0.3930  0.0045 -0.2425
 2421SOL    HW118896   3.090   0.251   2.318 -0.1999 -2.5534  0.0334
 2421SOL    HW218897   2.965   0.228   2.242 -0.0024  1.0540 -0.6785
 2422SOL     OW18898   4.692   1.606   5.412 -0.2825  0.0384  0.3357
 2422SOL    HW118899   4.647   1.667   5.353 -0.4556 -0.6008 -0.1951
 2422SOL    HW218900   0.030   1.605   5.358 -0.6467  0.6184 -0.2060
 2423SOL     OW18901   0.984   2.660  14.910 -0.2506 -0.6921 -0.0044
 2423SOL    HW118902   0.938   2.640  14.829 -1.4502  1.2514  0.2051
 2423SOL    HW218903   1.069   2.695  14.884  0.3810 -1.6305  0.8037
 2424SOL     OW18904   1.063   1.219  17.202  0.0832 -0.2680  1.0233
 2424SOL    HW118905   1.124   1.198  17.272  0.1713  1.0861  1.3652
 2424SOL    HW218906   0.988   1.160  17.206 -2.0375  2.4415  1.9009
 2425SOL     OW18907   2.689   0.394   1.646  0.2424 -0.7777 -0.1325
 2425SOL    HW118908   2.690   0.387   1.551  3.1108  0.8773 -0.2340
 2425SOL    HW218909   2.595   0.389   1.663  0.0728  0.6197 -0.6831
 2426SOL     OW18910   0.813   1.217   7.376 -0.0447 -0.1452  0.1675
 2426SOL    HW118911   0.885   1.268   7.339  0.2510 -0.4451  0.3260
 2426SOL    HW218912   0.752   1.215   7.302 -0.0262  0.8479  0.1206
 2427SOL     OW18913   0.038   0.382  14.118 -0.8868 -0.5126  0.0238
 2427SOL    HW118914   0.027   0.328  14.197  0.5719 -2.6789 -1.2260
 2427SOL    HW218915   4.715   0.452  14.126  0.3621  0.6970 -0.6200
 2428SOL     OW18916   0.864   1.271   3.236  0.0916 -0.2376 -0.8757
 2428SOL    HW118917   0.847   1.177   3.231  1.8117 -0.6143  0.7029
 2428SOL    HW218918   0.821   1.290   3.320 -0.5466 -1.3460 -0.9524
 2429SOL     OW18919   3.214   0.693   6.410 -0.0107 -0.3001  0.0691
 2429SOL    HW118920   3.127   0.715   6.443 -0.4271 -3.0088  0.7921
 2429SOL    HW218921   3.244   0.767   6.358 -0.1501 -1.7951 -2.1503
 2430SOL     OW18922   1.316   0.674   7.351 -0.0005  0.5990  0.0133
 2430SOL    HW118923   1.342   0.738   7.284  0.3925  1.0828  0.6190
 2430SOL    HW218924   1.401   0.646   7.386  0.9025  1.6297 -1.3495
 2431SOL     OW18925   1.724   4.455   2.399 -0.2406  0.5782 -0.0400
 2431SOL    HW118926   1.819   4.471   2.400  0.1613 -1.8030 -2.2101
 2431SOL    HW218927   1.710   4.407   2.481 -2.0478  1.7599  0.3533
 2432SOL     OW18928   0.972   4.632   9.355 -0.1899  0.2854 -0.4173
 2432SOL    HW118929   1.032   4.706   9.348 -0.5377  0.1570 -4.7270
 2432SOL    HW218930   0.898   4.675   9.397 -0.5909 -0.2203 -0.6034
 2433SOL     OW18931   2.820   3.576  16.389  0.6572  0.1103  0.0634
 2433SOL    HW118932   2.821   3.509  16.458  2.2914  2.3302  2.1992
 2433SOL    HW218933   2.825   3.529  16.306 -1.6258 -0.6549  0.3571
 2434SOL     OW18934   0.096   1.669   3.928 -0.7202  0.8579 -0.2295
 2434SOL    HW118935   0.048   1.605   3.980  0.1856  1.7952  1.7501
 2434SOL    HW218936   0.123   1.626   3.847  1.2567  1.7195 -0.0386
 2435SOL     OW18937   2.531   0.389   2.411 -0.0883  0.1371 -0.3495
 2435SOL    HW118938   2.533   0.481   2.384 -0.7692  0.7496  1.7365
 2435SOL    HW218939   2.620   0.383   2.445  0.3900  0.1446 -1.5886
 2436SOL     OW18940   0.735   4.375   4.635 -0.2629 -0.6181 -0.3669
 2436SOL    HW118941   0.717   4.294   4.589 -0.0124 -0.1863 -1.2154
 2436SOL    HW218942   0.824   4.375   4.671 -0.8533  0.9594  1.1151
 2437SOL     OW18943   2.310   1.774   8.763 -0.3949 -0.0920 -0.4553
 2437SOL    HW118944   2.390   1.825   8.775 -1.2569  1.0515  0.4303
 2437SOL    HW218945   2.275   1.773   8.851 -0.4656  3.0629 -0.4540
 2438SOL     OW18946   1.178   2.116   5.631 -0.3167 -0.2252 -0.6210
 2438SOL    HW118947   1.101   2.164   5.601 -0.1962 -0.6297 -1.5589
 2438SOL    HW218948   1.215   2.080   5.551 -2.2573  2.7003 -2.7816
 2439SOL     OW18949   1.588   0.952   1.919  0.2505  0.1125  0.1530
 2439SOL    HW118950   1.621   0.862   1.916  2.1400  0.7797  1.0078
 2439SOL    HW218951   1.671   0.997   1.935  1.2066 -1.0483 -1.5868
 2440SOL     OW18952   0.584   1.218   3.110  0.6248 -0.2780  0.2026
 2440SOL    HW118953   0.626   1.303   3.098 -0.2573 -0.0510 -1.3126
 2440SOL    HW218954   0.658   1.157   3.109 -0.4952 -1.6616  1.3338
 2441SOL     OW18955   3.563   2.616   6.542 -0.6017 -0.0027  0.4501
 2441SOL    HW118956   3.492   2.662   6.497  0.9750 -0.7051 -2.8061
 2441SOL    HW218957   3.527   2.532   6.569 -1.5298  0.4082  0.4869
 2442SOL     OW18958   2.243   3.545   4.969  0.1080  0.2717 -0.0728
 2442SOL    HW118959   2.171   3.544   4.906 -0.2998  0.3282  0.3855
 2442SOL    HW218960   2.218   3.613   5.032 -0.5051  0.9953 -1.0974
 2443SOL     OW18961   4.649   2.454   1.614  0.4243  0.0794 -0.2113
 2443SOL    HW118962   4.565   2.430   1.575  0.0330  0.8241  0.1772
 2443SOL    HW218963   4.644   2.548   1.601  1.4892  0.3665  1.4462
 2444SOL     OW18964   3.006   3.973  10.018  0.1723  0.2978 -0.2457
 2444SOL    HW118965   2.941   3.928  10.072  1.4982  2.3122  3.1076
 2444SOL    HW218966   2.997   3.921   9.938  0.8679  0.4361 -0.4141
 2445SOL     OW18967   3.520   4.187   7.602 -0.7856  0.6561  0.7728
 2445SOL    HW118968   3.532   4.271   7.647 -0.8735  0.8595  0.4146
 2445SOL    HW218969   3.559   4.126   7.664 -0.2657 -1.4041 -1.6108
 2446SOL     OW18970   2.739   2.496   3.287  0.8774  0.1200 -0.0550
 2446SOL    HW118971   2.728   2.403   3.269  0.0894  0.1233  0.4074
 2446SOL    HW218972   2.834   2.502   3.274  0.9539  2.1534  1.4923
 2447SOL     OW18973   2.641   4.587   4.922 -0.6089 -0.1738  0.2434
 2447SOL    HW118974   2.724   4.544   4.944  1.9114  2.8542 -3.3616
 2447SOL    HW218975   2.600   4.602   5.007 -0.3170  0.9808  0.1739
 2448SOL     OW18976   4.508   1.591   3.662 -0.3530 -0.6393 -0.4400
 2448SOL    HW118977   4.551   1.546   3.589 -0.6597 -0.0058 -1.0101
 2448SOL    HW218978   4.540   1.679   3.643  0.3768 -0.7903  0.0864
 2449SOL     OW18979   3.279   1.107   5.332  0.3373  0.1482  0.3904
 2449SOL    HW118980   3.314   1.018   5.338 -0.5694 -0.2205  0.0707
 2449SOL    HW218981   3.272   1.113   5.237  2.4747 -0.2932  0.1986
 2450SOL     OW18982   4.325   3.174   8.014  0.3737 -0.3255  0.6530
 2450SOL    HW118983   4.255   3.230   7.981  1.1378 -0.1055 -0.5937
 2450SOL    HW218984   4.394   3.202   7.953 -0.7507 -2.3681 -1.5678
 2451SOL     OW18985   2.325   1.256  11.908  0.0419 -0.1041  0.3911
 2451SOL    HW118986   2.272   1.284  11.833  0.6722 -2.0371 -0.7739
 2451SOL    HW218987   2.413   1.278  11.878 -0.5684  0.3119 -1.1127
 2452SOL     OW18988   3.241   4.297   3.602 -0.1784  0.0476 -0.5270
 2452SOL    HW118989   3.179   4.368   3.586 -0.2782  0.4440  1.5682
 2452SOL    HW218990   3.319   4.306   3.547  1.0498 -2.3980  0.8055
 2453SOL     OW18991   4.328   3.009   2.910  0.1068 -0.5289 -0.5020
 2453SOL    HW118992   4.247   3.009   2.859  0.1156 -0.7219 -0.5166
 2453SOL    HW218993   4.362   3.098   2.898 -0.6184 -0.1426  0.3444
 2454SOL     OW18994   3.201   0.370   3.700  0.3086 -0.0716  0.2875
 2454SOL    HW118995   3.213   0.416   3.617 -0.3681 -0.5927 -0.0986
 2454SOL    HW218996   3.228   0.441   3.759  0.4970  0.5113 -0.4998
 2455SOL     OW18997   3.809   4.026  14.460  0.0662 -0.1707 -0.1687
 2455SOL    HW118998   3.746   4.063  14.398 -1.9289 -2.9779  0.2023
 2455SOL    HW218999   3.806   3.933  14.438  0.9706  0.2914 -2.2422
 2456SOL     OW19000   3.424   2.103   6.170 -0.2174 -0.0831 -0.2760
 2456SOL    HW119001   3.442   2.030   6.228 -0.4686  0.5621  0.6152
 2456SOL    HW219002   3.474   2.169   6.219  0.2227 -1.3981  1.0175
 2457SOL     OW19003   0.440   4.107  17.315  0.5444 -0.3401  0.5474
 2457SOL    HW119004   0.365   4.091  17.257  0.5609  2.4196 -0.2567
 2457SOL    HW219005   0.378   4.104  17.388 -0.2990  1.6381 -0.0897
 2458SOL     OW19006   1.692   2.746   6.099 -0.1911 -0.0521 -0.0330
 2458SOL    HW119007   1.620   2.769   6.040  0.2758  0.9220 -0.2295
 2458SOL    HW219008   1.740   2.829   6.094 -2.0334  1.1528  2.5600
 2459SOL     OW19009   0.204   1.643  10.827 -0.0381 -0.0957  0.2945
 2459SOL    HW119010   0.143   1.714  10.846 -0.2152 -0.1640 -0.0323
 2459SOL    HW219011   0.281   1.688  10.864  0.5139  0.2611 -1.2833
 2460SOL     OW19012   1.543   1.210   1.538  0.0302 -0.5387  0.6233
 2460SOL    HW119013   1.531   1.222   1.632  1.9859 -0.4118  0.8514
 2460SOL    HW219014   1.454   1.185   1.512 -0.3056  1.2682  0.0240
 2461SOL     OW19015   0.803   3.608   7.774 -0.5356 -0.2034  0.4235
 2461SOL    HW119016   0.890   3.601   7.813  0.8127  0.4985 -2.4235
 2461SOL    HW219017   0.827   3.618   7.681 -0.3860  0.2780  0.5157
 2462SOL     OW19018   2.053   2.162   8.547 -0.2440 -0.0830  0.9259
 2462SOL    HW119019   2.069   2.068   8.534 -0.8501  0.2234 -2.0541
 2462SOL    HW219020   2.093   2.174   8.633  2.0724  0.3653 -0.2216
 2463SOL     OW19021   1.927   4.376   3.734  0.2788 -0.2295 -0.1792
 2463SOL    HW119022   1.877   4.300   3.765  0.4331  0.2697  1.3313
 2463SOL    HW219023   1.929   4.367   3.639 -1.3487 -0.3162 -0.2066
 2464SOL     OW19024   0.246   1.479   8.086 -0.4209 -0.6453 -0.3137
 2464SOL    HW119025   0.218   1.536   8.014  0.3652 -1.7235 -1.4825
 2464SOL    HW219026   0.163   1.481   8.133 -0.0891  1.8956  0.1546
 2465SOL     OW19027   1.153   3.738   5.681  0.2728 -0.4605  0.1741
 2465SOL    HW119028   1.134   3.672   5.748  0.6801 -2.3473 -1.5745
 2465SOL    HW219029   1.241   3.760   5.711 -0.0493  1.8368 -0.5391
 2466SOL     OW19030   2.751   3.199   2.293 -0.0568 -0.5231 -0.0800
 2466SOL    HW119031   2.805   3.132   2.251  0.9073  1.1921 -1.5622
 2466SOL    HW219032   2.797   3.202   2.378 -0.4067 -2.8696  0.1962
 2467SOL     OW19033   2.833   0.933  11.203 -0.5024 -0.6935  0.1726
 2467SOL    HW119034   2.855   1.025  11.186 -1.4060  0.0881  3.2513
 2467SOL    HW219035   2.792   0.911  11.119 -0.2699  2.5817 -0.8101
 2468SOL     OW19036   3.420   0.407   4.984 -0.5947  0.3121  0.9282
 2468SOL    HW119037   3.460   0.328   4.947 -0.9145  1.0044 -0.8769
 2468SOL    HW219038   3.340   0.412   4.932  1.0042  0.0066 -1.5428
 2469SOL     OW19039   1.810   4.084   3.370  0.3169  0.7537  0.2462
 2469SOL    HW119040   1.781   4.010   3.318 -0.5522 -0.1030  1.9423
 2469SOL    HW219041   1.857   4.041   3.442  3.0947 -0.0692 -2.0839
 2470SOL     OW19042   2.746   3.524   2.239  0.3720 -0.0631  0.3737
 2470SOL    HW119043   2.754   3.518   2.144  2.5112 -0.6593  0.5849
 2470SOL    HW219044   2.689   3.600   2.249 -0.3853 -0.3760 -1.5830
 2471SOL     OW19045   3.217   2.136   2.952  0.0807 -1.1117 -0.3274
 2471SOL    HW119046   3.212   2.043   2.970 -1.8494 -1.1017 -0.8133
 2471SOL    HW219047   3.201   2.176   3.038 -2.1209 -2.1640 -0.2623
 2472SOL     OW19048   1.279   2.359   3.811 -0.3613  0.3105 -0.0687
 2472SOL    HW119049   1.235   2.293   3.866  0.1422 -0.8257 -1.0265
 2472SOL    HW219050   1.345   2.302   3.773 -1.7064 -0.9257 -0.5647
 2473SOL     OW19051   4.552   0.064   5.556 -0.2748 -0.1244 -0.0921
 2473SOL    HW119052   4.534   0.153   5.586 -2.6096 -0.6462 -0.0136
 2473SOL    HW219053   4.528   0.068   5.463  2.4292 -3.9105 -1.0011
 2474SOL     OW19054   3.004   4.390   4.313 -0.4179 -0.2447 -0.5067
 2474SOL    HW119055   2.995   4.361   4.404 -0.2456  0.8424 -0.1418
 2474SOL    HW219056   2.986   4.308   4.268 -2.2593  1.0684 -2.1851
 2475SOL     OW19057   2.122   0.262   7.733  0.3819 -0.3670  0.1644
 2475SOL    HW119058   2.100   0.332   7.795  2.3267  0.1725  0.2618
 2475SOL    HW219059   2.032   0.231   7.732 -0.0272  0.7739  1.1897
 2476SOL     OW19060   0.405   2.831   5.011 -0.1726 -0.0996  0.6889
 2476SOL    HW119061   0.447   2.865   4.932 -1.1879  1.6559  0.9074
 2476SOL    HW219062   0.457   2.876   5.078 -0.1123 -0.4704  0.8910
 2477SOL     OW19063   0.416   4.635   9.048  0.2163  0.1766  0.6149
 2477SOL    HW119064   0.324   4.613   9.059 -0.0925  0.1277 -1.8967
 2477SOL    HW219065   0.433   4.560   8.991 -0.2001 -0.6049  1.5303
 2478SOL     OW19066   2.021   3.875   5.351  0.4922  0.2721 -0.1937
 2478SOL    HW119067   2.010   3.788   5.390 -1.7638 -0.1200 -1.6854
 2478SOL    HW219068   1.932   3.892   5.323 -0.3839 -1.1411  1.7057
 2479SOL     OW19069   3.166   0.411  17.212 -0.1303  0.2052  0.6118
 2479SOL    HW119070   3.141   0.462  17.289  1.3886  3.1636 -0.8451
 2479SOL    HW219071   3.183   0.485  17.153  0.1959 -0.0072  0.4374
 2480SOL     OW19072   0.427   2.980  11.537 -0.6327 -0.0995  0.0054
 2480SOL    HW119073   0.425   3.060  11.484  1.4965  0.5661  0.9271
 2480SOL    HW219074   0.488   2.923  11.491  0.5124  1.0008  0.1597
 2481SOL     OW19075   1.279   2.140  14.129 -0.9091 -0.0274  0.6804
 2481SOL    HW119076   1.189   2.125  14.102 -1.6594  2.9581  1.4979
 2481SOL    HW219077   1.320   2.099  14.053 -0.6790  0.0277  0.7732
 2482SOL     OW19078   3.470   3.244  11.002  0.1981 -0.3138  0.1365
 2482SOL    HW119079   3.460   3.315  11.065 -1.2653  0.3998 -0.9015
 2482SOL    HW219080   3.414   3.266  10.928 -0.2864 -2.7566 -0.2446
 2483SOL     OW19081   0.681   2.332   2.028 -0.0484  0.5386  0.2137
 2483SOL    HW119082   0.628   2.397   2.073 -0.2722  1.2675 -1.1033
 2483SOL    HW219083   0.678   2.266   2.098 -2.4432  0.0299 -0.3609
 2484SOL     OW19084   4.309   4.525   6.792  0.6590 -0.4517  0.3576
 2484SOL    HW119085   4.350   4.584   6.728 -0.2199  0.0619  0.2754
 2484SOL    HW219086   4.382   4.480   6.835  0.3041 -2.9851 -1.7044
 2485SOL     OW19087   2.064   0.765  10.864  0.4290 -0.6384  0.0246
 2485SOL    HW119088   2.091   0.800  10.780 -0.4057  1.2682  0.5577
 2485SOL    HW219089   2.151   0.775  10.903 -0.3954 -1.7038  2.1789
 2486SOL     OW19090   3.919   4.076   7.715  0.4791  0.3688  0.6551
 2486SOL    HW119091   3.904   4.014   7.786 -0.6719 -0.2404 -0.1243
 2486SOL    HW219092   3.949   4.013   7.650 -1.6748  0.2273 -0.2009
 2487SOL     OW19093   3.087   3.269   8.461  0.2290  0.1925  0.0435
 2487SOL    HW119094   3.181   3.263   8.477  0.6741  0.6380 -2.3046
 2487SOL    HW219095   3.067   3.362   8.456 -0.8261  0.0890  2.8244
 2488SOL     OW19096   1.194   4.204   6.751  0.1098  0.2596  0.1168
 2488SOL    HW119097   1.250   4.281   6.740 -1.5379  1.4252 -0.1378
 2488SOL    HW219098   1.248   4.158   6.815  0.2358  0.9938  0.5392
 2489SOL     OW19099   2.689   0.574  11.807 -0.5489 -0.4738  0.1746
 2489SOL    HW119100   2.641   0.493  11.826 -2.5008  0.0250 -2.7362
 2489SOL    HW219101   2.725   0.587  11.895 -1.6865  3.2738  0.0988
 2490SOL     OW19102   3.878   3.523   8.187 -0.3129 -0.4231  0.9902
 2490SOL    HW119103   3.819   3.524   8.112 -0.9213  1.3331  1.4974
 2490SOL    HW219104   3.963   3.554   8.155  0.0832 -2.1182  0.4213
 2491SOL     OW19105   4.314   2.583   9.150  0.2432 -0.1667 -0.2585
 2491SOL    HW119106   4.221   2.592   9.130  0.2689  2.0448  0.6191
 2491SOL    HW219107   4.317   2.489   9.170  0.7360 -0.2031 -0.5164
 2492SOL     OW19108   3.242   2.065   5.103 -0.2000  0.1290  0.3755
 2492SOL    HW119109   3.280   2.116   5.032  1.6443 -1.1516  0.4404
 2492SOL    HW219110   3.163   2.116   5.123 -0.0555  0.9800 -1.2245
 2493SOL     OW19111   3.356   4.139   7.400  0.2191 -0.3955  0.4674
 2493SOL    HW119112   3.404   4.160   7.319  0.3120  1.3326  0.9642
 2493SOL    HW219113   3.428   4.147   7.463 -0.3161  0.8825  0.9256
 2494SOL     OW19114   2.452   3.801   7.613 -0.3467  0.5796 -0.4530
 2494SOL    HW119115   2.448   3.890   7.646  0.2641 -0.3867  2.2358
 2494SOL    HW219116   2.403   3.824   7.534  0.3761 -1.9817 -1.6406
 2495SOL     OW19117   1.737   0.536  12.706  0.0022 -0.5720 -0.3360
 2495SOL    HW119118   1.820   0.533  12.755  0.3609  1.1689 -0.8343
 2495SOL    HW219119   1.677   0.491  12.765 -0.9667  0.1547 -0.7714
 2496SOL     OW19120   0.268   0.152  12.903 -0.4303 -0.3177 -0.0640
 2496SOL    HW119121   0.352   0.140  12.948 -0.4408 -0.5691 -0.1149
 2496SOL    HW219122   0.200   0.138  12.969 -0.0882 -1.5178  0.0328
 2497SOL     OW19123   2.447   0.846   7.791  0.8652  0.6554  0.0361
 2497SOL    HW119124   2.452   0.897   7.872  0.7389  1.7610 -0.6492
 2497SOL    HW219125   2.518   0.784   7.809  0.4775  0.1219 -0.2888
 2498SOL     OW19126   1.927   0.978  16.474 -0.3096 -0.2238  0.1702
 2498SOL    HW119127   1.910   1.060  16.520  1.0256  1.3811 -2.2031
 2498SOL    HW219128   1.966   0.930  16.548  0.9312  2.1076  1.0121
 2499SOL     OW19129   3.905   4.654   6.191  0.1235 -0.9003 -0.0212
 2499SOL    HW119130   3.984   4.705   6.180 -0.6468  0.3278  0.1509
 2499SOL    HW219131   3.941   4.567   6.207 -0.8533 -1.6154 -1.6847
 2500SOL     OW19132   2.972   3.342   2.927 -0.4247  0.0475  0.0950
 2500SOL    HW119133   2.917   3.417   2.947  0.3941  0.5824  0.3626
 2500SOL    HW219134   2.914   3.266   2.922 -0.4953  0.0084  1.3718
 2501SOL     OW19135   4.716   2.298   3.520  0.0906  0.2530  0.1005
 2501SOL    HW119136   4.712   2.340   3.433 -2.4503  1.3685  0.7718
 2501SOL    HW219137   4.659   2.223   3.504  2.0116 -0.8186 -1.6594
 2502SOL     OW19138   0.354   1.203   6.609  0.2707  0.5703  0.0753
 2502SOL    HW119139   0.361   1.296   6.590  1.0827  0.6849  0.9583
 2502SOL    HW219140   0.307   1.202   6.693  1.3347  1.5033  0.6785
 2503SOL     OW19141   4.314   2.613   2.437  0.0907  0.1653  0.2877
 2503SOL    HW119142   4.359   2.558   2.500 -0.6606 -0.1615  0.5391
 2503SOL    HW219143   4.239   2.638   2.490 -0.6362  2.3165 -1.7261
 2504SOL     OW19144   1.056   2.471   8.126 -0.1568 -0.3881  0.7598
 2504SOL    HW119145   1.065   2.402   8.191  0.7967  0.5211  1.6054
 2504SOL    HW219146   0.984   2.517   8.169 -0.9592  0.4174 -1.4260
 2505SOL     OW19147   1.759   1.865   6.317  0.0639 -0.0878 -0.2305
 2505SOL    HW119148   1.685   1.890   6.373  0.6351  0.2981  0.3522
 2505SOL    HW219149   1.835   1.904   6.359 -1.9285  3.8038 -0.2072
 2506SOL     OW19150   2.566   0.645   9.514 -0.2334  0.3376  0.3486
 2506SOL    HW119151   2.586   0.580   9.581 -1.5546  0.2409  0.6465
 2506SOL    HW219152   2.552   0.578   9.446 -0.3518  0.0966  0.6124
 2507SOL     OW19153   3.514   1.815   5.807  0.6695  0.4613 -0.1127
 2507SOL    HW119154   3.423   1.828   5.835  0.7898  1.8929 -0.3918
 2507SOL    HW219155   3.554   1.895   5.841 -0.0645  0.3803  0.9543
 2508SOL     OW19156   0.966   3.476   8.176 -0.0053 -0.9267  0.0482
 2508SOL    HW119157   1.006   3.559   8.149 -2.8169 -0.0888 -1.4815
 2508SOL    HW219158   1.038   3.414   8.165  0.6414  0.0272 -1.2182
 2509SOL     OW19159   4.423   2.521   1.038 -0.1561 -0.5045 -0.1998
 2509SOL    HW119160   4.366   2.447   1.056 -0.3862 -0.0834  0.7752
 2509SOL    HW219161   4.421   2.527   0.942 -2.3838 -0.9737 -0.1829
 2510SOL     OW19162   3.896   1.293   4.144  0.0465 -0.3043  0.6051
 2510SOL    HW119163   3.898   1.369   4.086  0.4567  0.7261  1.9770
 2510SOL    HW219164   3.987   1.285   4.173  0.8413  0.1816 -1.8250
 2511SOL     OW19165   1.540   3.343   2.850  0.2426  0.0683  0.1063
 2511SOL    HW119166   1.593   3.385   2.783 -0.9795 -1.5142 -1.8293
 2511SOL    HW219167   1.466   3.306   2.801  0.2798 -1.3115  1.0761
 2512SOL     OW19168   4.343   2.406   8.438 -0.1536  0.1080  0.5070
 2512SOL    HW119169   4.300   2.321   8.436  0.5567 -0.2066 -1.5442
 2512SOL    HW219170   4.355   2.423   8.344 -1.5835  0.2491  0.3499
 2513SOL     OW19171   4.664   1.940   4.083 -0.0685  0.4230 -0.5758
 2513SOL    HW119172   4.737   1.903   4.132  0.1607  0.9251 -0.5381
 2513SOL    HW219173   4.704   1.945   3.996 -0.9957 -0.6665 -1.0729
 2514SOL     OW19174   3.954   1.960   9.121 -0.4854 -0.6631 -0.2877
 2514SOL    HW119175   4.011   1.884   9.137 -0.6748  0.0927  4.1168
 2514SOL    HW219176   3.871   1.917   9.099 -0.7926 -1.6725  2.7649
 2515SOL     OW19177   1.417   2.239   9.671  0.0737 -1.2055  0.2114
 2515SOL    HW119178   1.452   2.176   9.733 -0.5939 -0.6444  1.1649
 2515SOL    HW219179   1.327   2.244   9.702  0.3282 -3.1154  1.2114
 2516SOL     OW19180   2.493   4.719  15.278 -0.4288 -0.2558  0.4948
 2516SOL    HW119181   2.581   4.684  15.288  0.0379  1.6112  3.0164
 2516SOL    HW219182   2.473   4.713  15.372  0.9516 -0.9841  0.7379
 2517SOL     OW19183   4.315   0.673   5.636  0.3297 -0.1917  0.1893
 2517SOL    HW119184   4.228   0.711   5.623  0.8538  0.4411 -1.4755
 2517SOL    HW219185   4.312   0.637   5.725  0.9461 -1.9277 -0.5089
 2518SOL     OW19186   1.987   1.171   6.785 -0.1675  0.3353  0.3604
 2518SOL    HW119187   1.963   1.155   6.693  0.5448 -1.2335  0.4526
 2518SOL    HW219188   2.071   1.215   6.774 -1.5447  3.2874  1.6751
 2519SOL     OW19189   3.270   3.084   6.030 -0.0717  0.0385  0.4338
 2519SOL    HW119190   3.309   3.042   5.953 -1.0328  0.0227 -0.0536
 2519SOL    HW219191   3.194   3.128   5.991 -0.9169 -1.2433  0.6197
 2520SOL     OW19192   1.236   2.428  12.257 -0.1770 -0.3129 -0.1618
 2520SOL    HW119193   1.274   2.493  12.198 -0.2683 -0.4559 -0.3784
 2520SOL    HW219194   1.302   2.444  12.324 -1.9140  0.6534  1.3011
 2521SOL     OW19195   1.659   4.627  16.312 -0.2551 -0.0249 -0.2515
 2521SOL    HW119196   1.600   4.566  16.356  0.8423  0.1748  1.4685
 2521SOL    HW219197   1.719   4.564  16.272 -0.1770 -1.3443  1.9541
 2522SOL     OW19198   0.436   1.605   5.157 -0.4981 -0.0372  0.2481
 2522SOL    HW119199   0.408   1.692   5.187 -3.1581 -0.1856 -1.8233
 2522SOL    HW219200   0.447   1.626   5.064 -1.1089 -1.5484 -0.1583
 2523SOL     OW19201   3.650   1.893   7.499  0.3465 -0.3852 -0.8542
 2523SOL    HW119202   3.711   1.916   7.429  0.8542  1.7377  0.2533
 2523SOL    HW219203   3.607   1.817   7.461 -1.5202  0.4030 -0.3311
 2524SOL     OW19204   1.521   0.889   7.956 -0.0763 -0.2335 -0.2267
 2524SOL    HW119205   1.461   0.851   7.892 -1.7510  3.2698 -0.7829
 2524SOL    HW219206   1.502   0.831   8.030  0.3389  1.6732  1.3894
 2525SOL     OW19207   2.662   1.501  11.929 -0.1214 -0.5317 -0.0472
 2525SOL    HW119208   2.732   1.439  11.950 -0.7259 -0.3744  2.4176
 2525SOL    HW219209   2.623   1.454  11.855 -1.0247 -1.0959  0.7867
 2526SOL     OW19210   4.218   4.634   3.148  0.2618 -0.5899 -0.5521
 2526SOL    HW119211   4.263   4.550   3.140  1.0561 -0.1459 -0.7846
 2526SOL    HW219212   4.135   4.605   3.186 -0.1708  1.7341  0.2622
 2527SOL     OW19213   0.401   4.022   5.707  0.1683  0.0121 -0.1113
 2527SOL    HW119214   0.353   4.042   5.788 -1.8085 -0.0665 -1.2781
 2527SOL    HW219215   0.426   4.110   5.677 -0.7063 -0.1481 -1.2935
 2528SOL     OW19216   2.416   0.376   5.457 -0.2134 -0.0566  0.2996
 2528SOL    HW119217   2.380   0.402   5.372 -1.5542 -1.9948  0.2634
 2528SOL    HW219218   2.506   0.348   5.439  0.9200  1.7556  3.0711
 2529SOL     OW19219   2.368   0.467   5.717 -0.2886  0.6502  0.1366
 2529SOL    HW119220   2.442   0.514   5.754  1.4825 -1.9461 -0.1266
 2529SOL    HW219221   2.390   0.460   5.624 -0.3158  1.2277  0.0875
 2530SOL     OW19222   2.369   0.568   7.098 -0.0223 -0.3917  0.3173
 2530SOL    HW119223   2.385   0.639   7.160  0.9213  1.6384 -2.2537
 2530SOL    HW219224   2.275   0.564   7.079 -0.3402  3.9830  1.0071
 2531SOL     OW19225   0.386   4.620   3.113  0.8001  0.3348  0.6548
 2531SOL    HW119226   0.341   4.584   3.189 -1.3300 -2.4146 -1.9218
 2531SOL    HW219227   0.313   4.659   3.065  0.4856  0.3350  1.1331
 2532SOL     OW19228   3.146   0.654   5.475 -0.4860  0.0748 -0.4085
 2532SOL    HW119229   3.138   0.711   5.552 -0.6960 -0.2336 -0.2011
 2532SOL    HW219230   3.096   0.577   5.500 -0.1114  0.1174  0.4823
 2533SOL     OW19231   1.648   4.726  12.761 -0.2767  0.7400  0.1273
 2533SOL    HW119232   1.557   0.008  12.783  0.0130  0.1721  1.8419
 2533SOL    HW219233   1.681   0.065  12.803  2.0139 -0.9500  1.4424
 2534SOL     OW19234   0.848   0.847   5.198  0.2346 -0.1864  0.2687
 2534SOL    HW119235   0.932   0.803   5.212  0.9975  1.5148  0.9765
 2534SOL    HW219236   0.827   0.906   5.270  0.6764  0.4297 -0.0940
 2535SOL     OW19237   0.882   1.522   6.370  0.7748  0.5035 -0.8016
 2535SOL    HW119238   0.902   1.438   6.328 -2.9269 -0.5017 -0.5722
 2535SOL    HW219239   0.954   1.523   6.433  0.9802 -0.8982 -1.0245
 2536SOL     OW19240   3.909   3.940   9.049 -1.0512  0.0137 -0.4382
 2536SOL    HW119241   3.926   3.982   9.133  1.4780 -0.4213 -0.7176
 2536SOL    HW219242   3.879   4.011   8.992 -2.8325 -0.5304 -0.1904
 2537SOL     OW19243   1.389   4.375   2.430  0.2726 -0.1681 -0.1050
 2537SOL    HW119244   1.413   4.286   2.403 -0.4388  0.3511 -2.3923
 2537SOL    HW219245   1.321   4.379   2.364  0.5934  0.0940 -0.4150
 2538SOL     OW19246   3.214   1.139  11.894  0.1134 -0.1944 -0.1602
 2538SOL    HW119247   3.265   1.178  11.964 -1.1042  0.2590  0.4766
 2538SOL    HW219248   3.268   1.060  11.884 -1.8174 -1.4882 -0.5047
 2539SOL     OW19249   1.124   2.304   0.447 -0.4574 -0.1805 -0.5592
 2539SOL    HW119250   1.078   2.305   0.363 -1.2038  0.3303 -0.1472
 2539SOL    HW219251   1.056   2.256   0.494  1.1137 -2.6820 -0.8401
 2540SOL     OW19252   4.339   1.493   9.080 -0.5059 -0.3258 -0.2763
 2540SOL    HW119253   4.256   1.510   9.035 -0.7766  0.2993  0.4540
 2540SOL    HW219254   4.309   1.511   9.169  1.4077  1.7729 -0.0586
 2541SOL     OW19255   2.495   0.712   3.306 -0.8117  0.4410  0.3665
 2541SOL    HW119256   2.412   0.744   3.271 -0.8639  1.9442  1.8301
 2541SOL    HW219257   2.480   0.629   3.351  0.6801 -0.2904 -0.4928
 2542SOL     OW19258   4.481   1.544  12.988  0.5128  0.2468  0.6927
 2542SOL    HW119259   4.478   1.590  13.072  1.3551 -1.0840  1.4536
 2542SOL    HW219260   4.537   1.609  12.946 -0.1043  0.3779  0.0658
 2543SOL     OW19261   1.615   1.008  16.492  0.1966  0.3322 -0.0209
 2543SOL    HW119262   1.693   1.060  16.513  0.9985 -1.4611  1.4683
 2543SOL    HW219263   1.650   0.944  16.429 -0.7484  1.1456 -1.3614
 2544SOL     OW19264   1.736   0.259   7.320 -0.0749 -0.1519  0.1345
 2544SOL    HW119265   1.813   0.216   7.284 -1.6155 -0.0033 -3.3548
 2544SOL    HW219266   1.748   0.241   7.413 -1.0131 -1.3105  0.0388
 2545SOL     OW19267   0.030   4.415   7.023  0.4600 -0.3018  0.9030
 2545SOL    HW119268   0.106   4.465   6.992  0.2290 -0.6940 -0.2902
 2545SOL    HW219269   0.008   4.368   6.943  1.6130 -0.1665  0.5033
 2546SOL     OW19270   0.091   3.827   2.270 -0.0899 -0.8721  0.1577
 2546SOL    HW119271   0.016   3.874   2.305  1.1200  2.5196 -1.8701
 2546SOL    HW219272   0.131   3.788   2.348  1.1463 -0.3102 -0.1950
 2547SOL     OW19273   2.657   4.592   5.585  0.4457 -0.4949 -0.5310
 2547SOL    HW119274   2.651   4.687   5.582  0.9817 -0.3914  1.6268
 2547SOL    HW219275   2.606   4.570   5.507 -0.0723 -0.7616 -0.1178
 2548SOL     OW19276   4.717   4.674  14.178  0.0100  0.2489 -0.8161
 2548SOL    HW119277   0.018   4.637  14.100  1.1269 -0.3319  0.0522
 2548SOL    HW219278   0.040   4.673  14.249 -0.4736 -1.7582 -0.4109
 2549SOL     OW19279   0.212   1.960  14.376  0.2653  0.4125  0.7031
 2549SOL    HW119280   0.162   1.908  14.438  1.5172  2.2748  3.2806
 2549SOL    HW219281   0.288   1.902  14.362  1.7138  2.1596  1.3353
 2550SOL     OW19282   2.057   0.438   3.900 -0.4307 -0.5568 -0.1253
 2550SOL    HW119283   2.000   0.367   3.927 -0.6692  0.8021  2.9143
 2550SOL    HW219284   1.997   0.512   3.909  1.0246  0.9527 -2.5686
 2551SOL     OW19285   0.035   4.047   1.943 -0.1438 -0.0800  0.1628
 2551SOL    HW119286   4.731   3.997   2.011  0.9383 -1.2932 -0.0231
 2551SOL    HW219287   4.701   4.083   1.895  0.2830 -1.0711 -1.2238
 2552SOL     OW19288   2.196   4.105   3.101  0.1312  0.2241  0.5724
 2552SOL    HW119289   2.189   4.034   3.165 -2.5290  2.4375  2.7198
 2552SOL    HW219290   2.290   4.100   3.082 -0.2832 -0.3451 -1.2910
 2553SOL     OW19291   2.369   2.107   3.811  0.1854  0.9261 -0.0233
 2553SOL    HW119292   2.380   2.017   3.782  0.1064  1.8303 -2.9636
 2553SOL    HW219293   2.458   2.125   3.841 -0.2628  0.9967  1.2252
 2554SOL     OW19294   0.848   1.840   2.860  0.1571 -0.3541 -0.1165
 2554SOL    HW119295   0.907   1.783   2.809  1.7133  0.0651  1.2112
 2554SOL    HW219296   0.769   1.841   2.806 -0.3423  2.8629  0.6707
 2555SOL     OW19297   2.431   2.971  12.613  0.3657 -0.3611 -0.5565
 2555SOL    HW119298   2.456   3.060  12.639  3.4516 -0.2950 -3.7578
 2555SOL    HW219299   2.337   2.976  12.634  0.2369 -2.1581 -0.6759
 2556SOL     OW19300   3.461   2.688   7.778  0.1418 -0.0609  0.2255
 2556SOL    HW119301   3.497   2.741   7.707 -0.1861 -1.1915 -0.7830
 2556SOL    HW219302   3.504   2.603   7.768  1.0283  0.2947  1.0164
 2557SOL     OW19303   0.365   2.163   4.342  0.0121  0.4419 -0.5762
 2557SOL    HW119304   0.451   2.165   4.299  1.1644  2.2162  1.8203
 2557SOL    HW219305   0.360   2.081   4.390 -1.0838 -0.3673 -2.0710
 2558SOL     OW19306   4.577   0.582   4.346  0.0057  0.6064 -0.2767
 2558SOL    HW119307   4.557   0.493   4.317  2.2758  0.7625 -2.3449
 2558SOL    HW219308   4.640   0.571   4.417 -1.2519 -0.0697  0.7269
 2559SOL     OW19309   4.260   2.946  17.195  0.2997  0.2491 -0.4673
 2559SOL    HW119310   4.260   3.034  17.232  1.9196 -0.2217  0.6638
 2559SOL    HW219311   4.339   2.910  17.235 -0.0884 -0.6466 -0.5215
 2560SOL     OW19312   1.521   0.146   6.236  0.1275  0.4929  0.4275
 2560SOL    HW119313   1.562   0.200   6.303  0.4469  0.2535  0.4260
 2560SOL    HW219314   1.588   0.078   6.228  0.4251  0.8518 -0.1525
 2561SOL     OW19315   2.457   2.220  10.615  0.3770  0.3289 -0.0029
 2561SOL    HW119316   2.431   2.260  10.697 -0.4945  0.4848 -0.3490
 2561SOL    HW219317   2.390   2.153  10.601  0.6599  0.0110  0.1678
 2562SOL     OW19318   1.220   4.191   9.584  0.4235  0.1621 -0.4270
 2562SOL    HW119319   1.191   4.281   9.565  1.4295  0.6152  0.2010
 2562SOL    HW219320   1.258   4.172   9.498  1.7930  1.2003 -0.0408
 2563SOL     OW19321   1.290   0.939   9.357  0.8532 -0.7775  0.1280
 2563SOL    HW119322   1.280   0.951   9.452 -2.3203 -3.6017  0.1385
 2563SOL    HW219323   1.310   0.846   9.360  3.0008 -0.2958  0.4230
 2564SOL     OW19324   2.386   3.926  12.962 -0.3261 -0.4171  0.5986
 2564SOL    HW119325   2.479   3.941  12.945  0.3638 -1.2800  3.6216
 2564SOL    HW219326   2.369   3.982  13.038  0.7775  1.5338 -0.5910
 2565SOL     OW19327   2.004   1.958   6.427  0.3780 -0.3742 -0.2111
 2565SOL    HW119328   2.049   1.910   6.358  1.7565 -0.5153  0.7882
 2565SOL    HW219329   2.044   2.045   6.421  0.5011 -0.4303 -0.1972
 2566SOL     OW19330   3.823   2.637   2.686 -0.2934  0.2208  0.4624
 2566SOL    HW119331   3.773   2.691   2.624 -0.8655 -0.0666  0.6722
 2566SOL    HW219332   3.766   2.565   2.710 -0.7348  0.4143  0.0094
 2567SOL     OW19333   3.377   0.634   9.563 -0.5233 -0.8455  0.3830
 2567SOL    HW119334   3.452   0.598   9.611 -0.0167  0.1768  0.3511
 2567SOL    HW219335   3.333   0.557   9.529 -1.2645 -0.9128  1.4745
 2568SOL     OW19336   2.524   2.182   4.455 -0.7834 -0.0024  0.0509
 2568SOL    HW119337   2.468   2.119   4.410 -1.5327 -0.0744  1.0681
 2568SOL    HW219338   2.589   2.126   4.497 -0.8246 -1.0496 -1.2907
 2569SOL     OW19339   4.272   1.053   1.663 -0.3989  0.5409  0.5560
 2569SOL    HW119340   4.303   1.036   1.752 -1.6016  1.0292  1.0589
 2569SOL    HW219341   4.204   0.987   1.653 -0.2334  0.0691  2.6412
 2570SOL     OW19342   4.025   4.154   4.909  0.1655 -0.2186 -0.5080
 2570SOL    HW119343   3.965   4.084   4.883  0.0219 -0.8030  1.4040
 2570SOL    HW219344   3.961   4.224   4.923 -0.5452 -0.8162 -0.7937
 2571SOL     OW19345   4.140   2.678  16.918 -0.5788 -0.9466 -0.2496
 2571SOL    HW119346   4.079   2.727  16.863  1.1497  1.0746 -0.3691
 2571SOL    HW219347   4.135   2.587  16.888  0.8896 -0.5780 -1.6423
 2572SOL     OW19348   4.288   0.318  10.100 -0.1855  0.6030  0.0691
 2572SOL    HW119349   4.304   0.243  10.157  2.0157  1.0767  0.0757
 2572SOL    HW219350   4.291   0.269  10.018  2.0717 -0.1066  0.5929
 2573SOL     OW19351   1.009   0.873   7.737  0.2090 -0.1743 -0.1311
 2573SOL    HW119352   1.033   0.805   7.801 -1.7002 -1.1937 -0.4789
 2573SOL    HW219353   0.915   0.864   7.720  0.0160 -0.5847  1.1599
 2574SOL     OW19354   2.017   3.186   2.738 -0.0499  0.5232  0.0281
 2574SOL    HW119355   2.031   3.280   2.729 -1.7131  0.6539 -1.2524
 2574SOL    HW219356   1.933   3.176   2.694  0.0687 -2.4743  0.4480
 2575SOL     OW19357   2.438   0.695   5.215 -0.0062 -0.0999 -0.3493
 2575SOL    HW119358   2.416   0.603   5.204  0.7690 -0.4964  1.3393
 2575SOL    HW219359   2.533   0.688   5.219  0.0226  0.5200  0.1281
 2576SOL     OW19360   1.866   4.327   7.202  0.0981 -0.1061 -0.2912
 2576SOL    HW119361   1.857   4.295   7.112  0.8386  2.2863 -1.2145
 2576SOL    HW219362   1.813   4.254   7.233 -1.2030  1.2621  0.6573
 2577SOL     OW19363   1.316   1.887   3.723 -0.4253 -0.3740  0.2206
 2577SOL    HW119364   1.221   1.882   3.710 -0.4995  2.2823 -0.3611
 2577SOL    HW219365   1.342   1.945   3.652  0.4721  0.5664  1.3144
 2578SOL     OW19366   0.144   3.640   7.742 -0.2458 -0.2681 -0.3914
 2578SOL    HW119367   0.118   3.554   7.774 -2.0265 -0.6799 -2.9645
 2578SOL    HW219368   0.238   3.634   7.761 -0.2472  1.3562  0.1378
 2579SOL     OW19369   4.342   1.935   9.051  0.1094 -0.0178  0.1197
 2579SOL    HW119370   4.313   2.016   9.008  1.6398  1.0096  1.0096
 2579SOL    HW219371   4.306   1.961   9.136  2.9762 -1.5963  1.8246
 2580SOL     OW19372   1.133   4.026   9.974  0.1520 -0.2514  0.7470
 2580SOL    HW119373   1.154   4.004  10.065  2.2874 -0.9515  0.1022
 2580SOL    HW219374   1.080   4.105   9.985  1.6528  1.2402 -2.7723
 2581SOL     OW19375   2.008   2.164   2.277 -0.4376  0.2278  0.2165
 2581SOL    HW119376   2.098   2.162   2.309 -0.9704 -1.0996  1.6314
 2581SOL    HW219377   2.013   2.188   2.184 -1.7857  3.1646  0.9286
 2582SOL     OW19378   2.890   2.383   4.356 -0.4068  0.0962 -0.5871
 2582SOL    HW119379   2.836   2.384   4.436  0.2047  1.0989 -0.2003
 2582SOL    HW219380   2.885   2.291   4.328 -0.1945  0.1781 -0.8803
 2583SOL     OW19381   2.651   1.389   5.725  0.1798  0.1426 -0.8385
 2583SOL    HW119382   2.730   1.405   5.674  0.6376  1.3023  0.2501
 2583SOL    HW219383   2.666   1.425   5.812  2.0450 -1.7246 -0.3907
 2584SOL     OW19384   3.056   4.375  15.540  0.2514 -0.3273  0.0480
 2584SOL    HW119385   3.128   4.431  15.509  0.8576 -1.3236 -0.3506
 2584SOL    HW219386   3.072   4.371  15.634  0.8193  1.6868  0.0366
 2585SOL     OW19387   1.565   2.711   2.952  0.1878 -0.1751 -0.2208
 2585SOL    HW119388   1.530   2.792   2.990 -1.1472 -2.2159  2.8616
 2585SOL    HW219389   1.553   2.739   2.861 -0.7685 -0.2280 -0.1141
 2586SOL     OW19390   2.906   0.494   6.581 -0.0908 -0.0393  0.3173
 2586SOL    HW119391   2.988   0.446   6.569 -0.6440 -0.6941 -0.8656
 2586SOL    HW219392   2.891   0.499   6.675 -0.6014  0.5742  0.2043
 2587SOL     OW19393   0.651   2.968  10.303 -0.5599  0.0517  0.1331
 2587SOL    HW119394   0.739   2.948  10.333 -1.1391 -0.4255  1.4854
 2587SOL    HW219395   0.672   3.061  10.291 -4.1389  0.9281  0.5873
 2588SOL     OW19396   0.432   1.432   1.984  0.1679 -0.3940  0.0120
 2588SOL    HW119397   0.443   1.348   1.939  0.6617  0.1744 -0.9347
 2588SOL    HW219398   0.405   1.485   1.909  1.3117 -1.5272 -1.1900
 2589SOL     OW19399   3.318   2.127   9.308  0.0741  0.4851 -0.1114
 2589SOL    HW119400   3.310   2.034   9.290 -1.4941  0.6161 -0.0852
 2589SOL    HW219401   3.412   2.144   9.293 -0.7411  2.3684 -3.2194
 2590SOL     OW19402   4.196   1.289  16.733 -1.0526 -0.7824 -0.4448
 2590SOL    HW119403   4.204   1.195  16.748 -2.2280 -0.9142 -0.6538
 2590SOL    HW219404   4.138   1.321  16.802 -0.7483 -1.8529  0.2926
 2591SOL     OW19405   1.361   2.359  15.222 -0.2183  0.2605  0.1703
 2591SOL    HW119406   1.409   2.384  15.301 -2.4494 -1.5416  2.1029
 2591SOL    HW219407   1.347   2.443  15.176  1.0552  0.2203 -0.2884
 2592SOL     OW19408   4.435   3.372   4.466 -0.3090  0.4086 -0.1279
 2592SOL    HW119409   4.456   3.407   4.379 -3.0604  1.6870 -0.2911
 2592SOL    HW219410   4.366   3.426   4.505 -1.0164 -0.4278 -0.2097
 2593SOL     OW19411   1.114   2.278   2.048  0.0912  0.0619  0.4014
 2593SOL    HW119412   1.035   2.328   2.071  1.0241  1.0215  1.5176
 2593SOL    HW219413   1.072   2.202   2.008  0.0231 -1.1390  2.7145
 2594SOL     OW19414   4.372   0.330   9.802  0.1628  0.0689  0.2091
 2594SOL    HW119415   4.294   0.318   9.748 -1.2646  1.1723  2.0669
 2594SOL    HW219416   4.448   0.294   9.754 -0.2114 -0.3858 -0.0490
 2595SOL     OW19417   4.509   4.455  15.935 -0.0329  0.2936  0.4382
 2595SOL    HW119418   4.422   4.483  15.964 -0.8882 -0.9279 -0.9546
 2595SOL    HW219419   4.528   4.513  15.861 -0.3678 -2.0936 -1.4890
 2596SOL     OW19420   1.664   2.976  12.942  0.2242  0.2383 -0.1066
 2596SOL    HW119421   1.571   2.998  12.943  0.5761  1.7579 -2.2815
 2596SOL    HW219422   1.680   2.921  13.020  0.9232  0.3225 -0.1915
 2597SOL     OW19423   2.595   2.204   3.581 -0.4920 -0.3510  0.1607
 2597SOL    HW119424   2.500   2.208   3.593 -0.7112 -0.1426 -1.7373
 2597SOL    HW219425   2.617   2.121   3.623 -5.0795 -0.9776  1.2418
 2598SOL     OW19426   0.505   1.624   6.067 -0.2053  0.0090 -0.0971
 2598SOL    HW119427   0.517   1.538   6.109 -0.8443 -0.4833 -0.9134
 2598SOL    HW219428   0.458   1.596   5.989 -0.4474  0.8608 -0.2524
 2599SOL     OW19429   4.544   2.983   8.516 -0.2989 -0.0815  0.5538
 2599SOL    HW119430   4.589   2.933   8.447  0.5457  1.1990  0.1745
 2599SOL    HW219431   4.600   3.060   8.527  2.2898 -2.0612  1.2056
 2600SOL     OW19432   0.498   2.229   8.581  0.2282  0.0940 -1.6550
 2600SOL    HW119433   0.513   2.138   8.555  0.4868  0.0121 -1.2118
 2600SOL    HW219434   0.436   2.212   8.652 -0.0785 -0.7619 -2.1178
 2601SOL     OW19435   1.230   1.148   9.823  0.0618 -0.7905  0.0254
 2601SOL    HW119436   1.216   1.127   9.915 -0.3773  1.4251  0.4500
 2601SOL    HW219437   1.319   1.183   9.831 -1.4891  2.9094  1.0372
 2602SOL     OW19438   2.555   1.330  13.495 -0.1394  0.3330  0.1239
 2602SOL    HW119439   2.596   1.394  13.552 -0.3157  1.8123 -1.4290
 2602SOL    HW219440   2.565   1.247  13.543 -0.4613  0.3506  0.2212
 2603SOL     OW19441   2.843   4.634   4.235 -0.2133  0.3603  0.2373
 2603SOL    HW119442   2.767   4.576   4.225  1.1384 -1.3687  0.0777
 2603SOL    HW219443   2.912   4.578   4.268 -0.1806  0.5862  0.5510
 2604SOL     OW19444   1.641   1.719  14.377 -0.2895  0.1346  0.4203
 2604SOL    HW119445   1.567   1.761  14.335 -0.6328 -0.7063  0.1848
 2604SOL    HW219446   1.714   1.731  14.316 -0.3138 -1.8230 -0.0029
 2605SOL     OW19447   1.534   1.998   7.440 -0.0711 -0.3119 -0.6905
 2605SOL    HW119448   1.555   2.085   7.475 -0.2887 -2.5704  5.1039
 2605SOL    HW219449   1.626   1.972   7.433  1.2164  3.6827  1.1437
 2606SOL     OW19450   2.267   2.503   5.804 -0.1659 -0.0811 -0.0471
 2606SOL    HW119451   2.289   2.587   5.765 -1.5155  0.3737  0.1862
 2606SOL    HW219452   2.183   2.488   5.761  0.1669 -1.9228 -0.0667
 2607SOL     OW19453   3.605   0.646   8.688  0.1302  0.2038  0.1574
 2607SOL    HW119454   3.623   0.578   8.754  1.0437  0.8829  0.6061
 2607SOL    HW219455   3.519   0.681   8.712 -0.9628 -0.6814 -2.4479
 2608SOL     OW19456   2.456   0.380   1.919  0.4231 -0.2320 -0.0419
 2608SOL    HW119457   2.431   0.322   1.847 -1.4054 -0.8204  1.0802
 2608SOL    HW219458   2.370   0.405   1.951  0.1423  0.6845 -1.5209
 2609SOL     OW19459   0.347   2.369  16.742 -0.3300  0.8306  0.1538
 2609SOL    HW119460   0.318   2.325  16.822 -0.7280  0.2945 -0.2829
 2609SOL    HW219461   0.355   2.460  16.769  0.3595  0.7311  0.2886
 2610SOL     OW19462   2.719   0.471   9.139 -0.1815 -0.3502  0.2094
 2610SOL    HW119463   2.776   0.410   9.186 -0.2597 -2.0965 -1.9540
 2610SOL    HW219464   2.715   0.542   9.202 -0.5152  1.0742 -1.4201
 2611SOL     OW19465   0.452   1.399   4.502  1.1077  0.9002  0.0869
 2611SOL    HW119466   0.452   1.304   4.511 -0.5740  0.6520 -2.6956
 2611SOL    HW219467   0.492   1.414   4.417 -0.5253 -1.1376 -1.0397
 2612SOL     OW19468   2.470   2.886   2.753 -0.0391 -0.3531  0.1017
 2612SOL    HW119469   2.461   2.925   2.840 -2.7367  0.2771 -0.4474
 2612SOL    HW219470   2.421   2.949   2.700 -2.1858 -0.9814  1.3050
 2613SOL     OW19471   0.627   0.875   4.162 -0.2870 -0.5859  0.2309
 2613SOL    HW119472   0.715   0.837   4.166 -0.0365 -0.0686 -0.4600
 2613SOL    HW219473   0.602   0.864   4.070  0.3374 -2.8736  0.3428
 2614SOL     OW19474   4.319   1.878   7.306  0.2765 -0.0673 -0.1450
 2614SOL    HW119475   4.343   1.907   7.218  0.5522 -1.1933 -0.4384
 2614SOL    HW219476   4.243   1.824   7.285 -1.5487  1.7251  1.7469
 2615SOL     OW19477   0.050   3.288  13.291 -0.6589 -0.8721 -0.6272
 2615SOL    HW119478   0.101   3.248  13.362  2.9397 -0.5005 -3.0577
 2615SOL    HW219479   0.120   3.281  13.226  0.5924  0.5942  0.5687
 2616SOL     OW19480   3.117   4.375   1.645 -0.1853 -0.5326 -0.1217
 2616SOL    HW119481   3.190   4.314   1.635  0.3044  0.1423 -0.7053
 2616SOL    HW219482   3.081   4.383   1.557  0.3310 -0.7583 -0.3502
 2617SOL     OW19483   0.663   0.654   9.745 -0.1378  0.0440 -0.1331
 2617SOL    HW119484   0.660   0.685   9.836  0.1595  0.3212 -0.2145
 2617SOL    HW219485   0.607   0.578   9.756  1.9730 -1.4847  0.1106
 2618SOL     OW19486   1.751   3.286  15.827  0.0232  0.3613 -0.7054
 2618SOL    HW119487   1.724   3.287  15.735  1.5429 -0.5987 -1.1695
 2618SOL    HW219488   1.824   3.345  15.810  2.1102 -1.9205  0.3082
 2619SOL     OW19489   4.669   0.204   4.152  0.2342  0.0713  0.2229
 2619SOL    HW119490   4.578   0.174   4.148 -0.0080  0.7498  0.5633
 2619SOL    HW219491   4.679   0.273   4.087 -1.0604 -0.6416 -0.7339
 2620SOL     OW19492   4.315   0.390   5.461  0.3731 -0.2323 -0.6322
 2620SOL    HW119493   4.337   0.359   5.549  2.0595  0.8919 -0.6394
 2620SOL    HW219494   4.304   0.308   5.413 -0.8268 -0.1214 -0.5474
 2621SOL     OW19495   2.584   3.726   2.386 -0.0395  0.0436  1.3353
 2621SOL    HW119496   2.512   3.788   2.387  0.6053  0.8216 -0.4657
 2621SOL    HW219497   2.654   3.791   2.388  2.4264 -2.5583  0.3715
 2622SOL     OW19498   2.941   2.434   8.460 -0.4176 -0.8327  0.0163
 2622SOL    HW119499   2.923   2.495   8.389  1.4989 -1.0663 -0.6701
 2622SOL    HW219500   2.852   2.412   8.486 -0.4420 -1.5519 -0.6839
 2623SOL     OW19501   4.685   1.100  11.037  0.1610  0.7068  0.1625
 2623SOL    HW119502   0.008   1.099  10.965  0.9530  0.8317  0.8621
 2623SOL    HW219503   4.671   1.194  11.031 -0.9281  0.5178 -0.4665
 2624SOL     OW19504   3.684   3.975   6.808  0.7312  0.1597  0.2208
 2624SOL    HW119505   3.659   3.891   6.769 -0.3455  0.7207 -0.2618
 2624SOL    HW219506   3.768   3.946   6.845  0.9722 -2.3814 -2.3481
 2625SOL     OW19507   2.372   0.875   4.548  0.1980  0.3344  0.1763
 2625SOL    HW119508   2.362   0.949   4.488 -2.0252 -1.4379 -1.6290
 2625SOL    HW219509   2.346   0.916   4.630 -0.6722  1.4770 -0.6641
 2626SOL     OW19510   2.072   2.883   5.551  0.0578 -0.2416 -0.1360
 2626SOL    HW119511   2.156   2.887   5.505  0.3981  1.5857  0.6479
 2626SOL    HW219512   2.009   2.833   5.501 -0.6834 -0.9016  1.4753
 2627SOL     OW19513   0.779   0.541   3.307 -0.7684 -0.0447  0.8531
 2627SOL    HW119514   0.859   0.593   3.308 -0.0649 -1.0803 -0.3660
 2627SOL    HW219515   0.813   0.460   3.267 -2.4766 -0.0777 -0.5447
 2628SOL     OW19516   4.005   4.304   3.051 -0.2707  0.9378 -0.0081
 2628SOL    HW119517   3.963   4.388   3.067 -0.0304  1.1015 -0.2316
 2628SOL    HW219518   3.957   4.253   3.116 -0.6388  0.8444 -0.3499
 2629SOL     OW19519   4.481   2.191   1.017 -0.5741 -0.5784  0.1887
 2629SOL    HW119520   4.555   2.247   0.994 -0.6244 -1.4376 -2.1052
 2629SOL    HW219521   4.426   2.208   0.940  0.2930 -0.0664 -0.3195
 2630SOL     OW19522   2.156   4.209  12.272 -0.5648 -0.1510  0.4192
 2630SOL    HW119523   2.141   4.130  12.323  1.9042  0.1747  1.6733
 2630SOL    HW219524   2.251   4.215  12.282 -0.8630  0.3212  2.7980
 2631SOL     OW19525   3.099   1.311   6.229 -0.2453  0.2504  0.0486
 2631SOL    HW119526   3.096   1.383   6.167  1.3195 -0.4879 -0.9022
 2631SOL    HW219527   3.095   1.356   6.313 -2.1358  0.6481 -0.2635
 2632SOL     OW19528   0.170   0.869   8.116  0.2422  0.3582 -0.8945
 2632SOL    HW119529   0.106   0.838   8.052  1.4490  0.2588 -2.0658
 2632SOL    HW219530   0.135   0.957   8.133 -0.1506  0.4370 -2.0595
 2633SOL     OW19531   3.392   2.757  10.319  0.1331  0.3688  0.0180
 2633SOL    HW119532   3.426   2.673  10.288  3.0923  2.0912 -1.3695
 2633SOL    HW219533   3.329   2.779  10.252  2.2624  1.1021 -1.7361
 2634SOL     OW19534   1.778   0.172  13.464  0.4659 -0.3862 -0.0384
 2634SOL    HW119535   1.823   0.174  13.549 -1.3954 -2.2034  0.9791
 2634SOL    HW219536   1.795   0.084  13.430 -1.2137 -1.3038  1.5120
 2635SOL     OW19537   0.983   4.024   6.802  0.2472  0.1229 -0.2081
 2635SOL    HW119538   0.916   3.964   6.770  0.2626  0.2780 -0.5328
 2635SOL    HW219539   1.024   4.056   6.722  1.1501  1.4138  0.7492
 2636SOL     OW19540   0.243   2.665   7.516  0.1452  0.8695 -0.2032
 2636SOL    HW119541   0.194   2.730   7.465  1.5117  0.3622 -2.1399
 2636SOL    HW219542   0.325   2.680   7.468  0.7669  1.6898  1.1117
 2637SOL     OW19543   2.519   1.159   2.405 -0.3113  0.8984  0.0589
 2637SOL    HW119544   2.539   1.218   2.478 -1.1307  1.2587 -0.0115
 2637SOL    HW219545   2.569   1.205   2.337  1.9674 -0.0482  1.0670
 2638SOL     OW19546   4.624   0.335  10.878  0.3707  0.1103 -0.4554
 2638SOL    HW119547   4.692   0.326  10.812  0.3981 -2.4135 -0.0871
 2638SOL    HW219548   4.673   0.384  10.944  1.2344  0.1633 -1.1435
 2639SOL     OW19549   2.070   4.256   6.562 -0.2275 -0.4778  0.0079
 2639SOL    HW119550   2.127   4.187   6.595  0.4143 -0.3840 -0.9150
 2639SOL    HW219551   2.137   4.324   6.562 -2.1751  1.4468  2.2639
 2640SOL     OW19552   2.132   0.957   3.900 -0.0273  0.5396 -0.2760
 2640SOL    HW119553   2.153   0.994   3.986 -0.6026  1.3751 -0.4920
 2640SOL    HW219554   2.036   0.965   3.901 -0.1620 -1.0084 -1.3286
 2641SOL     OW19555   2.905   2.551  16.743 -0.1014 -0.0223 -0.1609
 2641SOL    HW119556   2.955   2.633  16.738 -0.3943 -0.0281 -3.1340
 2641SOL    HW219557   2.940   2.497  16.672 -0.3692  0.5418 -0.7292
 2642SOL     OW19558   1.406   1.709   2.436  0.3692 -0.4707  0.0572
 2642SOL    HW119559   1.353   1.672   2.506  0.7377 -1.1981 -0.0441
 2642SOL    HW219560   1.485   1.730   2.485  2.0176 -0.4983 -2.6116
 2643SOL     OW19561   3.702   0.095  15.894  0.1781 -0.2744  0.0343
 2643SOL    HW119562   3.613   0.060  15.883  0.2065 -0.3256 -0.0319
 2643SOL    HW219563   3.749   0.047  15.826  2.1974  0.6301  0.7762
 2644SOL     OW19564   0.475   0.849   3.663  0.1448  0.0734  0.1444
 2644SOL    HW119565   0.521   0.880   3.585  0.4958  0.2659  0.4274
 2644SOL    HW219566   0.383   0.863   3.641 -0.1880 -2.4250 -0.0341
 2645SOL     OW19567   1.638   1.419  16.098 -0.2361 -0.2469 -0.0305
 2645SOL    HW119568   1.589   1.348  16.140  0.6851 -0.1193  1.2735
 2645SOL    HW219569   1.729   1.412  16.127  0.2120  1.8221 -0.9420
 2646SOL     OW19570   3.948   4.075   3.926  0.7619 -0.4732 -0.3789
 2646SOL    HW119571   3.911   4.149   3.974 -2.4867 -3.1366  1.2187
 2646SOL    HW219572   3.981   4.121   3.848  0.2780  0.5443  0.0121
 2647SOL     OW19573   3.588   1.349  13.203 -0.1955 -0.0317  0.0635
 2647SOL    HW119574   3.626   1.265  13.178  0.3209  0.3621 -0.4724
 2647SOL    HW219575   3.505   1.346  13.155 -0.6120  0.7077  0.7242
 2648SOL     OW19576   0.774   4.502  14.583  0.2069 -0.3817  0.1194
 2648SOL    HW119577   0.684   4.476  14.562  0.6746 -0.5600 -1.6807
 2648SOL    HW219578   0.770   4.557  14.661 -0.2867  0.5850 -0.5954
 2649SOL     OW19579   4.102   3.180  10.694  0.2196  0.8158 -0.7845
 2649SOL    HW119580   4.106   3.176  10.599 -1.4051 -2.4329 -0.7147
 2649SOL    HW219581   4.183   3.142  10.728 -0.2880  0.2991 -0.1589
 2650SOL     OW19582   2.909   3.560   9.712  0.4944 -0.0694 -0.8223
 2650SOL    HW119583   2.907   3.548   9.807 -2.8123  0.2964 -0.8509
 2650SOL    HW219584   2.817   3.581   9.696  0.5290  1.6287  1.2648
 2651SOL     OW19585   3.542   0.101   3.527 -0.0105 -0.0774  0.1040
 2651SOL    HW119586   3.550   0.185   3.572  1.1594 -0.2567  0.2485
 2651SOL    HW219587   3.634   0.079   3.512 -0.1948  0.1238 -1.3257
 2652SOL     OW19588   3.278   0.714  11.571  0.2474 -0.6179  0.1154
 2652SOL    HW119589   3.200   0.720  11.626  0.8804  0.4404  0.9046
 2652SOL    HW219590   3.281   0.801  11.532 -1.1021 -0.0096  1.4000
 2653SOL     OW19591   4.218   0.625   2.652  0.3563  0.2896  0.3161
 2653SOL    HW119592   4.242   0.639   2.743  0.9670  0.1408  0.1755
 2653SOL    HW219593   4.223   0.713   2.614  1.0956  0.7730  1.5211
 2654SOL     OW19594   4.124   2.293   3.791  0.0935 -0.4792 -0.4402
 2654SOL    HW119595   4.125   2.199   3.810 -1.7721 -0.3726  0.2181
 2654SOL    HW219596   4.111   2.297   3.697  3.3175 -0.9954 -0.9164
 2655SOL     OW19597   0.029   1.983   0.880  0.2187 -0.0387 -0.5910
 2655SOL    HW119598   0.114   1.945   0.904 -0.8014 -1.7671  0.2875
 2655SOL    HW219599   0.049   2.004   0.789  1.1289  1.5931 -0.0158
 2656SOL     OW19600   3.642   2.789   8.018  0.0223  0.2672  0.0712
 2656SOL    HW119601   3.609   2.789   8.108 -1.5468  1.1086 -0.5044
 2656SOL    HW219602   3.558   2.774   7.974 -0.2381  1.2566  0.2198
 2657SOL     OW19603   1.533   3.767   8.728  0.0065 -0.1342 -0.0730
 2657SOL    HW119604   1.461   3.728   8.676 -0.8679  1.1377  0.1853
 2657SOL    HW219605   1.607   3.719   8.691  0.2656  0.7068 -0.6253
 2658SOL     OW19606   0.121   3.109   3.864 -0.1477 -0.7454 -0.1097
 2658SOL    HW119607   0.101   3.100   3.957  2.7244 -3.1359  0.3034
 2658SOL    HW219608   0.109   3.018   3.836 -0.7962 -0.2660 -1.3840
 2659SOL     OW19609   0.132   2.517  17.606  1.1431 -0.7527 -0.2993
 2659SOL    HW119610   0.081   2.453  17.557 -1.1106  0.3822  0.5623
 2659SOL    HW219611   0.217   2.473  17.605  2.3263  1.5059  0.2165
 2660SOL     OW19612   2.457   2.235   0.955  0.1226  0.2276 -0.9968
 2660SOL    HW119613   2.466   2.294   0.880  0.8711  0.7966 -0.4566
 2660SOL    HW219614   2.475   2.300   1.023 -3.7966 -0.4178  0.6338
 2661SOL     OW19615   0.418   4.587   2.624 -0.2765 -0.4085 -0.4631
 2661SOL    HW119616   0.452   4.497   2.620  2.0326  0.4280  0.2083
 2661SOL    HW219617   0.347   4.585   2.688 -1.8735  0.5946 -2.2038
 2662SOL     OW19618   2.784   0.313   1.135  0.1813 -0.5997  0.2277
 2662SOL    HW119619   2.862   0.258   1.128  0.3070 -0.6833  2.0995
 2662SOL    HW219620   2.732   0.304   1.056 -1.5361 -1.1027  1.4009
 2663SOL     OW19621   1.603   2.160  14.114  0.6970  0.0319  0.0970
 2663SOL    HW119622   1.520   2.190  14.150  1.3585  3.2947 -1.0824
 2663SOL    HW219623   1.661   2.205  14.176  1.3143  0.8250 -1.0613
 2664SOL     OW19624   4.198   2.524   0.532  0.5780 -0.0725 -0.0724
 2664SOL    HW119625   4.188   2.429   0.527 -0.2860 -0.1590  3.9109
 2664SOL    HW219626   4.282   2.530   0.487 -0.4669  0.3367 -2.0175
 2665SOL     OW19627   1.465   2.684   3.802  0.2680 -0.4328  0.4306
 2665SOL    HW119628   1.512   2.603   3.783  1.7916  0.8322 -1.1648
 2665SOL    HW219629   1.451   2.668   3.895 -0.8139 -3.9535 -0.3524
 2666SOL     OW19630   1.577   0.732   3.311  0.3948  0.1713  0.6222
 2666SOL    HW119631   1.580   0.646   3.353  0.0674  0.5621  1.4636
 2666SOL    HW219632   1.668   0.755   3.296  0.5987  0.2065  1.9047
 2667SOL     OW19633   0.458   4.185   2.952  0.4063 -0.6492  0.5598
 2667SOL    HW119634   0.506   4.267   2.940  0.7065 -0.7676  0.9297
 2667SOL    HW219635   0.436   4.205   3.043 -1.3877  1.2350 -0.2883
 2668SOL     OW19636   2.670   3.311  13.470 -0.0284 -0.0325  0.0420
 2668SOL    HW119637   2.592   3.304  13.525  0.0995  1.8426  0.4678
 2668SOL    HW219638   2.695   3.224  13.439 -1.4381 -1.1225  2.0266
 2669SOL     OW19639   0.058   0.111  13.082  0.9023  0.2523  0.1823
 2669SOL    HW119640   0.116   0.126  13.157  1.9445 -1.6994 -0.2232
 2669SOL    HW219641   0.016   0.197  13.086  0.5592  0.0766  0.3388
 2670SOL     OW19642   1.435   3.377   4.266  0.0946 -0.0416 -0.3903
 2670SOL    HW119643   1.473   3.319   4.332  0.6776  0.7283 -0.0558
 2670SOL    HW219644   1.512   3.403   4.216 -0.1420  0.1824 -0.6464
 2671SOL     OW19645   3.190   3.723  10.648  0.0936  0.2390  0.4635
 2671SOL    HW119646   3.182   3.813  10.679 -0.8866  1.5351 -3.5820
 2671SOL    HW219647   3.109   3.735  10.598 -0.0512 -1.5009  0.2983
 2672SOL     OW19648   0.383   1.587   9.292 -0.2054  0.2032 -0.3367
 2672SOL    HW119649   0.372   1.672   9.334  1.1978 -0.2566  0.9639
 2672SOL    HW219650   0.386   1.521   9.361  0.5357  2.4377  1.7540
 2673SOL     OW19651   0.318   3.022   8.786 -0.3903 -0.2230 -0.4241
 2673SOL    HW119652   0.361   3.019   8.701 -0.2537 -0.0537 -0.3591
 2673SOL    HW219653   0.385   3.017   8.853  0.7326  0.2175 -1.5240
 2674SOL     OW19654   3.311   1.863   7.369 -0.6849 -0.1441 -0.4005
 2674SOL    HW119655   3.379   1.905   7.317  1.3068 -1.8721  0.8042
 2674SOL    HW219656   3.342   1.773   7.358 -1.7161 -0.5331 -0.1486
 2675SOL     OW19657   3.206   1.383   2.622 -0.2517 -0.2946  0.6988
 2675SOL    HW119658   3.112   1.367   2.619 -0.5459  1.5021 -0.4507
 2675SOL    HW219659   3.231   1.353   2.534 -0.8069 -1.5384  0.9692
 2676SOL     OW19660   3.897   0.793   4.131 -0.2297 -0.2906 -0.3863
 2676SOL    HW119661   3.828   0.818   4.069  0.3727 -3.4832 -2.3626
 2676SOL    HW219662   3.919   0.880   4.162 -2.4707  0.5027 -1.0297
 2677SOL     OW19663   2.304   0.618   4.875  0.2193 -0.4925 -0.2814
 2677SOL    HW119664   2.395   0.638   4.896 -0.4169  0.8066  1.2066
 2677SOL    HW219665   2.259   0.675   4.937  1.1600  0.3708 -0.3973
 2678SOL     OW19666   2.505   2.574   1.676  0.1085 -0.5430  0.3215
 2678SOL    HW119667   2.462   2.646   1.631 -1.2941 -1.0036  0.9027
 2678SOL    HW219668   2.443   2.562   1.748  1.4917  1.4322  1.8582
 2679SOL     OW19669   1.333   1.924   6.116  0.5172 -0.4974 -0.7405
 2679SOL    HW119670   1.370   1.838   6.095  1.7619  0.2677 -1.6384
 2679SOL    HW219671   1.344   1.975   6.036  0.4421  1.0601  0.2358
 2680SOL     OW19672   1.947   1.860   3.129 -0.4304  0.0747  0.1242
 2680SOL    HW119673   1.960   1.893   3.040  0.5644 -2.3437 -0.6267
 2680SOL    HW219674   1.887   1.788   3.112  0.3679 -0.7537  0.7996
 2681SOL     OW19675   4.655   1.463   3.456 -0.0651  1.0708 -0.0886
 2681SOL    HW119676   4.721   1.485   3.391  2.0412 -2.7664  0.7269
 2681SOL    HW219677   4.622   1.378   3.427 -1.9279  1.9473 -0.5220
 2682SOL     OW19678   1.219   0.422   5.016 -0.0650  0.0281  0.1958
 2682SOL    HW119679   1.279   0.484   5.058 -1.7383  0.8906  1.2764
 2682SOL    HW219680   1.206   0.366   5.092 -2.2371 -1.5103 -1.3131
 2683SOL     OW19681   3.631   2.424  11.746 -0.1136 -0.2704 -0.3922
 2683SOL    HW119682   3.644   2.464  11.832 -1.6757 -0.9362  0.1617
 2683SOL    HW219683   3.685   2.486  11.697 -0.6090  0.6057  0.1632
 2684SOL     OW19684   0.325   2.306  11.171 -0.3924  0.2344  0.4041
 2684SOL    HW119685   0.257   2.277  11.232 -0.4372  0.4727  0.4642
 2684SOL    HW219686   0.397   2.271  11.224  0.1756  0.2894 -0.3355
 2685SOL     OW19687   2.967   1.970  17.200 -0.5084  0.2969  0.0652
 2685SOL    HW119688   2.891   2.028  17.205 -0.7035 -0.1881  2.7345
 2685SOL    HW219689   2.971   1.938  17.110 -0.3036  0.8632 -0.1301
 2686SOL     OW19690   0.541   1.760   6.840 -0.0124  0.1544 -0.1936
 2686SOL    HW119691   0.632   1.770   6.813  0.0449  2.0263  0.7045
 2686SOL    HW219692   0.534   1.673   6.880 -1.4209  0.3153 -0.0808
 2687SOL     OW19693   0.978   2.568   6.466  0.7793 -0.4193  0.8702
 2687SOL    HW119694   0.953   2.653   6.429  1.8646  0.0473  1.2086
 2687SOL    HW219695   0.895   2.521   6.461 -0.0252  1.1645 -0.7323
 2688SOL     OW19696   1.069   2.230   2.961 -0.2385 -0.5574 -0.5654
 2688SOL    HW119697   0.996   2.174   2.936 -0.0289 -0.8266 -0.5709
 2688SOL    HW219698   1.015   2.304   2.988 -1.0587 -1.6358  0.7592
 2689SOL     OW19699   4.586   4.155   1.330 -0.3160  0.2521 -0.4913
 2689SOL    HW119700   4.522   4.218   1.364 -0.2196 -1.3905  2.6994
 2689SOL    HW219701   4.652   4.212   1.292  0.6702 -0.1273  0.6668
 2690SOL     OW19702   1.724   0.409   3.115  0.5928 -0.1866  0.5045
 2690SOL    HW119703   1.779   0.381   3.189 -0.9306 -2.1938  0.8750
 2690SOL    HW219704   1.724   0.334   3.056  0.5482 -0.2617  0.5998
 2691SOL     OW19705   0.096   2.848   5.420  0.0323 -0.1687  0.6881
 2691SOL    HW119706   0.008   2.817   5.438  1.1199 -2.7901  1.4482
 2691SOL    HW219707   0.093   2.944   5.428 -1.7842 -0.3894  2.7498
 2692SOL     OW19708   0.777   1.192   2.091  0.7129 -0.7716  0.7821
 2692SOL    HW119709   0.733   1.156   2.014  0.7725  1.6001 -0.3688
 2692SOL    HW219710   0.749   1.284   2.089 -1.6066 -1.4897 -0.1175
 2693SOL     OW19711   4.158   2.027   3.447 -0.4384  0.2553 -0.4797
 2693SOL    HW119712   4.181   1.934   3.445 -3.6900 -0.4829 -3.2498
 2693SOL    HW219713   4.246   2.056   3.472 -0.9759 -0.4611  2.2522
 2694SOL     OW19714   4.104   0.978  16.739 -0.0533 -0.4336  0.1994
 2694SOL    HW119715   4.128   0.943  16.654 -0.1596  0.9643 -0.4028
 2694SOL    HW219716   4.015   1.009  16.719  0.9108  1.0193 -1.6859
 2695SOL     OW19717   2.489   3.198   8.764 -0.3674  0.2001  0.0109
 2695SOL    HW119718   2.416   3.240   8.809 -0.2905 -1.3237  1.5711
 2695SOL    HW219719   2.489   3.108   8.797 -0.3597  0.8699  1.8103
 2696SOL     OW19720   4.486   3.161  10.855  0.2988  0.4070  0.7450
 2696SOL    HW119721   4.439   3.106  10.918 -0.3419  0.8614  0.6623
 2696SOL    HW219722   4.497   3.096  10.786  0.4602  0.3716  0.8020
 2697SOL     OW19723   4.693   3.018   2.979 -0.1116  0.6619 -0.0626
 2697SOL    HW119724   4.652   3.065   2.907 -0.7234  0.6901  0.3060
 2697SOL    HW219725   4.738   3.100   3.001  0.8515  0.4145 -1.1141
 2698SOL     OW19726   1.827   0.430  15.148  0.2884  0.2294  0.3316
 2698SOL    HW119727   1.777   0.416  15.068 -1.4150  1.0183  1.2504
 2698SOL    HW219728   1.818   0.346  15.194  0.5925 -1.0214 -1.9150
 2699SOL     OW19729   3.225   1.680   3.202 -0.2980  0.5967 -0.2630
 2699SOL    HW119730   3.229   1.584   3.203  0.5134  0.6272 -0.5378
 2699SOL    HW219731   3.130   1.690   3.213 -0.5725 -2.8029  0.3086
 2700SOL     OW19732   3.610   4.441   1.998 -0.3021  0.1103  1.1887
 2700SOL    HW119733   3.600   4.503   2.071 -0.2221  1.1302  0.3236
 2700SOL    HW219734   3.547   4.377   2.029 -0.0122 -0.3619  0.8026
 2701SOL     OW19735   4.317   0.413  11.105  0.2533  0.2090  0.6859
 2701SOL    HW119736   4.298   0.355  11.031 -0.6724  0.8419  0.4257
 2701SOL    HW219737   4.338   0.494  11.058  2.4206 -0.9962 -0.4368
 2702SOL     OW19738   4.048   3.620   1.278 -0.2276 -0.1445 -0.6486
 2702SOL    HW119739   4.102   3.662   1.211  0.2919 -0.7488 -0.6141
 2702SOL    HW219740   4.110   3.609   1.350 -1.0179  0.1647  0.0756
 2703SOL     OW19741   4.035   2.861   4.880 -0.1543  0.0319 -0.0279
 2703SOL    HW119742   4.020   2.781   4.829  0.7042 -0.7606  0.9345
 2703SOL    HW219743   3.957   2.911   4.857 -0.0345 -0.3050 -1.1377
 2704SOL     OW19744   4.491   0.421  16.646 -0.2002 -0.5756  0.3356
 2704SOL    HW119745   4.478   0.484  16.575 -1.8905 -0.7829  0.4614
 2704SOL    HW219746   4.553   0.362  16.603  0.3907  1.2830 -1.4016
 2705SOL     OW19747   0.352   1.003   7.694 -0.5994  0.0014 -0.1008
 2705SOL    HW119748   0.285   0.939   7.719 -0.6541 -0.2784 -0.9385
 2705SOL    HW219749   0.339   1.072   7.759 -1.0474 -0.4214  0.2605
 2706SOL     OW19750   1.476   2.304  12.073 -0.1158  0.4836 -0.1822
 2706SOL    HW119751   1.505   2.276  12.160 -1.2126  0.2690  0.1106
 2706SOL    HW219752   1.438   2.392  12.076 -0.3375  0.4234 -1.3045
 2707SOL     OW19753   2.441   3.640  11.307 -0.0054  0.2703  0.1562
 2707SOL    HW119754   2.375   3.704  11.334 -0.4151 -0.1832  0.2206
 2707SOL    HW219755   2.457   3.596  11.390 -1.9230 -1.3558 -0.3435
 2708SOL     OW19756   3.442   4.373  10.307  0.1295  0.4707 -0.3066
 2708SOL    HW119757   3.500   4.398  10.380 -0.1714  0.9847 -0.2408
 2708SOL    HW219758   3.478   4.418  10.230  0.2364  1.6610  0.4258
 2709SOL     OW19759   0.871   3.251  16.656 -1.1601 -0.2836  0.4951
 2709SOL    HW119760   0.814   3.327  16.644 -0.6429 -0.2942 -2.0487
 2709SOL    HW219761   0.922   3.258  16.575 -1.2656 -1.5780  0.3078
 2710SOL     OW19762   0.207   1.190   6.848 -0.4905  0.5154  0.5583
 2710SOL    HW119763   0.217   1.196   6.943 -2.1504 -2.1687  0.9150
 2710SOL    HW219764   0.112   1.195   6.833 -0.2560 -2.1027 -1.7296
 2711SOL     OW19765   4.273   3.101   4.739  0.3226 -0.0682  0.2938
 2711SOL    HW119766   4.222   3.150   4.675  2.3822  2.1619  0.3378
 2711SOL    HW219767   4.270   3.010   4.709 -2.0351 -0.2128  0.9651
 2712SOL     OW19768   2.725   1.227   5.066 -0.2247  0.0220 -0.4707
 2712SOL    HW119769   2.751   1.269   4.983 -2.2403  2.5273  0.1629
 2712SOL    HW219770   2.813   1.199   5.091  0.6114  2.2493 -0.8958
 2713SOL     OW19771   4.240   3.393  12.832  0.0280 -0.5766  0.1099
 2713SOL    HW119772   4.286   3.351  12.759 -0.4993 -0.0296 -0.5307
 2713SOL    HW219773   4.175   3.328  12.859  0.6068 -0.4304  1.8615
 2714SOL     OW19774   2.047   3.341   8.343 -0.3116  0.0227  0.1692
 2714SOL    HW119775   2.078   3.428   8.318  0.9377 -0.1768  1.0214
 2714SOL    HW219776   2.069   3.301   8.259  1.0579 -0.0392  0.5542
 2715SOL     OW19777   4.332   2.170   5.734 -0.3086 -1.0797 -0.3253
 2715SOL    HW119778   4.366   2.120   5.660  3.4733  1.8120 -0.5564
 2715SOL    HW219779   4.242   2.139   5.723 -0.6721 -0.5139  1.0115
 2716SOL     OW19780   0.798   1.112  11.026 -0.2824  0.6748 -0.3656
 2716SOL    HW119781   0.734   1.164  10.977 -1.3705  0.3573  0.7034
 2716SOL    HW219782   0.771   1.140  11.114 -1.2099  3.3328 -1.4768
 2717SOL     OW19783   0.423   0.515   6.605 -0.4107 -0.4434 -0.0859
 2717SOL    HW119784   0.395   0.497   6.515 -2.2150 -2.2567  0.8316
 2717SOL    HW219785   0.441   0.609   6.600 -1.9520  0.0295  3.0374
 2718SOL     OW19786   2.224   3.986   5.464 -0.3447 -0.1357 -0.2052
 2718SOL    HW119787   2.184   3.964   5.548 -0.7583  3.2279  0.4871
 2718SOL    HW219788   2.159   3.943   5.409  1.8510 -3.0418 -0.5157
 2719SOL     OW19789   4.292   2.319   6.692  0.8315  0.3497  0.0757
 2719SOL    HW119790   4.202   2.348   6.682 -0.0706 -2.3740  0.3618
 2719SOL    HW219791   4.299   2.275   6.607  2.4856 -0.4750  0.6301
 2720SOL     OW19792   4.075   3.047   0.156  0.0509 -0.1516  0.4044
 2720SOL    HW119793   4.027   3.110   0.211 -0.2385  0.8736 -1.0273
 2720SOL    HW219794   4.160   3.040   0.199  0.2022  0.5133  0.2083
 2721SOL     OW19795   2.750   0.031   3.382 -0.0547  0.5257 -0.2346
 2721SOL    HW119796   2.799   4.726   3.450  0.2788 -2.8276 -2.7045
 2721SOL    HW219797   2.813   0.096   3.350 -0.3096  1.0224  0.2873
 2722SOL     OW19798   0.059   3.046  13.655  0.1846 -0.3181  0.3490
 2722SOL    HW119799   4.723   3.022  13.603  1.1160 -0.0746 -1.1552
 2722SOL    HW219800   0.079   2.959  13.687  0.7176  0.0452  1.0062
 2723SOL     OW19801   1.511   2.881   0.299  0.1273 -0.4936  0.6314
 2723SOL    HW119802   1.436   2.892   0.240 -0.5124  1.6601  1.8507
 2723SOL    HW219803   1.573   2.932   0.247 -0.6352 -1.1017 -0.8793
 2724SOL     OW19804   3.338   3.976   9.067  0.1708 -0.5818  0.2477
 2724SOL    HW119805   3.313   3.907   9.128 -1.3017  1.1356  1.5708
 2724SOL    HW219806   3.252   4.008   9.040  0.6301  0.7235  0.3465
 2725SOL     OW19807   4.277   4.718   7.612  0.1739 -0.2099 -0.2764
 2725SOL    HW119808   4.195   0.027   7.604  0.7837  0.9841  0.8597
 2725SOL    HW219809   4.277   4.685   7.702  1.1090  0.9254  0.1500
 2726SOL     OW19810   1.069   3.073   2.760 -0.1731 -0.6789  0.1128
 2726SOL    HW119811   1.104   3.041   2.843 -0.5960  0.7383  0.8187
 2726SOL    HW219812   0.987   3.025   2.754 -0.6415 -0.2792  3.3637
 2727SOL     OW19813   4.312   3.506   9.944 -0.1328 -0.1387  0.2386
 2727SOL    HW119814   4.317   3.424   9.895 -1.2765  0.4697 -0.9276
 2727SOL    HW219815   4.220   3.516   9.970  0.2067 -0.8974  1.6557
 2728SOL     OW19816   1.586   4.647   2.226  0.0393 -0.3774 -0.4563
 2728SOL    HW119817   1.497   4.662   2.259  0.5091  0.1518  0.5893
 2728SOL    HW219818   1.631   4.589   2.287  0.6302 -0.0170 -0.5539
 2729SOL     OW19819   0.371   0.226   6.427 -0.0940  0.5744 -0.0364
 2729SOL    HW119820   0.466   0.229   6.419 -0.2321 -0.1605 -1.8876
 2729SOL    HW219821   0.368   0.158   6.360  1.6907 -1.2589  1.7244
 2730SOL     OW19822   1.840   0.818   2.042  0.0318 -0.3391 -0.0302
 2730SOL    HW119823   1.790   0.761   1.983 -1.2023  1.1117 -0.3831
 2730SOL    HW219824   1.845   0.899   1.991 -2.7231  0.2656  0.6235
 2731SOL     OW19825   1.312   1.545   4.133 -0.0792 -0.1245  0.1983
 2731SOL    HW119826   1.386   1.590   4.174  1.0866  0.5713 -2.6696
 2731SOL    HW219827   1.300   1.596   4.053  0.8535 -3.1421 -1.8906
 2732SOL     OW19828   2.598   1.740  17.288  0.3336  0.4154 -0.8855
 2732SOL    HW119829   2.511   1.764  17.256 -0.3916 -0.3169  0.5182
 2732SOL    HW219830   2.592   1.752  17.383 -0.2184 -1.7902 -0.6509
 2733SOL     OW19831   1.070   2.518  16.426 -0.1861 -0.0425 -0.1106
 2733SOL    HW119832   1.125   2.574  16.481 -0.9661 -0.5454  1.1794
 2733SOL    HW219833   1.017   2.578  16.374 -0.3202 -0.5665 -0.5858
 2734SOL     OW19834   3.005   2.377   3.859  0.4435 -0.3963 -0.0058
 2734SOL    HW119835   3.060   2.452   3.881  0.9546 -1.1641  1.3997
 2734SOL    HW219836   2.958   2.402   3.780  0.0207 -1.2097 -0.0183
 2735SOL     OW19837   4.076   2.837   1.707 -1.1046 -0.1353  0.3295
 2735SOL    HW119838   4.098   2.855   1.615  1.4091 -0.5571  0.8378
 2735SOL    HW219839   4.126   2.911   1.742  0.2007 -1.8017  1.9504
 2736SOL     OW19840   0.863   1.875   6.276  1.0368  0.0799  0.1116
 2736SOL    HW119841   0.820   1.798   6.240  0.3451  1.4411 -1.9956
 2736SOL    HW219842   0.821   1.938   6.218 -0.9888 -0.1447  1.3335
 2737SOL     OW19843   2.688   0.680   5.117 -0.5713 -0.0751 -0.3846
 2737SOL    HW119844   2.748   0.621   5.162 -2.3580  0.1379  2.2306
 2737SOL    HW219845   2.669   0.628   5.039 -0.3120  0.1686 -0.6118
 2738SOL     OW19846   1.635   0.658  10.430 -0.2805 -0.1488 -0.1440
 2738SOL    HW119847   1.675   0.691  10.511  0.9326  0.6474 -1.0691
 2738SOL    HW219848   1.698   0.685  10.364 -0.5508  1.7672  0.3953
 2739SOL     OW19849   3.604   4.217  15.879 -0.0636 -0.0861 -0.1886
 2739SOL    HW119850   3.668   4.274  15.837  1.9374 -2.0580  0.1560
 2739SOL    HW219851   3.565   4.186  15.798  1.2794  0.3634 -1.0141
 2740SOL     OW19852   3.898   4.233   6.953  0.5549 -0.2315  1.0327
 2740SOL    HW119853   3.888   4.149   6.998  0.0026 -0.1782  1.0154
 2740SOL    HW219854   3.883   4.197   6.866  4.2447  1.0263 -0.0781
 2741SOL     OW19855   2.369   4.730  15.531 -0.4054 -0.3681  0.2953
 2741SOL    HW119856   2.397   4.656  15.586  0.9526  0.5825  0.8985
 2741SOL    HW219857   2.329   0.049  15.594  1.1827 -0.5755  1.5093
 2742SOL     OW19858   0.557   0.262   5.105 -0.0892 -0.2718 -0.0743
 2742SOL    HW119859   0.652   0.257   5.106 -0.0739 -0.0478 -0.4750
 2742SOL    HW219860   0.538   0.326   5.173  1.0710 -0.1806  0.1609
 2743SOL     OW19861   3.583   2.845   9.137  0.5151  0.1877 -0.5598
 2743SOL    HW119862   3.571   2.934   9.171  2.6658 -0.2860  1.4246
 2743SOL    HW219863   3.495   2.819   9.109  1.2649 -0.6833 -2.1267
 2744SOL     OW19864   0.097   2.030   9.150  0.3374  0.5496 -0.1589
 2744SOL    HW119865   0.069   2.071   9.233 -1.9423  0.4016 -0.8447
 2744SOL    HW219866   0.109   2.106   9.093  0.0132  0.4919 -0.3027
 2745SOL     OW19867   1.330   3.741  10.152  0.3187  0.2175  0.2925
 2745SOL    HW119868   1.315   3.666  10.209  1.6937  0.0651  0.4497
 2745SOL    HW219869   1.349   3.695  10.070  1.9892  3.9154 -1.3918
 2746SOL     OW19870   4.360   2.259  16.542  0.6909 -0.4624  0.7980
 2746SOL    HW119871   4.421   2.187  16.526 -1.1088 -1.8722  0.3459
 2746SOL    HW219872   4.362   2.281  16.449  0.5157 -1.7162  0.4979
 2747SOL     OW19873   2.669   0.301  15.603  0.1055  0.4958 -0.3079
 2747SOL    HW119874   2.736   0.317  15.670 -2.1928  2.0221  1.5798
 2747SOL    HW219875   2.728   0.270  15.535 -0.8593 -2.8093  0.3526
 2748SOL     OW19876   2.239   2.023   7.028 -0.9014  0.3869  0.1569
 2748SOL    HW119877   2.143   2.018   7.028 -0.8337 -1.1235  2.7730
 2748SOL    HW219878   2.255   2.028   6.934  0.2076 -1.8709  0.2245
 2749SOL     OW19879   0.240   2.192   9.852 -0.5779  0.3517 -0.6964
 2749SOL    HW119880   0.255   2.099   9.869  2.6569  1.1078  0.5019
 2749SOL    HW219881   0.208   2.230   9.935  2.2417  0.9580  0.0957
 2750SOL     OW19882   0.016   3.136  12.356  0.5229  0.5081  0.5651
 2750SOL    HW119883   0.062   3.210  12.316  1.6422 -0.1605  0.6333
 2750SOL    HW219884   0.048   3.060  12.307  1.1523  1.5917 -0.7024
 2751SOL     OW19885   4.720   0.091  16.217 -0.0948 -0.0681  0.3461
 2751SOL    HW119886   0.063   0.127  16.187 -0.4552  1.0929  0.7305
 2751SOL    HW219887   4.667   0.169  16.201  1.0430  0.9812  1.7005
 2752SOL     OW19888   0.331   3.264  11.463 -0.4177 -0.6127  0.4214
 2752SOL    HW119889   0.344   3.313  11.381  1.7598  0.0395  1.1579
 2752SOL    HW219890   0.241   3.282  11.489 -0.6589 -0.3940 -0.5605
 2753SOL     OW19891   2.852   0.906  11.817  0.2673  0.0101  0.0193
 2753SOL    HW119892   2.895   0.988  11.792 -0.5164  0.6755  0.8440
 2753SOL    HW219893   2.776   0.920  11.760  1.3900  1.8480 -0.9974
 2754SOL     OW19894   2.762   1.976   8.518 -0.1737  0.5845 -0.3312
 2754SOL    HW119895   2.715   1.915   8.461  1.1302 -1.6489  1.0249
 2754SOL    HW219896   2.809   1.915   8.574  0.6815 -0.8606 -2.6205
 2755SOL     OW19897   4.324   2.512  14.934 -0.1773 -0.3003 -0.1095
 2755SOL    HW119898   4.400   2.533  14.880 -0.6502  0.3870 -0.5076
 2755SOL    HW219899   4.355   2.449  14.998  5.7544  1.2378 -1.4830
 2756SOL     OW19900   2.067   2.670   1.544  0.1915 -0.1977  1.0270
 2756SOL    HW119901   2.025   2.752   1.522  0.0757 -0.6327 -0.4011
 2756SOL    HW219902   2.149   2.693   1.588 -0.8822  1.8282  1.9267
 2757SOL     OW19903   3.496   3.923   8.464  0.0206 -0.4344 -0.2505
 2757SOL    HW119904   3.463   4.005   8.499  0.2446 -0.6182  0.3999
 2757SOL    HW219905   3.453   3.926   8.379 -0.7069 -0.1469  0.1224
 2758SOL     OW19906   3.097   1.711   6.778  0.5635  0.2259 -0.2129
 2758SOL    HW119907   3.145   1.742   6.701  0.7370  0.7245  0.1030
 2758SOL    HW219908   3.049   1.634   6.746  1.3205  0.8807 -2.9534
 2759SOL     OW19909   4.678   2.679   0.679  0.5001 -0.1040 -0.2838
 2759SOL    HW119910   4.721   2.694   0.763  2.1368 -1.4881 -0.8814
 2759SOL    HW219911   4.709   2.748   0.620 -2.3512 -0.5242 -2.2656
 2760SOL     OW19912   2.682   2.928   2.522  0.2346  0.4907 -0.3578
 2760SOL    HW119913   2.653   2.902   2.609 -0.2039  0.8574 -0.3895
 2760SOL    HW219914   2.637   2.873   2.458 -0.7074 -0.3006  0.9972
 2761SOL     OW19915   1.447   2.528   9.211 -0.2047  0.2266 -0.1259
 2761SOL    HW119916   1.466   2.448   9.161  0.4078  0.2822  0.0153
 2761SOL    HW219917   1.420   2.490   9.294 -2.6247  1.6343 -0.2867
 2762SOL     OW19918   4.232   2.499   1.915 -0.2094 -0.0374  0.1864
 2762SOL    HW119919   4.280   2.484   1.997 -0.5279  0.8600  0.5303
 2762SOL    HW219920   4.249   2.415   1.871 -1.4100 -0.8697  1.2857
 2763SOL     OW19921   3.397   0.454   1.695  0.0155 -0.2190 -0.3580
 2763SOL    HW119922   3.329   0.412   1.748  2.2789  0.3362  2.9138
 2763SOL    HW219923   3.471   0.460   1.755 -0.6975  0.7923  0.4236
 2764SOL     OW19924   3.002   1.210   8.797 -0.0462  0.2638  0.4216
 2764SOL    HW119925   3.026   1.302   8.795 -2.1449  0.7845 -0.7988
 2764SOL    HW219926   2.972   1.197   8.887 -0.2976 -1.0891  0.1495
 2765SOL     OW19927   2.266   3.301   5.452  0.3607  0.1267 -0.0518
 2765SOL    HW119928   2.309   3.387   5.448  0.1389  0.1878 -1.1971
 2765SOL    HW219929   2.276   3.264   5.365 -1.0938  1.3217 -0.7333
 2766SOL     OW19930   1.114   0.813   5.292  0.4629  0.1254 -0.0171
 2766SOL    HW119931   1.171   0.890   5.298  2.4863 -1.3437 -0.5535
 2766SOL    HW219932   1.135   0.790   5.202  2.2742 -0.3553  0.5269
 2767SOL     OW19933   1.420   1.036  13.314 -0.2866 -0.2244  0.9124
 2767SOL    HW119934   1.428   1.022  13.408 -0.2085 -0.3833  0.8831
 2767SOL    HW219935   1.509   1.063  13.292 -0.5063 -0.3362 -0.1257
 2768SOL     OW19936   4.311   3.625   3.185  0.0996  0.6667 -0.1305
 2768SOL    HW119937   4.405   3.639   3.169  0.6657 -2.5948  0.4796
 2768SOL    HW219938   4.291   3.641   3.093  0.1644 -0.6541 -0.3746
 2769SOL     OW19939   2.605   1.967   9.235 -0.3108  0.0904 -0.0010
 2769SOL    HW119940   2.550   1.975   9.313 -1.0347  1.1913 -0.6317
 2769SOL    HW219941   2.698   1.972   9.260 -0.5000  0.5612  0.6206
 2770SOL     OW19942   3.250   2.435   2.480  0.2494  0.3214  0.1928
 2770SOL    HW119943   3.225   2.424   2.388  1.3690  1.1241 -0.2159
 2770SOL    HW219944   3.339   2.401   2.489 -0.2172 -1.7287 -2.7806
 2771SOL     OW19945   2.945   3.318   3.644 -0.5049 -0.3900  0.0243
 2771SOL    HW119946   2.958   3.373   3.721  2.1958 -1.4593  0.3087
 2771SOL    HW219947   2.852   3.331   3.626 -0.8609 -0.6043  1.7003
 2772SOL     OW19948   0.331   4.710   8.253  0.4556  0.3491 -0.6613
 2772SOL    HW119949   0.270   4.638   8.269  0.8699  0.0961 -0.2225
 2772SOL    HW219950   0.290   0.004   8.174  1.7036  3.0352 -0.1214
 2773SOL     OW19951   0.621   0.800   6.350 -0.5438 -0.0625  0.4346
 2773SOL    HW119952   0.634   0.717   6.396 -0.6139 -1.4346 -2.0360
 2773SOL    HW219953   0.529   0.807   6.324 -0.3390 -0.6075 -0.4414
 2774SOL     OW19954   3.515   2.275   7.960  0.0065  0.4528  0.2744
 2774SOL    HW119955   3.440   2.272   8.019  1.5799  0.7961  2.2828
 2774SOL    HW219956   3.582   2.304   8.021 -1.2103  1.6274  1.0544
 2775SOL     OW19957   1.331   2.616   6.468 -0.2418 -0.3876  0.0631
 2775SOL    HW119958   1.326   2.685   6.402  1.1437 -1.7778 -1.4848
 2775SOL    HW219959   1.423   2.620   6.493 -0.3876  0.2440  0.5007
 2776SOL     OW19960   3.853   1.261   5.913  0.4317  0.2020  0.4322
 2776SOL    HW119961   3.791   1.239   5.982  2.2915 -0.2352  1.9541
 2776SOL    HW219962   3.839   1.184   5.858 -0.8564  1.8519 -1.5170
 2777SOL     OW19963   4.374   1.005   4.785 -0.5169  0.0626 -0.2755
 2777SOL    HW119964   4.393   0.934   4.846 -1.6565 -0.1197 -0.1329
 2777SOL    HW219965   4.437   0.993   4.714 -0.2331 -0.3610  0.0456
 2778SOL     OW19966   2.083   3.584   4.079  0.5906 -0.1752  0.1815
 2778SOL    HW119967   2.139   3.507   4.070  0.1805 -0.3846 -0.5129
 2778SOL    HW219968   2.091   3.598   4.174 -2.0071 -0.0275  0.3818
 2779SOL     OW19969   4.031   4.177   5.311  0.0698  0.2434 -0.3007
 2779SOL    HW119970   3.987   4.171   5.396 -2.3303  0.4890 -1.5201
 2779SOL    HW219971   4.118   4.139   5.321  0.3502  0.8502 -0.4903
 2780SOL     OW19972   2.887   3.195  16.284 -0.0281 -0.5578 -0.3190
 2780SOL    HW119973   2.897   3.100  16.290 -3.1846 -0.8037  1.1670
 2780SOL    HW219974   2.793   3.195  16.264  0.1236  0.1773 -1.0284
 2781SOL     OW19975   0.036   1.583  13.117 -0.1763  0.4243 -0.5942
 2781SOL    HW119976   0.004   1.516  13.057  1.9565 -0.7151 -0.4725
 2781SOL    HW219977   4.740   1.662  13.078 -0.7322 -0.3838 -1.6978
 2782SOL     OW19978   1.110   0.304  14.705  0.3701  0.0674  0.0870
 2782SOL    HW119979   1.163   0.375  14.739 -0.7231  0.6948  0.4626
 2782SOL    HW219980   1.136   0.313  14.613 -0.1180 -1.1160 -0.1708
 2783SOL     OW19981   2.382   0.779   6.805 -0.1259  0.0016  0.0099
 2783SOL    HW119982   2.305   0.749   6.756 -0.0633  0.0137 -0.0961
 2783SOL    HW219983   2.333   0.809   6.882  0.2741  1.0631 -0.1503
 2784SOL     OW19984   3.774   2.498  10.353  0.3020  0.3002  0.4511
 2784SOL    HW119985   3.787   2.551  10.432 -1.3989  0.9761  0.2834
 2784SOL    HW219986   3.747   2.568  10.293 -0.3660 -0.3467  0.0061
 2785SOL     OW19987   2.170   1.773   9.011 -0.6778  0.5021  0.4311
 2785SOL    HW119988   2.202   1.687   9.038  2.7232  0.7285 -3.0356
 2785SOL    HW219989   2.219   1.828   9.072  1.9899  1.1139 -2.2555
 2786SOL     OW19990   3.116   3.142   7.063 -0.3819 -0.3528 -0.0681
 2786SOL    HW119991   3.058   3.200   7.014 -1.5799 -2.6892 -1.3752
 2786SOL    HW219992   3.061   3.098   7.129  0.7337  3.4195  3.3825
 2787SOL     OW19993   0.206   2.670   2.633  0.1973  0.1222  0.3068
 2787SOL    HW119994   0.226   2.757   2.667 -2.6688  0.3920  1.2270
 2787SOL    HW219995   0.114   2.673   2.609  0.1154  0.4822  0.6688
 2788SOL     OW19996   3.088   3.632   2.081  0.8702  0.1066 -0.2304
 2788SOL    HW119997   3.036   3.708   2.107  0.4167 -0.4485  0.4702
 2788SOL    HW219998   3.142   3.607   2.156 -0.9104  1.8462  1.6192
 2789SOL     OW19999   2.837   1.829   6.833 -0.3513  0.3199  0.2271
 2789SOL    HW120000   2.927   1.799   6.816 -0.0641  1.2462  0.1147
 2789SOL    HW220001   2.778   1.754   6.835  0.5957 -0.3713  2.0149
 2790SOL     OW20002   3.183   1.132   5.750 -0.9574  0.6450 -0.0702
 2790SOL    HW120003   3.219   1.063   5.806  2.6207  1.0400 -1.8611
 2790SOL    HW220004   3.262   1.176   5.716 -1.6957 -0.7191 -3.5661
 2791SOL     OW20005   2.204   3.732   2.146  0.0051  0.1639 -0.0766
 2791SOL    HW120006   2.234   3.684   2.069 -1.1337  0.4071 -0.6764
 2791SOL    HW220007   2.116   3.694   2.144 -0.1611  0.4927  1.1204
 2792SOL     OW20008   0.323   2.489   3.842  0.3059  0.5658 -0.4618
 2792SOL    HW120009   0.383   2.538   3.786 -0.9568  0.8654 -1.5471
 2792SOL    HW220010   0.249   2.484   3.781 -0.6294  0.3297  0.6780
 2793SOL     OW20011   2.624   3.713  11.929 -0.1644  0.4365  0.3577
 2793SOL    HW120012   2.546   3.754  11.892 -1.2522 -0.3180  1.8420
 2793SOL    HW220013   2.697   3.773  11.913  0.2630 -0.0210  0.6001
 2794SOL     OW20014   4.446   0.699   3.817 -0.3223  0.3738 -0.2051
 2794SOL    HW120015   4.373   0.760   3.802  0.2676  1.0824 -0.1747
 2794SOL    HW220016   4.426   0.634   3.749 -0.7391 -0.6000  0.8593
 2795SOL     OW20017   0.270   3.515  16.598 -0.4208  0.4451 -0.0334
 2795SOL    HW120018   0.252   3.482  16.510  0.7457  0.8873 -0.4335
 2795SOL    HW220019   0.330   3.451  16.637 -1.1519 -0.2330 -0.0102
 2796SOL     OW20020   0.899   1.094   4.383  0.1939 -0.3649 -0.0710
 2796SOL    HW120021   0.983   1.050   4.395  0.4389 -0.4672 -2.2653
 2796SOL    HW220022   0.914   1.152   4.309 -0.0951 -1.1704 -0.7578
 2797SOL     OW20023   0.625   3.070   4.926 -0.1028 -0.4320 -0.0277
 2797SOL    HW120024   0.676   3.103   4.851  1.8033 -2.9599  0.1576
 2797SOL    HW220025   0.677   2.994   4.953 -1.2991 -1.4006 -0.4690
 2798SOL     OW20026   2.205   2.119  13.494  0.3444 -0.8522  0.4214
 2798SOL    HW120027   2.192   2.171  13.573  2.9272 -1.8479  1.5018
 2798SOL    HW220028   2.242   2.183  13.433 -1.0217  0.2224  0.7126
 2799SOL     OW20029   0.851   3.831  12.570  0.4563 -0.4628  0.6473
 2799SOL    HW120030   0.915   3.760  12.566 -0.7523 -1.3911 -2.8747
 2799SOL    HW220031   0.864   3.871  12.656  0.9974 -1.4036  0.9971
 2800SOL     OW20032   2.750   0.104   4.860  0.5203  0.0786 -0.5400
 2800SOL    HW120033   2.688   0.034   4.881 -0.5913  0.4307 -2.7103
 2800SOL    HW220034   2.746   0.158   4.938  1.5094 -1.0708  0.3065
 2801SOL     OW20035   1.176   1.777   5.922 -0.2269  0.0120  0.2812
 2801SOL    HW120036   1.207   1.867   5.939 -1.5111  0.3382  0.8936
 2801SOL    HW220037   1.160   1.742   6.010  0.9167  1.2815  1.0144
 2802SOL     OW20038   0.203   1.144   2.982  0.9895  0.4693 -0.0161
 2802SOL    HW120039   0.174   1.221   2.933  1.5676  1.2948  0.9563
 2802SOL    HW220040   0.285   1.123   2.937  0.0233 -1.1422 -1.0085
 2803SOL     OW20041   0.450   0.315  14.327  0.4416  0.2337  0.3601
 2803SOL    HW120042   0.438   0.410  14.329 -0.5861  0.1146 -0.2934
 2803SOL    HW220043   0.542   0.302  14.350  0.2892 -3.3261 -1.1182
 2804SOL     OW20044   4.714   4.497   8.083  0.0892  0.1497 -0.3519
 2804SOL    HW120045   4.675   4.485   7.997 -0.0147 -3.0567  0.1309
 2804SOL    HW220046   4.661   4.438   8.136  2.4467 -2.0109 -0.3920
 2805SOL     OW20047   0.270   0.011  16.867 -0.0687  0.0804 -0.4917
 2805SOL    HW120048   0.315   0.009  16.952 -1.2836  1.3940  0.1846
 2805SOL    HW220049   0.179   0.032  16.886  0.1081  1.8777 -1.6889
 2806SOL     OW20050   3.848   1.340   9.461 -0.1272  0.0804  0.2439
 2806SOL    HW120051   3.907   1.266   9.474 -0.2372  0.0851  0.7724
 2806SOL    HW220052   3.775   1.286   9.432 -0.8700  0.5702  1.1826
 2807SOL     OW20053   0.014   4.252   5.991  0.1617  0.1361 -0.0732
 2807SOL    HW120054   0.005   4.320   5.924  0.1312  1.2997  1.1079
 2807SOL    HW220055   0.020   4.297   6.075  1.1352 -0.6525  0.2739
 2808SOL     OW20056   2.622   4.547   4.521 -0.6245  0.4337  0.3499
 2808SOL    HW120057   2.635   4.453   4.510  1.0080  0.6952  0.0024
 2808SOL    HW220058   2.704   4.583   4.558 -0.9023 -0.8130  2.1639
 2809SOL     OW20059   2.391   1.468   1.371  0.7843  0.1639 -0.0219
 2809SOL    HW120060   2.354   1.399   1.316 -2.4230  2.8847 -1.2894
 2809SOL    HW220061   2.448   1.512   1.309  2.3173 -3.8511 -1.4482
 2810SOL     OW20062   3.055   3.800   8.824 -0.0202 -0.1966 -0.6029
 2810SOL    HW120063   3.124   3.831   8.765 -0.1708 -0.0349 -0.6932
 2810SOL    HW220064   2.991   3.780   8.755  0.8993  1.0006 -1.8069
 2811SOL     OW20065   4.558   2.970  10.686  0.2543 -0.3123 -0.6069
 2811SOL    HW120066   4.619   2.951  10.615  1.9864 -0.1188  0.8311
 2811SOL    HW220067   4.613   2.960  10.764 -0.6990  0.8878  0.2215
 2812SOL     OW20068   1.381   0.051  12.795 -0.0160 -0.2088  0.0186
 2812SOL    HW120069   1.337   0.136  12.795 -0.2275 -0.3184  1.1451
 2812SOL    HW220070   1.376   0.014  12.883  1.9983 -1.5444 -0.4200
 2813SOL     OW20071   0.147   1.367   4.689 -0.4225  0.1466  0.2753
 2813SOL    HW120072   0.132   1.359   4.595  1.6200 -1.1202  0.0471
 2813SOL    HW220073   0.060   1.390   4.721 -0.7685 -0.9038  0.0736
 2814SOL     OW20074   1.582   2.870   5.132  0.3340  0.0232 -0.0429
 2814SOL    HW120075   1.656   2.848   5.075 -0.1244  0.9902 -1.0054
 2814SOL    HW220076   1.566   2.956   5.093 -2.4953  0.3166  1.7897
 2815SOL     OW20077   1.957   2.052   7.798 -0.2769  0.3539  0.0423
 2815SOL    HW120078   1.929   2.142   7.781 -0.2273  0.5593  1.0814
 2815SOL    HW220079   2.012   2.039   7.721 -0.6512  2.6385 -0.5997
 2816SOL     OW20080   3.484   4.430  16.441 -0.0435 -0.3830 -0.2102
 2816SOL    HW120081   3.513   4.345  16.407 -1.0854 -0.6567 -0.3965
 2816SOL    HW220082   3.532   4.433  16.524  0.4513  3.3566 -0.6202
 2817SOL     OW20083   0.995   1.426   9.058  0.4359 -0.3839 -0.0345
 2817SOL    HW120084   0.950   1.378   9.127  0.1412  0.4897  0.3883
 2817SOL    HW220085   1.047   1.352   9.027  0.2486 -0.3443 -0.4404
 2818SOL     OW20086   2.357   0.761  10.677 -0.3057 -0.0388  0.1807
 2818SOL    HW120087   2.316   0.676  10.662 -0.5025 -0.2339  1.8662
 2818SOL    HW220088   2.354   0.756  10.772  2.0555 -0.5278  0.2224
 2819SOL     OW20089   4.673   4.389   8.878 -0.4694 -0.5343 -0.4371
 2819SOL    HW120090   4.684   4.337   8.957  1.6864 -0.6124 -0.7610
 2819SOL    HW220091   4.636   4.470   8.912 -1.4281 -1.1395 -0.0667
 2820SOL     OW20092   4.616   1.875  12.668 -0.3917  0.0899  0.0342
 2820SOL    HW120093   4.678   1.947  12.661 -0.3876 -0.0321 -1.3393
 2820SOL    HW220094   4.640   1.828  12.587 -1.2431 -0.4088  0.0667
 2821SOL     OW20095   4.380   1.510   8.146  0.4866 -0.4017  0.2848
 2821SOL    HW120096   4.351   1.461   8.223 -0.3336 -3.4526 -1.9628
 2821SOL    HW220097   4.405   1.435   8.092 -1.3913  0.5745 -1.9174
 2822SOL     OW20098   4.016   2.366   2.122  0.0652 -0.4549  0.3758
 2822SOL    HW120099   4.109   2.387   2.132 -0.1085 -0.2856  1.5913
 2822SOL    HW220100   4.016   2.309   2.046  1.9561 -1.7213  1.3364
 2823SOL     OW20101   3.589   0.415   9.661  0.0175  0.3000 -0.3475
 2823SOL    HW120102   3.524   0.349   9.687  0.5589  0.2774  0.9580
 2823SOL    HW220103   3.641   0.421   9.741 -0.8210 -0.3534  0.2518
 2824SOL     OW20104   2.732   3.129   9.321  0.1927  0.2394  0.2283
 2824SOL    HW120105   2.670   3.194   9.287  0.5046  1.1589  1.4222
 2824SOL    HW220106   2.777   3.171   9.395  1.0570  0.4557 -0.4294
 2825SOL     OW20107   2.882   1.397   5.335  0.3819  0.3584 -0.6926
 2825SOL    HW120108   2.884   1.443   5.251  1.9152 -0.2981 -1.0243
 2825SOL    HW220109   2.972   1.367   5.352 -0.7309 -2.0787  0.8375
 2826SOL     OW20110   1.827   1.779   6.814 -0.5123  0.2104  0.2097
 2826SOL    HW120111   1.735   1.756   6.830 -0.3651  0.3824  1.2611
 2826SOL    HW220112   1.816   1.856   6.757  1.2062 -0.4859 -1.0579
 2827SOL     OW20113   1.666   2.666   8.478  0.1579  0.1932  0.3377
 2827SOL    HW120114   1.623   2.746   8.450  1.3916  1.1488  1.1529
 2827SOL    HW220115   1.724   2.702   8.545  0.3836  0.1849  0.1475
 2828SOL     OW20116   1.772   1.587   9.171  0.9707 -0.3177 -0.4298
 2828SOL    HW120117   1.753   1.629   9.087 -0.6109 -1.4553 -0.6366
 2828SOL    HW220118   1.826   1.647   9.222  2.3625 -1.3001 -0.7513
 2829SOL     OW20119   2.689   2.430   1.997 -0.1916  0.0606  0.3554
 2829SOL    HW120120   2.603   2.471   1.993 -0.8472 -1.2550  1.0124
 2829SOL    HW220121   2.679   2.385   1.913 -2.1191  0.8222  0.1921
 2830SOL     OW20122   0.795   0.643  11.736 -0.3396 -0.4492  0.1448
 2830SOL    HW120123   0.883   0.613  11.714 -0.5703  1.0160 -2.7902
 2830SOL    HW220124   0.808   0.724  11.785 -0.3379 -1.0006  1.0688
 2831SOL     OW20125   1.063   3.679  10.293  0.0281 -0.4310  0.1197
 2831SOL    HW120126   0.985   3.704  10.343 -1.1138 -2.4629 -0.6585
 2831SOL    HW220127   1.034   3.690  10.202  1.4916  1.5089 -0.1076
 2832SOL     OW20128   3.102   0.577   1.604 -0.1599 -0.0914 -0.1087
 2832SOL    HW120129   3.006   0.578   1.614 -0.0725 -3.3272  1.2595
 2832SOL    HW220130   3.117   0.493   1.560  0.4342  0.1761 -0.4130
 2833SOL     OW20131   4.203   4.370  13.632  0.7371 -0.4634  0.4269
 2833SOL    HW120132   4.109   4.383  13.636  0.5133 -2.1613  0.9685
 2833SOL    HW220133   4.239   4.458  13.637  1.7021 -0.8476  0.3181
 2834SOL     OW20134   0.794   0.391   9.758 -0.0978  0.4926 -0.3899
 2834SOL    HW120135   0.781   0.478   9.720 -1.8446 -0.0232 -0.9553
 2834SOL    HW220136   0.887   0.367   9.756 -0.2490 -0.1869  0.4194
 2835SOL     OW20137   4.145   3.417  11.746 -0.6212  0.3193  0.2207
 2835SOL    HW120138   4.101   3.499  11.725 -2.0455 -0.4267  0.2514
 2835SOL    HW220139   4.155   3.428  11.841 -0.5783 -0.2782  0.2890
 2836SOL     OW20140   1.055   4.072   2.458 -0.9072 -0.0968  0.9244
 2836SOL    HW120141   0.970   4.034   2.479 -1.1701 -1.7086 -3.0169
 2836SOL    HW220142   1.057   4.130   2.534  1.9660  0.8991  0.0646
 2837SOL     OW20143   0.440   3.823   7.707  0.2671 -0.3301  0.2301
 2837SOL    HW120144   0.482   3.738   7.692  2.1906  0.8200 -0.8390
 2837SOL    HW220145   0.463   3.871   7.628 -1.8084 -0.5691 -0.5250
 2838SOL     OW20146   3.367   2.080  15.097 -0.2938 -0.5618  0.0266
 2838SOL    HW120147   3.289   2.117  15.057 -1.2508 -1.2083  1.3076
 2838SOL    HW220148   3.397   2.156  15.148 -1.8925  2.1898 -3.1575
 2839SOL     OW20149   3.729   0.909   2.935  0.7513 -0.1668  0.0631
 2839SOL    HW120150   3.737   0.911   2.839  0.4600 -0.9795  0.0248
 2839SOL    HW220151   3.810   0.947   2.968 -0.6139  0.2473  2.9722
 2840SOL     OW20152   1.912   1.456   6.623 -0.3748  0.0811  0.2702
 2840SOL    HW120153   1.874   1.516   6.558 -0.5402 -1.0653 -0.6902
 2840SOL    HW220154   1.829   1.426   6.660  0.5322 -0.7300  1.6440
 2841SOL     OW20155   4.594   1.297   8.619  0.0571  0.0102  0.5252
 2841SOL    HW120156   4.539   1.219   8.627  0.7017 -0.4504  0.4169
 2841SOL    HW220157   4.528   1.366   8.625 -0.0083 -0.2811  2.9484
 2842SOL     OW20158   3.524   0.938  13.676  0.6747 -0.1422 -0.0162
 2842SOL    HW120159   3.464   0.957  13.604  1.9667  1.6516 -0.6413
 2842SOL    HW220160   3.456   0.912  13.738  0.9321 -2.2790 -0.6411
 2843SOL     OW20161   1.501   3.246   1.443  0.1088  0.2918  0.1045
 2843SOL    HW120162   1.446   3.305   1.494 -0.3170  0.7909 -0.9303
 2843SOL    HW220163   1.450   3.167   1.464 -1.8413  1.7076  0.7077
 2844SOL     OW20164   2.481   1.047   8.492 -0.2248 -0.0040  0.7708
 2844SOL    HW120165   2.450   1.098   8.418 -0.6379 -0.5255  0.5765
 2844SOL    HW220166   2.432   0.967   8.471  0.2497 -0.4876  1.4634
 2845SOL     OW20167   1.254   1.042   6.537 -0.4736 -0.0219 -0.6448
 2845SOL    HW120168   1.325   1.020   6.597 -1.8190 -1.4468  0.4632
 2845SOL    HW220169   1.293   1.029   6.450  0.7720 -2.2482  0.2267
 2846SOL     OW20170   2.154   2.793   7.951  0.6236 -0.0934  0.1157
 2846SOL    HW120171   2.220   2.770   8.016 -1.7842 -0.3137  2.4801
 2846SOL    HW220172   2.168   2.884   7.927  2.1219 -0.0670  1.0714
 2847SOL     OW20173   4.099   1.315   5.307  0.0288  0.1765  0.3424
 2847SOL    HW120174   4.083   1.240   5.365  3.2302 -0.0843  0.8875
 2847SOL    HW220175   4.024   1.374   5.311  0.4979  0.7996 -0.1386
 2848SOL     OW20176   2.764   2.546   2.639 -0.5778 -0.4090  0.3079
 2848SOL    HW120177   2.717   2.479   2.590  1.6363 -2.2644  0.7316
 2848SOL    HW220178   2.689   2.603   2.657  0.2111  0.4189  0.9938
 2849SOL     OW20179   2.138   2.959   0.672 -0.3467  0.7108 -0.0210
 2849SOL    HW120180   2.147   2.912   0.755 -0.2757 -0.1187 -0.5054
 2849SOL    HW220181   2.112   2.891   0.610 -1.7485 -0.5053  1.9124
 2850SOL     OW20182   0.269   0.144  14.234  0.1080  0.2567  0.4469
 2850SOL    HW120183   0.189   0.167  14.282 -0.8895 -0.3867 -0.8983
 2850SOL    HW220184   0.325   0.218  14.258 -2.1323  2.0512  0.1241
 2851SOL     OW20185   3.839   2.704   4.774 -0.1005  0.8703  0.1080
 2851SOL    HW120186   3.864   2.710   4.682 -2.5246 -2.6325 -0.8103
 2851SOL    HW220187   3.778   2.631   4.763 -1.0538  1.2363  3.0800
 2852SOL     OW20188   4.469   2.848   2.667  0.2589  0.2367  0.0533
 2852SOL    HW120189   4.418   2.882   2.740  2.2851 -0.9784  1.9965
 2852SOL    HW220190   4.484   2.918   2.603 -3.1347 -0.4488 -1.5251
 2853SOL     OW20191   2.127   0.787   3.673  0.0616  0.1688  0.3841
 2853SOL    HW120192   2.127   0.840   3.753 -0.7863 -1.7813  1.6867
 2853SOL    HW220193   2.203   0.730   3.684  0.1037  0.4478  1.5707
 2854SOL     OW20194   4.394   1.546   9.965  0.4864  0.7356  0.3928
 2854SOL    HW120195   4.428   1.551   9.876  2.1827  1.3990  1.0773
 2854SOL    HW220196   4.468   1.516  10.017  1.3350 -0.5929 -1.5653
 2855SOL     OW20197   4.311   4.158   9.308 -0.0812 -0.6690  0.3823
 2855SOL    HW120198   4.327   4.140   9.401  0.5678 -0.0675  0.3859
 2855SOL    HW220199   4.372   4.103   9.259  0.7093 -1.4426  2.2478
 2856SOL     OW20200   0.336   3.403   8.670  0.4153 -0.3104  0.0119
 2856SOL    HW120201   0.421   3.417   8.630  1.2827 -1.8202  1.3385
 2856SOL    HW220202   0.348   3.332   8.733 -0.2647 -0.1956  0.2771
 2857SOL     OW20203   4.275   3.285  14.269 -0.8179 -0.2052 -0.4102
 2857SOL    HW120204   4.214   3.292  14.195  0.7073 -1.3184 -1.7456
 2857SOL    HW220205   4.234   3.335  14.340  2.0517 -1.0481  1.8324
 2858SOL     OW20206   2.645   1.816  17.550 -0.3555 -0.0002 -0.5829
 2858SOL    HW120207   2.602   1.901  17.539 -1.1357 -0.4074 -0.7212
 2858SOL    HW220208   2.735   1.848  17.549 -0.0151 -0.8739  1.5373
 2859SOL     OW20209   2.253   4.487   6.066 -0.1496 -0.1015  0.1868
 2859SOL    HW120210   2.335   4.525   6.097 -0.2638 -0.2819  0.7087
 2859SOL    HW220211   2.221   4.444   6.145 -1.2053  0.8519  0.2852
 2860SOL     OW20212   2.611   2.958  12.899 -0.3168  0.4135 -0.2532
 2860SOL    HW120213   2.632   2.926  12.986 -0.0674  0.5840 -0.2475
 2860SOL    HW220214   2.571   3.041  12.924 -1.8187 -0.9261  1.7810
 2861SOL     OW20215   2.302   2.590  12.012  0.1187 -0.3283 -0.1367
 2861SOL    HW120216   2.355   2.593  11.933 -1.1348  1.9339 -0.9020
 2861SOL    HW220217   2.340   2.655  12.072  3.9319 -1.7128 -1.1026
 2862SOL     OW20218   1.184   4.456   2.270 -0.2126 -0.1179 -0.6927
 2862SOL    HW120219   1.122   4.529   2.273  1.3731  1.1559  1.3352
 2862SOL    HW220220   1.137   4.401   2.207 -0.5859  0.3217 -0.8058
 2863SOL     OW20221   0.004   1.134   4.076 -0.2471  0.2353  0.0384
 2863SOL    HW120222   4.722   1.050   4.036  2.6103 -0.0785 -0.9217
 2863SOL    HW220223   0.075   1.110   4.135 -1.0285  0.7651  1.2155
 2864SOL     OW20224   3.812   3.998   4.806  1.0994 -0.0522 -0.0470
 2864SOL    HW120225   3.736   4.035   4.760 -0.5300 -0.6341  2.1572
 2864SOL    HW220226   3.782   3.919   4.851 -0.3436 -0.7509 -2.2807
 2865SOL     OW20227   1.518   2.181   0.817  0.9821  0.8504 -0.1752
 2865SOL    HW120228   1.610   2.200   0.834  0.9536  0.1825  0.7268
 2865SOL    HW220229   1.482   2.270   0.810 -0.4070  0.4028  1.1389
 2866SOL     OW20230   4.606   1.783  17.404 -0.1271  0.5161 -0.2083
 2866SOL    HW120231   4.583   1.691  17.392 -1.5317  0.7768  0.4489
 2866SOL    HW220232   4.585   1.794  17.497 -0.4166 -0.4989 -0.1533
 2867SOL     OW20233   0.368   2.483   3.414  0.1826 -0.2115  0.2282
 2867SOL    HW120234   0.379   2.389   3.400 -1.0438  0.3042 -4.2062
 2867SOL    HW220235   0.285   2.495   3.461 -0.8727 -2.4324 -1.0687
 2868SOL     OW20236   2.157   1.048   8.331  0.0379  0.2973  0.0626
 2868SOL    HW120237   2.162   1.047   8.235 -0.8624 -1.5711  0.0359
 2868SOL    HW220238   2.224   0.983   8.352 -0.7863 -0.3385  0.7225
 2869SOL     OW20239   3.907   0.189   1.900  0.2795  0.0307  0.4340
 2869SOL    HW120240   3.988   0.214   1.856  0.5407  0.8813  1.3691
 2869SOL    HW220241   3.898   0.257   1.968  0.4577 -1.1742  1.6560
 2870SOL     OW20242   2.780   4.646  12.797  0.2741  0.2005  0.3571
 2870SOL    HW120243   2.740   4.711  12.855  0.9942  1.0531 -0.1085
 2870SOL    HW220244   2.804   4.586  12.869  0.9031 -0.5391 -0.4676
 2871SOL     OW20245   2.573   3.016   9.099 -0.2286 -0.4425  0.1849
 2871SOL    HW120246   2.621   3.033   9.180 -2.1559  1.7242  0.8945
 2871SOL    HW220247   2.535   2.934   9.130  3.6820 -1.9729  0.9542
 2872SOL     OW20248   3.626   3.783  10.127  0.1588 -0.2723  0.1036
 2872SOL    HW120249   3.595   3.811  10.213 -0.1380 -1.2235  0.3062
 2872SOL    HW220250   3.622   3.869  10.086 -1.0112 -1.3189 -2.0276
 2873SOL     OW20251   4.431   2.938   1.019  0.6038  0.2281 -0.2167
 2873SOL    HW120252   4.428   2.937   0.923 -0.6164  1.6643 -0.1760
 2873SOL    HW220253   4.344   2.902   1.033  0.9031 -0.6681 -0.6374
 2874SOL     OW20254   4.188   4.521   0.061 -0.2881  0.0218  0.2690
 2874SOL    HW120255   4.097   4.499   0.041  0.6464 -0.5845 -3.3497
 2874SOL    HW220256   4.197   4.614   0.041 -1.2360  0.8940  3.9415
 2875SOL     OW20257   3.667   2.312   1.150 -0.3057  0.3574  0.2639
 2875SOL    HW120258   3.661   2.262   1.069 -0.5314  1.9083 -0.6639
 2875SOL    HW220259   3.580   2.350   1.155  0.3779  1.7320  1.6980
 2876SOL     OW20260   3.445   3.799  11.758 -0.4685 -0.0709 -0.0569
 2876SOL    HW120261   3.536   3.807  11.729 -0.4421 -2.1937 -0.6342
 2876SOL    HW220262   3.404   3.817  11.673  2.6040 -0.9730 -1.7697
 2877SOL     OW20263   0.500   0.418  17.029  0.0408 -0.1128 -0.7692
 2877SOL    HW120264   0.488   0.424  17.124 -0.3625 -1.1838 -0.7497
 2877SOL    HW220265   0.487   0.323  17.021 -0.6740 -0.0142 -0.7321
 2878SOL     OW20266   3.314   4.013   3.818  0.1153 -0.3685  0.1793
 2878SOL    HW120267   3.379   4.061   3.868 -0.1504  1.9456 -1.7002
 2878SOL    HW220268   3.254   4.085   3.799  0.2895 -0.1101  0.6128
 2879SOL     OW20269   2.241   3.462   2.414 -0.5531  0.5267 -0.2928
 2879SOL    HW120270   2.329   3.496   2.395  0.7971 -1.7093  2.0094
 2879SOL    HW220271   2.264   3.369   2.419 -0.8392  0.3571 -2.0695
 2880SOL     OW20272   3.539   1.946   4.419  0.1350 -0.0529  0.7960
 2880SOL    HW120273   3.561   1.858   4.388  0.4473  0.6702 -1.0505
 2880SOL    HW220274   3.462   1.954   4.363  1.2731  0.1288 -0.7525
 2881SOL     OW20275   0.709   4.119   3.423  0.3809  0.1076  0.2221
 2881SOL    HW120276   0.634   4.135   3.366  0.2981 -1.4949 -0.1168
 2881SOL    HW220277   0.764   4.073   3.359 -0.9039 -0.8170 -0.2204
 2882SOL     OW20278   4.512   0.833   7.182 -0.4210 -0.4116 -0.1212
 2882SOL    HW120279   4.583   0.821   7.245  1.1980 -3.0553 -2.4654
 2882SOL    HW220280   4.493   0.741   7.168 -0.6416  0.0182 -2.6531
 2883SOL     OW20281   4.207   0.335   6.074  0.0767 -0.0255 -0.7371
 2883SOL    HW120282   4.185   0.408   6.132 -1.1623 -0.5414 -0.5578
 2883SOL    HW220283   4.147   0.358   6.003  0.4200  1.4016 -0.5701
 2884SOL     OW20284   4.207   3.731   1.092 -0.4851  0.5834 -0.4384
 2884SOL    HW120285   4.202   3.827   1.100  2.2827  0.5063  2.2939
 2884SOL    HW220286   4.299   3.711   1.073  0.4235  2.3473  2.0154
 2885SOL     OW20287   0.974   4.369   7.262  0.5432  0.1896 -0.3609
 2885SOL    HW120288   0.970   4.451   7.311 -0.4827  0.5989 -1.1240
 2885SOL    HW220289   0.993   4.407   7.176 -0.5702  0.4879 -0.4809
 2886SOL     OW20290   2.909   0.463  16.291 -0.3714 -0.0697 -0.3514
 2886SOL    HW120291   2.874   0.419  16.369  1.1126  0.3446  0.5528
 2886SOL    HW220292   2.932   0.549  16.325 -0.4804  0.3007 -1.2107
 2887SOL     OW20293   4.326   2.323   9.279  0.0438  0.1328 -0.5093
 2887SOL    HW120294   4.276   2.242   9.278 -0.4885  0.4405  0.6351
 2887SOL    HW220295   4.317   2.365   9.365 -0.4555  2.3669 -1.6479
 2888SOL     OW20296   2.109   1.992   7.564 -0.3207 -0.3320 -0.3229
 2888SOL    HW120297   2.094   1.986   7.470  0.1507 -2.6118 -0.2461
 2888SOL    HW220298   2.201   2.018   7.561 -0.4391  0.2733  1.3233
 2889SOL     OW20299   4.702   2.770   0.941 -0.1715 -0.1543  0.4462
 2889SOL    HW120300   4.739   2.844   0.990  0.3274  1.0903 -1.8101
 2889SOL    HW220301   4.618   2.755   0.984  0.6699 -0.3475  2.0159
 2890SOL     OW20302   4.274   3.548   5.368 -0.1466 -0.9250 -0.0698
 2890SOL    HW120303   4.369   3.545   5.379 -0.0945 -0.3920 -0.3811
 2890SOL    HW220304   4.266   3.603   5.290 -1.4090 -2.0732 -0.7341
 2891SOL     OW20305   3.088   2.508   3.061  0.3171  0.3674 -1.0833
 2891SOL    HW120306   3.029   2.493   2.987 -0.2457 -2.3812 -0.1106
 2891SOL    HW220307   3.044   2.577   3.110 -1.0761 -0.8716 -0.5770
 2892SOL     OW20308   1.565   1.870  13.990  0.0235 -0.0940  0.0585
 2892SOL    HW120309   1.555   1.860  14.084 -1.0699  0.5499  0.0072
 2892SOL    HW220310   1.518   1.953  13.979  0.6938  0.2424 -0.2888
 2893SOL     OW20311   0.215   3.632  16.835  0.0407  0.7246 -0.1237
 2893SOL    HW120312   0.256   3.617  16.750  3.1683  3.1435  0.9570
 2893SOL    HW220313   0.173   3.717  16.823 -2.7506 -0.6041  0.3412
 2894SOL     OW20314   0.953   2.088  12.074 -0.0447 -0.2057 -0.3456
 2894SOL    HW120315   0.976   2.170  12.118  0.1057 -0.2276 -0.3845
 2894SOL    HW220316   1.034   2.056  12.036 -0.5792 -0.1767 -1.5100
 2895SOL     OW20317   1.750   1.964   0.256  0.3864  0.2417 -0.3499
 2895SOL    HW120318   1.753   1.872   0.229 -0.3114  0.8463 -2.5246
 2895SOL    HW220319   1.818   2.000   0.199  1.2253  0.3175  0.7086
 2896SOL     OW20320   4.027   1.326  10.633  0.1033  0.0737  0.4002
 2896SOL    HW120321   4.122   1.319  10.634  0.0982  0.6754  5.4893
 2896SOL    HW220322   4.005   1.409  10.676 -0.1320 -0.0515  0.5186
 2897SOL     OW20323   3.093   3.297  12.650  0.4768 -0.3129 -0.3199
 2897SOL    HW120324   3.099   3.241  12.727 -0.5277 -1.0481 -0.7765
 2897SOL    HW220325   3.168   3.355  12.666  1.5131 -0.7894 -3.5093
 2898SOL     OW20326   0.012   4.037  10.203  0.2167 -0.1673 -0.3030
 2898SOL    HW120327   0.071   4.111  10.194  0.1927 -0.2951 -1.5459
 2898SOL    HW220328   0.040   3.966  10.145  0.5173 -1.2676  1.1895
 2899SOL     OW20329   1.993   0.781   4.827 -0.4447 -0.0592 -0.3683
 2899SOL    HW120330   1.994   0.850   4.894  1.3485 -0.4297  0.0060
 2899SOL    HW220331   1.914   0.730   4.842 -0.5322  0.2750  0.3155
 2900SOL     OW20332   0.683   3.160   2.397 -0.3034 -0.0135 -0.2554
 2900SOL    HW120333   0.645   3.235   2.351 -1.6933  0.1316  1.1583
 2900SOL    HW220334   0.625   3.143   2.471 -0.5626 -2.1056 -0.9195
 2901SOL     OW20335   3.720   0.156   4.319  0.1367 -0.2448 -0.4134
 2901SOL    HW120336   3.778   0.097   4.272  1.0205 -0.9674  1.5853
 2901SOL    HW220337   3.773   0.236   4.314  1.3717 -0.9119  1.7916
 2902SOL     OW20338   0.927   0.410  10.132 -0.0863 -0.4374 -0.0577
 2902SOL    HW120339   0.839   0.435  10.158  0.0297 -2.2461  2.0556
 2902SOL    HW220340   0.930   0.316  10.116  0.0594 -0.6497  1.1955
 2903SOL     OW20341   4.704   3.514   2.626 -0.6732 -0.0430  0.5658
 2903SOL    HW120342   0.026   3.478   2.563 -0.2050  1.2051  0.3225
 2903SOL    HW220343   0.008   3.594   2.653  1.6331 -0.9726 -0.4566
 2904SOL     OW20344   3.979   4.360  12.476  0.4175  0.2573  0.0090
 2904SOL    HW120345   3.971   4.349  12.381 -0.2911 -0.1698  0.1205
 2904SOL    HW220346   3.890   4.389  12.495 -0.6011 -2.1682 -1.0157
 2905SOL     OW20347   2.674   0.288   5.323  0.3828 -0.4945  0.4469
 2905SOL    HW120348   2.764   0.323   5.326  0.5807 -0.9389 -0.2481
 2905SOL    HW220349   2.655   0.287   5.229 -1.0728 -0.8997  0.7559
 2906SOL     OW20350   2.689   1.774  12.489  0.1097 -0.2808 -0.3629
 2906SOL    HW120351   2.617   1.740  12.542 -0.3875 -0.3903 -1.1040
 2906SOL    HW220352   2.650   1.859  12.471 -0.7602 -0.3730  1.2034
 2907SOL     OW20353   3.013   1.339   6.909 -0.1424 -0.2548  0.5114
 2907SOL    HW120354   3.002   1.365   7.000  0.7788  0.6679  0.3702
 2907SOL    HW220355   3.109   1.336   6.907 -0.0195  2.7513  2.2570
 2908SOL     OW20356   4.039   2.398   6.632  0.1766  0.1890 -0.1413
 2908SOL    HW120357   4.037   2.329   6.566 -1.5120  0.3321 -0.2385
 2908SOL    HW220358   3.957   2.378   6.677  0.2330  0.2022 -0.0324
 2909SOL     OW20359   0.562   3.865   5.426  0.5796  0.5624  0.1603
 2909SOL    HW120360   0.653   3.891   5.438  0.8967  0.5100 -2.1074
 2909SOL    HW220361   0.561   3.821   5.511  0.7917 -0.6732 -0.4751
 2910SOL     OW20362   1.521   2.984  10.213 -0.2344  0.0538 -0.1087
 2910SOL    HW120363   1.602   3.002  10.166  1.1266 -1.0006  1.8073
 2910SOL    HW220364   1.471   2.927  10.155  1.7162  0.1689 -1.8931
 2911SOL     OW20365   2.154   0.862  10.069 -0.1439 -0.0446 -0.4306
 2911SOL    HW120366   2.217   0.794  10.045  0.2804 -1.3320  4.2804
 2911SOL    HW220367   2.094   0.849   9.995 -1.6655 -1.6457  1.0910
 2912SOL     OW20368   1.687   1.476  17.579 -0.1719  0.1929 -0.2661
 2912SOL    HW120369   1.652   1.508  17.496  1.5997  1.3502 -0.5726
 2912SOL    HW220370   1.701   1.566  17.608  0.6369  0.4658 -1.4995
 2913SOL     OW20371   1.960   3.344   8.823  0.7084 -0.1465 -0.2791
 2913SOL    HW120372   1.970   3.305   8.910 -0.2609  1.8712  0.7281
 2913SOL    HW220373   1.930   3.433   8.839  1.5570  0.4973 -2.2332
 2914SOL     OW20374   4.404   2.744   6.860 -0.1671 -0.2489 -0.0194
 2914SOL    HW120375   4.312   2.721   6.874 -0.2778 -0.0033 -0.3259
 2914SOL    HW220376   4.449   2.661   6.845 -0.9339 -0.9729  1.6478
 2915SOL     OW20377   1.388   0.476   5.997  0.3902  0.5753 -0.0806
 2915SOL    HW120378   1.388   0.388   5.961  4.1269 -0.0304  1.3949
 2915SOL    HW220379   1.298   0.502   5.980  1.0615  0.8703 -3.1496
 2916SOL     OW20380   2.084   1.015  17.441  0.5148 -0.0621  0.0845
 2916SOL    HW120381   1.992   1.030  17.460  0.0781 -1.2523 -1.0670
 2916SOL    HW220382   2.090   1.083  17.375 -1.2572 -1.3144 -1.3480
 2917SOL     OW20383   2.340   1.699  11.163  0.4209  0.6562  0.3452
 2917SOL    HW120384   2.370   1.750  11.239  1.0769 -0.3384  0.7467
 2917SOL    HW220385   2.264   1.753  11.142  0.5370  0.8578  0.4411
 2918SOL     OW20386   4.628   2.299   8.194  0.4551  0.0289 -0.0959
 2918SOL    HW120387   4.538   2.291   8.162  0.0263  3.1398  0.2961
 2918SOL    HW220388   4.617   2.358   8.269 -0.3884 -0.5852  0.2555
 2919SOL     OW20389   1.081   2.181   9.453 -0.0236 -0.2634  0.8111
 2919SOL    HW120390   1.151   2.123   9.484 -0.4612 -1.1466  0.1599
 2919SOL    HW220391   1.117   2.213   9.370 -0.2459 -1.1513  0.3687
 2920SOL     OW20392   2.021   3.002   2.112  0.5942  0.0331  0.6256
 2920SOL    HW120393   2.085   3.073   2.105 -1.0003  1.4810  0.7440
 2920SOL    HW220394   1.948   3.057   2.141  0.1010 -0.4335  0.2678
 2921SOL     OW20395   2.805   3.077  12.735 -0.2207  0.3896 -0.1741
 2921SOL    HW120396   2.824   3.009  12.800  0.8148  0.1733 -0.7076
 2921SOL    HW220397   2.718   3.108  12.761 -0.3241  0.9717 -1.2511
 2922SOL     OW20398   2.553   1.152   4.337 -0.0630  0.0783 -0.8971
 2922SOL    HW120399   2.609   1.075   4.338  0.5148  0.5404  1.2972
 2922SOL    HW220400   2.464   1.128   4.360  0.7808  0.2704  2.4791
 2923SOL     OW20401   4.556   0.159   7.254  0.1372 -0.0474  0.1764
 2923SOL    HW120402   4.489   0.095   7.277  0.9240 -0.6326  0.8578
 2923SOL    HW220403   4.521   0.182   7.168 -0.5067  2.6883  1.1877
 2924SOL     OW20404   3.607   1.885  12.120  0.7413  0.3541  0.1846
 2924SOL    HW120405   3.532   1.943  12.132  1.1542  0.2812  3.2496
 2924SOL    HW220406   3.625   1.852  12.208 -1.5757  0.2221  0.6054
 2925SOL     OW20407   1.801   0.234  12.830 -0.5746 -0.0722 -0.4262
 2925SOL    HW120408   1.791   0.246  12.925 -2.2266  0.6138 -0.6948
 2925SOL    HW220409   1.852   0.312  12.811 -0.4048  0.2914  1.5396
 2926SOL     OW20410   1.893   4.155   6.967  0.2408 -0.3839 -0.0650
 2926SOL    HW120411   1.962   4.147   7.033  0.5960 -1.5483 -0.5832
 2926SOL    HW220412   1.901   4.073   6.919  1.5796  0.0148 -0.5143
 2927SOL     OW20413   1.580   1.282   8.861 -0.1785  0.0252 -0.1120
 2927SOL    HW120414   1.506   1.328   8.820 -2.3835 -2.2747  1.3094
 2927SOL    HW220415   1.555   1.195   8.830 -1.2428  0.0083  0.8193
 2928SOL     OW20416   1.832   4.062  15.179 -0.2642  0.3532 -0.0117
 2928SOL    HW120417   1.895   3.990  15.187  0.2646  0.6562 -1.4371
 2928SOL    HW220418   1.802   4.063  15.088  1.3940 -1.5208 -0.5870
 2929SOL     OW20419   4.234   0.733   7.774 -0.0950 -0.1042  0.2794
 2929SOL    HW120420   4.187   0.662   7.817 -0.3957 -0.3806 -0.5155
 2929SOL    HW220421   4.165   0.777   7.724 -0.9753 -2.2663 -0.3926
 2930SOL     OW20422   1.786   1.962   1.725  0.2255 -0.7890  0.1390
 2930SOL    HW120423   1.846   1.912   1.781 -1.0762 -2.4025  0.0814
 2930SOL    HW220424   1.843   2.034   1.696 -2.2038 -0.2547 -3.2149
 2931SOL     OW20425   2.754   2.185   8.740 -0.0545  0.7144 -0.2152
 2931SOL    HW120426   2.747   2.240   8.662  1.5391 -0.1741 -0.9868
 2931SOL    HW220427   2.838   2.140   8.734 -1.1519 -1.2288 -1.1087
 2932SOL     OW20428   3.961   1.479   3.975  0.1276  0.0636  0.1910
 2932SOL    HW120429   4.056   1.467   3.983 -0.3289 -2.5058  1.6781
 2932SOL    HW220430   3.946   1.540   3.902 -0.8041 -1.8943 -1.2642
 2933SOL     OW20431   3.626   2.273  12.818 -0.8490 -0.0196 -0.1413
 2933SOL    HW120432   3.559   2.219  12.860  0.2071 -0.2738  1.2204
 2933SOL    HW220433   3.668   2.217  12.752 -2.1525 -1.5018  0.2747
 2934SOL     OW20434   0.086   1.319   4.416 -0.2747  0.2029 -0.3457
 2934SOL    HW120435   0.125   1.236   4.390  2.7257  1.3060  0.7434
 2934SOL    HW220436   0.143   1.378   4.367 -0.2390 -0.4331 -1.0629
 2935SOL     OW20437   2.255   2.270   2.357 -0.2980  0.4843  0.3170
 2935SOL    HW120438   2.251   2.347   2.300  0.3219  0.4627  0.2391
 2935SOL    HW220439   2.350   2.259   2.358 -0.4928 -0.9855  1.6835
 2936SOL     OW20440   0.900   0.428   6.799 -0.1028 -0.3192 -0.4775
 2936SOL    HW120441   0.832   0.496   6.797  1.0949  0.9098  1.0367
 2936SOL    HW220442   0.836   0.359   6.782 -1.4149  0.8319 -0.2077
 2937SOL     OW20443   1.863   2.988   7.776 -0.5716 -0.1252  0.1802
 2937SOL    HW120444   1.773   3.007   7.801 -2.1347 -4.0942 -2.3470
 2937SOL    HW220445   1.856   2.892   7.774 -1.6944  0.0191 -3.2252
 2938SOL     OW20446   3.020   2.218   2.563 -0.4801 -0.5611  0.4257
 2938SOL    HW120447   2.986   2.191   2.648  0.1236 -1.1022  0.5017
 2938SOL    HW220448   2.991   2.134   2.526  0.3781 -0.3031 -0.8510
 2939SOL     OW20449   0.838   0.657   2.578  0.9765  0.2471  0.0514
 2939SOL    HW120450   0.832   0.693   2.490  0.5829  2.0843  0.8399
 2939SOL    HW220451   0.748   0.656   2.611  0.5864 -0.3294 -1.0170
 2940SOL     OW20452   1.018   0.869   1.460 -0.1058  0.1783 -0.1696
 2940SOL    HW120453   0.963   0.803   1.418  1.8078 -1.5346  0.0208
 2940SOL    HW220454   1.108   0.847   1.435  0.1803  2.2227 -1.0049
 2941SOL     OW20455   0.406   1.398   4.767  0.2667 -0.2196  0.2115
 2941SOL    HW120456   0.415   1.414   4.673  3.3067 -1.2143  0.3326
 2941SOL    HW220457   0.312   1.381   4.762  0.0046  1.0465  0.7173
 2942SOL     OW20458   1.101   3.943  15.563 -0.1509 -0.2366  0.5473
 2942SOL    HW120459   1.149   4.022  15.587 -2.3585  1.2990 -0.0951
 2942SOL    HW220460   1.041   3.930  15.636  1.3456 -0.2221  1.7903
 2943SOL     OW20461   4.095   1.987   2.615 -0.2563 -0.2556  0.4361
 2943SOL    HW120462   4.157   1.927   2.656 -0.9271  0.1724  2.0810
 2943SOL    HW220463   4.140   2.071   2.606  0.1008 -0.4179  0.6935
 2944SOL     OW20464   1.647   3.060   3.697 -0.1458  0.3193 -0.0795
 2944SOL    HW120465   1.582   3.012   3.647  1.1418  0.0306 -1.4735
 2944SOL    HW220466   1.730   3.026   3.664 -1.3811 -2.6352 -0.1426
 2945SOL     OW20467   2.389   4.460  16.396  0.2915 -0.3154  0.0462
 2945SOL    HW120468   2.391   4.369  16.364  1.4379 -0.9166  1.8515
 2945SOL    HW220469   2.472   4.462  16.444 -1.8893  0.0390  3.8052
 2946SOL     OW20470   3.424   2.392   7.719 -0.4235 -0.4319 -0.4560
 2946SOL    HW120471   3.329   2.387   7.728 -0.4084 -2.0334 -1.1315
 2946SOL    HW220472   3.450   2.338   7.794  0.6017  0.5427 -0.1015
 2947SOL     OW20473   3.495   0.698  11.104 -0.4301  0.2360  0.0857
 2947SOL    HW120474   3.577   0.673  11.061 -1.1095 -1.3027 -0.3063
 2947SOL    HW220475   3.508   0.667  11.194 -2.6681  1.6348  0.8905
 2948SOL     OW20476   4.696   1.021   7.695 -0.3464  0.7096  0.1738
 2948SOL    HW120477   4.738   0.946   7.738 -3.1517 -0.9721 -0.0186
 2948SOL    HW220478   4.604   0.995   7.703 -0.3142 -0.0509 -2.0580
 2949SOL     OW20479   1.846   4.664   7.909 -0.0079 -0.5926  0.3535
 2949SOL    HW120480   1.840   4.713   7.991  1.7960  0.6412 -0.2506
 2949SOL    HW220481   1.767   4.611   7.921  0.0495 -1.0620 -1.4206
 2950SOL     OW20482   3.040   0.301   0.287  0.2055 -0.1457 -0.2910
 2950SOL    HW120483   3.032   0.311   0.192  1.7337  0.7521 -0.3241
 2950SOL    HW220484   3.109   0.364   0.307 -0.3635 -0.2517  2.0011
 2951SOL     OW20485   4.077   2.036   3.821 -0.6378 -0.5014 -0.6823
 2951SOL    HW120486   4.088   1.983   3.742 -1.5681 -0.6519 -0.7203
 2951SOL    HW220487   3.981   2.034   3.828 -0.6570  2.4255  0.1082
 2952SOL     OW20488   2.511   4.087   5.774 -0.3181 -0.6996 -0.6245
 2952SOL    HW120489   2.527   4.177   5.801  1.6030 -0.4972 -2.4877
 2952SOL    HW220490   2.531   4.103   5.682 -1.5948 -1.1686 -0.9865
 2953SOL     OW20491   1.533   2.463   0.164  0.6272 -0.2580 -0.5119
 2953SOL    HW120492   1.596   2.502   0.225 -1.6673  2.2773  0.2077
 2953SOL    HW220493   1.513   2.542   0.114 -0.4861 -1.4360 -1.8989
 2954SOL     OW20494   2.223   2.924   5.932 -0.3452  0.1422 -0.5155
 2954SOL    HW120495   2.245   3.017   5.931 -1.1780  0.3493  0.2514
 2954SOL    HW220496   2.146   2.940   5.878 -0.8413  0.0259  0.1621
 2955SOL     OW20497   3.137   1.961   4.075  0.4661  0.1612  0.5505
 2955SOL    HW120498   3.192   1.959   4.154  0.8176 -0.5671  0.2774
 2955SOL    HW220499   3.100   2.050   4.081  1.6427  0.6579  0.3023
 2956SOL     OW20500   0.461   3.332   2.225  0.2344 -0.2038 -0.2779
 2956SOL    HW120501   0.474   3.302   2.135 -0.8341  1.4620 -1.0011
 2956SOL    HW220502   0.473   3.427   2.228  0.8306 -0.3478  2.2984
 2957SOL     OW20503   2.593   1.430   4.042  0.1948  0.1376  0.3216
 2957SOL    HW120504   2.625   1.340   4.038  0.1044  0.1410 -0.3970
 2957SOL    HW220505   2.532   1.428   3.968  0.6522 -4.4431  0.0704
 2958SOL     OW20506   3.850   0.719   4.411 -0.0455  0.0173 -0.5929
 2958SOL    HW120507   3.901   0.716   4.330 -0.7193 -0.4805 -0.9878
 2958SOL    HW220508   3.778   0.767   4.371  0.0184  1.1051  0.5840
 2959SOL     OW20509   0.143   1.868  11.648  0.3226 -0.3207  0.7011
 2959SOL    HW120510   0.188   1.951  11.658  0.5032 -0.2234 -0.8954
 2959SOL    HW220511   0.067   1.898  11.699 -0.5138 -2.6096  0.8066
 2960SOL     OW20512   0.134   3.690   4.113  0.2352  0.2967 -0.2433
 2960SOL    HW120513   0.039   3.695   4.121  0.5272  3.9706  0.8035
 2960SOL    HW220514   0.157   3.677   4.205  0.5229  2.4922  0.0036
 2961SOL     OW20515   2.385   2.740  17.088 -0.0718 -0.5360 -0.0066
 2961SOL    HW120516   2.382   2.664  17.031 -1.5966 -1.9318  1.9154
 2961SOL    HW220517   2.474   2.766  17.066  0.4037 -0.7559  1.6124
 2962SOL     OW20518   2.496   0.336   3.495  0.0593  0.1599 -0.4047
 2962SOL    HW120519   2.434   0.366   3.428  0.9574 -1.3375 -1.9092
 2962SOL    HW220520   2.560   0.406   3.488 -0.6470  0.9459  0.8642
 2963SOL     OW20521   3.626   1.637  13.206  0.0499 -0.3728  0.0955
 2963SOL    HW120522   3.642   1.544  13.191 -2.4085 -1.0413  1.7818
 2963SOL    HW220523   3.705   1.646  13.259  0.9042  0.0169 -1.2379
 2964SOL     OW20524   4.409   3.876   6.277 -0.4167 -0.0000  1.0054
 2964SOL    HW120525   4.371   3.834   6.200  0.4629 -1.6078  1.4557
 2964SOL    HW220526   4.478   3.936   6.249 -2.2340  2.1189  0.9983
 2965SOL     OW20527   1.267   1.652   8.005  0.2455  0.7649  0.0477
 2965SOL    HW120528   1.250   1.729   8.059 -0.3051  0.3189  0.5047
 2965SOL    HW220529   1.258   1.693   7.919 -2.8212 -1.6415 -0.7855
 2966SOL     OW20530   2.769   1.681   7.113  0.2013  0.3785  0.0778
 2966SOL    HW120531   2.865   1.686   7.114  0.2741 -1.3543  1.3694
 2966SOL    HW220532   2.761   1.585   7.115  0.9865  0.3004 -0.3912
 2967SOL     OW20533   0.115   0.032   2.900 -0.5505  0.5510 -0.1313
 2967SOL    HW120534   0.122   0.082   2.981 -3.7402  1.7134 -0.5617
 2967SOL    HW220535   0.035   0.070   2.864 -0.6832  1.5502  1.2276
 2968SOL     OW20536   0.341   0.203   4.817 -0.1926  0.3311  0.1443
 2968SOL    HW120537   0.393   0.278   4.789  1.4822 -0.6214  0.6832
 2968SOL    HW220538   0.408   0.149   4.858  0.1541 -0.7632 -1.8683
 2969SOL     OW20539   2.248   0.844  14.143  0.0764  0.3565  0.0454
 2969SOL    HW120540   2.301   0.831  14.064 -0.6087  1.3640 -0.5750
 2969SOL    HW220541   2.159   0.848  14.109  0.4073 -1.2200 -0.9889
 2970SOL     OW20542   3.538   4.625  14.217  0.1648 -0.2089  0.2992
 2970SOL    HW120543   3.470   4.597  14.156 -0.2762  0.1944  0.6036
 2970SOL    HW220544   3.585   4.543  14.232  1.4143  0.7043  1.3189
 2971SOL     OW20545   2.852   0.843   7.975 -0.2413  0.0565  0.2069
 2971SOL    HW120546   2.777   0.873   7.924 -0.4134 -0.5707  0.0982
 2971SOL    HW220547   2.813   0.836   8.063 -1.2003 -1.7598 -0.3699
 2972SOL     OW20548   3.031   4.421  13.069 -0.1755 -0.3644  0.0023
 2972SOL    HW120549   3.074   4.494  13.025 -1.0409 -0.0479 -0.3227
 2972SOL    HW220550   2.939   4.441  13.052  0.7503  2.6698 -1.3920
 2973SOL     OW20551   2.513   2.804   3.907  0.0485  0.0956  0.2319
 2973SOL    HW120552   2.606   2.783   3.914  0.5261  1.9507 -0.3282
 2973SOL    HW220553   2.523   2.842   3.820  2.5077 -1.3869 -0.1215
 2974SOL     OW20554   3.066   2.284  10.966  0.5112  0.4211 -0.4254
 2974SOL    HW120555   3.084   2.279  11.060 -3.6238  1.5365  0.4206
 2974SOL    HW220556   3.064   2.194  10.933 -3.4195  0.7459 -1.0541
 2975SOL     OW20557   1.184   4.311   9.879 -0.2140 -0.5797 -0.6703
 2975SOL    HW120558   1.170   4.250   9.807 -2.2861 -2.3755  1.2745
 2975SOL    HW220559   1.265   4.355   9.854 -0.3844 -0.6887 -1.3980
 2976SOL     OW20560   1.130   2.951   3.487  0.2767 -0.0672 -0.2774
 2976SOL    HW120561   1.179   2.878   3.450  1.7464  0.0562  1.4108
 2976SOL    HW220562   1.155   2.938   3.579 -0.5964  2.5303  0.3281
 2977SOL     OW20563   0.537   2.265   6.777  0.3055  0.0069  0.1989
 2977SOL    HW120564   0.505   2.308   6.856 -0.7990 -0.1511 -0.1636
 2977SOL    HW220565   0.552   2.177   6.813  0.5740  0.3896  1.0013
 2978SOL     OW20566   4.570   0.584   8.500  0.0659  0.1295 -0.1066
 2978SOL    HW120567   4.509   0.514   8.519 -0.2343  0.7692  1.2971
 2978SOL    HW220568   4.607   0.535   8.427  0.1338 -1.0903  0.7385
 2979SOL     OW20569   1.723   1.765  15.643 -0.2575  0.0924  0.5238
 2979SOL    HW120570   1.769   1.776  15.559 -0.3420 -1.2399  0.2938
 2979SOL    HW220571   1.667   1.701  15.600  0.9147 -1.1190  0.7969
 2980SOL     OW20572   2.369   4.254   5.090 -0.0188  0.4210 -0.0626
 2980SOL    HW120573   2.380   4.295   5.175 -0.3690  0.8268 -0.2126
 2980SOL    HW220574   2.353   4.328   5.031 -0.5727 -0.2053 -0.7016
 2981SOL     OW20575   1.884   1.483   2.064 -0.2590  0.1103  0.5648
 2981SOL    HW120576   1.799   1.501   2.022  0.1599  0.6051 -0.0667
 2981SOL    HW220577   1.907   1.405   2.013 -0.3854  1.2293 -1.2150
 2982SOL     OW20578   3.141   3.024   4.682 -0.1608 -0.2087  0.0334
 2982SOL    HW120579   3.131   2.931   4.661 -2.0542  0.3556 -1.5675
 2982SOL    HW220580   3.079   3.073   4.628 -1.0572 -1.5659 -0.1451
 2983SOL     OW20581   0.882   3.564   9.543  0.0164  0.1633  0.0604
 2983SOL    HW120582   0.935   3.623   9.598 -2.1652 -1.2740  3.7139
 2983SOL    HW220583   0.891   3.484   9.594  0.0578 -0.0276 -0.2505
 2984SOL     OW20584   2.388   2.006   7.256  0.1574  0.3039  0.5555
 2984SOL    HW120585   2.430   1.921   7.239 -0.8704 -0.3270  1.1443
 2984SOL    HW220586   2.349   2.023   7.170  2.1494  2.7154  0.1276
 2985SOL     OW20587   2.091   0.086   6.268 -0.1910 -0.4210 -0.2193
 2985SOL    HW120588   2.074   0.169   6.312 -0.4693 -0.1335 -0.8672
 2985SOL    HW220589   2.021   0.090   6.203  1.4316  0.9213 -1.9104
 2986SOL     OW20590   3.118   0.326   3.105  0.3619  0.6813 -0.1846
 2986SOL    HW120591   3.122   0.339   3.010 -0.4609 -2.7514 -0.6785
 2986SOL    HW220592   3.155   0.239   3.117 -1.6100 -0.4184 -2.3228
 2987SOL     OW20593   2.980   0.779   9.897 -0.9016 -0.3114  0.6544
 2987SOL    HW120594   2.935   0.850   9.942 -1.5971  0.0924 -0.7017
 2987SOL    HW220595   3.038   0.738   9.962 -1.1858 -1.1801  0.3619
 2988SOL     OW20596   0.753   3.577   8.365  0.1001 -0.3921 -0.0310
 2988SOL    HW120597   0.772   3.577   8.272 -2.7124 -1.3306 -0.6039
 2988SOL    HW220598   0.777   3.668   8.380  0.9388 -0.2116 -2.6264
 2989SOL     OW20599   1.109   3.965   7.929 -0.1382  0.1687  0.1391
 2989SOL    HW120600   1.057   3.997   7.856 -1.2127 -2.0902 -0.0857
 2989SOL    HW220601   1.183   4.024   7.940  0.7753 -1.0594  0.5749
 2990SOL     OW20602   1.988   2.025   4.008  0.5782  0.4287 -0.3244
 2990SOL    HW120603   1.918   2.008   3.945 -2.2035  2.5571  2.1587
 2990SOL    HW220604   2.048   2.079   3.955  0.4272  2.0330  1.1277
 2991SOL     OW20605   0.783   1.439   5.470 -0.1386 -0.2707  0.2828
 2991SOL    HW120606   0.702   1.463   5.426  1.1911  1.8238 -1.0435
 2991SOL    HW220607   0.764   1.346   5.476 -0.5712  0.0972  4.8444
 2992SOL     OW20608   0.994   4.394  12.326  0.1687  0.0599  0.4134
 2992SOL    HW120609   0.985   4.489  12.334  0.5623  0.1134  0.1952
 2992SOL    HW220610   1.088   4.380  12.334  0.1694 -0.8798 -1.4383
 2993SOL     OW20611   2.345   2.979   4.066 -0.4020  0.6475  0.0275
 2993SOL    HW120612   2.389   3.063   4.047 -1.0352  0.9846  0.0576
 2993SOL    HW220613   2.408   2.916   4.031  1.8865  0.6571  4.2144
 2994SOL     OW20614   4.685   3.521   7.962  0.2197 -0.2624 -0.2887
 2994SOL    HW120615   0.016   3.582   7.980 -0.0051 -0.0248 -0.2025
 2994SOL    HW220616   4.728   3.441   7.990  2.0145  1.0566  0.7089
 2995SOL     OW20617   4.292   2.216   8.744 -0.4931  0.4428  0.4319
 2995SOL    HW120618   4.216   2.169   8.777 -1.2592  0.5104 -1.2348
 2995SOL    HW220619   4.283   2.200   8.650  3.1034  0.1592  0.1317
 2996SOL     OW20620   4.229   1.110  10.190 -0.2400 -0.1822  0.5950
 2996SOL    HW120621   4.289   1.183  10.174 -1.2777  0.3640 -0.8300
 2996SOL    HW220622   4.162   1.147  10.247 -0.5031  1.6520 -0.8946
 2997SOL     OW20623   4.110   4.235   7.769 -0.0463 -0.9214 -0.4018
 2997SOL    HW120624   4.158   4.194   7.697 -2.2620 -1.5184 -1.5414
 2997SOL    HW220625   4.034   4.176   7.767 -0.5501 -0.2985  0.9789
 2998SOL     OW20626   2.707   3.355   5.485  0.7089  0.0728 -0.2514
 2998SOL    HW120627   2.798   3.369   5.458  0.9335  0.3150  0.6414
 2998SOL    HW220628   2.696   3.429   5.544  0.8729  1.3851 -1.8593
 2999SOL     OW20629   1.627   1.501  16.590  0.2926  0.0703  0.6530
 2999SOL    HW120630   1.571   1.424  16.600 -1.7206  1.2245 -1.7980
 2999SOL    HW220631   1.622   1.509  16.495 -1.9275 -1.4609  0.6383
 3000SOL     OW20632   2.728   2.920   3.315  0.3064  0.3825 -0.2285
 3000SOL    HW120633   2.680   2.994   3.353  2.0737  0.9211  0.9323
 3000SOL    HW220634   2.699   2.858   3.382  0.7756 -0.3325 -0.6790
 3001SOL     OW20635   0.765   1.389  10.286  0.3046  0.3984  0.7444
 3001SOL    HW120636   0.721   1.409  10.203  2.7907  1.1805 -0.3877
 3001SOL    HW220637   0.851   1.368  10.250 -0.1322  0.4173 -0.3177
 3002SOL     OW20638   2.160   3.038   7.788 -0.0915 -0.7248 -0.2841
 3002SOL    HW120639   2.070   3.045   7.757  0.5734 -0.2707 -2.0937
 3002SOL    HW220640   2.204   3.098   7.728  0.2388  1.6544  2.2919
 3003SOL     OW20641   3.906   0.942  11.515 -0.2429  0.5640 -0.1375
 3003SOL    HW120642   3.881   1.014  11.458 -1.1204  0.5195  0.1835
 3003SOL    HW220643   3.820   0.908  11.543  0.7969 -1.1427  0.9973
 3004SOL     OW20644   2.414   0.069   6.453  0.3656  0.3026  0.0636
 3004SOL    HW120645   2.391   0.162   6.442 -1.1783 -0.0739  0.0768
 3004SOL    HW220646   2.331   0.030   6.481  0.7799 -0.9832 -0.5140
 3005SOL     OW20647   0.955   2.227   9.989  0.0660 -0.2173  0.1097
 3005SOL    HW120648   0.914   2.311  10.006  0.1367 -0.0824 -0.3799
 3005SOL    HW220649   0.887   2.184   9.936 -0.6485  1.1999 -0.1329
 3006SOL     OW20650   0.248   1.830   7.041 -0.1154  0.3737  0.9373
 3006SOL    HW120651   0.213   1.825   7.131  0.9479  1.1890  1.3942
 3006SOL    HW220652   0.254   1.739   7.012  2.8097  0.9246 -0.1544
 3007SOL     OW20653   1.703   4.266   2.179 -0.3890 -0.1586  0.1770
 3007SOL    HW120654   1.633   4.219   2.225  0.7210 -1.8486  0.1546
 3007SOL    HW220655   1.714   4.339   2.239 -1.7944 -0.6084  0.9780
 3008SOL     OW20656   0.939   1.417  10.065  0.1225 -0.4513 -0.3059
 3008SOL    HW120657   0.917   1.498  10.020  2.8155 -0.8688 -2.4159
 3008SOL    HW220658   1.025   1.403  10.025  1.1240 -0.5961  1.9149
 3009SOL     OW20659   3.585   0.538   4.452 -0.3452  0.0703 -0.1991
 3009SOL    HW120660   3.669   0.583   4.451  0.4911 -1.4695  0.9236
 3009SOL    HW220661   3.520   0.608   4.444 -1.4293 -1.0315 -1.1322
 3010SOL     OW20662   4.367   1.560   2.071  0.1039 -0.5147  0.2010
 3010SOL    HW120663   4.308   1.582   2.143 -0.5149  0.1783 -0.5221
 3010SOL    HW220664   4.429   1.499   2.112  2.3741  1.5302 -0.1441
 3011SOL     OW20665   0.914   0.791  11.496  0.2570 -0.1919 -0.8482
 3011SOL    HW120666   0.833   0.790  11.548 -0.5838  1.3240 -2.1242
 3011SOL    HW220667   0.980   0.797  11.565  0.2916  4.1157 -1.2705
 3012SOL     OW20668   0.537   0.007  15.686  0.1115 -0.2622  0.2204
 3012SOL    HW120669   0.491   0.038  15.608 -0.8816 -0.5299  0.7032
 3012SOL    HW220670   0.503   4.658  15.684 -1.1720  0.2215  0.8278
 3013SOL     OW20671   0.057   3.769  10.169 -0.1632 -0.6720 -0.3198
 3013SOL    HW120672   0.129   3.745  10.110 -0.1657 -0.9849 -0.1920
 3013SOL    HW220673   4.711   3.746  10.135 -0.7605  0.0832  0.6937
 3014SOL     OW20674   1.483   0.568   6.693 -0.4364 -0.0882 -0.1118
 3014SOL    HW120675   1.545   0.595   6.625  0.1653  0.4844  0.6659
 3014SOL    HW220676   1.420   0.517   6.641 -1.0701  1.6398 -1.0267
 3015SOL     OW20677   0.673   2.891   1.999  0.0418  0.5063  0.2056
 3015SOL    HW120678   0.633   2.839   2.068  2.4453 -0.1550  1.1012
 3015SOL    HW220679   0.640   2.847   1.921 -0.3998  2.3619 -0.6620
 3016SOL     OW20680   1.781   0.877   5.552 -0.3457 -0.1848  0.0562
 3016SOL    HW120681   1.686   0.873   5.539 -0.4076 -0.1772  0.5000
 3016SOL    HW220682   1.806   0.785   5.559 -2.2810 -0.8727 -1.8668
 3017SOL     OW20683   0.608   4.291   3.669 -0.0871 -0.3868 -0.0689
 3017SOL    HW120684   0.586   4.260   3.757 -0.6840 -0.6512 -0.3141
 3017SOL    HW220685   0.610   4.212   3.615 -1.3633 -0.7237  0.3854
 3018SOL     OW20686   2.070   1.588   5.462  0.0976  0.0170  0.3054
 3018SOL    HW120687   1.989   1.574   5.412  0.5292 -0.4087 -0.2746
 3018SOL    HW220688   2.142   1.560   5.406  1.0091  1.8724  0.5624
 3019SOL     OW20689   3.232   3.255  14.862  0.5644  0.4533  0.1321
 3019SOL    HW120690   3.232   3.342  14.900 -0.7605  0.7373 -0.5366
 3019SOL    HW220691   3.260   3.255  14.770 -1.3722 -1.6136 -0.4779
 3020SOL     OW20692   0.982   1.100  15.615 -0.5246 -0.2884  0.4938
 3020SOL    HW120693   0.919   1.045  15.569 -0.4249 -0.1071  0.1449
 3020SOL    HW220694   1.012   1.042  15.685  0.2022 -1.2779 -0.6284
 3021SOL     OW20695   0.197   3.381   3.301 -0.2597  0.2783 -0.2053
 3021SOL    HW120696   0.252   3.457   3.316  2.4273 -1.1352 -2.8826
 3021SOL    HW220697   0.218   3.331   3.379  0.1428  1.2679  0.3156
 3022SOL     OW20698   2.712   1.962   2.762  0.0420 -0.1289 -0.0460
 3022SOL    HW120699   2.755   1.939   2.679 -1.0000 -1.3161 -0.2533
 3022SOL    HW220700   2.620   1.947   2.741  0.4968 -1.7619 -0.8761
 3023SOL     OW20701   4.516   0.854  13.710  0.5133  0.1580 -0.4447
 3023SOL    HW120702   4.520   0.830  13.617 -4.0276 -0.4042 -0.4654
 3023SOL    HW220703   4.587   0.798  13.742  1.3153  0.8914 -0.9310
 3024SOL     OW20704   0.840   4.711   8.236  0.5702 -0.1175  0.4250
 3024SOL    HW120705   0.922   0.002   8.200  0.8547  1.0499  2.0890
 3024SOL    HW220706   0.800   4.664   8.163  3.1167 -2.1445  0.3421
 3025SOL     OW20707   1.909   2.956   6.089  0.1531  0.0950  0.2653
 3025SOL    HW120708   1.927   3.034   6.141  2.5755  1.2483 -2.3176
 3025SOL    HW220709   1.964   2.971   6.012 -0.0962 -3.4263 -0.6208
 3026SOL     OW20710   1.310   3.948   0.241  0.1261 -0.0889  0.4006
 3026SOL    HW120711   1.353   3.910   0.164  0.1341  2.9967 -1.0983
 3026SOL    HW220712   1.233   3.891   0.243  1.2250 -1.6402 -1.2171
 3027SOL     OW20713   1.870   0.542  10.770  0.4204  0.2880 -0.1223
 3027SOL    HW120714   1.932   0.608  10.804  0.1726  0.6167 -0.3117
 3027SOL    HW220715   1.806   0.597  10.726  1.0162 -0.0246 -1.3641
 3028SOL     OW20716   4.615   4.343   9.179  0.3482  0.5446 -0.1406
 3028SOL    HW120717   4.674   4.408   9.216  0.2499  1.1048 -0.9789
 3028SOL    HW220718   4.538   4.381   9.222  1.3687 -1.7346  3.7258
 3029SOL     OW20719   1.902   2.596   7.965 -0.1569 -0.5113  0.5916
 3029SOL    HW120720   1.854   2.667   8.007  1.5274  1.5376 -0.9278
 3029SOL    HW220721   1.907   2.528   8.032 -0.4603 -0.4127  0.7144
 3030SOL     OW20722   1.949   1.985   6.997  0.2674 -0.0456 -0.7173
 3030SOL    HW120723   1.889   1.980   7.072 -2.4838  2.0470 -2.8063
 3030SOL    HW220724   1.921   1.915   6.938 -0.2532 -0.1768 -0.3111
 3031SOL     OW20725   4.532   2.156   0.067 -0.0459  0.2200 -0.4037
 3031SOL    HW120726   4.514   2.171  17.734  0.2308 -1.0952 -0.6743
 3031SOL    HW220727   4.603   2.092   0.059  0.5172  0.7531  0.4252
 3032SOL     OW20728   4.447   2.617   8.270  0.1288  0.2191  0.4379
 3032SOL    HW120729   4.516   2.602   8.335  1.4947  1.1111 -0.7937
 3032SOL    HW220730   4.407   2.690   8.318  0.9403  1.0834 -0.1916
 3033SOL     OW20731   0.326   1.789   0.700  0.2515  0.2482 -0.4332
 3033SOL    HW120732   0.308   1.820   0.789  1.9200 -1.0987  0.3731
 3033SOL    HW220733   0.348   1.873   0.661  0.2766  0.1098 -0.7150
 3034SOL     OW20734   1.070   2.796   0.479 -0.0385  1.0533 -0.0425
 3034SOL    HW120735   1.109   2.709   0.486 -2.8584 -0.3315 -1.1636
 3034SOL    HW220736   0.997   2.763   0.426 -0.0000 -0.9868  1.1816
 3035SOL     OW20737   1.420   2.451  15.878 -0.3228  0.1858  0.2625
 3035SOL    HW120738   1.436   2.503  15.799 -2.5882 -1.1320 -1.0626
 3035SOL    HW220739   1.370   2.500  15.943  0.7675  2.6682 -0.7757
 3036SOL     OW20740   2.822   4.576   8.970 -0.0036 -0.0722  0.4388
 3036SOL    HW120741   2.749   4.562   9.030 -0.2284 -0.0611  0.1666
 3036SOL    HW220742   2.776   4.582   8.886 -0.6666  0.0025  0.8083
 3037SOL     OW20743   4.246   1.401   3.942  0.1502  0.5272  0.1054
 3037SOL    HW120744   4.237   1.346   4.020  2.5392 -0.5653 -0.3651
 3037SOL    HW220745   4.340   1.418   3.935  0.2599 -0.3952 -0.6829
 3038SOL     OW20746   3.949   0.014   2.909 -0.0551 -0.0146  0.3359
 3038SOL    HW120747   3.951   4.680   2.969 -1.8410  0.0048  0.4405
 3038SOL    HW220748   3.954   4.699   2.831 -4.2181 -1.2601  0.9304
 3039SOL     OW20749   1.470   1.462  14.930  0.1006  0.3006 -0.2759
 3039SOL    HW120750   1.377   1.472  14.953  0.6930  2.8865  1.0244
 3039SOL    HW220751   1.466   1.452  14.835 -0.6419 -1.3258 -0.0739
 3040SOL     OW20752   4.456   0.903   7.844  0.0882  0.4456  0.0053
 3040SOL    HW120753   4.379   0.853   7.818  0.0017  1.0102 -0.8374
 3040SOL    HW220754   4.424   0.993   7.847 -0.6738  0.1937 -0.6794
 3041SOL     OW20755   0.228   2.500   2.097 -0.4026  0.6411 -0.1218
 3041SOL    HW120756   0.311   2.457   2.116 -0.5084  0.9017  0.9122
 3041SOL    HW220757   0.237   2.546   2.013 -1.8340 -0.5765 -0.9486
 3042SOL     OW20758   0.715   1.328   5.922  0.1631  0.1228  0.2610
 3042SOL    HW120759   0.681   1.381   5.850  0.0798 -1.0639 -0.5554
 3042SOL    HW220760   0.630   1.329   5.966  1.0748 -1.1917  2.0586
 3043SOL     OW20761   2.951   2.104  16.809 -0.6631  0.1308 -1.0288
 3043SOL    HW120762   2.905   2.173  16.857 -0.4151 -1.4707  1.5119
 3043SOL    HW220763   2.927   2.034  16.870 -1.0189 -0.3549 -1.7134
 3044SOL     OW20764   2.236   4.426  10.155 -0.0840  0.5320  0.8265
 3044SOL    HW120765   2.219   4.426  10.249  0.4540 -0.0511  0.9215
 3044SOL    HW220766   2.235   4.521  10.144 -1.5678  0.4495  0.1656
 3045SOL     OW20767   4.445   3.669   2.092  0.1678 -0.0607 -0.2134
 3045SOL    HW120768   4.514   3.606   2.076  1.5962  1.8107 -1.4013
 3045SOL    HW220769   4.494   3.736   2.139  0.4165 -1.4518  1.5242
 3046SOL     OW20770   4.726   2.174   5.671 -0.2431  0.2231 -0.2271
 3046SOL    HW120771   4.656   2.238   5.654 -0.5790 -0.1609 -0.2881
 3046SOL    HW220772   4.736   2.174   5.766  1.1282 -0.9806 -0.3694
 3047SOL     OW20773   4.103   3.073   8.889  0.4728 -0.3904  0.3840
 3047SOL    HW120774   4.073   3.142   8.948  1.7499 -0.8434  1.5646
 3047SOL    HW220775   4.078   3.115   8.806  0.9354 -0.8934 -0.0136
 3048SOL     OW20776   4.381   4.038   9.563  0.1632  0.3238  0.0558
 3048SOL    HW120777   4.384   4.068   9.654 -1.0682  4.0136 -1.1191
 3048SOL    HW220778   4.361   3.944   9.563 -0.8308  0.5343 -0.5958
 3049SOL     OW20779   0.116   0.486   3.247  0.1734  0.1296 -0.2342
 3049SOL    HW120780   0.095   0.511   3.337 -1.3016 -0.4334 -0.4243
 3049SOL    HW220781   0.195   0.538   3.231  0.1166  0.9371  2.0971
 3050SOL     OW20782   4.431   4.226   9.807 -0.2727  0.2759 -0.1231
 3050SOL    HW120783   4.453   4.166   9.879  2.2134  2.2296  0.7516
 3050SOL    HW220784   4.353   4.271   9.838 -1.7084 -1.8820 -0.6027
 3051SOL     OW20785   0.484   4.342   4.524 -0.5768 -0.3725  0.1800
 3051SOL    HW120786   0.423   4.315   4.592 -2.0833  1.7174 -0.3331
 3051SOL    HW220787   0.565   4.348   4.575 -0.5774  0.0496  0.1358
 3052SOL     OW20788   4.433   1.618   8.522 -0.5616 -0.2202  0.1598
 3052SOL    HW120789   4.403   1.567   8.597  0.1197 -1.0431 -0.1182
 3052SOL    HW220790   4.470   1.694   8.567  1.6415 -0.7348 -0.7809
 3053SOL     OW20791   4.171   4.048   1.670 -0.3478 -0.3469  0.2290
 3053SOL    HW120792   4.131   3.998   1.741 -1.6744 -1.3789 -1.2328
 3053SOL    HW220793   4.263   4.052   1.698 -0.6542  0.0191  1.1901
 3054SOL     OW20794   0.637   3.690   6.421 -0.3368 -0.5219 -0.2604
 3054SOL    HW120795   0.726   3.682   6.388 -0.0483 -1.7372  0.8173
 3054SOL    HW220796   0.584   3.692   6.342  0.3311 -0.7671 -0.7111
 3055SOL     OW20797   3.713   3.356   2.921 -0.0691 -0.2542  0.1858
 3055SOL    HW120798   3.620   3.374   2.918  0.6136  3.2767  0.3050
 3055SOL    HW220799   3.726   3.325   3.010  0.7699 -1.3069 -0.2976
 3056SOL     OW20800   4.187   4.399   9.308  0.3492  0.5504  0.1452
 3056SOL    HW120801   4.207   4.410   9.215 -1.4055  1.0481 -0.1721
 3056SOL    HW220802   4.224   4.311   9.310 -0.4628  0.2087  0.1676
 3057SOL     OW20803   2.585   3.558   7.643  0.1345 -0.0997 -0.0108
 3057SOL    HW120804   2.521   3.609   7.594 -0.5169 -1.9689 -1.0934
 3057SOL    HW220805   2.618   3.644   7.670 -1.9728  0.0654  2.0594
 3058SOL     OW20806   3.000   1.209   5.968 -0.2652  0.0257 -0.5708
 3058SOL    HW120807   3.027   1.146   6.035 -0.9756 -0.0572 -0.3631
 3058SOL    HW220808   3.055   1.182   5.894 -5.5319  0.7885 -4.7693
 3059SOL     OW20809   0.121   2.791   8.518 -0.2235  0.3147  0.2561
 3059SOL    HW120810   0.064   2.824   8.587 -1.9148  1.9274 -1.9124
 3059SOL    HW220811   0.198   2.767   8.570  0.1377 -0.2174 -0.5234
 3060SOL     OW20812   1.929   3.221   2.381  0.2851  0.2387  0.1947
 3060SOL    HW120813   1.919   3.311   2.411 -0.5461 -0.0907  0.9180
 3060SOL    HW220814   1.889   3.219   2.294  3.0325 -0.1563 -1.0309
 3061SOL     OW20815   2.282   4.446   6.529  0.5298 -0.0645 -0.2570
 3061SOL    HW120816   2.258   4.535   6.502 -0.4833 -0.0957  0.5551
 3061SOL    HW220817   2.317   4.410   6.448 -1.5060  2.5412 -2.2724
 3062SOL     OW20818   1.205   1.857   2.769  0.1980  0.2679  0.4255
 3062SOL    HW120819   1.142   1.825   2.705 -0.6622  0.0569  1.3764
 3062SOL    HW220820   1.244   1.926   2.715  1.5018  0.0421  1.0729
 3063SOL     OW20821   4.656   2.237  11.805 -0.3975 -0.1171 -0.5919
 3063SOL    HW120822   4.636   2.232  11.712  0.3993  0.5955 -0.8018
 3063SOL    HW220823   4.586   2.290  11.842  0.1842 -1.1785  2.0662
 3064SOL     OW20824   4.423   3.667   4.926  0.2324 -0.0052 -0.2110
 3064SOL    HW120825   4.358   3.695   4.991  0.2203  0.2091 -0.3164
 3064SOL    HW220826   4.502   3.662   4.980  2.0598 -0.5021 -2.9738
 3065SOL     OW20827   1.554   1.245   2.700  0.6029  0.5574 -0.1265
 3065SOL    HW120828   1.636   1.277   2.738  0.4013  0.0962  0.6914
 3065SOL    HW220829   1.592   1.175   2.647  0.9686  0.9692 -0.4077
 3066SOL     OW20830   4.604   0.650   4.843  0.1149 -0.5935 -0.3915
 3066SOL    HW120831   4.641   0.630   4.929 -2.2571  1.1782  1.0533
 3066SOL    HW220832   4.616   0.745   4.848 -0.1959 -0.7002  2.5233
 3067SOL     OW20833   0.111   0.242   7.525  0.2607  0.2618  0.5247
 3067SOL    HW120834   0.094   0.149   7.512  0.1929  0.5629 -1.5360
 3067SOL    HW220835   0.192   0.249   7.474  0.5993 -1.2458  0.8511
 3068SOL     OW20836   2.687   2.131   1.335  0.6420 -0.1029  0.7563
 3068SOL    HW120837   2.637   2.052   1.353 -0.1719  0.3005  0.2468
 3068SOL    HW220838   2.760   2.084   1.296  0.9314  0.1650  0.9720
 3069SOL     OW20839   3.338   3.254  17.139 -0.2313 -0.3670  0.2060
 3069SOL    HW120840   3.256   3.251  17.090 -0.8717  2.0175  1.1244
 3069SOL    HW220841   3.399   3.299  17.080 -1.4404 -0.3196 -1.0245
 3070SOL     OW20842   4.576   4.702   8.541 -0.0515 -0.1335 -0.0513
 3070SOL    HW120843   4.640   4.714   8.470  0.5996 -1.4400  0.3172
 3070SOL    HW220844   4.492   4.714   8.498 -1.0032  0.9899  2.1493
 3071SOL     OW20845   1.967   4.520   5.434  0.0183 -0.1067  0.4482
 3071SOL    HW120846   2.028   4.459   5.475  0.0846  0.8976  1.8327
 3071SOL    HW220847   1.910   4.472   5.374  0.5749  0.9187 -0.9193
 3072SOL     OW20848   1.232   3.366  12.687  0.6569  0.7200 -0.6503
 3072SOL    HW120849   1.258   3.329  12.602  0.8251 -0.6727  0.0171
 3072SOL    HW220850   1.260   3.300  12.750 -0.0005 -0.2196 -1.3589
 3073SOL     OW20851   3.054   4.343   2.935  0.0747 -0.1109  0.1169
 3073SOL    HW120852   3.028   4.431   2.906 -2.3628 -0.8911 -0.1203
 3073SOL    HW220853   2.977   4.294   2.905 -0.7213 -0.3805  2.6066
 3074SOL     OW20854   4.687   2.148  13.208  0.4363 -0.1540  0.0222
 3074SOL    HW120855   4.740   2.108  13.139  0.9082 -0.7703  0.7439
 3074SOL    HW220856   0.018   2.186  13.258  0.8193 -1.0264  0.1383
 3075SOL     OW20857   0.686   3.407   5.594  0.5741  0.1171 -0.0790
 3075SOL    HW120858   0.616   3.459   5.633  0.8891 -0.3467  1.1126
 3075SOL    HW220859   0.646   3.380   5.512  0.5050  1.0793 -0.3614
 3076SOL     OW20860   3.973   1.201  13.165 -0.0590 -0.1813 -0.0623
 3076SOL    HW120861   3.980   1.154  13.248 -1.3978  2.9201  1.7861
 3076SOL    HW220862   4.066   1.204  13.142 -0.5630  0.0632 -2.1510
 3077SOL     OW20863   3.509   4.583   4.431 -0.0052 -0.2352 -0.0816
 3077SOL    HW120864   3.429   4.573   4.482  0.4016  0.6696  0.7377
 3077SOL    HW220865   3.466   4.583   4.346 -0.8042 -2.2368  0.3318
 3078SOL     OW20866   2.698   2.629  15.754 -0.0422 -0.0461  0.2214
 3078SOL    HW120867   2.725   2.719  15.734  1.2916 -0.0218  2.1062
 3078SOL    HW220868   2.686   2.592  15.667  0.5760 -2.0625  0.9792
 3079SOL     OW20869   4.457   1.380   2.944 -0.1103 -0.2811 -0.0134
 3079SOL    HW120870   4.409   1.462   2.955 -1.6587 -0.7923 -2.9808
 3079SOL    HW220871   4.410   1.331   3.012 -0.6321 -2.9124 -2.2790
 3080SOL     OW20872   0.519   2.265   8.132 -0.2913 -0.4349 -0.6765
 3080SOL    HW120873   0.606   2.277   8.168  0.1300  1.3332 -2.2812
 3080SOL    HW220874   0.451   2.272   8.199  1.4189 -2.6728  1.2806
 3081SOL     OW20875   3.490   1.846   4.944  0.0336 -0.1366 -0.8337
 3081SOL    HW120876   3.557   1.827   4.879  0.9958 -2.5396  0.8640
 3081SOL    HW220877   3.535   1.832   5.027 -0.0933 -1.5107 -1.0081
 3082SOL     OW20878   1.143   3.557   0.266  0.0013  0.1080  0.3904
 3082SOL    HW120879   1.141   3.489   0.333  0.4335 -1.3508 -1.0877
 3082SOL    HW220880   1.236   3.578   0.273  0.3619 -1.7710  1.3128
 3083SOL     OW20881   3.324   1.409  16.174 -0.0896  0.3979 -0.1874
 3083SOL    HW120882   3.358   1.384  16.088  1.2129 -0.0051  0.4454
 3083SOL    HW220883   3.252   1.348  16.189 -1.7628  2.5786  0.6415
 3084SOL     OW20884   1.007   4.136   5.029 -0.1057 -0.0016  0.6740
 3084SOL    HW120885   0.968   4.059   5.070 -1.5409  0.0065 -0.6793
 3084SOL    HW220886   0.945   4.141   4.957  2.0030 -0.1438 -1.1348
 3085SOL     OW20887   0.081   1.091  12.258  0.1792 -0.6335  0.1319
 3085SOL    HW120888   0.064   1.000  12.284 -1.3106 -0.9044 -1.8012
 3085SOL    HW220889   4.738   1.120  12.221 -0.1929 -1.2942  0.4579
 3086SOL     OW20890   2.974   2.188   2.843  0.5577  0.2484 -0.0694
 3086SOL    HW120891   3.063   2.172   2.874  0.1665 -1.1128  0.3878
 3086SOL    HW220892   2.928   2.130   2.905 -0.5259  0.1853 -0.9247
 3087SOL     OW20893   0.408   2.580   3.153  0.1984  0.0061 -0.4677
 3087SOL    HW120894   0.400   2.576   3.248  0.3973 -0.7192 -0.4808
 3087SOL    HW220895   0.501   2.599   3.148  0.3332 -0.1925  1.3021
 3088SOL     OW20896   4.279   3.705  17.031  0.1779  0.6901  0.7869
 3088SOL    HW120897   4.222   3.735  16.960 -0.9712 -1.8281  0.6286
 3088SOL    HW220898   4.216   3.656  17.084 -0.1574  0.2933  0.0324
 3089SOL     OW20899   0.737   0.698  15.117  0.0627  0.2441  0.0317
 3089SOL    HW120900   0.721   0.669  15.027 -2.8567  0.5803  0.4353
 3089SOL    HW220901   0.688   0.780  15.125  1.7187  1.0964  1.4773
 3090SOL     OW20902   3.301   1.380   3.493  0.2312 -0.2002  0.2514
 3090SOL    HW120903   3.322   1.392   3.400 -0.5930  0.3431  0.1380
 3090SOL    HW220904   3.380   1.421   3.528 -0.0378  1.3408 -0.9697
 3091SOL     OW20905   2.587   3.768   6.801 -0.1177 -0.0483 -1.5393
 3091SOL    HW120906   2.622   3.731   6.882  0.1956  0.1034 -1.6045
 3091SOL    HW220907   2.661   3.829   6.793  0.0818 -0.1997 -0.8216
 3092SOL     OW20908   1.642   0.462   4.275  0.0310 -0.0088 -0.7669
 3092SOL    HW120909   1.605   0.400   4.211 -0.2978 -2.1371  1.4789
 3092SOL    HW220910   1.732   0.432   4.268 -0.2757 -1.2718  0.5458
 3093SOL     OW20911   1.426   3.402   7.687 -0.4714 -0.1714 -0.2878
 3093SOL    HW120912   1.360   3.470   7.669 -1.0630 -0.4555  0.8426
 3093SOL    HW220913   1.434   3.404   7.782  0.8790 -0.8129 -0.3884
 3094SOL     OW20914   3.563   2.317   6.291  0.1803  0.1518  0.0077
 3094SOL    HW120915   3.549   2.342   6.383  1.0591  0.4342  0.0653
 3094SOL    HW220916   3.569   2.407   6.258 -3.3053  0.4225  0.0239
 3095SOL     OW20917   0.243   0.193   4.558 -0.2599 -0.1457 -0.2403
 3095SOL    HW120918   0.263   0.224   4.646 -1.1020  3.4866 -1.2934
 3095SOL    HW220919   0.260   0.101   4.577  3.3059  0.5258 -0.2429
 3096SOL     OW20920   3.838   3.968   4.394 -0.2938  0.3605  0.5179
 3096SOL    HW120921   3.768   3.902   4.395  1.1347 -1.1586  0.5480
 3096SOL    HW220922   3.892   3.949   4.317  2.4063  2.2890  1.9574
 3097SOL     OW20923   4.347   2.950   3.178 -0.0222 -0.4281 -0.0848
 3097SOL    HW120924   4.251   2.955   3.170 -0.0902  1.6406  2.1673
 3097SOL    HW220925   4.359   2.978   3.087  1.5827  0.3435  0.3724
 3098SOL     OW20926   1.149   1.016   2.536  0.0974  0.1846 -0.5358
 3098SOL    HW120927   1.081   1.050   2.595  2.3557  0.5268  1.8846
 3098SOL    HW220928   1.216   1.085   2.539  0.8015 -0.5065 -0.1735
 3099SOL     OW20929   2.588   0.272   6.342 -0.0076  0.5151  0.0477
 3099SOL    HW120930   2.617   0.259   6.433 -1.8802  0.2263  0.5915
 3099SOL    HW220931   2.504   0.315   6.355  0.1471  0.5574  0.9621
 3100SOL     OW20932   1.377   0.163   9.432 -0.2065 -0.1903 -0.1371
 3100SOL    HW120933   1.325   0.092   9.470 -0.5562 -0.7682 -1.6875
 3100SOL    HW220934   1.438   0.182   9.503  0.9906  1.9331 -1.7453
 3101SOL     OW20935   0.711   3.840  11.781  0.2895  0.1997  0.1077
 3101SOL    HW120936   0.691   3.897  11.855 -0.0691 -0.9945  0.9316
 3101SOL    HW220937   0.752   3.769  11.830 -1.1340 -1.7784 -1.5720
 3102SOL     OW20938   4.647   1.500  12.192 -0.2922  0.1222  0.0262
 3102SOL    HW120939   4.718   1.469  12.248 -0.9738 -0.9292  0.3006
 3102SOL    HW220940   4.564   1.467  12.225 -0.7223 -0.8545 -2.0810
 3103SOL     OW20941   3.829   2.470   3.263  0.6964  0.2919 -0.2645
 3103SOL    HW120942   3.793   2.481   3.175  0.7839 -1.1292 -0.4749
 3103SOL    HW220943   3.914   2.515   3.255 -0.0386  1.5264 -1.1635
 3104SOL     OW20944   0.623   1.597   6.401  0.0330 -0.1377 -0.6902
 3104SOL    HW120945   0.609   1.513   6.358  1.1544 -0.5708 -0.2197
 3104SOL    HW220946   0.718   1.607   6.396 -0.0893  1.0275 -0.5987
 3105SOL     OW20947   4.473   4.634  14.051 -0.3066 -0.8606  0.8202
 3105SOL    HW120948   4.432   4.713  14.086 -0.9405 -0.6439 -0.3942
 3105SOL    HW220949   4.564   4.651  14.075 -0.7035  1.5836  0.6284
 3106SOL     OW20950   3.308   0.906   5.877 -0.5564  0.2400 -0.1528
 3106SOL    HW120951   3.372   0.960   5.922 -0.2417 -0.8035  0.6595
 3106SOL    HW220952   3.346   0.819   5.867 -0.5810  0.2162 -0.0483
 3107SOL     OW20953   0.116   3.988   4.377  0.4568 -0.6295 -0.7194
 3107SOL    HW120954   0.070   4.008   4.458  2.1975 -2.1135  0.6420
 3107SOL    HW220955   0.140   3.896   4.385  0.2790 -0.6133 -0.0078
 3108SOL     OW20956   0.622   2.033  13.411 -0.0503  0.7576  0.3264
 3108SOL    HW120957   0.631   2.095  13.339  0.1110  0.8559  0.4314
 3108SOL    HW220958   0.536   2.054  13.448  0.0731 -0.9915  1.6194
 3109SOL     OW20959   1.896   4.367   3.440  0.3546 -0.5499 -0.5207
 3109SOL    HW120960   1.969   4.377   3.380  0.2815 -2.6649 -0.9639
 3109SOL    HW220961   1.863   4.282   3.410 -0.1546  0.1044 -1.8038
 3110SOL     OW20962   3.766   2.699   8.286 -0.1894 -0.2675  0.0667
 3110SOL    HW120963   3.697   2.645   8.325 -1.1105  0.1651 -0.9653
 3110SOL    HW220964   3.837   2.647   8.322 -0.0346  0.1342  0.3407
 3111SOL     OW20965   0.747   0.717   7.442 -0.3385 -0.3150 -0.0796
 3111SOL    HW120966   0.823   0.773   7.425 -1.6811  0.7971 -2.3365
 3111SOL    HW220967   0.685   0.766   7.389  0.0917  0.2263 -0.0806
 3112SOL     OW20968   4.441   2.566   0.773 -0.1019 -0.1927  0.1268
 3112SOL    HW120969   4.531   2.587   0.750  0.7022 -2.1699  1.4909
 3112SOL    HW220970   4.393   2.551   0.691 -2.0088  2.4580  0.7490
 3113SOL     OW20971   3.958   4.167   5.585  0.0826  0.3985 -0.7307
 3113SOL    HW120972   4.027   4.158   5.652 -0.0202 -0.7294 -0.7837
 3113SOL    HW220973   3.896   4.097   5.603 -0.6882  0.9494 -1.2559
 3114SOL     OW20974   4.365   1.240   7.044  0.1010  0.7709  0.1623
 3114SOL    HW120975   4.400   1.328   7.061  1.1243  0.3525  0.2407
 3114SOL    HW220976   4.362   1.230   6.949  0.1378  0.3426  0.2038
 3115SOL     OW20977   0.902   1.442   1.392  0.5722  0.5691 -0.0594
 3115SOL    HW120978   0.837   1.383   1.430 -2.4637  3.1767 -1.1817
 3115SOL    HW220979   0.859   1.519   1.355  0.0102  1.1841  1.8898
 3116SOL     OW20980   0.867   0.835  11.924  0.9589  0.1470  0.4183
 3116SOL    HW120981   0.948   0.818  11.876  0.0241  2.2506 -1.8801
 3116SOL    HW220982   0.872   0.931  11.929  0.8193  0.1219  1.0519
 3117SOL     OW20983   0.432   1.313  12.301 -0.3097  0.0356  0.1398
 3117SOL    HW120984   0.376   1.383  12.268 -1.9523 -0.7549  1.2550
 3117SOL    HW220985   0.519   1.352  12.310 -0.3502  0.1778 -0.0953
 3118SOL     OW20986   1.831   3.371  11.950  0.8016 -0.3153  0.0143
 3118SOL    HW120987   1.761   3.389  11.887  1.0488 -1.3573 -0.5659
 3118SOL    HW220988   1.837   3.457  11.991 -0.8827 -0.1172 -0.1741
 3119SOL     OW20989   2.281   3.482  13.586  0.1134  0.5867  0.1032
 3119SOL    HW120990   2.338   3.557  13.601  0.1404  0.5344  0.2654
 3119SOL    HW220991   2.196   3.520  13.568 -0.2280  0.2247  0.9697
 3120SOL     OW20992   2.624   0.073  16.402  0.2597 -0.4453  0.6358
 3120SOL    HW120993   2.613   0.161  16.367  3.3588  0.0181  0.8786
 3120SOL    HW220994   2.629   0.088  16.496  0.0895  1.2609  0.3651
 3121SOL     OW20995   1.956   0.593   3.179  0.1400  0.0080 -0.1763
 3121SOL    HW120996   1.889   0.539   3.135  0.5672 -0.6333 -0.0426
 3121SOL    HW220997   1.947   0.556   3.267 -1.4139 -0.5090 -0.5520
 3122SOL     OW20998   3.753   0.765   2.284 -0.5176  0.2184 -0.2104
 3122SOL    HW120999   3.727   0.855   2.305 -1.4670 -0.5760  2.0188
 3122SOL    HW221000   3.830   0.791   2.232  0.9308 -0.8920  1.3696
 3123SOL     OW21001   3.480   4.330   4.149  0.1474 -0.2141  0.2282
 3123SOL    HW121002   3.447   4.316   4.237  0.0245 -0.2690  0.1731
 3123SOL    HW221003   3.399   4.337   4.099 -1.0095 -2.6871  1.7707
 3124SOL     OW21004   1.573   4.731   4.994  0.0111 -0.2869 -0.2403
 3124SOL    HW121005   1.540   0.015   5.081  0.7457  0.0190 -0.0471
 3124SOL    HW221006   1.494   4.716   4.941 -0.9350  2.2319  0.4869
 3125SOL     OW21007   2.133   4.619  12.968  0.4847  0.0589 -0.0323
 3125SOL    HW121008   2.164   4.550  12.909  4.1391  1.6021  0.0961
 3125SOL    HW221009   2.041   4.621  12.944  0.4693  0.2649  0.0449
 3126SOL     OW21010   3.133   4.601   3.823  0.2941  0.3084 -0.6630
 3126SOL    HW121011   3.038   4.589   3.815 -0.0351 -0.5851  4.4185
 3126SOL    HW221012   3.152   4.689   3.789 -1.5068  0.7160 -0.6393
 3127SOL     OW21013   4.715   2.832   8.735  0.1842 -0.0192  0.0275
 3127SOL    HW121014   4.620   2.829   8.727  0.2056 -0.9208  0.0570
 3127SOL    HW221015   4.730   2.773   8.809 -3.5466 -1.5170 -0.4528
 3128SOL     OW21016   0.698   1.768   9.245 -0.3788  0.5480  0.4331
 3128SOL    HW121017   0.782   1.793   9.206 -0.9139  3.1403  0.8901
 3128SOL    HW221018   0.687   1.673   9.244  1.4825  0.3320  0.3771
 3129SOL     OW21019   2.815   0.803   7.557  0.0452 -0.6838  0.3915
 3129SOL    HW121020   2.744   0.865   7.546 -1.0263 -2.1708 -1.1429
 3129SOL    HW221021   2.857   0.825   7.640  1.1013 -4.6460  0.9087
 3130SOL     OW21022   0.933   3.664   6.727 -0.0350  0.5144 -0.2180
 3130SOL    HW121023   0.908   3.711   6.647 -2.7553 -0.0750  0.2828
 3130SOL    HW221024   0.868   3.704   6.785 -1.9376 -1.1693 -1.2155
 3131SOL     OW21025   2.543   1.884   4.189  0.0328  0.5913 -0.0533
 3131SOL    HW121026   2.492   1.942   4.245 -0.1877  2.8633 -2.5653
 3131SOL    HW221027   2.476   1.820   4.164  0.1610  0.2119  0.6037
 3132SOL     OW21028   3.539   3.907   6.253  0.3595 -0.0169  0.5848
 3132SOL    HW121029   3.580   3.830   6.214  1.1794  0.3921  0.6523
 3132SOL    HW221030   3.474   3.869   6.313 -1.2567 -1.6538 -2.1554
 3133SOL     OW21031   0.855   4.087  13.439  0.1506 -0.7827 -0.0921
 3133SOL    HW121032   0.868   4.027  13.366 -1.7569  1.7714 -2.5544
 3133SOL    HW221033   0.767   4.122  13.421 -0.5493 -1.7213  1.4944
 3134SOL     OW21034   1.886   0.188  10.923 -0.0589 -0.2884 -0.1645
 3134SOL    HW121035   1.866   0.268  10.971  1.9487  0.1104 -0.0090
 3134SOL    HW221036   1.848   0.123  10.984  1.5774  1.1215  2.3670
 3135SOL     OW21037   1.075   1.919  17.612  0.2879  0.3517  0.4738
 3135SOL    HW121038   1.098   1.827  17.623 -1.3322  0.0755  1.5538
 3135SOL    HW221039   1.162   1.946  17.582  0.1117  0.6711  0.2473
 3136SOL     OW21040   1.039   1.024   5.558  0.1034  0.0271  0.3704
 3136SOL    HW121041   1.000   1.066   5.634  0.2882 -0.6568  0.8366
 3136SOL    HW221042   1.072   1.097   5.504 -1.5232  0.9242  0.5900
 3137SOL     OW21043   2.989   0.618   7.696 -0.1174  0.2274 -0.3630
 3137SOL    HW121044   2.929   0.647   7.628  0.0827 -1.1953 -1.1590
 3137SOL    HW221045   3.026   0.540   7.654 -0.5578 -1.9020  3.1361
 3138SOL     OW21046   0.924   2.741   7.584 -0.5160  0.2459  0.2601
 3138SOL    HW121047   0.985   2.667   7.585  1.8592  2.1744 -1.8822
 3138SOL    HW221048   0.946   2.783   7.501 -1.7022  0.6047  0.1289
 3139SOL     OW21049   1.622   4.210   7.042  0.6445  0.3810 -0.1650
 3139SOL    HW121050   1.700   4.184   6.994 -0.2872 -1.0713 -0.9011
 3139SOL    HW221051   1.580   4.268   6.978 -1.3002 -1.2604 -0.4066
 3140SOL     OW21052   0.502   1.727  10.561  0.2216  0.3569 -0.8974
 3140SOL    HW121053   0.550   1.648  10.534 -1.0677  0.4540 -3.5443
 3140SOL    HW221054   0.427   1.693  10.610  0.6758  0.2812 -0.2589
 3141SOL     OW21055   1.546   1.137  13.574 -0.6714  0.4288  0.0558
 3141SOL    HW121056   1.615   1.202  13.559  0.4623 -0.6279  0.6906
 3141SOL    HW221057   1.478   1.189  13.532 -0.9709 -0.5537 -0.6899
 3142SOL     OW21058   4.596   4.191   2.303  0.2777 -0.2563 -0.3314
 3142SOL    HW121059   4.648   4.116   2.332  0.4208  0.2070  0.6122
 3142SOL    HW221060   4.531   4.184   2.373 -0.1301  2.1737 -0.4530
 3143SOL     OW21061   2.054   3.826   1.856  0.2115  0.2584  0.5387
 3143SOL    HW121062   2.116   3.765   1.816 -1.4288  0.9375 -3.0591
 3143SOL    HW221063   1.978   3.813   1.798  0.7515  1.3525 -0.4128
 3144SOL     OW21064   0.011   4.388   1.462  0.0226 -0.3755 -0.3599
 3144SOL    HW121065   0.029   4.447   1.389  0.4876  0.8474  0.7372
 3144SOL    HW221066   4.657   4.381   1.446  0.0039 -1.7071  0.3271
 3145SOL     OW21067   2.199   3.746   5.151 -0.5935  0.1706 -0.1300
 3145SOL    HW121068   2.168   3.743   5.242 -2.4474 -3.1828 -0.8765
 3145SOL    HW221069   2.184   3.837   5.128 -1.9533  0.2242  0.9152
 3146SOL     OW21070   3.344   2.615   2.993 -0.4712  0.0418 -0.0674
 3146SOL    HW121071   3.268   2.558   3.001  1.4958 -2.6940 -0.6141
 3146SOL    HW221072   3.375   2.582   2.908 -0.6130 -2.1576  0.7467
 3147SOL     OW21073   4.105   0.088  16.167  0.3502 -0.4589  0.1641
 3147SOL    HW121074   4.078   0.076  16.076 -0.5440 -0.4372  0.4270
 3147SOL    HW221075   4.037   0.031  16.201 -1.8275  1.7971 -0.4523
 3148SOL     OW21076   0.473   4.677   6.478 -0.0027  0.5193 -0.1093
 3148SOL    HW121077   0.567   4.695   6.475  0.5596 -2.8092 -2.4473
 3148SOL    HW221078   0.439   4.717   6.558  2.5447 -0.7981  1.6335
 3149SOL     OW21079   2.754   1.995   3.315 -0.6029  0.5820  0.8015
 3149SOL    HW121080   2.684   1.940   3.352  1.8272 -2.3304  1.1338
 3149SOL    HW221081   2.826   1.946   3.356 -3.0940 -1.9476  2.1949
 3150SOL     OW21082   1.059   0.017   4.218  0.4350  0.5417  0.3940
 3150SOL    HW121083   1.044   0.109   4.237 -4.4170  0.0899 -1.3384
 3150SOL    HW221084   1.145   4.736   4.255  0.4253  2.0411  1.3064
 3151SOL     OW21085   1.392   1.738   9.684 -0.4142 -0.2293  0.6850
 3151SOL    HW121086   1.320   1.796   9.706 -0.1300  0.6509 -0.6798
 3151SOL    HW221087   1.341   1.705   9.609 -0.4210  0.6000  0.3281
 3152SOL     OW21088   3.288   1.928   2.378  0.5172 -0.4865  0.0478
 3152SOL    HW121089   3.246   1.987   2.314 -0.5242 -2.2108 -0.8553
 3152SOL    HW221090   3.298   2.001   2.439  1.8107  0.1625 -0.9374
 3153SOL     OW21091   1.272   0.806   1.841 -0.0049  0.3565 -0.5991
 3153SOL    HW121092   1.337   0.875   1.838  0.5901 -0.1980 -0.3970
 3153SOL    HW221093   1.304   0.747   1.773 -1.9436  1.4040 -2.4323
 3154SOL     OW21094   3.230   1.022   3.921 -0.0054  0.1713 -0.2577
 3154SOL    HW121095   3.252   1.103   3.875 -2.9191  0.2440 -1.4784
 3154SOL    HW221096   3.146   1.047   3.959 -0.4518  0.5361 -1.5147
 3155SOL     OW21097   3.674   1.744   9.825 -0.1126  0.5427  0.5499
 3155SOL    HW121098   3.690   1.838   9.822 -0.1021  0.5142 -0.4454
 3155SOL    HW221099   3.746   1.709   9.772 -2.9351 -1.6104 -1.8412
 3156SOL     OW21100   0.003   0.612   2.002  0.1639  0.2119 -0.7671
 3156SOL    HW121101   4.703   0.589   2.085  1.6692 -0.6163 -0.2513
 3156SOL    HW221102   0.092   0.582   2.023 -0.9339 -0.6709  2.6438
 3157SOL     OW21103   0.345   4.507   7.267  0.3024 -0.0725  0.3518
 3157SOL    HW121104   0.338   4.520   7.362 -1.7050  0.0100  0.1908
 3157SOL    HW221105   0.256   4.477   7.250  0.2660 -0.8109  1.8170
 3158SOL     OW21106   4.357   1.155   6.223 -0.1857 -0.3145  0.5112
 3158SOL    HW121107   4.361   1.249   6.237  1.3239 -0.3252  0.0640
 3158SOL    HW221108   4.263   1.143   6.209 -0.1540 -2.8225  2.3494
 3159SOL     OW21109   3.863   2.269   2.661 -0.4692  0.2279 -0.4992
 3159SOL    HW121110   3.931   2.324   2.623  1.4816  0.8553  3.9717
 3159SOL    HW221111   3.857   2.212   2.584  0.0081  0.9348 -1.0590
 3160SOL     OW21112   2.677   3.752   7.327  0.1373  0.4128 -0.1633
 3160SOL    HW121113   2.689   3.657   7.330  0.8895  0.4520 -1.7268
 3160SOL    HW221114   2.594   3.746   7.279  0.4652 -1.7485 -0.4537
 3161SOL     OW21115   3.286   0.503  11.410  0.5290 -0.2466  0.2215
 3161SOL    HW121116   3.290   0.580  11.466  0.5042 -0.6888  0.8395
 3161SOL    HW221117   3.365   0.519  11.358 -0.1468 -1.9497 -1.3376
 3162SOL     OW21118   1.431   3.626   4.824  0.0463  0.1271 -0.1802
 3162SOL    HW121119   1.439   3.663   4.736 -1.1473  0.4315 -0.1741
 3162SOL    HW221120   1.344   3.663   4.841  0.2455  0.6191 -0.2241
 3163SOL     OW21121   1.821   2.478  10.202 -0.1966  0.5358  0.0837
 3163SOL    HW121122   1.784   2.561  10.173  3.3176  1.4312 -1.7870
 3163SOL    HW221123   1.795   2.461  10.293 -2.8539 -1.0874 -0.9713
 3164SOL     OW21124   4.213   1.087  13.051  0.3359  0.1533 -0.0686
 3164SOL    HW121125   4.260   1.076  12.969  1.0728 -0.6616  0.4612
 3164SOL    HW221126   4.285   1.083  13.113  1.4882 -1.1802 -1.4981
 3165SOL     OW21127   1.344   2.357   8.016 -0.1050  0.1596 -0.1870
 3165SOL    HW121128   1.329   2.263   8.028 -0.8504  0.1608 -1.1873
 3165SOL    HW221129   1.274   2.398   8.066 -0.7566  0.0656 -1.0290
 3166SOL     OW21130   1.622   1.975   1.996  0.3474  0.5820 -0.4660
 3166SOL    HW121131   1.552   2.037   1.975 -0.6561 -0.7008 -0.8204
 3166SOL    HW221132   1.674   1.962   1.917 -0.7514 -1.7821 -0.7755
 3167SOL     OW21133   0.726   2.320   5.142 -0.3163 -0.3935  0.1560
 3167SOL    HW121134   0.701   2.410   5.164 -2.1100 -0.5534 -1.2372
 3167SOL    HW221135   0.681   2.311   5.058  0.5008  0.8242 -0.3976
 3168SOL     OW21136   0.968   3.624   3.708 -0.2312 -0.2575  0.0683
 3168SOL    HW121137   0.960   3.530   3.726 -1.5744  0.0353  0.9755
 3168SOL    HW221138   1.012   3.641   3.792 -0.1620  0.5029 -0.1240
 3169SOL     OW21139   3.674   2.201  10.971  0.2892  0.6944 -0.0683
 3169SOL    HW121140   3.674   2.267  10.902  2.9083  2.4452  1.6193
 3169SOL    HW221141   3.592   2.153  10.956  1.0901 -0.6149 -0.2921
 3170SOL     OW21142   0.978   0.437   7.452  0.9482 -0.0584 -0.4662
 3170SOL    HW121143   0.907   0.483   7.497  0.6450 -0.7999 -0.1972
 3170SOL    HW221144   1.039   0.510   7.436 -1.5650  1.5281 -2.8215
 3171SOL     OW21145   2.541   3.188   2.143 -0.4194  0.0055  0.0479
 3171SOL    HW121146   2.595   3.188   2.065  0.8759  0.5327  0.9467
 3171SOL    HW221147   2.608   3.207   2.209 -0.4061  0.1747 -0.0136
 3172SOL     OW21148   1.188   3.633   1.449 -0.1928  0.6980  0.0613
 3172SOL    HW121149   1.094   3.621   1.434 -0.2139 -1.1303  1.6363
 3172SOL    HW221150   1.197   3.719   1.492 -0.6484  0.6931  0.1676
 3173SOL     OW21151   1.309   1.988   0.866 -0.7607 -0.2467  0.1877
 3173SOL    HW121152   1.313   1.929   0.790 -1.1075 -0.1968  0.1334
 3173SOL    HW221153   1.377   2.054   0.852 -1.3405 -0.2700 -2.9239
 3174SOL     OW21154   4.502   0.824   7.559  0.2830 -0.3251  0.2606
 3174SOL    HW121155   4.534   0.778   7.481 -0.0606 -0.0289 -0.0599
 3174SOL    HW221156   4.495   0.746   7.613 -3.7909 -1.3482 -1.7517
 3175SOL     OW21157   4.033   1.789   0.564 -0.0147 -0.0574  0.3406
 3175SOL    HW121158   3.997   1.742   0.488  0.2924  0.4378 -0.1147
 3175SOL    HW221159   4.021   1.880   0.537 -1.0187  0.4825  2.6251
 3176SOL     OW21160   0.229   2.651   8.970 -0.0877  0.0756 -0.1437
 3176SOL    HW121161   0.248   2.660   8.877 -0.3840  1.5254 -0.0590
 3176SOL    HW221162   0.141   2.684   8.985 -0.2884  0.2383 -1.7293
 3177SOL     OW21163   3.001   2.801   9.717  0.0532 -0.0343 -0.3912
 3177SOL    HW121164   3.061   2.873   9.695  2.1669 -1.3476  0.9912
 3177SOL    HW221165   3.066   2.730   9.710  2.4750  2.4018 -2.7627
 3178SOL     OW21166   1.269   4.592  13.800 -0.0401  0.5147  0.0809
 3178SOL    HW121167   1.210   4.594  13.876 -0.3499  1.2964 -0.1759
 3178SOL    HW221168   1.227   4.513  13.766 -0.8779  0.4563  1.2496
 3179SOL     OW21169   1.444   1.332  12.494  0.0859  0.3062  0.2653
 3179SOL    HW121170   1.359   1.322  12.537  0.3250  1.1527  0.9396
 3179SOL    HW221171   1.458   1.426  12.504 -3.9628  1.0837 -1.4864
 3180SOL     OW21172   3.000   1.137   3.276  0.5732 -0.1641  0.3869
 3180SOL    HW121173   3.021   1.132   3.183  1.2243  2.2015  0.4025
 3180SOL    HW221174   2.982   1.045   3.298 -0.9534 -0.2517 -1.2298
 3181SOL     OW21175   0.395   2.801  15.638 -0.1023 -0.7493  0.2675
 3181SOL    HW121176   0.347   2.733  15.685  0.7154 -0.2801  1.7728
 3181SOL    HW221177   0.364   2.789  15.548 -2.7023 -1.5743  1.2603
 3182SOL     OW21178   1.241   1.327  12.274 -0.1976 -0.0552 -0.1781
 3182SOL    HW121179   1.257   1.332  12.369 -0.2819  0.4334 -0.1896
 3182SOL    HW221180   1.329   1.322  12.237 -0.7901  0.4038 -1.6317
 3183SOL     OW21181   1.152   2.498   4.951  0.3363 -0.6932  0.7074
 3183SOL    HW121182   1.156   2.580   5.000 -0.7595  0.3271 -0.9139
 3183SOL    HW221183   1.071   2.451   4.972 -1.3376  1.7069 -0.4834
 3184SOL     OW21184   3.124   3.973  10.763 -0.4163 -0.3128  0.7022
 3184SOL    HW121185   3.153   3.937  10.847 -0.1517  1.7592  1.4992
 3184SOL    HW221186   3.034   3.993  10.790 -0.0144  0.0929  1.7621
 3185SOL     OW21187   3.890   3.564   2.847  0.1104  0.2173 -0.0374
 3185SOL    HW121188   3.892   3.574   2.942 -0.1642  2.2829 -0.2499
 3185SOL    HW221189   3.866   3.472   2.840  1.5846 -0.2916  1.5599
 3186SOL     OW21190   2.959   0.911  11.437  0.2987  0.4039  0.0847
 3186SOL    HW121191   2.999   0.997  11.422  0.8458  0.3289  1.1325
 3186SOL    HW221192   2.915   0.895  11.353 -0.6063 -0.1220  0.6597
 3187SOL     OW21193   0.796   2.470  14.131 -0.1106 -0.4936 -0.0360
 3187SOL    HW121194   0.752   2.432  14.207  2.1383  3.1735  3.0783
 3187SOL    HW221195   0.794   2.562  14.156  2.9993  0.0578 -1.8428
 3188SOL     OW21196   1.979   2.853   4.743 -0.0018  0.0307  0.5420
 3188SOL    HW121197   2.070   2.848   4.713  0.5024 -0.4783  2.1640
 3188SOL    HW221198   1.971   2.947   4.759  0.9851  0.4421 -1.3694
 3189SOL     OW21199   2.966   4.292   3.338  0.4938 -0.4283 -0.3824
 3189SOL    HW121200   2.884   4.323   3.377  1.3692  0.6459  0.6262
 3189SOL    HW221201   2.936   4.208   3.304  2.3468 -1.2471 -0.0110
 3190SOL     OW21202   3.223   0.102   3.725 -0.0676 -0.0870 -0.9237
 3190SOL    HW121203   3.247   0.115   3.634 -0.1058  0.1805 -0.8939
 3190SOL    HW221204   3.186   0.188   3.740  1.5077  0.6083 -0.9843
 3191SOL     OW21205   1.546   3.877   7.464  0.4124  0.1053  0.3642
 3191SOL    HW121206   1.583   3.823   7.533  2.5151  0.4991 -0.4557
 3191SOL    HW221207   1.499   3.814   7.410 -0.2371  1.4035 -0.5863
 3192SOL     OW21208   3.590   2.764   4.434 -0.1547  0.0697 -0.8877
 3192SOL    HW121209   3.669   2.728   4.476 -0.5378  0.9679  0.6072
 3192SOL    HW221210   3.547   2.802   4.511 -1.1374 -2.1886 -0.3260
 3193SOL     OW21211   0.500   2.971   3.190  0.0789  0.3946  0.4616
 3193SOL    HW121212   0.550   2.907   3.140  0.7298 -0.1148  1.7422
 3193SOL    HW221213   0.573   3.019   3.228  1.4305 -0.4824 -1.0319
 3194SOL     OW21214   1.131   1.336   8.540  0.1915 -0.0814  0.2005
 3194SOL    HW121215   1.046   1.373   8.564 -0.5246 -0.7860 -1.2687
 3194SOL    HW221216   1.127   1.254   8.589 -0.5423 -0.8191 -1.0892
 3195SOL     OW21217   2.873   0.712   1.348  0.2476  1.0980 -0.2189
 3195SOL    HW121218   2.870   0.773   1.274  0.5045  0.4636 -0.7597
 3195SOL    HW221219   2.889   0.627   1.307 -3.1571 -0.7539  2.2894
 3196SOL     OW21220   2.522   1.812   5.946 -0.2353 -0.0500  0.6757
 3196SOL    HW121221   2.454   1.782   5.885 -0.0539 -0.1737  0.5356
 3196SOL    HW221222   2.476   1.889   5.980 -0.3095  0.3416 -0.3013
 3197SOL     OW21223   0.982   1.709   2.632 -0.3539  0.1057  0.2742
 3197SOL    HW121224   1.034   1.630   2.652 -1.0262 -0.6262 -0.8488
 3197SOL    HW221225   0.951   1.694   2.543 -0.6765  0.5537  0.3168
 3198SOL     OW21226   1.583   1.668   3.845  0.0441  0.0479 -0.1944
 3198SOL    HW121227   1.621   1.697   3.762  0.2099  1.4914  0.3894
 3198SOL    HW221228   1.630   1.725   3.905  1.0952 -0.0219 -0.9368
 3199SOL     OW21229   1.544   1.524   2.669  0.8905 -0.3739  0.3774
 3199SOL    HW121230   1.516   1.433   2.655  0.6096 -0.2000 -0.2188
 3199SOL    HW221231   1.628   1.534   2.624  0.7944  1.5339  0.6070
 3200SOL     OW21232   4.227   4.159  15.711 -0.1213 -0.1538  0.1033
 3200SOL    HW121233   4.206   4.096  15.779 -1.4267 -0.9580 -1.0333
 3200SOL    HW221234   4.274   4.099  15.653  0.2947 -0.0200  0.3061
 3201SOL     OW21235   3.262   4.355   6.972  0.1359  0.1514  0.0749
 3201SOL    HW121236   3.199   4.284   6.982 -0.6814  1.0918  1.6355
 3201SOL    HW221237   3.232   4.415   7.040  0.1884  0.3837 -0.1090
 3202SOL     OW21238   2.562   3.694  16.319 -0.0107 -0.1624 -0.2387
 3202SOL    HW121239   2.646   3.684  16.363 -1.5292 -1.7653  2.3140
 3202SOL    HW221240   2.534   3.602  16.315  1.0714 -0.5637  1.3671
 3203SOL     OW21241   4.579   4.534   3.256 -0.2489  0.4611 -0.0054
 3203SOL    HW121242   4.648   4.598   3.271 -1.6233  1.8223  0.5238
 3203SOL    HW221243   4.541   4.577   3.180  0.2230  2.7373  1.0289
 3204SOL     OW21244   4.173   1.627   2.267  0.2794 -0.1975  0.3596
 3204SOL    HW121245   4.241   1.604   2.331 -0.8115 -2.1671  0.7982
 3204SOL    HW221246   4.192   1.721   2.259  0.2700 -0.3730 -1.8046
 3205SOL     OW21247   2.745   1.278   3.181 -0.2586  0.3152  0.5400
 3205SOL    HW121248   2.820   1.251   3.234  2.0034 -0.7348 -3.2245
 3205SOL    HW221249   2.685   1.204   3.187 -1.8203  1.5003 -0.7175
 3206SOL     OW21250   0.349   4.371   8.274  0.4078 -0.2402  0.0225
 3206SOL    HW121251   0.281   4.431   8.305  1.2715 -0.3969  2.2450
 3206SOL    HW221252   0.357   4.314   8.351  0.9267  2.4186  1.9334
 3207SOL     OW21253   1.864   2.624  11.156 -0.3501  0.0048 -0.1711
 3207SOL    HW121254   1.899   2.683  11.089  2.7323  2.1104  3.3033
 3207SOL    HW221255   1.802   2.693  11.176  2.4231  2.2773  0.6460
 3208SOL     OW21256   4.518   4.687  14.859 -0.1736 -0.3320 -0.5758
 3208SOL    HW121257   4.456   4.706  14.789 -0.0967 -0.4644 -0.6804
 3208SOL    HW221258   4.535   4.595  14.840  2.1845  0.2115 -1.0609
 3209SOL     OW21259   2.670   1.124   7.835 -0.2418 -0.1807 -0.5499
 3209SOL    HW121260   2.724   1.186   7.786  2.1369 -2.3690 -0.6443
 3209SOL    HW221261   2.594   1.105   7.780 -1.3891  2.1272  0.1997
 3210SOL     OW21262   1.702   1.637   3.560  0.0798  0.1863 -0.2674
 3210SOL    HW121263   1.723   1.708   3.498 -0.1508  1.5102  1.1620
 3210SOL    HW221264   1.621   1.609   3.518 -1.3916  0.2611  2.5847
 3211SOL     OW21265   0.421   2.454   7.887  0.0987  0.4889  0.3391
 3211SOL    HW121266   0.427   2.372   7.936  1.2199  1.0898  1.2127
 3211SOL    HW221267   0.326   2.468   7.886 -0.0606 -0.6915 -0.4492
 3212SOL     OW21268   4.122   2.700   7.421 -0.4795 -0.2421 -0.2099
 3212SOL    HW121269   4.146   2.615   7.382  0.1456  0.5641 -1.5800
 3212SOL    HW221270   4.179   2.702   7.497 -0.7283  0.0792 -0.0329
 3213SOL     OW21271   4.560   3.442   4.230  0.0982  0.0675 -0.1446
 3213SOL    HW121272   4.626   3.389   4.275 -1.5419  0.6347  2.8983
 3213SOL    HW221273   4.554   3.400   4.144  1.6707  3.0309 -1.7292
 3214SOL     OW21274   4.519   0.313  13.266  0.0979  0.6031  0.9856
 3214SOL    HW121275   4.507   0.238  13.207 -0.3280  1.7649 -0.4206
 3214SOL    HW221276   4.590   0.353  13.216  0.3359  0.7426  1.4344
 3215SOL     OW21277   2.277   1.841   4.957  0.2668 -0.1542  0.0413
 3215SOL    HW121278   2.317   1.763   4.917 -2.4072  0.1379 -3.1920
 3215SOL    HW221279   2.354   1.897   4.966 -0.6332  1.1348 -0.2846
 3216SOL     OW21280   1.720   2.014  15.059  0.9355 -0.2438 -0.3552
 3216SOL    HW121281   1.679   1.935  15.024 -1.0747  1.5259 -2.0196
 3216SOL    HW221282   1.652   2.051  15.115  0.7194  0.1497 -0.8697
 3217SOL     OW21283   1.243   1.734  17.306 -0.0453  0.0723  0.8987
 3217SOL    HW121284   1.184   1.670  17.265 -0.2438  1.0622 -0.3609
 3217SOL    HW221285   1.256   1.697  17.393 -1.1908 -0.6111  0.7734
 3218SOL     OW21286   2.899   3.621   6.741  0.2475  0.0141  0.1946
 3218SOL    HW121287   2.935   3.709   6.748  1.7748 -0.7504  1.8902
 3218SOL    HW221288   2.874   3.617   6.649  0.8247  2.2591 -0.0499
 3219SOL     OW21289   4.484   0.188  12.412  0.0162 -0.4773  0.6108
 3219SOL    HW121290   4.513   0.192  12.321 -0.8842  1.1943  0.3783
 3219SOL    HW221291   4.454   0.279  12.424 -1.6901 -1.1020  1.0810
 3220SOL     OW21292   1.229   3.547   6.149 -0.4401 -0.2416 -0.1817
 3220SOL    HW121293   1.223   3.521   6.241  1.3243  0.2076  0.0594
 3220SOL    HW221294   1.214   3.465   6.102 -2.7455 -1.7959  3.1956
 3221SOL     OW21295   2.477   4.316   7.144 -0.3982 -0.1104 -0.1396
 3221SOL    HW121296   2.467   4.266   7.063  0.7587  1.1217 -1.0523
 3221SOL    HW221297   2.389   4.347   7.164 -1.0876 -0.9846 -1.8103
 3222SOL     OW21298   0.661   3.757   7.049  0.3981  0.0130 -0.3982
 3222SOL    HW121299   0.733   3.747   7.111  1.2366 -0.9347 -1.5457
 3222SOL    HW221300   0.594   3.709   7.098  0.4412  1.6454  1.2593
 3223SOL     OW21301   0.661   2.050   9.053 -0.1261  0.1094 -0.1609
 3223SOL    HW121302   0.616   2.010   8.979 -1.3815  0.5420  0.3659
 3223SOL    HW221303   0.678   1.968   9.099 -1.1978  0.7021  1.3135
 3224SOL     OW21304   0.583   3.800   6.145  0.6090 -0.4325  0.1643
 3224SOL    HW121305   0.645   3.738   6.106  0.3247 -0.5640 -0.0729
 3224SOL    HW221306   0.503   3.753   6.125  0.0671  0.0901  1.0943
 3225SOL     OW21307   4.044   4.113  16.037 -0.5281  0.2734 -0.2397
 3225SOL    HW121308   4.042   4.043  16.103  1.4409 -1.3794 -1.9527
 3225SOL    HW221309   4.109   4.078  15.976 -1.6976  1.0899 -1.9549
 3226SOL     OW21310   4.453   2.913   1.621 -0.2196 -0.1017  0.5748
 3226SOL    HW121311   4.455   2.880   1.711  1.4206 -0.3779  0.4503
 3226SOL    HW221312   4.418   3.001   1.633 -1.0155 -0.1554 -1.2483
 3227SOL     OW21313   0.267   2.232   2.582 -0.5034 -0.5484 -0.3802
 3227SOL    HW121314   0.297   2.246   2.672  3.1231 -1.6887 -1.4160
 3227SOL    HW221315   0.185   2.279   2.570 -0.3829  0.5976  3.1228
 3228SOL     OW21316   4.669   1.626   5.920 -0.1602  0.4891  0.2875
 3228SOL    HW121317   4.715   1.709   5.934  0.5061  0.2194 -0.3374
 3228SOL    HW221318   4.579   1.658   5.922 -1.0155 -1.8947  0.0232
 3229SOL     OW21319   2.886   0.791   7.284  0.4756  0.5601 -0.2742
 3229SOL    HW121320   2.854   0.703   7.266  0.7038  0.0259  1.9018
 3229SOL    HW221321   2.876   0.790   7.379 -0.2996 -2.6050 -0.3936
 3230SOL     OW21322   3.976   1.100   9.485  0.4030  0.1662  0.1173
 3230SOL    HW121323   3.935   1.037   9.426 -1.1465  1.3396 -0.0588
 3230SOL    HW221324   4.053   1.052   9.516  0.6483 -0.4641 -1.4932
 3231SOL     OW21325   1.909   4.697   4.863 -0.0581  0.2251  0.3521
 3231SOL    HW121326   1.891   4.673   4.954  2.4814 -0.6516  0.6153
 3231SOL    HW221327   2.000   4.726   4.871 -0.1995  0.8448 -0.3355
 3232SOL     OW21328   3.538   4.528   7.230 -0.0178 -0.3886  0.4242
 3232SOL    HW121329   3.591   4.488   7.161 -0.8457 -0.9853  0.1377
 3232SOL    HW221330   3.568   4.471   7.301 -0.2317 -1.4509 -0.3306
 3233SOL     OW21331   4.494   3.369  11.913 -0.6970 -0.0620  0.1573
 3233SOL    HW121332   4.573   3.330  11.950 -0.2422 -0.0360 -0.8031
 3233SOL    HW221333   4.540   3.447  11.882 -1.6180  0.8773  1.1112
 3234SOL     OW21334   1.465   0.289  17.570  0.0371 -0.1655  0.3107
 3234SOL    HW121335   1.518   0.275  17.491 -2.1566 -2.0125 -0.8306
 3234SOL    HW221336   1.407   0.213  17.567  0.8324 -0.7590 -0.2456
 3235SOL     OW21337   2.237   3.299   8.848 -0.1038 -0.2979  0.5458
 3235SOL    HW121338   2.242   3.302   8.944 -2.5195  1.3859  0.6173
 3235SOL    HW221339   2.160   3.355   8.837 -0.5908 -1.1196 -0.2489
 3236SOL     OW21340   4.436   2.813   1.878  0.0549 -0.2312  0.0340
 3236SOL    HW121341   4.389   2.863   1.945 -1.8658 -1.4518 -0.4057
 3236SOL    HW221342   4.403   2.724   1.889 -2.1190  0.7740  1.7401
 3237SOL     OW21343   1.705   2.031   7.139  0.1201  0.2882 -0.3547
 3237SOL    HW121344   1.735   2.090   7.207  0.8733  1.2036 -1.4939
 3237SOL    HW221345   1.678   2.084   7.064  0.5715 -1.9741 -2.1202
 3238SOL     OW21346   3.641   4.686  16.217 -0.0829  0.2789  0.6126
 3238SOL    HW121347   3.577   4.646  16.158  2.0768  0.6131 -1.9702
 3238SOL    HW221348   3.590   4.678  16.298  0.1551 -0.5844  0.6725
 3239SOL     OW21349   1.168   0.472   1.483  0.0240  0.3112  0.0112
 3239SOL    HW121350   1.140   0.521   1.406  0.5053  0.1684 -0.2516
 3239SOL    HW221351   1.240   0.424   1.442 -0.4941 -1.1865  0.8548
 3240SOL     OW21352   3.419   4.062   0.387  0.2287  0.2742  0.1027
 3240SOL    HW121353   3.365   3.992   0.425  1.5630 -1.0196 -0.3916
 3240SOL    HW221354   3.444   4.113   0.464 -2.0269  0.7127  0.5531
 3241SOL     OW21355   4.696   0.833   7.934 -0.4497 -1.1297  0.3381
 3241SOL    HW121356   4.740   0.794   7.859 -0.5966 -1.2454  0.3124
 3241SOL    HW221357   4.615   0.863   7.891  0.0810  0.5802  0.5191
 3242SOL     OW21358   2.845   0.648   1.620  0.1654 -0.1860 -0.3318
 3242SOL    HW121359   2.811   0.728   1.660 -0.9879 -1.0423  0.3800
 3242SOL    HW221360   2.813   0.659   1.530 -0.9054  3.4687  0.5176
 3243SOL     OW21361   0.883   1.556   5.982  0.3762 -0.2395  0.4252
 3243SOL    HW121362   0.845   1.473   5.953 -1.6646  1.4868 -1.8216
 3243SOL    HW221363   0.939   1.581   5.909  0.2934 -0.9302  0.1314
 3244SOL     OW21364   0.465   4.136   6.508  0.3658 -0.2287  0.8265
 3244SOL    HW121365   0.551   4.105   6.537  0.5974 -2.6999 -2.4220
 3244SOL    HW221366   0.474   4.229   6.525 -0.1145 -0.4385  2.1811
 3245SOL     OW21367   3.883   1.229   6.366 -0.5806 -0.0116  0.2080
 3245SOL    HW121368   3.814   1.295   6.353 -1.5853 -1.2578 -0.7013
 3245SOL    HW221369   3.830   1.150   6.357  1.2660 -1.0935 -1.2113
 3246SOL     OW21370   1.890   4.561  12.886  0.4878  0.0098  0.0065
 3246SOL    HW121371   1.799   4.579  12.910  0.1260 -1.2581 -0.4448
 3246SOL    HW221372   1.914   4.478  12.927 -1.3484 -0.6918 -0.3494
 3247SOL     OW21373   4.238   3.802   8.296 -0.4185  0.0955 -0.3841
 3247SOL    HW121374   4.262   3.710   8.289 -0.9745  0.0840 -2.2338
 3247SOL    HW221375   4.298   3.839   8.360  0.6927  0.4756 -1.6488
 3248SOL     OW21376   3.119   3.263   3.323 -0.3167 -0.4675  0.1824
 3248SOL    HW121377   3.161   3.207   3.388 -0.2915  1.9726  2.2891
 3248SOL    HW221378   3.033   3.221   3.323 -0.4168 -0.2734 -2.8819
 3249SOL     OW21379   2.841   2.462  12.587 -0.2606  0.1695  0.0901
 3249SOL    HW121380   2.764   2.463  12.530 -0.1092 -0.2094 -0.1212
 3249SOL    HW221381   2.844   2.558  12.582  0.2207  0.0993 -1.0698
 3250SOL     OW21382   2.961   4.197   4.044 -0.5654  0.4138  0.1697
 3250SOL    HW121383   2.882   4.184   3.992 -1.5373  1.5290  1.3615
 3250SOL    HW221384   3.026   4.176   3.977 -0.4119  2.3084 -0.2804
 3251SOL     OW21385   0.969   3.063  15.020 -0.0281 -0.5582 -0.2897
 3251SOL    HW121386   1.048   3.030  14.977 -0.0114 -2.0532  0.9181
 3251SOL    HW221387   0.945   2.979  15.060  2.0858  0.2658  2.6256
 3252SOL     OW21388   4.324   4.695   4.670  0.1169  0.0621 -0.5805
 3252SOL    HW121389   4.315   4.700   4.575 -0.8064 -1.1232 -0.5612
 3252SOL    HW221390   4.233   4.703   4.700  0.7653 -0.4752  1.5442
 3253SOL     OW21391   3.836   0.167   8.453  0.0342  0.0544 -0.1022
 3253SOL    HW121392   3.818   0.076   8.433 -0.0471 -0.0493  0.4243
 3253SOL    HW221393   3.811   0.214   8.373 -2.2022 -1.6370 -0.3960
 3254SOL     OW21394   2.102   3.962  12.061  0.0699  0.4938 -0.5060
 3254SOL    HW121395   2.028   3.945  12.118  1.6790 -1.0898  1.1326
 3254SOL    HW221396   2.082   3.918  11.978  0.0591  0.6825 -0.6025
 3255SOL     OW21397   2.699   3.593  12.882 -0.3165 -0.3408  0.0485
 3255SOL    HW121398   2.740   3.671  12.920 -1.3805 -1.0412  2.6295
 3255SOL    HW221399   2.768   3.532  12.858  0.6648  0.4489  0.8096
 3256SOL     OW21400   1.069   1.668   4.435 -0.1845  0.0018  0.6351
 3256SOL    HW121401   1.013   1.677   4.512  0.6928  0.7776  1.1817
 3256SOL    HW221402   1.120   1.749   4.439 -0.8550  0.4348  0.4904
 3257SOL     OW21403   0.547   2.709   8.379 -0.7732 -0.1037 -0.0914
 3257SOL    HW121404   0.549   2.614   8.371  0.8962 -0.2051  1.5194
 3257SOL    HW221405   0.641   2.722   8.392 -0.8556 -0.3951  0.7812
 3258SOL     OW21406   3.294   4.653   5.754  0.2031  0.0425  0.6915
 3258SOL    HW121407   3.267   4.563   5.741 -0.2080  0.3554 -0.6506
 3258SOL    HW221408   3.372   4.666   5.700 -0.4262  0.5195 -0.1145
 3259SOL     OW21409   2.942   2.039   3.099  0.5218 -0.1056 -0.8176
 3259SOL    HW121410   2.882   2.010   3.168 -0.6026 -1.1289 -2.2220
 3259SOL    HW221411   2.987   2.114   3.138  0.6323 -0.4644 -0.2571
 3260SOL     OW21412   1.500   4.251  12.302 -0.1262  0.1868  0.1236
 3260SOL    HW121413   1.595   4.239  12.312  0.1848  0.6885 -2.2317
 3260SOL    HW221414   1.479   4.166  12.264 -0.7818  0.6650 -0.5609
 3261SOL     OW21415   3.761   4.157   7.374 -0.7956 -0.2215 -0.1405
 3261SOL    HW121416   3.716   4.225   7.424 -0.4416 -0.5028  0.5553
 3261SOL    HW221417   3.832   4.142   7.436 -1.3556  1.5138  0.8993
 3262SOL     OW21418   1.928   3.699   4.702 -0.0151 -0.2925  0.1388
 3262SOL    HW121419   1.956   3.614   4.735 -0.3075 -1.1556 -1.8137
 3262SOL    HW221420   1.976   3.761   4.757  0.0088 -1.1516  1.0732
 3263SOL     OW21421   2.492   0.976   8.022  0.3035 -0.1598 -0.1606
 3263SOL    HW121422   2.537   0.934   8.095  1.2875  2.3567  0.6724
 3263SOL    HW221423   2.563   1.030   7.988  1.0066 -2.4671 -2.3608
 3264SOL     OW21424   3.684   0.808  16.604 -0.1385  0.2190  0.2205
 3264SOL    HW121425   3.678   0.894  16.646  0.9439  2.0540 -3.3511
 3264SOL    HW221426   3.771   0.814  16.563 -0.2504  0.0675 -0.0390
 3265SOL     OW21427   0.973   4.382  15.418 -0.3689 -0.5780  0.5636
 3265SOL    HW121428   1.032   4.369  15.344  1.5018  1.1589  1.7631
 3265SOL    HW221429   1.005   4.469  15.444  0.4554 -0.0462 -2.2384
 3266SOL     OW21430   2.541   4.149   5.510 -0.1769 -0.1854 -0.3819
 3266SOL    HW121431   2.623   4.152   5.462 -0.3076 -2.1816 -0.7270
 3266SOL    HW221432   2.524   4.243   5.510 -2.9133 -0.6643  0.2240
 3267SOL     OW21433   2.121   4.142   7.119 -0.0957 -0.0313  0.3967
 3267SOL    HW121434   2.120   4.095   7.203 -1.9722  1.4588  1.2109
 3267SOL    HW221435   2.172   4.219   7.144 -0.1308  0.0026  0.3623
 3268SOL     OW21436   2.995   3.822   3.952 -0.0148  0.5393  0.2519
 3268SOL    HW121437   3.012   3.837   3.860 -0.7157  0.3799  0.0918
 3268SOL    HW221438   3.081   3.851   3.980 -0.6181  1.0152  1.6558
 3269SOL     OW21439   2.543   3.051   9.580 -0.4630 -0.2243 -0.3989
 3269SOL    HW121440   2.573   3.077   9.492 -0.1439  0.4386 -0.0955
 3269SOL    HW221441   2.587   2.966   9.590  1.3262  0.7453 -0.0107
 3270SOL     OW21442   2.365   1.736  11.659  0.0110  0.1361  0.6796
 3270SOL    HW121443   2.289   1.732  11.716 -0.0142  2.6408  0.8079
 3270SOL    HW221444   2.358   1.648  11.621  0.0060 -0.9014  3.0730
 3271SOL     OW21445   4.123   0.549   5.806 -0.1925  0.1398  0.6386
 3271SOL    HW121446   4.193   0.487   5.787 -0.7398  0.0007 -0.9660
 3271SOL    HW221447   4.064   0.542   5.731  0.1050  0.0488  0.4161
 3272SOL     OW21448   1.493   1.309  17.669 -0.3620 -0.0696  0.1420
 3272SOL    HW121449   1.557   1.356  17.615 -0.4979  0.0235  0.0601
 3272SOL    HW221450   1.416   1.347  17.625 -0.0537  0.5166  0.1161
 3273SOL     OW21451   1.022   3.633   3.132 -0.4164 -0.1145  0.0698
 3273SOL    HW121452   1.011   3.539   3.121 -0.4517 -0.1133  0.0938
 3273SOL    HW221453   0.986   3.653   3.046 -0.2900 -2.4751 -0.5297
 3274SOL     OW21454   0.471   3.185   8.051 -0.6326  0.2460  0.4004
 3274SOL    HW121455   0.515   3.146   8.126 -2.5040 -2.3983  0.1166
 3274SOL    HW221456   0.547   3.188   7.993 -0.3920 -0.5745  0.6753
 3275SOL     OW21457   2.960   4.473   6.260 -0.2486 -0.0605  0.0313
 3275SOL    HW121458   2.996   4.392   6.225 -1.9463 -0.1848 -1.4450
 3275SOL    HW221459   3.029   4.515   6.311 -0.2176 -2.2361  1.7560
 3276SOL     OW21460   4.264   0.173   2.393  0.1238 -0.8456 -0.0416
 3276SOL    HW121461   4.204   0.232   2.346 -2.2940 -4.3176 -1.3863
 3276SOL    HW221462   4.201   0.159   2.463 -0.9216  2.0892 -0.3704
 3277SOL     OW21463   2.256   0.195   8.098 -0.0902  0.4553  0.9378
 3277SOL    HW121464   2.163   0.215   8.092  0.6270  2.6226 -2.6630
 3277SOL    HW221465   2.275   0.147   8.017  0.8984  0.6759  1.0352
 3278SOL     OW21466   1.640   1.059   5.355  0.1311 -0.1933 -0.2096
 3278SOL    HW121467   1.709   1.108   5.310 -1.2426  1.1181 -0.8942
 3278SOL    HW221468   1.620   1.115   5.430 -1.0532 -1.1456  0.1824
 3279SOL     OW21469   1.553   2.199   7.855  0.0662 -0.5547 -0.2978
 3279SOL    HW121470   1.552   2.196   7.950  1.3447 -2.7901 -0.3597
 3279SOL    HW221471   1.527   2.111   7.828 -1.0589 -0.0908 -0.7174
 3280SOL     OW21472   0.586   1.118  16.283 -0.5886 -0.2726  0.1824
 3280SOL    HW121473   0.614   1.202  16.245  1.4241 -1.0387 -0.0348
 3280SOL    HW221474   0.666   1.067  16.269 -0.7229 -0.2649 -0.6163
 3281SOL     OW21475   0.139   3.533   4.793 -0.0958 -0.5714  0.2666
 3281SOL    HW121476   0.146   3.514   4.700 -1.1162  1.4455 -0.2308
 3281SOL    HW221477   0.190   3.467   4.840  1.6069  0.0311 -0.7439
 3282SOL     OW21478   0.683   3.123   0.332  0.6373  0.0742 -0.3836
 3282SOL    HW121479   0.671   3.158   0.244 -0.0464 -2.5165 -1.3142
 3282SOL    HW221480   0.605   3.158   0.376 -0.5567  0.6143 -2.9731
 3283SOL     OW21481   4.482   1.650  13.235 -0.2025  0.4833 -0.0681
 3283SOL    HW121482   4.492   1.603  13.317 -0.5044  0.4242 -0.0661
 3283SOL    HW221483   4.527   1.732  13.256 -1.0048  0.6612  0.9166
 3284SOL     OW21484   1.367   1.630  10.368 -0.6302  0.4530  0.0486
 3284SOL    HW121485   1.396   1.588  10.287 -2.5900  1.4421 -1.1709
 3284SOL    HW221486   1.277   1.659  10.353 -0.0664  2.0379 -0.2570
 3285SOL     OW21487   0.862   4.274   3.860 -0.2310  0.0235 -0.0508
 3285SOL    HW121488   0.780   4.243   3.896 -1.1147  2.1849 -0.1763
 3285SOL    HW221489   0.898   4.187   3.841 -0.3781  0.7239 -3.5328
 3286SOL     OW21490   4.661   3.979   9.700  0.1805  0.3938  0.2532
 3286SOL    HW121491   0.001   4.010   9.659  0.9191 -0.8702  0.7344
 3286SOL    HW221492   4.587   4.007   9.646 -2.2885  0.3736  3.6104
 3287SOL     OW21493   4.218   2.174   5.080  0.3087 -0.3590 -0.3366
 3287SOL    HW121494   4.293   2.225   5.109  1.5185 -1.3191 -1.7723
 3287SOL    HW221495   4.214   2.206   4.990 -1.8923 -0.2564 -0.2007
 3288SOL     OW21496   2.113   2.968  12.216 -0.4839  0.4958  0.1436
 3288SOL    HW121497   2.020   2.958  12.198 -0.8819  1.4958  1.6301
 3288SOL    HW221498   2.113   3.009  12.303 -0.8429  2.6098 -0.8551
 3289SOL     OW21499   3.570   2.655   4.183 -0.3970 -0.2586  0.0221
 3289SOL    HW121500   3.648   2.600   4.192  0.7828  1.7884  2.3845
 3289SOL    HW221501   3.572   2.700   4.268 -2.0585  0.5383 -0.3661
 3290SOL     OW21502   0.915   4.077   4.304  0.1287  0.8576  0.1087
 3290SOL    HW121503   0.848   4.073   4.235 -1.3698  3.0240  1.4281
 3290SOL    HW221504   0.945   4.164   4.278  0.5015  0.5654 -0.4231
 3291SOL     OW21505   3.809   4.353  11.761  0.2630 -0.0051  0.0242
 3291SOL    HW121506   3.763   4.419  11.708 -1.5914 -0.6567  0.8365
 3291SOL    HW221507   3.813   4.281  11.698 -0.5627 -0.5898  0.6460
 3292SOL     OW21508   2.312   2.319  17.487 -0.0111 -0.4552  0.5190
 3292SOL    HW121509   2.264   2.379  17.544  0.2368  0.6929 -0.4731
 3292SOL    HW221510   2.399   2.314  17.528  1.0068  1.0453 -1.4554
 3293SOL     OW21511   3.574   0.572  13.402 -0.1519  0.1607  0.4594
 3293SOL    HW121512   3.522   0.573  13.483  0.5236  0.2284  0.8933
 3293SOL    HW221513   3.544   0.651  13.356  1.3941  0.5902  0.1818
 3294SOL     OW21514   3.633   1.721   0.270 -0.0047  0.5845  0.3129
 3294SOL    HW121515   3.622   1.817   0.268 -2.5741  0.2549 -0.9306
 3294SOL    HW221516   3.568   1.714   0.341 -1.3101  3.1741 -0.6124
 3295SOL     OW21517   1.545   0.707   6.910 -0.3203  0.4094  0.4841
 3295SOL    HW121518   1.566   0.642   6.977  2.3948 -1.5282 -2.2539
 3295SOL    HW221519   1.515   0.649   6.839  1.0072  1.2690 -0.7691
 3296SOL     OW21520   3.655   3.163   7.725  0.5813 -0.5391  0.6596
 3296SOL    HW121521   3.700   3.092   7.770 -0.5935 -1.1276  0.9065
 3296SOL    HW221522   3.655   3.137   7.633  0.7649  1.9639 -0.0627
 3297SOL     OW21523   2.639   2.517   3.664  0.3011  0.0207 -0.3154
 3297SOL    HW121524   2.693   2.438   3.663  1.8223  1.0443  1.4638
 3297SOL    HW221525   2.615   2.510   3.757 -2.1177  1.6326 -0.7995
 3298SOL     OW21526   4.025   0.162   4.482 -0.2000 -0.5758 -0.1363
 3298SOL    HW121527   4.028   0.254   4.456  2.9922 -0.6792 -0.1012
 3298SOL    HW221528   4.108   0.130   4.447 -0.9074 -0.2267 -2.1450
 3299SOL     OW21529   3.870   3.791   9.971  0.0369 -0.2974  0.0790
 3299SOL    HW121530   3.828   3.795   9.885  1.0836  1.5453 -0.3556
 3299SOL    HW221531   3.800   3.818  10.031 -1.4823  1.5464 -2.4856
 3300SOL     OW21532   4.511   2.273   2.603  0.3867 -0.2153  0.5541
 3300SOL    HW121533   4.593   2.300   2.562  0.5695  0.6148  1.4936
 3300SOL    HW221534   4.538   2.289   2.693  0.6227 -0.3882  0.5153
 3301SOL     OW21535   2.822   0.339  16.526  0.3668 -0.1850 -0.4113
 3301SOL    HW121536   2.883   0.363  16.596  0.4721 -1.0334 -0.2112
 3301SOL    HW221537   2.842   0.247  16.514  0.8744 -0.1292 -0.0058
 3302SOL     OW21538   1.312   4.375   8.170  0.1320 -0.3495  0.2169
 3302SOL    HW121539   1.306   4.322   8.091 -0.6546  1.3020 -0.8426
 3302SOL    HW221540   1.288   4.457   8.125 -0.4548 -0.5161  0.2366
 3303SOL     OW21541   3.822   0.716   7.324 -0.4188 -0.3814 -0.2609
 3303SOL    HW121542   3.861   0.802   7.335  1.7129 -1.2511 -1.1223
 3303SOL    HW221543   3.794   0.701   7.414 -1.9716 -2.6283 -1.1098
 3304SOL     OW21544   2.074   4.604   9.486 -0.7453  0.6685  0.0959
 3304SOL    HW121545   2.147   4.648   9.441 -1.3466  1.5232 -0.0404
 3304SOL    HW221546   2.055   4.536   9.421 -1.8312  1.1525 -0.0936
 3305SOL     OW21547   2.895   1.373   7.201 -0.0019  0.2446 -0.0054
 3305SOL    HW121548   2.828   1.338   7.143  0.7448  1.2215 -1.4566
 3305SOL    HW221549   2.919   1.297   7.255  2.1510  0.1825 -1.0546
 3306SOL     OW21550   1.055   3.401   6.666 -0.1268  0.0580 -0.5116
 3306SOL    HW121551   1.008   3.480   6.692  0.0777  0.6547 -2.0069
 3306SOL    HW221552   0.989   3.335   6.644  0.6792 -0.5883 -0.9560
 3307SOL     OW21553   1.793   1.975   7.442 -0.1852 -0.4973  0.3517
 3307SOL    HW121554   1.843   1.907   7.397 -1.7684 -2.4780  1.5674
 3307SOL    HW221555   1.865   2.027   7.478 -0.0657 -0.5233  0.1510
 3308SOL     OW21556   4.663   4.284  10.505  0.1521  0.1344  0.3659
 3308SOL    HW121557   4.644   4.190  10.503 -0.4146  0.2394  0.8285
 3308SOL    HW221558   4.711   4.284  10.588 -0.9887 -2.0633  1.0461
 3309SOL     OW21559   4.409   0.091   4.179  0.2532  0.3828  0.5155
 3309SOL    HW121560   4.345   0.145   4.132 -1.2507 -2.2677 -0.4197
 3309SOL    HW221561   4.381   0.003   4.154 -0.2967  0.7629 -0.2073
 3310SOL     OW21562   2.819   1.930   8.176 -0.0782  0.7564 -0.2098
 3310SOL    HW121563   2.732   1.941   8.212  0.6693  0.1709  1.7531
 3310SOL    HW221564   2.825   1.835   8.179  2.4615  0.8794 -0.9454
 3311SOL     OW21565   0.527   0.151  10.836 -0.1119  0.3086  0.0226
 3311SOL    HW121566   0.578   0.218  10.882  1.7329 -1.1427  0.0732
 3311SOL    HW221567   0.527   0.074  10.893  0.4921 -1.5494 -2.4662
 3312SOL     OW21568   0.284   3.943   8.326  0.2224  0.0766 -0.1987
 3312SOL    HW121569   0.332   3.968   8.405 -1.1799  0.2261  0.6132
 3312SOL    HW221570   0.339   3.958   8.249  1.5310 -1.3753  0.4563
 3313SOL     OW21571   4.632   1.682   1.109 -0.2141 -0.0098  0.2110
 3313SOL    HW121572   4.574   1.734   1.054  0.3440  0.5062  0.1095
 3313SOL    HW221573   4.683   1.742   1.164  0.4873  0.1595 -0.6360
 3314SOL     OW21574   2.279   3.272   6.584 -0.5722 -0.1243 -0.0743
 3314SOL    HW121575   2.263   3.360   6.549 -2.1169 -0.9348 -1.3936
 3314SOL    HW221576   2.349   3.284   6.649 -0.5892  1.5769 -0.3531
 3315SOL     OW21577   3.234   4.607   4.352  0.4029 -0.1202  0.3410
 3315SOL    HW121578   3.195   4.570   4.273 -1.7551 -1.6724  2.1543
 3315SOL    HW221579   3.242   4.702   4.338  0.4271 -0.4245 -1.7319
 3316SOL     OW21580   3.471   0.704  12.246 -0.3834 -0.0744 -1.1136
 3316SOL    HW121581   3.499   0.755  12.321  1.4440  1.5648 -2.9167
 3316SOL    HW221582   3.520   0.624  12.265  1.4879  1.1134 -0.9510
 3317SOL     OW21583   2.652   0.920   7.334  0.0414  0.1571  0.3852
 3317SOL    HW121584   2.604   0.901   7.254  2.1226 -4.3589  0.2341
 3317SOL    HW221585   2.739   0.911   7.296 -2.3056  0.5809 -5.0125
 3318SOL     OW21586   4.262   2.245   2.958 -0.1092 -0.6575  0.4388
 3318SOL    HW121587   4.311   2.314   2.912 -0.6982  0.3987  1.4211
 3318SOL    HW221588   4.184   2.236   2.903  0.6521 -0.8607 -0.6182
 3319SOL     OW21589   3.185   0.234   7.356 -0.4025  0.4768 -0.0586
 3319SOL    HW121590   3.117   0.235   7.288  0.0997  0.4828 -0.5631
 3319SOL    HW221591   3.150   0.153   7.390 -0.7119  0.4215 -0.5032
 3320SOL     OW21592   1.556   1.839   8.025  0.0659 -0.0845 -0.2803
 3320SOL    HW121593   1.515   1.875   7.945 -2.0873  1.1102  1.3591
 3320SOL    HW221594   1.576   1.925   8.063 -1.2866  0.3473 -0.5386
 3321SOL     OW21595   0.088   1.429   1.501  0.0393  0.1609 -0.6256
 3321SOL    HW121596   0.115   1.518   1.477  1.4507  0.4739  2.1460
 3321SOL    HW221597   0.066   1.394   1.415  1.4361 -2.8482  0.2615
 3322SOL     OW21598   4.423   4.411  15.628 -0.0461 -1.0223  0.6717
 3322SOL    HW121599   4.346   4.463  15.652  1.3232  0.5604  1.6740
 3322SOL    HW221600   4.490   4.479  15.641 -0.4484 -0.0157 -2.5480
 3323SOL     OW21601   1.277   4.490  16.967  0.1976 -0.0634  0.2215
 3323SOL    HW121602   1.309   4.555  16.904 -1.8979  0.0586 -0.7193
 3323SOL    HW221603   1.251   4.418  16.910 -0.1034  0.6996 -0.5973
 3324SOL     OW21604   0.970   1.520  17.434 -0.0669 -0.3759  0.1721
 3324SOL    HW121605   0.884   1.531  17.393 -0.3558 -1.0419  0.5988
 3324SOL    HW221606   1.021   1.493  17.358 -1.8784 -0.3763 -1.0222
 3325SOL     OW21607   2.777   1.463   6.452 -0.6571  0.2342  0.1238
 3325SOL    HW121608   2.822   1.384   6.424 -0.5382  0.2592  0.2420
 3325SOL    HW221609   2.765   1.467   6.547 -1.2535 -1.7215  0.1276
 3326SOL     OW21610   2.413   3.419   9.627  0.5472 -0.0153  0.7032
 3326SOL    HW121611   2.384   3.330   9.651 -2.2650  0.4376 -1.0259
 3326SOL    HW221612   2.341   3.454   9.680  0.5486 -1.0096  1.3817
 3327SOL     OW21613   0.330   0.829  16.092 -0.2236  0.4533 -0.0989
 3327SOL    HW121614   0.314   0.789  16.178  1.8604 -0.1596  0.0116
 3327SOL    HW221615   0.320   0.922  16.108  0.8585  0.0388  2.9625
 3328SOL     OW21616   4.249   4.331   6.609 -0.3165  0.1053  0.2881
 3328SOL    HW121617   4.203   4.377   6.539 -1.3431  0.1342  0.9881
 3328SOL    HW221618   4.249   4.395   6.680 -0.5473  1.2368 -0.7118
 3329SOL     OW21619   4.233   2.320   3.222  0.2098  0.6017  0.0309
 3329SOL    HW121620   4.272   2.305   3.136 -1.0338 -1.4969 -0.1571
 3329SOL    HW221621   4.180   2.244   3.244  0.6752  0.6160  1.1716
 3330SOL     OW21622   0.492   0.599   8.301  0.2029  0.5781  0.1300
 3330SOL    HW121623   0.443   0.586   8.383  1.3006 -0.5456  0.6093
 3330SOL    HW221624   0.452   0.537   8.240  1.2854  0.4815 -0.4850
 3331SOL     OW21625   4.003   2.049   3.108  0.3126  0.2349 -0.6360
 3331SOL    HW121626   3.935   2.111   3.133  1.2627  1.4373 -1.0436
 3331SOL    HW221627   4.016   2.068   3.016 -0.6541 -1.7722 -1.1908
 3332SOL     OW21628   3.062   1.089  17.015 -0.3684  0.1751 -0.3405
 3332SOL    HW121629   2.982   1.130  17.048  0.1896  0.0038  1.2422
 3332SOL    HW221630   3.080   1.157  16.950  0.9671  0.4226  0.2748
 3333SOL     OW21631   2.558   4.010   9.719 -0.5379 -0.1716 -0.1291
 3333SOL    HW121632   2.633   4.056   9.680 -1.3655  2.8531  1.8491
 3333SOL    HW221633   2.487   4.062   9.682  0.9615  1.0892 -1.2879
 3334SOL     OW21634   0.397   0.617   2.539 -0.0797  0.0230  0.3077
 3334SOL    HW121635   0.329   0.557   2.570 -1.2343  1.2606  0.1605
 3334SOL    HW221636   0.439   0.638   2.623  0.1605 -1.0121  0.4534
 3335SOL     OW21637   1.322   2.183   2.169 -0.1679  0.3180 -0.5690
 3335SOL    HW121638   1.238   2.216   2.136  0.9736  2.4048 -1.4084
 3335SOL    HW221639   1.371   2.265   2.161 -2.3785  1.9955  3.0583
 3336SOL     OW21640   0.685   2.562  17.088 -0.4062  0.2617 -0.1631
 3336SOL    HW121641   0.627   2.491  17.114 -0.9037  1.2756  1.5253
 3336SOL    HW221642   0.633   2.632  17.128 -3.4994 -0.7141 -2.5322
 3337SOL     OW21643   4.436   3.934  12.933 -0.6113  0.5233 -0.3489
 3337SOL    HW121644   4.400   4.022  12.937 -0.7657  0.5819 -3.2207
 3337SOL    HW221645   4.397   3.897  12.854 -0.9145 -0.7259  0.3781
 3338SOL     OW21646   1.287   4.310  11.797  0.8383  0.5069  0.0007
 3338SOL    HW121647   1.206   4.342  11.838 -0.7807 -0.7701 -2.2125
 3338SOL    HW221648   1.264   4.321  11.704  2.1984  0.3528 -0.3471
 3339SOL     OW21649   2.768   4.632   7.702  0.0466  0.5415 -0.0468
 3339SOL    HW121650   2.852   4.613   7.742  0.7419 -1.2246 -2.3865
 3339SOL    HW221651   2.798   4.654   7.614 -1.0929 -1.4556 -0.9388
 3340SOL     OW21652   2.409   2.177  16.037  0.2756 -0.0061 -0.0557
 3340SOL    HW121653   2.364   2.220  15.964 -2.0397 -2.3540 -0.0060
 3340SOL    HW221654   2.422   2.091  15.998 -0.1215  0.3498 -0.9597
 3341SOL     OW21655   3.135   1.834  10.564  0.3763  0.1068  0.6900
 3341SOL    HW121656   3.205   1.868  10.507  2.1840 -0.4423  2.6096
 3341SOL    HW221657   3.059   1.842  10.506 -0.5355 -2.0075  1.6043
 3342SOL     OW21658   0.349   1.416  15.929 -0.0834  0.2975  0.2473
 3342SOL    HW121659   0.371   1.430  16.021  2.7580  0.2682 -0.4157
 3342SOL    HW221660   0.433   1.414  15.883 -0.0371  2.3873  0.2733
 3343SOL     OW21661   3.681   3.502   9.186  0.0397 -0.8735  0.0663
 3343SOL    HW121662   3.759   3.519   9.239  0.0001 -2.9616  0.8280
 3343SOL    HW221663   3.715   3.446   9.116  0.1250  1.2499 -1.5466
 3344SOL     OW21664   2.273   2.437  17.237  0.1428  0.0794  0.0974
 3344SOL    HW121665   2.337   2.505  17.257 -0.3829  0.8281 -0.7054
 3344SOL    HW221666   2.275   2.405  17.327 -0.3285 -1.7347 -0.5323
 3345SOL     OW21667   2.880   0.191   2.095 -0.0876 -0.1043  0.2176
 3345SOL    HW121668   2.879   0.097   2.077  0.1286  0.1186 -0.9612
 3345SOL    HW221669   2.888   0.225   2.006 -0.5034  0.1516  0.2745
 3346SOL     OW21670   2.784   3.484   9.394  0.4589 -0.2873  0.5993
 3346SOL    HW121671   2.866   3.534   9.391 -0.2329  0.8750  0.7732
 3346SOL    HW221672   2.739   3.529   9.323  2.0103 -1.1453 -0.9154
 3347SOL     OW21673   3.004   1.542   5.845  0.1182 -0.3662 -0.5442
 3347SOL    HW121674   2.954   1.528   5.764 -0.7618  2.1510 -0.4568
 3347SOL    HW221675   3.031   1.455   5.872 -0.3687 -1.2637 -2.9249
 3348SOL     OW21676   0.528   1.993   8.365  0.0501  0.0685 -0.7737
 3348SOL    HW121677   0.438   2.023   8.374  0.7742  1.9909  0.0743
 3348SOL    HW221678   0.518   1.957   8.277  2.0817 -1.3529 -0.4072
 3349SOL     OW21679   3.421   3.259   3.783 -0.1551  0.2681  0.7161
 3349SOL    HW121680   3.388   3.285   3.697 -1.0543 -1.3900  0.5500
 3349SOL    HW221681   3.415   3.163   3.782  4.0899  0.0351  0.1424
 3350SOL     OW21682   0.096   0.781   2.449 -0.6126  0.2389  0.5546
 3350SOL    HW121683   0.018   0.776   2.505 -1.3202  3.3801 -0.1449
 3350SOL    HW221684   0.058   0.816   2.369  0.4802 -1.4217 -0.6856
 3351SOL     OW21685   0.667   3.878   1.556 -0.1052  0.4561 -0.1840
 3351SOL    HW121686   0.674   3.885   1.651 -0.4712  0.3556 -0.1468
 3351SOL    HW221687   0.598   3.942   1.536  0.2822  0.7499 -0.5717
 3352SOL     OW21688   0.141   0.463   8.872 -0.2403  0.3784 -0.0107
 3352SOL    HW121689   0.103   0.495   8.790 -0.2453  0.4993  0.0388
 3352SOL    HW221690   0.234   0.446   8.856 -0.3292 -0.2468  0.1632
 3353SOL     OW21691   2.213   0.261  14.800 -0.0049  0.4227 -0.5357
 3353SOL    HW121692   2.221   0.282  14.893 -1.6407 -1.7395  0.1024
 3353SOL    HW221693   2.122   0.288  14.787  0.3478  2.4636  1.3193
 3354SOL     OW21694   3.156   1.166  15.336  0.2134  0.2809  0.0082
 3354SOL    HW121695   3.065   1.186  15.315 -0.1734 -0.5974  0.9192
 3354SOL    HW221696   3.210   1.239  15.305  0.5446  0.7881  1.7963
 3355SOL     OW21697   0.893   1.945   5.867 -0.5715 -0.3289 -0.0190
 3355SOL    HW121698   0.970   1.889   5.864 -0.9377 -0.6850 -3.3508
 3355SOL    HW221699   0.831   1.900   5.923  0.5471 -2.5127 -0.5229
 3356SOL     OW21700   0.360   0.155  16.667 -0.4842  0.7652 -0.0032
 3356SOL    HW121701   0.349   0.246  16.694 -1.3365  0.8083 -0.4885
 3356SOL    HW221702   0.345   0.113  16.751  0.4467 -0.7356 -0.5942
 3357SOL     OW21703   1.634   1.164   7.975  0.0774  0.0948  0.8518
 3357SOL    HW121704   1.584   1.224   7.919 -0.5027 -0.0974  1.1600
 3357SOL    HW221705   1.576   1.089   7.965  0.9295 -0.1936 -1.8774
 3358SOL     OW21706   3.081   4.436   5.220 -0.1047  0.1587  0.3998
 3358SOL    HW121707   3.146   4.405   5.157 -0.2778  2.0926 -0.7165
 3358SOL    HW221708   3.033   4.355   5.237 -2.0372  1.0591 -0.7752
 3359SOL     OW21709   3.874   1.874   5.180  0.3435  0.6157 -0.2407
 3359SOL    HW121710   3.901   1.961   5.150  0.8376 -0.4817 -2.9576
 3359SOL    HW221711   3.944   1.818   5.146 -2.9115 -3.3462 -0.4113
 3360SOL     OW21712   4.729   1.891   5.858  0.2466 -1.0260  0.6196
 3360SOL    HW121713   4.688   1.970   5.891 -3.3628 -1.4607 -2.8078
 3360SOL    HW221714   4.690   1.885   5.771  1.4267  0.9234 -0.0509
 3361SOL     OW21715   2.448   0.827  17.194 -0.1791 -0.0716 -0.7356
 3361SOL    HW121716   2.421   0.912  17.161  0.7001  0.6910  0.5017
 3361SOL    HW221717   2.439   0.849  17.286  2.5272  0.2166 -0.5180
 3362SOL     OW21718   0.978   3.391   3.074 -0.3812  0.1209 -0.1391
 3362SOL    HW121719   0.894   3.383   3.029 -1.2018  1.5620  1.1111
 3362SOL    HW221720   1.040   3.408   3.003  0.3865  0.9384  0.7265
 3363SOL     OW21721   0.830   0.339   8.972 -0.1868  0.9925  0.2537
 3363SOL    HW121722   0.835   0.259   9.025 -0.9070  1.2436  0.6961
 3363SOL    HW221723   0.915   0.383   8.973  1.3774 -2.0549  2.7166
 3364SOL     OW21724   4.095   4.187  11.911  0.0001  0.2306 -0.0321
 3364SOL    HW121725   4.038   4.130  11.962  0.8957 -1.2424 -0.6668
 3364SOL    HW221726   4.043   4.266  11.925 -1.0427 -0.5168  0.3551
 3365SOL     OW21727   4.727   2.379  12.960  0.4923 -1.4672 -0.0594
 3365SOL    HW121728   4.636   2.361  12.984  0.5610 -0.5415  0.8873
 3365SOL    HW221729   0.002   2.466  12.997 -1.4375 -1.2872  0.3100
 3366SOL     OW21730   3.702   0.728   1.562 -0.0168 -0.0416 -0.2125
 3366SOL    HW121731   3.755   0.677   1.501 -1.6367  0.0650 -1.7120
 3366SOL    HW221732   3.613   0.710   1.534 -1.0075  0.3381  2.7369
 3367SOL     OW21733   1.147   0.773   6.736  0.4669  0.4565  0.3523
 3367SOL    HW121734   1.078   0.792   6.672 -0.2718  0.2593  1.0821
 3367SOL    HW221735   1.208   0.846   6.741  0.7676  0.2810 -0.7840
 3368SOL     OW21736   3.130   1.028   4.606  0.0567  0.7968  0.3149
 3368SOL    HW121737   3.142   0.942   4.647  1.8677  0.3335 -1.1897
 3368SOL    HW221738   3.091   1.080   4.676 -0.4736 -1.1000  1.4441
 3369SOL     OW21739   0.292   3.844   2.046  0.0549  0.4950  0.3215
 3369SOL    HW121740   0.334   3.922   2.081  0.7951 -0.1237  0.8295
 3369SOL    HW221741   0.206   3.850   2.088  0.2795 -0.3574  0.9060
 3370SOL     OW21742   4.453   3.220   8.325  0.4025 -0.0991 -0.4538
 3370SOL    HW121743   4.503   3.277   8.267 -1.4742 -0.2058 -2.1717
 3370SOL    HW221744   4.504   3.200   8.404  0.2952  0.5816 -0.2122
 3371SOL     OW21745   2.672   2.339  16.517  0.0177  0.3731 -0.0533
 3371SOL    HW121746   2.740   2.272  16.505 -1.8305 -1.2649 -1.3665
 3371SOL    HW221747   2.637   2.351  16.428 -2.0162  1.0884  0.8513
 3372SOL     OW21748   2.032   1.584   3.283  0.1041 -0.4657  0.5456
 3372SOL    HW121749   1.951   1.578   3.234 -0.7382 -0.9568  2.0007
 3372SOL    HW221750   2.086   1.528   3.227 -0.0263 -0.4871  0.4426
 3373SOL     OW21751   2.106   0.882   3.399  0.3863  0.0106 -0.5733
 3373SOL    HW121752   2.101   0.977   3.408  1.8431 -0.1535  1.8794
 3373SOL    HW221753   2.129   0.850   3.486  1.0935  0.3084 -0.6472
 3374SOL     OW21754   1.107   0.688   3.500  0.1080 -0.4423 -0.1210
 3374SOL    HW121755   1.129   0.762   3.557  1.5078  1.1598 -2.7422
 3374SOL    HW221756   1.029   0.726   3.458  0.2660  0.8179  0.7118
 3375SOL     OW21757   4.351   3.123   9.094 -0.0829 -0.3217 -0.1754
 3375SOL    HW121758   4.288   3.145   9.163 -0.2072  1.1011 -0.7454
 3375SOL    HW221759   4.420   3.084   9.147 -0.3223  1.2816  1.2874
 3376SOL     OW21760   2.377   3.839   6.504  0.2607 -0.0580  0.0350
 3376SOL    HW121761   2.418   3.916   6.543 -0.5235 -0.4194  1.5848
 3376SOL    HW221762   2.423   3.835   6.420 -3.6300  0.6546 -2.1195
 3377SOL     OW21763   4.207   2.480   7.040  0.1636  0.4579 -0.2391
 3377SOL    HW121764   4.254   2.438   6.968 -0.0079  0.1887 -0.1925
 3377SOL    HW221765   4.175   2.562   7.002  1.5249 -0.2637 -2.9348
 3378SOL     OW21766   4.145   2.011   5.641  0.7728 -0.0331 -0.4299
 3378SOL    HW121767   4.062   2.056   5.625  0.5746 -0.3372 -0.2349
 3378SOL    HW221768   4.143   1.948   5.569  3.0842 -0.8233  0.2047
 3379SOL     OW21769   3.179   2.087   4.733 -0.3418 -0.0157 -0.5668
 3379SOL    HW121770   3.244   2.124   4.792 -1.2218  0.6242  0.0013
 3379SOL    HW221771   3.234   2.015   4.702  0.8654  1.0353 -0.8372
 3380SOL     OW21772   0.911   0.618   1.640  0.2224  0.0198 -0.0543
 3380SOL    HW121773   0.990   0.579   1.601  1.2331  0.4282  1.5921
 3380SOL    HW221774   0.924   0.596   1.732 -0.9514 -1.6845 -0.2996
 3381SOL     OW21775   4.272   0.693  16.787  0.2387 -0.5272 -0.1716
 3381SOL    HW121776   4.270   0.767  16.725  3.0732 -0.3577 -0.0623
 3381SOL    HW221777   4.180   0.665  16.792  0.1061 -0.4813 -2.1362
 3382SOL     OW21778   0.866   3.902   8.133 -0.5279  0.2697 -0.4450
 3382SOL    HW121779   0.810   3.891   8.056  0.5962 -1.7224 -0.9972
 3382SOL    HW221780   0.950   3.904   8.088 -0.3809  0.0692 -0.1763
 3383SOL     OW21781   3.694   4.628   5.377 -0.2525  0.5759  0.1576
 3383SOL    HW121782   3.676   4.539   5.345  1.1765  1.3733 -2.9074
 3383SOL    HW221783   3.789   4.618   5.386 -0.5840 -1.2492  1.6181
 3384SOL     OW21784   3.714   0.649   7.095  0.2609  0.3586  0.4532
 3384SOL    HW121785   3.747   0.660   7.184 -0.3625 -0.9665  0.8376
 3384SOL    HW221786   3.701   0.554   7.097  0.8254  0.3075  1.5687
 3385SOL     OW21787   0.800   1.930   1.120  0.8195  0.2422 -0.4618
 3385SOL    HW121788   0.820   2.022   1.102 -0.8489  1.0645  1.8000
 3385SOL    HW221789   0.708   1.937   1.097  0.5003  1.4565  1.1471
 3386SOL     OW21790   0.260   1.384  17.034  0.8311  0.2743 -0.1142
 3386SOL    HW121791   0.328   1.361  16.971 -0.3715  1.0270 -1.6914
 3386SOL    HW221792   0.244   1.477  17.016 -0.3765 -0.0017 -0.4914
 3387SOL     OW21793   2.277   1.744   8.080 -0.3873 -0.0318  0.5240
 3387SOL    HW121794   2.262   1.667   8.025 -0.3818  1.6263 -1.8176
 3387SOL    HW221795   2.216   1.800   8.033  0.8318  0.4908 -0.4447
 3388SOL     OW21796   3.010   2.180   6.415 -0.0011  0.2868 -0.1482
 3388SOL    HW121797   2.946   2.161   6.346  0.3455  2.5970 -1.0884
 3388SOL    HW221798   2.959   2.147   6.489 -0.6657 -0.2545 -0.8431
 3389SOL     OW21799   2.278   3.008   6.734  0.1675  0.6439  0.0820
 3389SOL    HW121800   2.260   3.067   6.661  2.6769  2.4565  0.9136
 3389SOL    HW221801   2.347   2.958   6.691 -2.8019 -3.6610  0.3792
 3390SOL     OW21802   3.702   4.626   5.055 -0.3309 -0.8202 -0.0983
 3390SOL    HW121803   3.797   4.630   5.046 -0.4789  0.7680 -1.1057
 3390SOL    HW221804   3.677   4.646   4.964 -0.4807  2.2254  0.6034
 3391SOL     OW21805   3.019   0.011   9.080 -0.2675  0.2693 -0.1322
 3391SOL    HW121806   2.962   4.687   9.039 -0.6402  1.3997 -1.3948
 3391SOL    HW221807   3.036   4.708   9.163  1.0553  0.4857 -0.2800
 3392SOL     OW21808   3.845   0.917  12.370 -0.9488 -0.4152 -0.2617
 3392SOL    HW121809   3.853   0.870  12.287 -1.5956 -1.2388  0.1362
 3392SOL    HW221810   3.834   0.841  12.427  2.0153 -0.1299  0.6565
 3393SOL     OW21811   3.875   4.226   4.288  0.2356  0.8741  0.2508
 3393SOL    HW121812   3.843   4.141   4.319  0.4154  0.6238 -0.2617
 3393SOL    HW221813   3.822   4.278   4.348  1.0229 -0.2265  1.8990
 3394SOL     OW21814   2.259   4.164   3.419 -0.0032 -0.3718 -0.4909
 3394SOL    HW121815   2.307   4.092   3.461  0.6615 -0.5610 -1.5871
 3394SOL    HW221816   2.203   4.171   3.497 -0.5028 -1.4311 -0.7609
 3395SOL     OW21817   1.192   2.849  17.273  0.1492  0.0947  0.7540
 3395SOL    HW121818   1.120   2.873  17.331 -0.8562 -1.9167  0.3174
 3395SOL    HW221819   1.260   2.881  17.332  0.7464 -2.6921  1.5559
 3396SOL     OW21820   1.209   0.818   6.256  0.3391  0.5316  0.7650
 3396SOL    HW121821   1.272   0.875   6.301  1.0950 -0.2876  0.7258
 3396SOL    HW221822   1.179   0.756   6.323  1.3542 -0.9334 -0.1313
 3397SOL     OW21823   2.110   4.097   5.916  0.0529 -0.0135  0.1052
 3397SOL    HW121824   2.076   4.177   5.957 -2.6324 -1.9527  1.6800
 3397SOL    HW221825   2.173   4.064   5.980  0.9511  0.5611 -0.4851
 3398SOL     OW21826   2.056   1.246   5.244 -0.2444 -0.2837 -0.3451
 3398SOL    HW121827   2.115   1.321   5.233  0.8171 -1.1334 -0.4547
 3398SOL    HW221828   2.091   1.197   5.319 -2.4935 -2.6634 -0.8645
 3399SOL     OW21829   4.396   4.725   8.071  0.8307 -0.2159  0.0618
 3399SOL    HW121830   4.490   4.736   8.054  0.3535  3.9641  0.0923
 3399SOL    HW221831   4.385   0.007   8.164  0.1071  1.4279 -0.4338
 3400SOL     OW21832   3.221   1.284   7.903  0.2581 -0.0019  0.2512
 3400SOL    HW121833   3.164   1.353   7.869 -0.5289  0.1808  1.9422
 3400SOL    HW221834   3.266   1.326   7.977  0.2375  0.1160  0.1978
 3401SOL     OW21835   3.048   2.230   8.608  0.1551 -0.2532 -0.4669
 3401SOL    HW121836   3.008   2.171   8.545 -0.4300  0.5677 -0.8524
 3401SOL    HW221837   3.008   2.308   8.572  1.5915 -0.4102 -2.3807
 3402SOL     OW21838   0.147   4.591   2.726 -0.2051  0.6172 -0.0651
 3402SOL    HW121839   0.148   4.655   2.798 -1.1036  0.1041  0.4039
 3402SOL    HW221840   0.078   4.532   2.756 -0.0989  1.7504  2.3952
 3403SOL     OW21841   1.217   2.697   6.048  0.1775  0.4193  0.1070
 3403SOL    HW121842   1.200   2.750   6.126  2.2065  0.3211  0.6248
 3403SOL    HW221843   1.137   2.646   6.051  0.1709  0.4303  0.1157
 3404SOL     OW21844   0.566   1.935   7.860  0.4218 -0.0062 -0.1214
 3404SOL    HW121845   0.617   1.866   7.819  0.8494  0.6422 -0.6841
 3404SOL    HW221846   0.500   1.943   7.791 -0.5179 -1.1783  0.6432
 3405SOL     OW21847   3.073   0.843   1.588  0.2015 -0.5777 -0.2234
 3405SOL    HW121848   2.986   0.880   1.602  0.8138  0.7527  0.1029
 3405SOL    HW221849   3.070   0.757   1.630  0.3439  0.2244  1.4168
 3406SOL     OW21850   1.972   3.136   9.471 -0.2511  0.0263  0.7848
 3406SOL    HW121851   2.006   3.197   9.536 -0.2012  0.8641 -0.0161
 3406SOL    HW221852   2.018   3.055   9.493  2.1970  0.8437 -1.2834
 3407SOL     OW21853   0.465   4.199   4.309  0.4425  0.2246 -0.0908
 3407SOL    HW121854   0.481   4.253   4.386 -0.2041  1.0856 -0.5587
 3407SOL    HW221855   0.467   4.114   4.353  0.3087 -0.4713 -1.4225
 3408SOL     OW21856   0.176   0.854   9.484 -0.6183  0.3001 -0.6348
 3408SOL    HW121857   0.235   0.805   9.427 -0.9035 -0.8043  0.0202
 3408SOL    HW221858   0.214   0.838   9.571  0.5237 -1.6482 -1.5055
 3409SOL     OW21859   2.767   4.096   3.248 -0.2979 -0.5772  0.2400
 3409SOL    HW121860   2.735   4.081   3.337 -0.6815 -1.1716  0.0063
 3409SOL    HW221861   2.710   4.161   3.207 -0.3489  0.0040  1.2420
 3410SOL     OW21862   4.190   4.422   9.799  0.3309  0.0749 -0.1097
 3410SOL    HW121863   4.177   4.371   9.718  3.3760  1.0913 -1.2413
 3410SOL    HW221864   4.224   4.507   9.773 -0.1798  0.5341  0.7377
 3411SOL     OW21865   4.630   2.148   1.353  0.0483  0.2010  1.1146
 3411SOL    HW121866   4.592   2.226   1.312 -1.5265 -1.0182  0.2826
 3411SOL    HW221867   4.555   2.093   1.373  0.4683 -0.3217  1.2597
 3412SOL     OW21868   4.141   0.462   4.119 -0.3362  0.5181  0.0162
 3412SOL    HW121869   4.195   0.385   4.101  1.5465  2.1375 -1.4191
 3412SOL    HW221870   4.086   0.461   4.040 -0.4894  0.0048  0.1320
 3413SOL     OW21871   0.712   0.649   4.320 -0.3715  0.1192 -0.3369
 3413SOL    HW121872   0.654   0.593   4.371  0.7008 -0.3230  0.4173
 3413SOL    HW221873   0.757   0.583   4.268 -0.2741  1.0530 -1.4424
 3414SOL     OW21874   3.398   4.650   0.095  0.7269 -0.0362  0.2052
 3414SOL    HW121875   3.471   4.705   0.066  1.4393 -0.4108  1.2827
 3414SOL    HW221876   3.441   4.566   0.109 -0.1129 -0.7912 -1.8135
 3415SOL     OW21877   4.464   2.734  11.069 -0.1306  0.0507  0.6082
 3415SOL    HW121878   4.414   2.658  11.101  0.4517 -1.4445 -2.0055
 3415SOL    HW221879   4.551   2.708  11.099 -0.7957 -1.7486  1.0008
 3416SOL     OW21880   1.219   4.119   2.238  0.1108 -0.7226  0.0245
 3416SOL    HW121881   1.288   4.144   2.298  0.3869 -2.0885  0.2599
 3416SOL    HW221882   1.157   4.088   2.304  1.4049 -0.1129  1.5165
 3417SOL     OW21883   4.294   2.239   0.809  0.2091  0.1099 -0.0818
 3417SOL    HW121884   4.252   2.176   0.750  1.5841  0.1161 -1.0800
 3417SOL    HW221885   4.223   2.290   0.848 -0.8772 -2.1212  0.8626
 3418SOL     OW21886   2.997   0.583   8.020  0.3176 -1.1313  0.3250
 3418SOL    HW121887   3.001   0.491   7.995 -0.6848 -0.7843 -1.0779
 3418SOL    HW221888   3.053   0.576   8.097 -0.4318  0.7597  1.0397
 3419SOL     OW21889   3.042   3.066   6.594 -0.0892 -0.2184  0.7747
 3419SOL    HW121890   2.965   3.068   6.651 -1.8025  3.5884 -1.6592
 3419SOL    HW221891   2.997   3.032   6.517 -0.0514 -0.0533  0.6806
 3420SOL     OW21892   3.404   4.316  11.567 -0.2097 -0.1209 -0.0514
 3420SOL    HW121893   3.471   4.384  11.555  1.5520 -1.4338  2.3211
 3420SOL    HW221894   3.387   4.332  11.660  0.0253 -2.1775  0.3550
 3421SOL     OW21895   2.044   2.074   3.576  0.1914 -0.4322 -0.2624
 3421SOL    HW121896   2.007   2.161   3.585  0.9781 -0.3580  2.2368
 3421SOL    HW221897   2.048   2.062   3.481  0.6746  0.7573 -0.3930
 3422SOL     OW21898   0.069   3.239   7.374  0.0947 -0.0523 -0.7870
 3422SOL    HW121899   0.086   3.166   7.315 -1.3793 -0.7969 -0.2660
 3422SOL    HW221900   4.732   3.212   7.423 -0.9016 -0.1705 -2.4481
 3423SOL     OW21901   0.277   3.177  17.174  0.4081  0.0572  0.2261
 3423SOL    HW121902   0.307   3.260  17.138  0.0327  0.2425  0.3421
 3423SOL    HW221903   0.250   3.122  17.100  2.6484  0.5841 -1.0048
 3424SOL     OW21904   4.339   2.825   8.939  0.1350 -0.0522  0.0267
 3424SOL    HW121905   4.374   2.772   9.011 -2.0009 -2.3318 -0.6279
 3424SOL    HW221906   4.331   2.914   8.974  0.0173  0.4153 -1.1934
 3425SOL     OW21907   4.196   4.325   5.780 -0.2623  0.3144 -0.2804
 3425SOL    HW121908   4.284   4.291   5.796 -0.9728 -1.6684 -0.6533
 3425SOL    HW221909   4.146   4.250   5.811  2.5847 -1.7945 -0.8248
 3426SOL     OW21910   1.218   1.808  10.031 -0.2314  0.5118 -0.3136
 3426SOL    HW121911   1.223   1.838   9.940  1.1179  0.2903 -0.3095
 3426SOL    HW221912   1.146   1.861  10.065  0.5059  0.0048  2.0594
 3427SOL     OW21913   1.492   2.167   2.413  0.1647 -0.0249  0.2140
 3427SOL    HW121914   1.442   2.141   2.336 -1.9410 -0.4642  1.7346
 3427SOL    HW221915   1.579   2.135   2.388  0.1886  1.4436 -1.6103
 3428SOL     OW21916   0.228   1.824  14.681 -0.2483  0.1456 -0.6998
 3428SOL    HW121917   0.270   1.826  14.767  1.6947  3.5302 -1.7331
 3428SOL    HW221918   0.135   1.818  14.704  0.7624  2.2915  3.8756
 3429SOL     OW21919   3.550   1.201   4.990 -0.1335  0.1347  0.0701
 3429SOL    HW121920   3.553   1.275   4.930 -0.3789  1.2695  1.4711
 3429SOL    HW221921   3.530   1.124   4.935  0.2074  0.0690  0.0368
 3430SOL     OW21922   1.678   2.613  13.890 -0.6899  0.2690  0.1572
 3430SOL    HW121923   1.735   2.567  13.951 -0.1874 -1.6082 -1.7241
 3430SOL    HW221924   1.678   2.561  13.810 -0.6497  0.5624 -0.0337
 3431SOL     OW21925   1.897   1.343   8.186 -0.1410 -0.3360  0.5833
 3431SOL    HW121926   1.901   1.398   8.108  1.2161  0.1756  1.0312
 3431SOL    HW221927   1.821   1.386   8.225  0.1177  0.0265  0.6868
 3432SOL     OW21928   2.037   0.749   0.760  0.1981 -0.2433  0.1496
 3432SOL    HW121929   1.977   0.726   0.831 -0.9648 -0.0155 -0.7496
 3432SOL    HW221930   1.973   0.747   0.689 -0.6872 -1.1267  0.9612
 3433SOL     OW21931   2.168   2.192  17.065  0.7330  0.2593 -0.2526
 3433SOL    HW121932   2.237   2.177  17.000  2.1803  4.0560  0.3759
 3433SOL    HW221933   2.193   2.280  17.093 -1.2110  1.0623 -1.1247
 3434SOL     OW21934   1.972   1.701   3.931 -0.5402 -0.0555  0.7132
 3434SOL    HW121935   2.035   1.715   4.001  0.7575  0.3951 -0.5515
 3434SOL    HW221936   2.020   1.741   3.859 -1.7502  0.5171  0.2232
 3435SOL     OW21937   2.327   0.361   6.391  0.0178 -0.3803 -0.3877
 3435SOL    HW121938   2.236   0.386   6.406  0.5319  0.7422  0.8755
 3435SOL    HW221939   2.362   0.426   6.452 -0.1574  0.0589 -0.7586
 3436SOL     OW21940   2.321   4.560   2.893  0.1472  0.1125 -0.0923
 3436SOL    HW121941   2.273   4.638   2.868 -1.2633 -1.0499 -0.9952
 3436SOL    HW221942   2.321   4.563   2.989  0.7914 -0.9925 -0.0589
 3437SOL     OW21943   1.955   3.006   7.019 -0.3379  0.1275 -0.1439
 3437SOL    HW121944   2.011   2.975   7.090  0.0732 -2.5673 -1.6336
 3437SOL    HW221945   2.005   2.969   6.946 -0.2157  0.0794 -0.0383
 3438SOL     OW21946   4.231   3.600   4.509  0.3494  0.1005 -0.1246
 3438SOL    HW121947   4.158   3.604   4.446 -0.5248 -1.5158  0.7884
 3438SOL    HW221948   4.184   3.574   4.588 -0.7022  3.3955  0.3241
 3439SOL     OW21949   0.248   0.151  13.281  0.0533 -0.2023  0.5728
 3439SOL    HW121950   0.328   0.154  13.334  0.9391 -1.9578 -0.6842
 3439SOL    HW221951   0.187   0.180  13.349  0.8308  1.4022  0.5770
 3440SOL     OW21952   2.314   1.383   5.011 -0.4501  0.5996 -0.3929
 3440SOL    HW121953   2.384   1.442   5.039  2.6196 -3.9771  1.4608
 3440SOL    HW221954   2.341   1.350   4.926  1.5457 -1.7795  1.1534
 3441SOL     OW21955   1.626   3.741   5.016 -0.0385  0.2207 -0.0076
 3441SOL    HW121956   1.605   3.810   4.953  0.8779  0.8405  0.3618
 3441SOL    HW221957   1.552   3.682   5.001 -2.3164  2.9073  0.6625
 3442SOL     OW21958   0.375   2.406   9.021  0.1707 -0.2936 -0.4537
 3442SOL    HW121959   0.299   2.463   9.030  0.6729  0.2009  0.6039
 3442SOL    HW221960   0.338   2.329   8.978  1.1156 -0.5644 -0.7975
 3443SOL     OW21961   3.011   0.757  10.708  0.1759  0.4169 -0.1511
 3443SOL    HW121962   3.031   0.749  10.801  2.3784  0.8755 -0.5861
 3443SOL    HW221963   3.073   0.697  10.667  0.9059  0.0106  1.5721
 3444SOL     OW21964   3.480   3.857   9.768  0.7707  0.0600  0.0814
 3444SOL    HW121965   3.394   3.860   9.811  1.1001  0.9581  0.6980
 3444SOL    HW221966   3.506   3.773   9.805  1.3121 -0.3789 -1.3067
 3445SOL     OW21967   1.719   4.561   3.474  0.0138 -0.4268  0.0494
 3445SOL    HW121968   1.792   4.500   3.463 -1.0014 -1.2075 -2.2470
 3445SOL    HW221969   1.644   4.503   3.482 -0.3785  0.1940  0.8374
 3446SOL     OW21970   0.929   1.942   8.594  0.2916  0.3517  0.2168
 3446SOL    HW121971   0.949   1.855   8.561  0.9270  0.7596 -0.4589
 3446SOL    HW221972   0.833   1.936   8.596  0.4852 -1.6556  2.2227
 3447SOL     OW21973   0.796   0.673   9.504 -0.2168  0.0856  0.2166
 3447SOL    HW121974   0.723   0.645   9.558 -3.4219  3.4421 -2.3285
 3447SOL    HW221975   0.876   0.657   9.554 -1.1488 -0.9825  1.3514
 3448SOL     OW21976   0.218   1.970   1.204  0.1562 -0.2039 -0.5471
 3448SOL    HW121977   0.275   1.954   1.278 -1.2494  1.2033  0.8444
 3448SOL    HW221978   0.206   2.065   1.202  3.1186  0.2041  1.7818
 3449SOL     OW21979   2.355   1.541  16.503 -0.0514 -0.0465 -0.1929
 3449SOL    HW121980   2.386   1.561  16.414 -0.2243 -2.0301 -0.7214
 3449SOL    HW221981   2.361   1.630  16.535 -1.0811 -0.8507  2.2247
 3450SOL     OW21982   2.122   4.606   8.008  0.0515  0.7894  0.3805
 3450SOL    HW121983   2.031   4.607   7.980 -0.0652  2.2736  0.8081
 3450SOL    HW221984   2.164   4.674   7.956 -0.6627 -0.5651 -1.9720
 3451SOL     OW21985   2.400   2.871  11.576  0.3021  0.3276 -0.4251
 3451SOL    HW121986   2.487   2.844  11.608  0.6340  2.9069  0.8786
 3451SOL    HW221987   2.352   2.867  11.659 -1.4348  2.1783 -1.3728
 3452SOL     OW21988   0.707   1.769   6.047  0.0432 -0.1422  0.5480
 3452SOL    HW121989   0.768   1.701   6.018 -0.5825 -0.2814 -0.4426
 3452SOL    HW221990   0.624   1.720   6.045 -0.0832  0.1496 -1.2453
 3453SOL     OW21991   4.410   3.531  16.686  0.2489  0.1891 -0.1051
 3453SOL    HW121992   4.504   3.536  16.665  0.4682  0.0497  0.8532
 3453SOL    HW221993   4.378   3.611  16.644  1.1354 -0.0431 -1.2251
 3454SOL     OW21994   1.873   1.525   5.240 -0.2352 -0.1303  0.2672
 3454SOL    HW121995   1.824   1.443   5.242  0.4700 -0.5338  1.0778
 3454SOL    HW221996   1.940   1.510   5.173 -0.1497  0.0555  0.3091
 3455SOL     OW21997   1.189   2.111  14.386  0.2405  0.0261 -0.2824
 3455SOL    HW121998   1.259   2.073  14.441  1.7664  1.9216 -0.9127
 3455SOL    HW221999   1.229   2.105  14.299 -1.8336  0.1465 -1.2256
 3456SOL     OW22000   4.598   2.740  15.150  0.0613 -0.3508 -0.5179
 3456SOL    HW122001   4.524   2.785  15.109  0.0594 -1.0235 -1.2737
 3456SOL    HW222002   4.600   2.673  15.081  4.0517  0.4552 -1.1531
 3457SOL     OW22003   4.601   2.280   0.539  0.1080 -0.7525 -0.8140
 3457SOL    HW122004   4.686   2.321   0.557 -0.4121 -0.8630  1.7804
 3457SOL    HW222005   4.584   2.216   0.608  0.3074  1.4468  1.2478
 3458SOL     OW22006   2.628   0.275   5.061 -0.7834  0.5981 -0.0165
 3458SOL    HW122007   2.542   0.234   5.056  0.2026 -1.2324 -1.4969
 3458SOL    HW222008   2.623   0.352   5.004  0.4136 -0.0541 -0.9961
 3459SOL     OW22009   3.866   2.953   4.374  0.3088  0.7581  0.2718
 3459SOL    HW122010   3.796   2.982   4.316  1.1375  1.1442 -0.5518
 3459SOL    HW222011   3.872   3.034   4.425 -0.9717  0.1806  1.3357
 3460SOL     OW22012   1.295   2.545   2.223  0.2844  0.0990  0.7870
 3460SOL    HW122013   1.325   2.630   2.255 -1.4156  0.9183  0.1974
 3460SOL    HW222014   1.372   2.501   2.186 -1.9347 -2.2163 -1.0344
 3461SOL     OW22015   1.031   3.749  12.016 -0.0603 -0.3032 -0.3423
 3461SOL    HW122016   1.086   3.672  12.025 -0.2841 -0.2685  1.3421
 3461SOL    HW222017   0.969   3.715  11.952  0.1974 -2.0148  0.3379
 3462SOL     OW22018   1.175   2.565  17.309 -0.3790  0.5538  0.5906
 3462SOL    HW122019   1.100   2.551  17.251  0.5529 -1.4330 -0.1589
 3462SOL    HW222020   1.185   2.660  17.307  0.2804  0.5009  2.0433
 3463SOL     OW22021   0.264   1.120   9.402  0.0621  0.0992  0.1899
 3463SOL    HW122022   0.239   1.028   9.411 -1.0414  0.6334  2.5912
 3463SOL    HW222023   0.324   1.125   9.477 -2.2661  1.8321  1.9258
 3464SOL     OW22024   2.444   2.948   6.512  0.3020  0.3061 -0.2174
 3464SOL    HW122025   2.404   2.875   6.463  1.9743  0.5310 -1.9026
 3464SOL    HW222026   2.518   2.968   6.455  1.5175 -2.1850  0.4961
 3465SOL     OW22027   1.862   4.740   3.783 -0.3527  0.3526 -0.4685
 3465SOL    HW122028   1.932   4.677   3.768 -0.9410  0.2167 -2.7586
 3465SOL    HW222029   1.829   4.711   3.867 -2.5689  1.0653 -1.0814
 3466SOL     OW22030   1.335   3.976  17.486 -0.3525 -0.3461  0.3351
 3466SOL    HW122031   1.409   4.038  17.484 -1.7626  1.3659  1.2982
 3466SOL    HW222032   1.370   3.918  17.418 -1.3363 -0.3116 -0.1919
 3467SOL     OW22033   2.240   3.494   7.707 -0.1906  0.8796  0.4081
 3467SOL    HW122034   2.316   3.439   7.728 -1.3430 -0.1006  2.0250
 3467SOL    HW222035   2.184   3.481   7.783 -1.0526 -1.3517 -0.6001
 3468SOL     OW22036   3.973   2.210   1.926  0.8542 -0.1945 -0.4221
 3468SOL    HW122037   4.019   2.126   1.935 -1.6255 -1.5181 -0.1436
 3468SOL    HW222038   3.901   2.194   1.987  1.0104  2.3421  0.4323
 3469SOL     OW22039   0.724   2.185   5.396  0.2988 -0.0002 -0.2526
 3469SOL    HW122040   0.781   2.251   5.437 -0.4181  0.2436  0.3410
 3469SOL    HW222041   0.727   2.214   5.305 -0.5435 -2.2355 -0.9826
 3470SOL     OW22042   1.823   3.785   7.775  0.2343  0.3762  0.1354
 3470SOL    HW122043   1.849   3.709   7.828 -0.8029 -0.0227  0.0698
 3470SOL    HW222044   1.910   3.806   7.739 -0.1855 -0.0014 -1.1128
 3471SOL     OW22045   2.044   2.174   1.428  0.1652  0.2973 -0.0870
 3471SOL    HW122046   1.996   2.176   1.345  1.1342 -0.0986 -0.6550
 3471SOL    HW222047   2.056   2.080   1.427  1.2603  0.4390 -0.2344
 3472SOL     OW22048   2.306   3.037   8.077  0.8962 -0.4397  0.0985
 3472SOL    HW122049   2.310   3.001   8.165 -0.1408 -0.7983  0.0027
 3472SOL    HW222050   2.234   3.100   8.079  1.1870 -0.0129 -2.3627
 3473SOL     OW22051   3.016   0.167   7.146  0.4419 -0.1465 -0.0920
 3473SOL    HW122052   2.936   0.114   7.142  0.2459  0.1458  0.0288
 3473SOL    HW222053   3.063   0.129   7.072  0.3935  0.8475 -0.6272
 3474SOL     OW22054   2.769   3.814   8.350  0.7655 -0.0860 -0.4606
 3474SOL    HW122055   2.853   3.805   8.305  1.2653  1.3453  0.1986
 3474SOL    HW222056   2.702   3.821   8.283  1.6564 -1.0845 -1.4670
 3475SOL     OW22057   2.864   3.174  13.105 -1.0451 -0.1567 -0.4790
 3475SOL    HW122058   2.860   3.127  13.189 -1.2110  0.5478 -0.0976
 3475SOL    HW222059   2.790   3.233  13.115 -0.8558  0.2848 -1.6998
 3476SOL     OW22060   1.204   0.149   5.697  0.6275  0.4627  0.3573
 3476SOL    HW122061   1.282   0.117   5.743  1.1410 -1.4729 -1.9101
 3476SOL    HW222062   1.154   0.070   5.677  0.3616  1.3746 -2.4933
 3477SOL     OW22063   2.516   0.569   2.171  0.0086 -0.6541 -0.2306
 3477SOL    HW122064   2.421   0.570   2.179 -0.1198 -0.0370 -1.7054
 3477SOL    HW222065   2.530   0.510   2.097  3.3770 -0.4268  0.2306
 3478SOL     OW22066   3.738   2.848   5.744  0.3662  0.3134  0.1935
 3478SOL    HW122067   3.783   2.880   5.665  2.1662  0.1116  1.1351
 3478SOL    HW222068   3.648   2.855   5.713 -0.0300  1.6761  1.6600
 3479SOL     OW22069   0.329   2.191  12.176 -0.2035  0.0649 -0.3457
 3479SOL    HW122070   0.277   2.270  12.193 -0.8257  0.0203 -2.0434
 3479SOL    HW222071   0.286   2.169  12.093 -2.8965  1.2849  0.7133
 3480SOL     OW22072   4.132   3.435   6.334  0.3551  0.1898  0.9310
 3480SOL    HW122073   4.154   3.389   6.253  1.0744 -1.9455  2.3489
 3480SOL    HW222074   4.043   3.410   6.357  0.6068 -0.7920  0.8620
 3481SOL     OW22075   1.041   2.463   3.307 -0.1187 -0.1579 -0.1661
 3481SOL    HW122076   0.973   2.458   3.239 -0.2317  3.8051 -0.3208
 3481SOL    HW222077   1.004   2.402   3.371  1.1496 -0.9173 -0.1584
 3482SOL     OW22078   3.017   3.757  11.225 -0.2315 -0.4685 -0.2405
 3482SOL    HW122079   3.027   3.671  11.184  2.8278 -0.3840  0.3195
 3482SOL    HW222080   2.934   3.749  11.271  0.2700  2.4567  1.1967
 3483SOL     OW22081   1.535   3.492   8.292  0.0402  0.1570 -0.6318
 3483SOL    HW122082   1.613   3.447   8.259 -1.3015 -1.0701 -2.1344
 3483SOL    HW222083   1.498   3.427   8.352  2.5180  0.1823  0.9306
 3484SOL     OW22084   3.831   0.387   7.730  0.2160 -0.5657  0.0658
 3484SOL    HW122085   3.796   0.311   7.777 -0.9654 -0.3741 -0.5049
 3484SOL    HW222086   3.868   0.426   7.809  1.2799 -0.1891 -0.6190
 3485SOL     OW22087   2.554   2.055  17.489  0.0768 -0.1524  0.3985
 3485SOL    HW122088   2.476   2.067  17.434  0.3911 -2.5073 -0.5733
 3485SOL    HW222089   2.560   2.145  17.520  1.6835  0.1180 -0.6689
 3486SOL     OW22090   4.659   3.884   8.414 -0.5359 -0.2993  0.1643
 3486SOL    HW122091   4.684   3.836   8.493 -0.1614  1.7020  1.2793
 3486SOL    HW222092   4.703   3.843   8.340 -1.1122 -1.0455  0.2414
 3487SOL     OW22093   3.876   3.419   3.417 -0.5106  0.3241  0.2107
 3487SOL    HW122094   3.953   3.428   3.361 -1.0289  1.4378 -0.3192
 3487SOL    HW222095   3.805   3.388   3.361 -0.7786 -1.5686  1.5799
 3488SOL     OW22096   2.346   2.804  16.020 -0.5215  0.3125  0.0165
 3488SOL    HW122097   2.327   2.795  16.113 -0.4720 -1.3373 -0.1456
 3488SOL    HW222098   2.257   2.812  15.983 -0.4808  0.3122 -0.0820
 3489SOL     OW22099   0.954   1.876   2.146 -0.0715  0.2196  0.4205
 3489SOL    HW122100   1.038   1.837   2.169  0.6520  0.7297 -1.3299
 3489SOL    HW222101   0.979   1.927   2.069  2.8113 -0.8837  0.6477
 3490SOL     OW22102   2.328   3.167   8.511 -0.3325 -0.0000  0.4970
 3490SOL    HW122103   2.317   3.074   8.488 -1.0285  0.3244 -0.4997
 3490SOL    HW222104   2.337   3.161   8.606  0.4519  0.6330  0.4575
 3491SOL     OW22105   2.931   0.098   0.984  0.0059  0.3400  0.6283
 3491SOL    HW122106   3.010   0.151   0.993  0.7649 -0.6596 -0.0575
 3491SOL    HW222107   2.919   0.091   0.889 -2.8602  0.3069  0.9865
 3492SOL     OW22108   2.644   3.723  13.443 -0.0800 -0.1100  0.1353
 3492SOL    HW122109   2.610   3.708  13.531 -0.5584 -2.2267 -0.4014
 3492SOL    HW222110   2.738   3.732  13.463  0.0449 -2.2241  0.4807
 3493SOL     OW22111   2.186   4.368   3.811  0.4119  0.2810  0.0959
 3493SOL    HW122112   2.091   4.373   3.798  0.4788  1.3014 -0.0509
 3493SOL    HW222113   2.204   4.460   3.833  1.1482  0.4952 -1.4524
 3494SOL     OW22114   4.445   4.434   2.956  0.4714 -0.5614  0.2463
 3494SOL    HW122115   4.394   4.510   2.928  1.8692 -0.6761 -2.6104
 3494SOL    HW222116   4.377   4.381   2.997 -0.3765 -0.8488 -1.5361
 3495SOL     OW22117   0.683   1.730   5.364  0.4372  0.3286  0.4300
 3495SOL    HW122118   0.695   1.764   5.453  1.7507  1.5338 -0.2067
 3495SOL    HW222119   0.613   1.667   5.381  0.3275  0.4397  0.3847
 3496SOL     OW22120   2.701   0.395   5.637 -0.3941 -0.5198  0.4347
 3496SOL    HW122121   2.764   0.324   5.650 -0.0958 -0.5604 -1.3135
 3496SOL    HW222122   2.672   0.423   5.724 -1.0121  0.1987 -0.0053
 3497SOL     OW22123   4.130   0.421   3.268 -0.3591  0.4899  0.1467
 3497SOL    HW122124   4.188   0.423   3.344  2.7407  0.3990 -2.2362
 3497SOL    HW222125   4.115   0.327   3.256  2.9794  0.2337 -2.0346
 3498SOL     OW22126   3.226   1.554  10.408  0.2241  0.5032 -0.8989
 3498SOL    HW122127   3.309   1.600  10.392  0.4946  0.4018  0.1810
 3498SOL    HW222128   3.185   1.563  10.322  0.5639  1.7649 -0.9196
 3499SOL     OW22129   0.635   0.419   3.658 -0.2576  0.5225 -0.5308
 3499SOL    HW122130   0.544   0.435   3.632 -0.8891  2.2653  2.6417
 3499SOL    HW222131   0.620   0.421   3.753  2.6155 -2.0086 -0.0415
 3500SOL     OW22132   4.722   4.148   2.950  0.4284  0.1068 -0.1027
 3500SOL    HW122133   0.000   4.177   3.039 -0.4711  3.1152 -0.9071
 3500SOL    HW222134   4.728   4.054   2.970  1.4505  0.2269  0.1522
 3501SOL     OW22135   0.094   0.490   8.604 -0.4845 -0.0341 -0.3374
 3501SOL    HW122136   0.065   0.572   8.566 -0.2177 -0.5289 -1.6189
 3501SOL    HW222137   0.013   0.447   8.578 -0.3720 -1.3766  1.5667
 3502SOL     OW22138   1.774   0.804   2.889  0.1934  0.0029 -0.3582
 3502SOL    HW122139   1.778   0.729   2.829  0.9505 -1.5368  1.6384
 3502SOL    HW222140   1.861   0.844   2.881 -0.5080  1.6213  0.3621
 3503SOL     OW22141   1.626   0.470   7.077  0.0884  0.5294  0.3867
 3503SOL    HW122142   1.558   0.408   7.050  1.2428 -0.3169 -0.6106
 3503SOL    HW222143   1.671   0.428   7.150  0.8966  2.8067  1.2012
 3504SOL     OW22144   2.913   1.284  15.358 -0.2732 -0.1122  0.0252
 3504SOL    HW122145   2.904   1.258  15.266  2.1664  0.8959 -0.5230
 3504SOL    HW222146   2.839   1.343  15.374  0.7121  1.7672 -2.2551
 3505SOL     OW22147   1.684   3.188   6.568  0.2810  0.2804  0.2685
 3505SOL    HW122148   1.695   3.282   6.578  1.2051  0.3690 -1.4414
 3505SOL    HW222149   1.760   3.158   6.618 -1.4661 -2.5317  1.2309
 3506SOL     OW22150   2.032   3.365   0.532  0.5804 -0.7320 -0.4294
 3506SOL    HW122151   2.038   3.459   0.516 -1.0934 -0.4987  0.3665
 3506SOL    HW222152   2.102   3.334   0.473 -0.5684  0.2791 -2.3128
 3507SOL     OW22153   2.563   3.296   5.256  0.2943  0.2559  0.1132
 3507SOL    HW122154   2.596   3.306   5.345 -2.3542 -1.6251  1.2929
 3507SOL    HW222155   2.550   3.202   5.251  1.4446  0.0489  0.9621
 3508SOL     OW22156   3.925   1.007   6.688  0.3561 -0.3372  0.6087
 3508SOL    HW122157   3.998   1.031   6.632 -0.1886 -0.0650  0.0175
 3508SOL    HW222158   3.921   0.913   6.671  0.3806 -0.6995  2.6304
 3509SOL     OW22159   3.453   1.277   4.007  0.9952 -0.0080  0.3522
 3509SOL    HW122160   3.469   1.290   3.914 -0.6546  1.1840  0.2447
 3509SOL    HW222161   3.371   1.324   4.018  0.1866 -1.7308  1.7371
 3510SOL     OW22162   0.828   4.618   4.462  0.3616 -0.1654  0.0448
 3510SOL    HW122163   0.868   4.575   4.538  2.5048  1.4929 -0.1343
 3510SOL    HW222164   0.902   4.638   4.405 -1.0462  1.7883 -1.0771
 3511SOL     OW22165   0.882   1.070   3.926 -0.0350  0.2571 -0.2651
 3511SOL    HW122166   0.791   1.047   3.912 -0.2433  1.4805 -0.9032
 3511SOL    HW222167   0.917   0.985   3.899  0.4499  0.0464  0.9986
 3512SOL     OW22168   4.389   3.318  11.648 -0.2886  0.8058  0.4697
 3512SOL    HW122169   4.432   3.349  11.727  0.4358  0.3810  0.2399
 3512SOL    HW222170   4.300   3.336  11.679 -0.6755  0.9008 -0.6773
 3513SOL     OW22171   3.255   2.186   8.395  0.2796  0.5153 -0.4134
 3513SOL    HW122172   3.282   2.131   8.468  1.1651 -0.3595 -1.3972
 3513SOL    HW222173   3.160   2.175   8.395  0.4454 -0.9360  0.6095
 3514SOL     OW22174   0.630   0.175   2.642 -0.0012 -0.2895  0.5638
 3514SOL    HW122175   0.721   0.192   2.618 -0.5093 -1.1638 -1.9648
 3514SOL    HW222176   0.597   0.120   2.571  0.0674 -0.8596  0.9807
 3515SOL     OW22177   3.442   4.296   6.393  0.5614 -0.2959  0.0217
 3515SOL    HW122178   3.403   4.361   6.452 -0.2674  1.3322 -2.2981
 3515SOL    HW222179   3.481   4.363   6.337 -1.7810 -0.0980 -1.3892
 3516SOL     OW22180   2.907   4.184   3.697 -0.2481  0.4774  0.0447
 3516SOL    HW122181   2.849   4.192   3.773 -0.4694 -0.2932 -0.0368
 3516SOL    HW222182   2.938   4.274   3.699 -0.0076  0.3590  1.7221
 3517SOL     OW22183   4.686   0.260   6.927 -0.3001  0.3356  0.0018
 3517SOL    HW122184   0.013   0.195   6.948 -0.3906  0.9337  2.1955
 3517SOL    HW222185   4.687   0.261   6.831  0.6652  2.5583  0.0260
 3518SOL     OW22186   4.635   0.451   5.950  0.3065 -0.1140 -0.1453
 3518SOL    HW122187   4.570   0.392   5.988  1.9283 -0.7609  1.6504
 3518SOL    HW222188   4.714   0.419   5.995  1.7259  1.0514 -1.8191
 3519SOL     OW22189   1.692   0.523  15.492  0.0269  0.2520 -0.5107
 3519SOL    HW122190   1.679   0.506  15.586  1.3572  1.9494 -0.0166
 3519SOL    HW222191   1.787   0.514  15.495 -0.1188 -0.7909  0.9448
 3520SOL     OW22192   3.540   2.526   5.492 -0.3142  0.0302  0.4577
 3520SOL    HW122193   3.604   2.587   5.456 -0.0441 -0.6461 -0.2044
 3520SOL    HW222194   3.537   2.463   5.420  2.4401 -0.5004  0.7883
 3521SOL     OW22195   3.230   2.364  15.751 -0.1852 -0.3224 -0.0864
 3521SOL    HW122196   3.177   2.417  15.810  0.2508  0.2249 -0.1806
 3521SOL    HW222197   3.208   2.387  15.661 -2.8615  0.3030  0.7221
 3522SOL     OW22198   2.448   1.887   2.672  0.3093  0.2310 -0.1320
 3522SOL    HW122199   2.439   1.793   2.690 -1.3471  0.4815  0.3237
 3522SOL    HW222200   2.357   1.913   2.655  0.8280  1.9158 -0.2654
 3523SOL     OW22201   2.394   0.196   5.863  0.0368  0.4177 -0.0195
 3523SOL    HW122202   2.352   0.208   5.948 -1.7800 -0.2762 -0.8090
 3523SOL    HW222203   2.384   0.281   5.819 -0.0862  0.7429  0.6401
 3524SOL     OW22204   2.520   2.226  10.349 -1.0323  0.6560  0.0528
 3524SOL    HW122205   2.588   2.163  10.327 -0.3797  1.6886 -0.8965
 3524SOL    HW222206   2.499   2.213  10.442 -1.9883  3.1826  0.2145
 3525SOL     OW22207   0.582   2.006   5.240 -0.0254 -0.0552 -0.1879
 3525SOL    HW122208   0.631   2.023   5.320  1.9533 -2.1203 -0.9617
 3525SOL    HW222209   0.652   1.953   5.202 -0.1830 -1.0300  0.8482
 3526SOL     OW22210   3.974   0.287   2.881 -0.3105 -0.2115  0.4969
 3526SOL    HW122211   3.965   0.192   2.894  1.4914 -0.6282 -1.2259
 3526SOL    HW222212   3.966   0.301   2.787 -0.7344 -1.6622  0.3196
 3527SOL     OW22213   2.615   3.003  14.956  0.2663 -0.0213  0.5752
 3527SOL    HW122214   2.682   2.937  14.977 -0.8912 -2.1011 -2.1903
 3527SOL    HW222215   2.542   2.996  15.018 -0.5375  0.9307 -0.2658
 3528SOL     OW22216   1.031   2.074   3.302  0.0715  0.1699  0.4058
 3528SOL    HW122217   1.006   2.031   3.220 -1.0865  0.7082  0.4822
 3528SOL    HW222218   0.944   2.081   3.340 -0.2993  1.7778 -0.7580
 3529SOL     OW22219   1.489   2.843   7.954  1.1438 -0.7067 -0.0804
 3529SOL    HW122220   1.402   2.832   7.993  0.6447 -0.4834 -1.1237
 3529SOL    HW222221   1.515   2.751   7.950  2.7250 -0.2686  0.1254
 3530SOL     OW22222   1.789   2.788   7.290  0.4433 -0.4885 -0.0237
 3530SOL    HW122223   1.830   2.706   7.314 -0.0790 -0.9789 -0.8042
 3530SOL    HW222224   1.706   2.779   7.337  1.0696  0.4104  1.2440
 3531SOL     OW22225   0.321   0.239   9.342  0.7994 -0.0121 -0.2222
 3531SOL    HW122226   0.319   0.329   9.308 -0.1992 -0.1997 -0.6553
 3531SOL    HW222227   0.376   0.201   9.273 -0.5683  1.5050 -2.1734
 3532SOL     OW22228   3.586   2.531   8.434 -0.2381  0.3717 -0.0345
 3532SOL    HW122229   3.619   2.566   8.516  0.7120  3.4230 -1.7145
 3532SOL    HW222230   3.550   2.445   8.458  1.4075  0.5332  2.9717
 3533SOL     OW22231   2.997   3.800   8.210 -0.0653 -0.2617 -0.0607
 3533SOL    HW122232   3.075   3.750   8.235  1.2886  1.0951 -1.5565
 3533SOL    HW222233   3.018   3.820   8.119  0.2725 -3.0454 -0.6136
 3534SOL     OW22234   1.978   0.641   4.525 -0.3454 -0.1038  0.5647
 3534SOL    HW122235   1.884   0.631   4.541 -0.6304 -0.1708 -1.1400
 3534SOL    HW222236   2.006   0.691   4.602  2.9922 -0.6165 -0.3349
 3535SOL     OW22237   4.545   0.631   0.060 -0.2143  0.0307 -0.6801
 3535SOL    HW122238   4.573   0.712   0.017 -3.2799  0.2288 -2.2379
 3535SOL    HW222239   4.619   0.606   0.116 -0.4457  1.2710  0.1766
 3536SOL     OW22240   3.993   4.392   8.262 -0.8129 -0.4501  0.6275
 3536SOL    HW122241   4.005   4.298   8.273 -2.6345 -0.4980  2.0493
 3536SOL    HW222242   4.045   4.396   8.181 -0.1802  2.0377  1.1525
 3537SOL     OW22243   3.851   3.909   2.913  0.7963  0.2473 -0.0017
 3537SOL    HW122244   3.941   3.907   2.946  1.0166  0.0591 -0.5992
 3537SOL    HW222245   3.842   3.820   2.878 -1.3106  0.5902 -0.3452
 3538SOL     OW22246   2.425   3.696  13.260 -0.3441 -0.0037 -0.0614
 3538SOL    HW122247   2.480   3.725  13.334  0.6846 -0.8027 -0.5108
 3538SOL    HW222248   2.338   3.678  13.295 -0.0330 -0.3878  0.5236
 3539SOL     OW22249   1.560   1.570  15.169 -0.5300  0.0116 -0.3265
 3539SOL    HW122250   1.589   1.649  15.122  0.3808  0.5120  1.0751
 3539SOL    HW222251   1.529   1.514  15.098  0.4661 -1.0036  0.0424
 3540SOL     OW22252   0.324   0.406   3.583 -0.5411 -0.0526  0.0983
 3540SOL    HW122253   0.244   0.399   3.634  1.2117 -3.0209  2.4274
 3540SOL    HW222254   0.312   0.359   3.500  0.9360 -0.7078  0.2413
 3541SOL     OW22255   1.714   1.652   9.570  0.0086 -0.1967 -0.2057
 3541SOL    HW122256   1.791   1.630   9.623  0.4957  1.8107 -0.0810
 3541SOL    HW222257   1.679   1.568   9.540 -0.9885  0.2581 -0.3167
 3542SOL     OW22258   1.604   1.644  17.378  0.3624  0.1067 -0.0873
 3542SOL    HW122259   1.591   1.726  17.329  0.4115 -0.8098 -1.6538
 3542SOL    HW222260   1.549   1.671  17.452 -1.1464 -0.4735 -0.9881
 3543SOL     OW22261   3.510   1.042   1.818  0.0435  0.2505  0.3151
 3543SOL    HW122262   3.494   0.949   1.800 -0.3872  0.6351 -1.2551
 3543SOL    HW222263   3.476   1.082   1.738  1.1653  2.7334  1.1050
 3544SOL     OW22264   1.260   3.593   3.294  0.9635 -0.8942  0.5584
 3544SOL    HW122265   1.187   3.650   3.270  0.4439 -0.8834  2.2014
 3544SOL    HW222266   1.214   3.521   3.335  0.0938 -0.1645  0.8621
 3545SOL     OW22267   4.613   4.681   9.441 -0.0375  0.7824 -0.3316
 3545SOL    HW122268   4.548   4.610   9.448 -1.3829  2.2194  1.6456
 3545SOL    HW222269   4.587   4.719   9.524 -0.1828 -0.0361  0.0003
 3546SOL     OW22270   0.096   4.466   9.818 -0.4211 -0.2437  0.8129
 3546SOL    HW122271   0.062   4.551   9.848  0.5383 -0.4530  2.4939
 3546SOL    HW222272   0.012   4.422   9.804 -1.1874  2.3124 -2.5944
 3547SOL     OW22273   0.295   3.550   1.979  0.2897 -0.2006  0.5061
 3547SOL    HW122274   0.283   3.642   2.001  1.4316  0.0493  0.0899
 3547SOL    HW222275   0.389   3.553   1.958 -0.3078 -0.0097 -2.1286
 3548SOL     OW22276   3.167   4.511   7.217 -0.1769 -0.6452  0.3374
 3548SOL    HW122277   3.211   4.461   7.286 -1.5836 -1.2515  0.7915
 3548SOL    HW222278   3.204   4.598   7.229  1.0921 -1.0825 -0.3809
 3549SOL     OW22279   3.456   4.557  12.520  0.0388 -0.6726  0.2500
 3549SOL    HW122280   3.453   4.476  12.468  1.9001  0.2450 -1.2904
 3549SOL    HW222281   3.372   4.601  12.515  0.6361  0.5114  0.7558
 3550SOL     OW22282   0.731   3.713   2.226  0.0344 -0.3775 -0.0995
 3550SOL    HW122283   0.731   3.653   2.152  0.9047  0.5886 -0.8799
 3550SOL    HW222284   0.773   3.644   2.278  0.9960 -0.2084 -0.6502
 3551SOL     OW22285   3.571   2.015   8.291 -0.0618 -0.1620  0.2754
 3551SOL    HW122286   3.497   1.982   8.342  1.7636 -0.4231  2.7655
 3551SOL    HW222287   3.611   1.933   8.260 -0.2205 -0.4010  0.7031
 3552SOL     OW22288   0.835   1.397   1.773 -0.6330  0.0323  0.1436
 3552SOL    HW122289   0.863   1.461   1.838  2.4056 -2.1325  1.0163
 3552SOL    HW222290   0.924   1.364   1.757 -1.4753 -1.8655 -0.6861
 3553SOL     OW22291   4.324   1.998   9.715 -0.5874  0.0880 -0.3324
 3553SOL    HW122292   4.325   1.912   9.675  0.2513 -0.4452  0.8223
 3553SOL    HW222293   4.313   1.986   9.809  2.6235  0.8765  0.1512
 3554SOL     OW22294   0.252   0.736   1.420 -0.0010  0.3276  0.3598
 3554SOL    HW122295   0.208   0.800   1.365 -1.2943 -0.7561  0.1374
 3554SOL    HW222296   0.218   0.658   1.376 -0.3542  0.6158  0.1300
 3555SOL     OW22297   0.615   4.112   8.032  0.3351 -0.3456  0.1807
 3555SOL    HW122298   0.639   4.099   8.124 -1.8840  0.8235  0.9263
 3555SOL    HW222299   0.557   4.038   8.017 -0.8056  0.1297  2.1676
 3556SOL     OW22300   3.764   3.806   8.211  0.3468 -0.0534 -0.4666
 3556SOL    HW122301   3.742   3.742   8.144  0.6113 -2.4443  1.7215
 3556SOL    HW222302   3.790   3.741   8.276  0.9273  0.8423  0.1948
 3557SOL     OW22303   2.708   1.527   9.518  0.0108  1.0761  0.3653
 3557SOL    HW122304   2.790   1.491   9.484 -0.5070  1.1481 -0.9466
 3557SOL    HW222305   2.649   1.454   9.498  0.6401  0.7410 -0.3007
 3558SOL     OW22306   3.514   3.424   7.658  0.7254  0.3388  0.2012
 3558SOL    HW122307   3.596   3.471   7.640  1.0757  1.3685  4.3371
 3558SOL    HW222308   3.546   3.340   7.692 -0.6306 -1.1439 -2.1931
 3559SOL     OW22309   1.816   1.704   8.105  0.1212  0.2654 -0.1620
 3559SOL    HW122310   1.862   1.770   8.053 -0.5212  1.8632  1.3323
 3559SOL    HW222311   1.725   1.724   8.085 -0.4904 -1.1212  1.2152
 3560SOL     OW22312   0.728   2.570  10.724 -0.3051  0.2850 -0.3604
 3560SOL    HW122313   0.741   2.502  10.658 -0.9302  0.6419 -0.8471
 3560SOL    HW222314   0.815   2.593  10.756  0.4718 -1.2926 -1.3067
 3561SOL     OW22315   3.586   3.940   2.673  0.1134 -0.6675  0.2056
 3561SOL    HW122316   3.506   3.960   2.722  0.1518  0.3698 -0.1544
 3561SOL    HW222317   3.552   3.915   2.587  0.1197  0.3386 -0.0858
 3562SOL     OW22318   2.881   0.872   5.079 -0.3631  0.8410  0.1716
 3562SOL    HW122319   2.860   0.958   5.115 -1.9120 -0.5947  2.6949
 3562SOL    HW222320   2.807   0.822   5.112 -0.3750  0.6649 -0.1262
 3563SOL     OW22321   3.589   0.405   4.693  0.0830  0.4145  0.0774
 3563SOL    HW122322   3.606   0.484   4.744  2.1910 -0.1891  0.3177
 3563SOL    HW222323   3.587   0.439   4.604 -0.3900  0.0352 -0.0598
 3564SOL     OW22324   0.152   2.594   8.137  0.4546 -0.3541  0.3863
 3564SOL    HW122325   0.082   2.645   8.179  2.8843  2.3661  1.0957
 3564SOL    HW222326   0.222   2.658   8.120 -1.3439  1.1486 -1.4010
 3565SOL     OW22327   1.574   2.164  12.896 -0.2139 -0.7990  0.2455
 3565SOL    HW122328   1.576   2.110  12.816 -0.4939 -1.4180  0.6590
 3565SOL    HW222329   1.657   2.212  12.893  0.4770 -1.9602  1.2948
 3566SOL     OW22330   1.871   3.020   3.534 -0.0467 -0.0079  0.1207
 3566SOL    HW122331   1.866   2.999   3.441  1.6471 -0.5250  0.1486
 3566SOL    HW222332   1.953   3.070   3.535 -0.8280  1.2361  1.0517
 3567SOL     OW22333   4.325   0.415  16.878  0.3254  0.3226  0.2453
 3567SOL    HW122334   4.328   0.511  16.878 -2.1318  0.3602  2.5520
 3567SOL    HW222335   4.357   0.400  16.788 -1.1769 -1.2388 -0.0160
 3568SOL     OW22336   1.253   4.031   8.328 -0.2140 -0.0458  0.7686
 3568SOL    HW122337   1.217   3.950   8.363  1.2068 -1.6337 -1.4252
 3568SOL    HW222338   1.176   4.062   8.281 -0.2237 -1.4070 -0.1037
 3569SOL     OW22339   3.912   1.736   4.898  0.3586  0.1561  0.0150
 3569SOL    HW122340   3.986   1.769   4.848  0.1969  1.4436  0.6313
 3569SOL    HW222341   3.961   1.683   4.961 -0.6407 -0.3692  0.3512
 3570SOL     OW22342   1.503   3.136   7.610  0.5768  0.0029  0.5844
 3570SOL    HW122343   1.450   3.216   7.608  0.9164  0.1949 -0.7548
 3570SOL    HW222344   1.571   3.152   7.545  1.1698  3.2336  1.9989
 3571SOL     OW22345   4.613   2.220   3.105  0.5228 -0.5499 -0.5138
 3571SOL    HW122346   4.588   2.302   3.147  1.0223 -0.8971  0.4702
 3571SOL    HW222347   4.590   2.243   3.015 -0.9177  2.9059  0.7473
 3572SOL     OW22348   2.708   3.856   0.598 -0.6135 -0.4245 -0.1878
 3572SOL    HW122349   2.650   3.911   0.651  1.5072 -0.4661  2.1723
 3572SOL    HW222350   2.768   3.828   0.667 -0.0524 -0.8439 -0.8508
 3573SOL     OW22351   2.921   3.776   8.574 -0.4145  0.3572  0.6022
 3573SOL    HW122352   2.846   3.791   8.517  1.7487  2.1227 -1.8180
 3573SOL    HW222353   2.962   3.863   8.573  0.0737  0.1187 -0.6151
 3574SOL     OW22354   4.568   1.592  16.494 -0.5285  0.4992 -0.0010
 3574SOL    HW122355   4.509   1.554  16.560 -0.5269  1.3471  0.4938
 3574SOL    HW222356   4.624   1.518  16.472  0.0633  0.1418  2.6328
 3575SOL     OW22357   3.455   4.691  16.439 -0.3533  0.1576 -1.1200
 3575SOL    HW122358   3.465   4.596  16.446  1.3056  0.5364  1.7582
 3575SOL    HW222359   3.361   4.705  16.451 -0.0223  0.5040  1.0809
 3576SOL     OW22360   4.607   1.273   6.288  0.3516 -0.4635 -0.0106
 3576SOL    HW122361   4.564   1.280   6.204 -0.7506  1.1438  0.6971
 3576SOL    HW222362   4.619   1.178   6.286 -0.4227 -0.5604  0.1244
 3577SOL     OW22363   3.776   2.026   0.599 -0.7156  0.4179 -0.1600
 3577SOL    HW122364   3.840   2.038   0.529  0.7112  0.9025  1.2420
 3577SOL    HW222365   3.826   2.030   0.680  0.7165 -1.2133 -0.9637
 3578SOL     OW22366   4.412   0.139   6.434  0.2363 -0.3210  1.1262
 3578SOL    HW122367   4.428   0.226   6.397  0.8998 -0.7121  0.4963
 3578SOL    HW222368   4.317   0.135   6.439  0.2090 -1.2263 -0.0118
 3579SOL     OW22369   4.362   1.810  12.709 -0.2667 -0.2705  0.0318
 3579SOL    HW122370   4.318   1.894  12.694  0.0380  0.2973  2.3805
 3579SOL    HW222371   4.453   1.834  12.692  0.8742 -4.1297  0.6829
 3580SOL     OW22372   4.246   3.578   2.920  0.4041 -0.2631 -0.1751
 3580SOL    HW122373   4.208   3.655   2.877 -1.2644 -0.9630  0.0536
 3580SOL    HW222374   4.229   3.516   2.849 -1.2718  0.6182 -0.5453
 3581SOL     OW22375   1.110   1.730   5.654 -0.6827 -0.4471 -0.0187
 3581SOL    HW122376   1.126   1.741   5.748  0.7668 -3.5514  0.1199
 3581SOL    HW222377   1.047   1.657   5.647  0.0544 -1.0896  0.0584
 3582SOL     OW22378   2.489   1.899  16.209 -0.1804 -0.4636  0.1003
 3582SOL    HW122379   2.442   1.906  16.126 -1.7627 -2.6211  0.8290
 3582SOL    HW222380   2.448   1.967  16.262  1.5741  0.0055  0.8817
 3583SOL     OW22381   0.926   4.471   3.374  0.1152  0.0179 -0.9607
 3583SOL    HW122382   0.922   4.555   3.419 -3.4731  0.2572 -1.6945
 3583SOL    HW222383   0.925   4.407   3.445  3.0073 -0.0355 -0.9801
 3584SOL     OW22384   1.526   3.343   3.567 -0.3001 -0.1602  0.4840
 3584SOL    HW122385   1.482   3.258   3.561 -3.6030  1.4827  0.9065
 3584SOL    HW222386   1.614   3.310   3.579  0.0358  0.5561 -0.0063
 3585SOL     OW22387   0.375   1.875   1.938  0.1740 -0.3941 -0.7817
 3585SOL    HW122388   0.380   1.964   1.971  1.7329 -1.1095  0.8737
 3585SOL    HW222389   0.291   1.881   1.892 -1.1351  1.6658  1.9304
 3586SOL     OW22390   1.236   0.823   8.083 -0.3559 -0.4309  0.7505
 3586SOL    HW122391   1.242   0.742   8.032 -0.1290 -0.5397  0.9479
 3586SOL    HW222392   1.259   0.796   8.172  1.4949 -2.6768 -0.3947
 3587SOL     OW22393   1.173   2.272   7.490  0.0371  0.3918  0.1123
 3587SOL    HW122394   1.210   2.234   7.410 -0.2177 -2.0029  1.1480
 3587SOL    HW222395   1.212   2.216   7.557  0.1912 -0.2210 -0.4806
 3588SOL     OW22396   3.710   2.768   3.537  0.6635  0.4312  0.0675
 3588SOL    HW122397   3.683   2.741   3.625 -1.8023  1.4784 -0.3559
 3588SOL    HW222398   3.804   2.778   3.551  0.9842 -0.9224 -1.1325
 3589SOL     OW22399   2.684   0.907   3.446  0.3498 -0.2587 -0.4090
 3589SOL    HW122400   2.625   0.889   3.373  0.6785  0.2888 -0.8093
 3589SOL    HW222401   2.649   0.845   3.510  1.9711 -1.2381 -0.4409
 3590SOL     OW22402   1.057   2.474   1.445 -0.2513 -0.2242 -0.1305
 3590SOL    HW122403   0.980   2.452   1.497 -0.7372 -0.1072 -0.8099
 3590SOL    HW222404   1.127   2.445   1.503  0.7114 -0.6829 -1.5156
 3591SOL     OW22405   0.396   1.027   5.220 -0.1699  0.9131  0.4323
 3591SOL    HW122406   0.355   1.096   5.273 -1.2816 -1.8600  3.1326
 3591SOL    HW222407   0.378   1.059   5.132  2.9597  0.3245 -0.4235
 3592SOL     OW22408   0.033   0.436   5.289 -0.0354 -0.0489  0.2231
 3592SOL    HW122409   0.012   0.343   5.280  2.3186 -0.4322 -1.5637
 3592SOL    HW222410   0.016   0.456   5.381 -1.1108 -1.6515  0.3835
 3593SOL     OW22411   3.738   1.288   2.489  0.0626 -0.6095  0.1175
 3593SOL    HW122412   3.670   1.354   2.498 -0.3700 -1.1392  0.7957
 3593SOL    HW222413   3.681   1.211   2.482 -2.4775  1.2088  0.8997
 3594SOL     OW22414   3.834   1.673  13.381 -0.3460  0.0422 -0.3281
 3594SOL    HW122415   3.880   1.756  13.387  1.5564 -0.9304 -1.3629
 3594SOL    HW222416   3.876   1.618  13.447 -0.0314 -0.1710 -0.7076
 3595SOL     OW22417   4.190   2.825   5.812 -0.0912  0.7863 -0.2270
 3595SOL    HW122418   4.220   2.892   5.751  0.7691 -0.5432 -1.2655
 3595SOL    HW222419   4.126   2.778   5.759  0.8209 -1.1542  0.3610
 3596SOL     OW22420   1.929   3.790   3.023 -0.1999 -0.3382 -0.2031
 3596SOL    HW122421   2.022   3.765   3.027  0.0663  0.9832  1.6231
 3596SOL    HW222422   1.905   3.758   2.935 -0.2367  0.4592 -0.4804
 3597SOL     OW22423   1.426   0.248  16.620 -0.2417 -0.0327 -0.4645
 3597SOL    HW122424   1.401   0.339  16.634  0.0637 -0.1506  0.8635
 3597SOL    HW222425   1.429   0.250  16.524 -1.2719  2.0819 -0.4357
 3598SOL     OW22426   4.361   2.830  15.032  0.1720 -0.4250  0.0525
 3598SOL    HW122427   4.337   2.862  14.945  0.5922 -0.1662  0.0335
 3598SOL    HW222428   4.280   2.785  15.057 -0.1873 -0.5217 -1.2798
 3599SOL     OW22429   3.404   1.664   6.394  0.0196 -0.2392 -0.7551
 3599SOL    HW122430   3.389   1.570   6.403 -0.8508  0.0393  0.8117
 3599SOL    HW222431   3.492   1.673   6.430 -0.5279  0.3427  0.4706
 3600SOL     OW22432   1.419   2.665   4.074  0.1300  0.4351  0.0688
 3600SOL    HW122433   1.507   2.701   4.060  1.2091 -2.4674 -0.5821
 3600SOL    HW222434   1.385   2.715   4.148 -0.4106 -0.2824  0.3033
 3601SOL     OW22435   3.356   3.028  14.124  1.0390 -0.1707  0.2613
 3601SOL    HW122436   3.315   2.955  14.172 -0.7431  1.0592  0.6280
 3601SOL    HW222437   3.344   3.097  14.189  2.2974 -0.5603  0.9067
 3602SOL     OW22438   1.761   2.245  13.910  0.2872 -0.2820  0.3058
 3602SOL    HW122439   1.737   2.195  13.831  1.6057 -0.5115  0.0483
 3602SOL    HW222440   1.693   2.217  13.971 -1.6587  0.1734 -1.6693
 3603SOL     OW22441   4.009   0.884  13.151 -0.4671  0.8385 -0.4987
 3603SOL    HW122442   3.943   0.942  13.189 -0.4865 -0.5219  1.5462
 3603SOL    HW222443   4.066   0.947  13.107  1.2564  0.4325  1.1796
 3604SOL     OW22444   1.594   1.693   5.921  0.0514 -0.7432  0.2188
 3604SOL    HW122445   1.537   1.625   5.956  1.4511 -1.5208  1.0034
 3604SOL    HW222446   1.656   1.643   5.867 -1.1615 -0.3955 -1.4899
 3605SOL     OW22447   4.339   2.886   5.279  0.3125  0.1780  0.5104
 3605SOL    HW122448   4.278   2.939   5.228  1.9833  3.8024  2.2762
 3605SOL    HW222449   4.324   2.820   5.211  0.7471  0.0499  0.5356
 3606SOL     OW22450   2.994   3.374   6.948  0.6361 -0.0201  0.0794
 3606SOL    HW122451   2.909   3.347   6.912  1.0539 -0.8138 -0.3066
 3606SOL    HW222452   2.959   3.431   7.016  0.7881 -1.6720  1.5256
 3607SOL     OW22453   0.439   3.282  15.819 -0.1662 -0.4011  0.0044
 3607SOL    HW122454   0.506   3.278  15.751 -1.0457  1.6131 -0.9815
 3607SOL    HW222455   0.445   3.191  15.848 -0.5085 -0.9049 -1.5520
 3608SOL     OW22456   3.476   3.481  11.158  0.0083  0.1696  0.7581
 3608SOL    HW122457   3.449   3.554  11.213 -1.5009  1.2849 -1.4749
 3608SOL    HW222458   3.558   3.461  11.203  1.9826  0.4021 -2.6559
 3609SOL     OW22459   0.106   1.353  12.334 -0.5067  0.1441 -0.0935
 3609SOL    HW122460   0.106   1.258  12.320 -0.2427  0.0426  0.6145
 3609SOL    HW222461   0.159   1.363  12.413  1.2580  0.0179 -1.2499
 3610SOL     OW22462   3.337   1.375   6.396  0.6626 -0.5156  0.3888
 3610SOL    HW122463   3.296   1.309   6.340  4.0340 -2.1409 -0.1190
 3610SOL    HW222464   3.389   1.319   6.454  0.7914  0.3629  1.1374
 3611SOL     OW22465   3.888   4.669   1.798 -0.1084  0.1750 -0.2096
 3611SOL    HW122466   3.923   4.623   1.875 -0.8730  0.1112  0.1006
 3611SOL    HW222467   3.913   0.019   1.819 -0.1644  0.0749  0.2886
 3612SOL     OW22468   2.271   2.595  13.680 -0.0048 -0.7628 -0.3094
 3612SOL    HW122469   2.327   2.570  13.753 -2.5169 -1.1413  1.4792
 3612SOL    HW222470   2.200   2.650  13.713  0.7564  0.5637 -0.8813
 3613SOL     OW22471   3.271   2.616   8.525 -0.9051  0.1031 -0.1844
 3613SOL    HW122472   3.179   2.639   8.537 -0.8545  0.4870 -0.5351
 3613SOL    HW222473   3.286   2.543   8.584  0.3485  0.3082 -0.2364
 3614SOL     OW22474   3.561   0.825   7.628 -0.0415 -0.0138  0.1588
 3614SOL    HW122475   3.634   0.872   7.589 -1.1687 -0.5675 -2.5757
 3614SOL    HW222476   3.595   0.735   7.625 -2.8753 -1.1294  1.0647
 3615SOL     OW22477   0.485   3.105   3.544 -0.0285  0.0652  0.1847
 3615SOL    HW122478   0.508   3.091   3.452 -0.5462  0.5970 -0.0247
 3615SOL    HW222479   0.557   3.159   3.575  0.8775 -1.6149  1.0326
 3616SOL     OW22480   2.359   0.200   2.563 -0.0504  0.7881  0.2415
 3616SOL    HW122481   2.392   0.239   2.482 -1.8772  0.0130 -0.8967
 3616SOL    HW222482   2.271   0.175   2.534  0.7407 -1.6293 -0.0392
 3617SOL     OW22483   2.391   4.234   9.619 -0.0751  0.1821  0.1244
 3617SOL    HW122484   2.352   4.222   9.532 -0.5521 -1.6164  0.5936
 3617SOL    HW222485   2.345   4.308   9.660 -1.9420 -0.5894 -0.5751
 3618SOL     OW22486   3.815   0.711  12.546  0.1547  0.0048 -0.0137
 3618SOL    HW122487   3.824   0.738  12.637  1.7739 -0.8267  0.0701
 3618SOL    HW222488   3.833   0.618  12.558 -0.2006 -0.0173  0.3472
 3619SOL     OW22489   4.076   3.081   2.809  0.6782 -0.1627 -0.0290
 3619SOL    HW122490   4.017   3.142   2.765 -1.8007 -1.8816  0.9285
 3619SOL    HW222491   4.103   3.034   2.731  1.9855  1.1877 -0.3877
 3620SOL     OW22492   4.709   3.065   7.010  0.2006 -0.4176  0.3476
 3620SOL    HW122493   4.722   3.033   7.100 -1.2253  0.4227  0.8499
 3620SOL    HW222494   4.621   3.103   7.014  0.9160  1.2432  0.6207
 3621SOL     OW22495   1.812   1.739  17.010 -0.3515  0.0397 -0.3329
 3621SOL    HW122496   1.850   1.652  16.996 -1.7774 -0.3520 -1.7632
 3621SOL    HW222497   1.755   1.733  17.086 -0.1129 -0.3145 -0.1863
 3622SOL     OW22498   1.833   1.009   4.971  0.0017  0.1860 -0.1668
 3622SOL    HW122499   1.823   0.948   5.044 -3.2290 -0.0597 -0.7889
 3622SOL    HW222500   1.748   1.004   4.926 -1.0469 -0.0143  1.8301
 3623SOL     OW22501   2.393   3.897   7.381  0.5001 -0.3675 -0.0666
 3623SOL    HW122502   2.447   3.976   7.376 -0.6489  0.2795 -2.4318
 3623SOL    HW222503   2.378   3.870   7.291  3.2292 -0.2234 -0.5568
 3624SOL     OW22504   3.206   1.401   4.454  0.1496 -0.2787 -0.2864
 3624SOL    HW122505   3.278   1.338   4.449  0.2706 -0.2741  1.5801
 3624SOL    HW222506   3.134   1.346   4.424  0.0914 -0.9533  1.0904
 3625SOL     OW22507   2.119   1.861   3.740 -0.2760  0.5190 -0.5429
 3625SOL    HW122508   2.101   1.938   3.686 -0.8618 -0.6079 -1.9684
 3625SOL    HW222509   2.212   1.877   3.755  0.1937  1.5384 -4.6783
 3626SOL     OW22510   1.155   1.275   0.425  0.0768  0.4535  0.1417
 3626SOL    HW122511   1.133   1.187   0.395  1.5906 -0.4772  1.7689
 3626SOL    HW222512   1.235   1.285   0.372 -0.1150 -3.8005 -0.9385
 3627SOL     OW22513   3.020   4.357  14.610  0.4553 -0.0901  0.1937
 3627SOL    HW122514   3.031   4.267  14.638 -0.0276  0.7591  3.0689
 3627SOL    HW222515   3.039   4.405  14.690 -0.6767 -1.3496  1.2075
 3628SOL     OW22516   0.783   3.987   3.198  0.0680 -0.0830  0.3066
 3628SOL    HW122517   0.751   4.006   3.110  1.2816 -1.1562 -0.3701
 3628SOL    HW222518   0.793   3.893   3.184  1.9118  0.3741 -1.4267
 3629SOL     OW22519   2.252   3.469   6.123  0.2672 -0.5251  0.1362
 3629SOL    HW122520   2.324   3.477   6.186  0.9082  2.0776 -0.9288
 3629SOL    HW222521   2.272   3.393   6.069 -0.8764 -0.2544 -0.6686
 3630SOL     OW22522   0.521   0.629  11.752  0.2837  0.5159 -0.3933
 3630SOL    HW122523   0.615   0.632  11.769  0.2847 -1.1074 -0.1679
 3630SOL    HW222524   0.504   0.721  11.730  0.6037 -0.2770 -4.0283
 3631SOL     OW22525   0.409   2.751  16.001  0.0476 -0.2485 -0.2620
 3631SOL    HW122526   0.504   2.756  16.007  0.2600 -3.0531 -1.0578
 3631SOL    HW222527   0.386   2.815  16.068  0.6822 -0.2232 -0.0708
 3632SOL     OW22528   2.079   3.497   7.959 -0.4507  0.6066  0.0374
 3632SOL    HW122529   2.111   3.566   8.017 -1.1762  2.0323 -1.2609
 3632SOL    HW222530   1.985   3.516   7.961 -0.3425  1.2694 -1.1629
 3633SOL     OW22531   0.028   3.766   3.820 -0.4758 -0.2909  0.0736
 3633SOL    HW122532   0.086   3.840   3.842 -0.1176 -0.6250  0.2663
 3633SOL    HW222533   4.736   3.744   3.908  0.5567 -2.0249  0.0227
 3634SOL     OW22534   3.549   1.148   6.905 -0.1006  0.3979  0.2181
 3634SOL    HW122535   3.468   1.112   6.869  0.0005 -0.4021  0.7837
 3634SOL    HW222536   3.611   1.096   6.854 -1.3030 -0.3823 -0.4526
 3635SOL     OW22537   1.330   1.650   3.888  1.0716  0.0188 -0.2927
 3635SOL    HW122538   1.420   1.640   3.858  1.5034 -1.4048  1.4926
 3635SOL    HW222539   1.303   1.729   3.842 -2.5458 -0.8159  0.3886
 3636SOL     OW22540   0.323   4.294   4.743 -0.5073  0.2869 -0.4218
 3636SOL    HW122541   0.237   4.272   4.708 -1.2128  0.1255  1.4048
 3636SOL    HW222542   0.303   4.275   4.835 -1.4158  0.1692 -0.6458
 3637SOL     OW22543   4.280   2.720   1.179 -0.0230 -0.5393  0.0159
 3637SOL    HW122544   4.351   2.762   1.228  0.4476 -0.1877 -0.9609
 3637SOL    HW222545   4.326   2.653   1.128 -0.9298 -1.6443  0.6352
 3638SOL     OW22546   1.129   0.896   3.697 -0.4142 -0.3382 -0.1271
 3638SOL    HW122547   1.207   0.884   3.752  0.7124 -1.2684 -1.9520
 3638SOL    HW222548   1.153   0.982   3.661 -0.4234 -1.2985 -2.3786
 3639SOL     OW22549   3.812   2.220   6.226  0.6348 -0.3236 -0.1085
 3639SOL    HW122550   3.802   2.169   6.145  2.3090 -0.4218 -0.2571
 3639SOL    HW222551   3.720   2.237   6.246  0.5549 -0.4222 -0.3852
 3640SOL     OW22552   0.323   3.987  11.113 -0.3978 -0.2293 -0.3898
 3640SOL    HW122553   0.411   3.989  11.075 -0.1099 -0.0016  0.2875
 3640SOL    HW222554   0.306   4.081  11.111  2.1222  0.2030 -1.6580
 3641SOL     OW22555   4.585   0.955   6.581  0.4021 -0.2876  0.0051
 3641SOL    HW122556   4.537   0.914   6.653  1.9789 -0.2377  1.0763
 3641SOL    HW222557   4.536   1.037   6.583 -1.7543 -1.5564 -0.8705
 3642SOL     OW22558   0.335   2.259   1.021 -0.6094  0.4327  0.4026
 3642SOL    HW122559   0.255   2.307   0.998 -2.8592 -3.2518  0.5571
 3642SOL    HW222560   0.389   2.325   1.064  1.3405 -2.0000  1.7077
 3643SOL     OW22561   2.955   4.333  11.695 -0.1417 -0.3957  0.5076
 3643SOL    HW122562   2.958   4.371  11.607 -0.7721 -1.2115  0.1440
 3643SOL    HW222563   2.903   4.255  11.676  2.7692 -2.1373 -0.2731
 3644SOL     OW22564   3.550   0.664   3.365 -0.2205 -0.3275  0.0500
 3644SOL    HW122565   3.573   0.571   3.364  1.0681 -0.0112  0.6436
 3644SOL    HW222566   3.536   0.684   3.272 -0.3833  0.8804  0.3419
 3645SOL     OW22567   1.362   1.917   4.353  0.3524  0.3238  0.2048
 3645SOL    HW122568   1.307   1.893   4.427 -1.0281  2.4429 -0.1374
 3645SOL    HW222569   1.296   1.967   4.304  2.0842  0.1385 -2.3122
 3646SOL     OW22570   1.483   0.100   1.576  0.7259  0.1453 -0.2293
 3646SOL    HW122571   1.568   0.142   1.592 -0.3273  1.5456  1.8736
 3646SOL    HW222572   1.518   0.035   1.516  0.7250 -0.2555  0.2044
 3647SOL     OW22573   1.407   3.318   0.133  0.1324  0.1880 -0.3744
 3647SOL    HW122574   1.367   3.367   0.061 -0.1311  0.4122 -0.0758
 3647SOL    HW222575   1.494   3.293   0.102 -1.7814 -2.4626 -3.6424
 3648SOL     OW22576   2.803   4.205  12.959 -0.2574 -0.2898  0.1236
 3648SOL    HW122577   2.872   4.140  12.967 -0.7615 -0.9732 -1.1354
 3648SOL    HW222578   2.733   4.161  13.007  0.1210 -1.2861 -0.2495
 3649SOL     OW22579   0.063   1.158   8.160 -0.1362 -0.1947  0.2980
 3649SOL    HW122580   0.142   1.212   8.162 -0.2690  0.0561 -1.0989
 3649SOL    HW222581   0.011   1.188   8.235 -0.2943 -1.5464  0.7283
 3650SOL     OW22582   1.619   4.406   6.844 -0.5729 -0.0897  0.1709
 3650SOL    HW122583   1.576   4.486   6.875 -0.8352 -0.3002  0.3422
 3650SOL    HW222584   1.705   4.438   6.816 -0.7317  0.7705  0.6746
 3651SOL     OW22585   4.103   0.460  16.610  0.2351  0.5311  0.0314
 3651SOL    HW122586   4.032   0.481  16.550 -0.2557 -0.3047  0.3190
 3651SOL    HW222587   4.092   0.506  16.693 -2.3273  0.5729 -0.3355
 3652SOL     OW22588   3.504   0.687   4.069  0.2454 -0.0630 -0.6681
 3652SOL    HW122589   3.545   0.744   4.134  1.0078 -0.5648 -0.7086
 3652SOL    HW222590   3.437   0.746   4.035 -0.0355 -0.8290 -1.4511
 3653SOL     OW22591   3.754   0.916  10.857  0.4580  0.8640  0.0948
 3653SOL    HW122592   3.731   0.870  10.776  1.7354  0.3543  0.0346
 3653SOL    HW222593   3.824   0.971  10.822  1.4922 -0.4122  0.1686
 3654SOL     OW22594   0.720   1.622   7.382 -0.3480 -0.5191  0.0660
 3654SOL    HW122595   0.771   1.703   7.381 -0.5908 -0.3291  1.6052
 3654SOL    HW222596   0.638   1.658   7.347  0.6083  1.6807  0.1240
 3655SOL     OW22597   2.248   0.310   3.311 -0.0814 -0.3675  0.5077
 3655SOL    HW122598   2.162   0.340   3.280  1.4781  2.8668 -0.6942
 3655SOL    HW222599   2.228   0.317   3.404 -0.7397  2.1654  0.1903
 3656SOL     OW22600   4.368   0.631  10.933  0.0471 -0.3632  0.5081
 3656SOL    HW122601   4.401   0.602  10.848  1.9237 -0.5600  1.3124
 3656SOL    HW222602   4.380   0.726  10.925 -0.9351 -0.1345  1.6299
 3657SOL     OW22603   0.277   1.390  11.720  0.1231  0.2316  0.6890
 3657SOL    HW122604   0.262   1.400  11.814  0.0907 -0.9614  0.8099
 3657SOL    HW222605   0.289   1.482  11.695  0.9201 -0.1776 -0.4610
 3658SOL     OW22606   4.427   1.012   8.895  0.5680 -0.2610 -0.5300
 3658SOL    HW122607   4.472   1.058   8.824 -2.0075  0.5989 -1.5796
 3658SOL    HW222608   4.408   1.091   8.945  1.3744 -1.0966  1.1279
 3659SOL     OW22609   3.337   1.152   4.474  0.2575 -0.2082 -0.4199
 3659SOL    HW122610   3.263   1.119   4.524  0.7922 -0.0455  0.4790
 3659SOL    HW222611   3.349   1.068   4.429 -0.6736 -1.4973  1.7279
 3660SOL     OW22612   2.111   2.167   5.500  0.6537  0.3049  0.6262
 3660SOL    HW122613   2.103   2.166   5.595 -3.1599  0.4094  0.3174
 3660SOL    HW222614   2.106   2.074   5.481 -2.7065  0.9029 -1.5347
 3661SOL     OW22615   3.334   1.855   4.634  0.1190 -0.9467  0.3656
 3661SOL    HW122616   3.427   1.847   4.656  0.8258  2.0521 -1.3749
 3661SOL    HW222617   3.295   1.786   4.687  0.9645 -1.5533  0.1933
 3662SOL     OW22618   1.737   0.169   5.312  0.2836  0.1684 -0.4285
 3662SOL    HW122619   1.810   0.217   5.272 -0.9713  1.4011 -1.2624
 3662SOL    HW222620   1.779   0.084   5.325  2.7450  1.9300  3.0880
 3663SOL     OW22621   0.753   0.056  10.696  0.8012  0.3071 -0.1517
 3663SOL    HW122622   0.669   0.077  10.737 -0.5625  1.4985 -3.5348
 3663SOL    HW222623   0.817   0.069  10.766  0.4261 -1.1620  0.4754
 3664SOL     OW22624   2.345   3.725  12.094 -0.2163 -0.5581 -0.3144
 3664SOL    HW122625   2.318   3.729  12.003 -0.4196 -1.1890 -0.2818
 3664SOL    HW222626   2.289   3.793  12.133 -1.3875 -0.3221 -2.3870
 3665SOL     OW22627   0.097   3.321   6.914 -0.1690 -0.0906  0.1839
 3665SOL    HW122628   0.102   3.227   6.929  0.6604 -0.2186 -0.9059
 3665SOL    HW222629   0.012   3.354   6.945 -0.0602  1.3003 -0.9807
 3666SOL     OW22630   1.209   3.979  10.229  0.2594 -0.7794 -0.2902
 3666SOL    HW122631   1.256   3.896  10.225  1.0715 -0.3681  0.7254
 3666SOL    HW222632   1.161   3.967  10.312 -2.1088 -0.0521 -1.5563
 3667SOL     OW22633   3.866   0.245   5.520  0.7440  0.0337  0.3307
 3667SOL    HW122634   3.947   0.291   5.495  0.3605  0.2105 -0.5966
 3667SOL    HW222635   3.815   0.295   5.456 -0.9495  0.4272  1.9762
 3668SOL     OW22636   3.643   1.784  12.970  0.3402  0.2840  0.1617
 3668SOL    HW122637   3.693   1.705  12.949 -1.2202 -0.5728 -0.3520
 3668SOL    HW222638   3.621   1.763  13.061 -0.9459 -2.5892 -0.7993
 3669SOL     OW22639   4.103   4.485   4.004 -0.0777  0.0854  0.1595
 3669SOL    HW122640   4.023   4.432   4.015 -0.9972  1.5548  0.5364
 3669SOL    HW222641   4.156   4.441   3.938 -2.6752  0.3978 -2.1226
 3670SOL     OW22642   0.789   3.112   7.520 -0.0245  0.3310 -0.0117
 3670SOL    HW122643   0.747   3.039   7.475  0.7305  1.7288 -2.9949
 3670SOL    HW222644   0.750   3.192   7.485 -1.0671 -0.7368 -1.2807
 3671SOL     OW22645   4.200   2.207   6.181  0.0072 -0.2333 -0.1286
 3671SOL    HW122646   4.205   2.296   6.218 -0.0778 -0.2896  0.0168
 3671SOL    HW222647   4.141   2.168   6.245  2.2682  0.9429  2.6848
 3672SOL     OW22648   1.069   0.143   9.289  0.3988  0.5136 -0.0654
 3672SOL    HW122649   1.010   0.218   9.295 -2.2128 -1.7260  2.1991
 3672SOL    HW222650   1.037   0.101   9.209 -1.7036  0.6454  0.6975
 3673SOL     OW22651   2.808   0.813   2.236  0.0983 -0.3995  0.6467
 3673SOL    HW122652   2.867   0.833   2.308  1.4734 -1.4662 -0.1768
 3673SOL    HW222653   2.786   0.721   2.254 -0.8805 -0.5531 -1.2736
 3674SOL     OW22654   0.248   2.443  12.262  0.2296 -0.0495 -0.1220
 3674SOL    HW122655   0.250   2.527  12.217  3.5398 -0.8034 -1.3621
 3674SOL    HW222656   0.274   2.458  12.353  1.3505  1.8515 -0.7750
 3675SOL     OW22657   1.574   4.351  15.044 -0.3640  0.1332  0.0761
 3675SOL    HW122658   1.567   4.296  15.122  3.0205  1.1365  1.0910
 3675SOL    HW222659   1.508   4.304  14.992  1.9678 -2.0793 -0.8680
 3676SOL     OW22660   2.161   1.470   6.780 -0.0851  0.2932 -0.0492
 3676SOL    HW122661   2.090   1.477   6.715 -1.1769  0.3637  1.1524
 3676SOL    HW222662   2.109   1.487   6.858 -0.7426  1.0038 -0.6318
 3677SOL     OW22663   1.052   4.138   8.194 -0.1256  0.1162 -0.0669
 3677SOL    HW122664   0.984   4.111   8.132  0.9050 -2.2242 -0.2243
 3677SOL    HW222665   1.017   4.224   8.216 -2.5176 -1.4304  2.1900
 3678SOL     OW22666   1.068   4.331  15.741 -0.4945  0.3080 -0.4307
 3678SOL    HW122667   1.049   4.401  15.803  2.7574  1.3328 -0.6005
 3678SOL    HW222668   1.053   4.368  15.654  0.5419 -1.6352 -1.4257
 3679SOL     OW22669   1.070   0.706  10.477  0.7243 -0.0628 -0.0792
 3679SOL    HW122670   1.026   0.752  10.406 -1.5124  0.6931  1.7842
 3679SOL    HW222671   1.101   0.622  10.442 -0.6876 -0.2897 -0.7498
 3680SOL     OW22672   1.312   1.647   9.446 -0.2315 -0.6905 -0.4114
 3680SOL    HW122673   1.269   1.592   9.381  0.4259 -0.4269 -1.0665
 3680SOL    HW222674   1.370   1.689   9.383 -0.1660  2.3440  1.6371
 3681SOL     OW22675   4.415   3.795   6.537  0.3166  0.0604  0.1723
 3681SOL    HW122676   4.402   3.883   6.574 -2.0878 -0.2419  0.0146
 3681SOL    HW222677   4.414   3.819   6.444  1.0202  1.6598  0.5768
 3682SOL     OW22678   1.825   4.359   6.530 -0.4976 -0.1258 -0.3402
 3682SOL    HW122679   1.907   4.314   6.512  0.6108  1.4834  0.6635
 3682SOL    HW222680   1.834   4.368   6.625  0.9062 -1.3622 -0.3662
 3683SOL     OW22681   0.950   4.645   5.723  0.0770  0.0718 -0.1906
 3683SOL    HW122682   1.041   4.616   5.711  0.5125  0.7307  1.6147
 3683SOL    HW222683   0.904   4.596   5.655 -0.3903 -1.5194  1.2835
 3684SOL     OW22684   1.298   4.726   4.365  0.4587  0.1284 -0.2794
 3684SOL    HW122685   1.311   0.080   4.365 -2.0983  0.4794 -0.5209
 3684SOL    HW222686   1.383   4.685   4.377  2.6277  3.6913 -3.5029
 3685SOL     OW22687   1.926   1.073   2.416  0.2357 -0.0762  0.2233
 3685SOL    HW122688   1.879   1.119   2.347  1.1443  2.7401  1.5017
 3685SOL    HW222689   1.944   0.988   2.375 -0.3305  0.1244 -0.4399
 3686SOL     OW22690   2.890   0.835   5.396 -0.1502  0.4736  0.1004
 3686SOL    HW122691   2.867   0.804   5.308  1.5222  0.8008 -0.4487
 3686SOL    HW222692   2.961   0.773   5.416 -1.7714 -1.1373  0.9021
 3687SOL     OW22693   4.072   2.924   3.186 -0.1066  0.5637  0.1520
 3687SOL    HW122694   4.088   3.009   3.225 -1.7571  1.1068 -0.3727
 3687SOL    HW222695   3.989   2.894   3.222 -1.7788  2.1348 -2.3824
 3688SOL     OW22696   1.613   4.435   8.351  0.4118  0.7384  0.1679
 3688SOL    HW122697   1.522   4.451   8.325  0.9399 -0.4389 -2.3753
 3688SOL    HW222698   1.622   4.343   8.374  1.3406  0.5046 -1.1618
 3689SOL     OW22699   3.645   2.088   2.511 -0.4958  0.1232  0.1861
 3689SOL    HW122700   3.584   2.159   2.531  1.2233  1.5161  0.5153
 3689SOL    HW222701   3.615   2.016   2.567  0.7673 -0.0986  0.5863
 3690SOL     OW22702   1.795   0.298   2.006  0.1368 -0.0773  0.6539
 3690SOL    HW122703   1.789   0.203   2.012 -0.9862 -0.1745 -1.8248
 3690SOL    HW222704   1.708   0.316   2.042  0.6793  0.4012  1.7353
 3691SOL     OW22705   2.409   1.028   7.404 -0.2251  0.4173  0.0170
 3691SOL    HW122706   2.342   1.079   7.359 -1.4826 -2.0351 -0.8616
 3691SOL    HW222707   2.464   1.002   7.330  0.4621  0.5880  0.4568
 3692SOL     OW22708   2.572   1.185   3.918 -0.6320 -0.2100 -0.0146
 3692SOL    HW122709   2.565   1.121   3.847 -4.4372 -0.2301  0.4068
 3692SOL    HW222710   2.478   1.200   3.919 -0.3091  1.6340  1.0055
 3693SOL     OW22711   2.766   4.560   2.285  0.4937 -0.4556 -0.0600
 3693SOL    HW122712   2.858   4.579   2.265 -0.1015  0.8536 -1.5078
 3693SOL    HW222713   2.720   4.637   2.253  4.1991  1.6237 -0.3993
 3694SOL     OW22714   0.305   1.493   9.738 -0.4287  0.2465  0.2299
 3694SOL    HW122715   0.341   1.526   9.820 -1.4511  0.2048  0.6934
 3694SOL    HW222716   0.233   1.555   9.728 -2.0415 -1.6231  0.1782
 3695SOL     OW22717   0.380   1.566   1.747  0.3484 -0.1120  0.7641
 3695SOL    HW122718   0.380   1.501   1.677 -2.8044  0.7597 -0.0704
 3695SOL    HW222719   0.291   1.600   1.737  0.9200  1.7464  1.9549
 3696SOL     OW22720   1.810   1.616   4.866 -0.0625  0.4449  0.0337
 3696SOL    HW122721   1.751   1.670   4.814 -0.3803  1.7777  1.7566
 3696SOL    HW222722   1.897   1.649   4.846  0.0548 -0.2994 -0.6805
 3697SOL     OW22723   2.276   4.685   5.687  1.0614 -0.4549 -0.1223
 3697SOL    HW122724   2.296   4.733   5.607  0.1988  1.6779  0.9457
 3697SOL    HW222725   2.222   0.015   5.723  0.0828 -0.3535 -1.7725
 3698SOL     OW22726   1.877   2.369   2.421 -0.6801  0.3015 -0.4721
 3698SOL    HW122727   1.909   2.344   2.508 -0.2380 -1.6446 -1.1871
 3698SOL    HW222728   1.936   2.308   2.376  1.5403  1.3601  0.9953
 3699SOL     OW22729   1.085   0.496   3.295  0.2754  0.1098  0.0153
 3699SOL    HW122730   1.094   0.560   3.365 -0.4790  0.2387 -0.0105
 3699SOL    HW222731   1.089   0.415   3.347  0.3795  1.2844  1.8404
 3700SOL     OW22732   4.089   2.109   7.224 -0.0020 -0.5838  0.0959
 3700SOL    HW122733   4.122   2.145   7.307 -1.3168 -0.5725  0.6140
 3700SOL    HW222734   4.167   2.088   7.173  0.7003 -0.7794  1.2547
 3701SOL     OW22735   2.219   1.532   7.917 -0.4666  0.3984 -0.0770
 3701SOL    HW122736   2.180   1.463   7.863  1.0681 -0.1295 -0.5139
 3701SOL    HW222737   2.311   1.526   7.891 -0.2932 -2.2279  1.0897
 3702SOL     OW22738   4.229   4.205   4.238  0.2648  0.3333  0.2279
 3702SOL    HW122739   4.318   4.233   4.220 -0.2002  0.9471 -1.1859
 3702SOL    HW222740   4.222   4.133   4.174 -1.8812  0.7114  0.0363
 3703SOL     OW22741   2.789   2.116   4.314  0.1993 -0.3955 -0.7213
 3703SOL    HW122742   2.845   2.134   4.239  0.5046 -0.0225 -0.4070
 3703SOL    HW222743   2.806   2.022   4.319 -0.4740 -0.3568  2.4017
 3704SOL     OW22744   3.137   4.730  10.891  0.1420 -0.3626 -0.5244
 3704SOL    HW122745   3.145   0.063  10.951  0.1770 -2.0408  1.5417
 3704SOL    HW222746   3.226   4.695  10.879  0.4520  0.8481 -1.7127
 3705SOL     OW22747   0.893   1.267   4.176  0.4734  0.1624 -0.8138
 3705SOL    HW122748   0.948   1.339   4.146  0.8408  0.0223 -0.4752
 3705SOL    HW222749   0.866   1.239   4.088  2.1709  0.2332 -1.3474
 3706SOL     OW22750   4.734   3.008   0.751  0.2104 -0.1839  0.1405
 3706SOL    HW122751   0.040   2.966   0.823  0.8399 -0.4998 -0.4476
 3706SOL    HW222752   0.045   2.974   0.678  0.0702  0.4687 -0.2688
 3707SOL     OW22753   0.515   4.561   4.386 -0.2355  0.1106  0.0636
 3707SOL    HW122754   0.503   4.475   4.426  1.3256 -0.7807 -1.3782
 3707SOL    HW222755   0.597   4.583   4.429  0.2422  0.9883 -1.2784
 3708SOL     OW22756   4.524   3.917  13.200  0.1936 -0.2290 -0.5650
 3708SOL    HW122757   4.531   3.823  13.184 -1.6860 -0.6905  1.3341
 3708SOL    HW222758   4.501   3.952  13.114 -0.2973 -0.4015 -0.5024
 3709SOL     OW22759   2.482   0.448   6.873 -0.0350 -0.3664 -0.1683
 3709SOL    HW122760   2.450   0.511   6.938 -0.5172  0.5614 -1.3001
 3709SOL    HW222761   2.409   0.446   6.810  0.2206 -0.5292 -0.4592
 3710SOL     OW22762   3.777   0.624  16.809  0.4402  0.2573  1.0541
 3710SOL    HW122763   3.766   0.701  16.753  2.0719 -0.0706  0.2727
 3710SOL    HW222764   3.703   0.574  16.776 -0.3597  1.9416  0.2554
 3711SOL     OW22765   4.135   3.600   8.048 -0.1471 -0.0752  0.1016
 3711SOL    HW122766   4.150   3.690   8.019 -1.2776 -0.5937 -2.0862
 3711SOL    HW222767   4.221   3.582   8.085  1.4871  2.0028 -2.6548
 3712SOL     OW22768   1.340   4.667   4.823  0.3246 -0.2175  0.1680
 3712SOL    HW122769   1.312   4.615   4.748  0.1602  0.0707  0.0289
 3712SOL    HW222770   1.262   4.689   4.874  0.8553 -1.3031  1.4404
 3713SOL     OW22771   1.341   2.225   6.561  0.5081 -0.0811  0.2960
 3713SOL    HW122772   1.252   2.253   6.581  0.3494 -0.9062  0.7426
 3713SOL    HW222773   1.340   2.230   6.465 -1.4110 -0.6516  0.2762
 3714SOL     OW22774   1.850   4.523   0.857  0.2362 -0.8682 -0.4602
 3714SOL    HW122775   1.841   4.617   0.845 -1.1619 -0.8275  0.8464
 3714SOL    HW222776   1.897   4.526   0.940  1.6320  0.5704 -1.3113
 3715SOL     OW22777   3.507   4.447   8.482 -0.1661 -0.3199 -0.1353
 3715SOL    HW122778   3.526   4.368   8.533  0.9279 -0.7519 -1.1921
 3715SOL    HW222779   3.428   4.476   8.527 -1.2013 -0.8167 -1.6627
 3716SOL     OW22780   2.809   1.151   7.373  0.2088  0.0241  0.4765
 3716SOL    HW122781   2.749   1.214   7.334  1.7864  1.5590  0.5493
 3716SOL    HW222782   2.743   1.083   7.387  0.1764  0.0993  0.6883
 3717SOL     OW22783   3.241   1.063   8.779  0.1965 -0.3889  0.7956
 3717SOL    HW122784   3.276   1.150   8.758  1.9806 -1.0691  1.0173
 3717SOL    HW222785   3.148   1.088   8.779  0.8989  2.2517  0.4465
 3718SOL     OW22786   4.452   2.450   7.487 -0.3231 -0.8271  0.2418
 3718SOL    HW122787   4.499   2.368   7.503  1.1189  0.7895  4.1011
 3718SOL    HW222788   4.517   2.500   7.437  0.7665 -2.6652 -0.1820
 3719SOL     OW22789   1.448   0.491   2.588 -0.0108  0.3050 -0.0421
 3719SOL    HW122790   1.529   0.443   2.603  1.0074  1.7009 -1.0254
 3719SOL    HW222791   1.431   0.496   2.494  1.9711 -0.3587 -0.4444
 3720SOL     OW22792   3.783   1.872   6.549 -0.6317 -0.0934 -0.5147
 3720SOL    HW122793   3.826   1.787   6.559 -1.2553 -0.4628 -0.9832
 3720SOL    HW222794   3.721   1.871   6.621 -2.3033  1.5331 -1.9110
 3721SOL     OW22795   0.282   0.040   6.054  0.1241  0.0773 -0.1869
 3721SOL    HW122796   0.292   0.007   6.143 -1.9351 -1.5995 -0.5684
 3721SOL    HW222797   0.190   0.068   6.049 -0.2161 -1.2587 -1.5823
 3722SOL     OW22798   4.123   2.841   9.910 -0.0938  0.3635  0.2243
 3722SOL    HW122799   4.158   2.821   9.997  0.1763 -2.2563 -0.4933
 3722SOL    HW222800   4.046   2.892   9.938 -0.4482 -0.7880  1.3826
 3723SOL     OW22801   3.357   3.235   7.789 -0.3684  1.1471  0.6614
 3723SOL    HW122802   3.378   3.234   7.883 -1.5203 -1.1288  0.8861
 3723SOL    HW222803   3.409   3.163   7.753 -0.9798  0.0490  1.9686
 3724SOL     OW22804   3.465   4.238   3.188  0.2744  0.2400 -0.1098
 3724SOL    HW122805   3.380   4.281   3.175 -0.4391 -1.2012 -0.1379
 3724SOL    HW222806   3.516   4.291   3.249  0.0658  0.8002 -0.4205
 3725SOL     OW22807   1.646   0.231   4.886  0.0275  0.9050 -0.1184
 3725SOL    HW122808   1.701   0.191   4.817  0.1675 -0.4618  0.7835
 3725SOL    HW222809   1.618   0.145   4.918  0.7046  1.5720  2.2719
 3726SOL     OW22810   0.822   2.730   0.369 -1.1103  0.1618  0.1168
 3726SOL    HW122811   0.727   2.745   0.371 -1.1409  0.1055 -0.5910
 3726SOL    HW222812   0.838   2.679   0.289  0.0563 -3.0517  2.3801
 3727SOL     OW22813   3.529   1.446   2.491 -0.5387  0.3067 -0.1460
 3727SOL    HW122814   3.456   1.384   2.495  0.9988 -1.5336 -0.3769
 3727SOL    HW222815   3.496   1.514   2.550 -1.7691 -0.2284 -0.2200
 3728SOL     OW22816   3.014   1.866   9.737  0.4584  0.8817 -0.2940
 3728SOL    HW122817   3.005   1.961   9.745 -0.5735  0.6281  1.5422
 3728SOL    HW222818   2.936   1.841   9.688 -1.0951  2.2874  1.4563
 3729SOL     OW22819   2.928   4.174  16.195  0.3538  0.2490 -0.2258
 3729SOL    HW122820   2.951   4.188  16.287 -0.5140  0.4919 -0.0494
 3729SOL    HW222821   2.855   4.233  16.177  1.5387  1.8764  0.2446
 3730SOL     OW22822   2.920   1.998   2.397 -0.2270  1.0539  0.1781
 3730SOL    HW122823   2.926   1.906   2.373 -0.8333  1.3002 -0.9627
 3730SOL    HW222824   2.827   2.007   2.374 -0.1748  1.2287  0.0365
 3731SOL     OW22825   1.298   3.273   5.200  0.2957 -0.0142 -0.0487
 3731SOL    HW122826   1.296   3.362   5.164 -0.0977  0.6803  1.6735
 3731SOL    HW222827   1.223   3.231   5.157 -0.5455  2.1006 -0.6657
 3732SOL     OW22828   3.814   2.626   9.508  0.0282  0.1605  0.1598
 3732SOL    HW122829   3.864   2.673   9.575  1.7507 -0.4247 -0.6846
 3732SOL    HW222830   3.888   2.606   9.449  0.2500  0.2211  0.4201
 3733SOL     OW22831   3.069   3.325   9.136 -0.1819 -0.1027 -0.4459
 3733SOL    HW122832   2.975   3.311   9.121 -0.4404  2.2734 -1.1289
 3733SOL    HW222833   3.100   3.348   9.048 -0.2721 -0.4788 -0.5738
 3734SOL     OW22834   3.338   3.306   7.137 -0.1572 -0.1875  0.1927
 3734SOL    HW122835   3.252   3.266   7.135 -0.0646 -0.2380 -2.3818
 3734SOL    HW222836   3.365   3.273   7.223  1.9341  2.3099  0.5093
 3735SOL     OW22837   3.439   0.240   8.811 -0.6096  0.2484 -0.2110
 3735SOL    HW122838   3.417   0.222   8.903 -3.9935 -0.1194 -1.0956
 3735SOL    HW222839   3.404   0.164   8.765 -0.0692  0.1052 -0.3921
 3736SOL     OW22840   1.502   0.569  15.945 -0.3678  0.2107  0.5987
 3736SOL    HW122841   1.489   0.663  15.933 -0.3116  0.1134 -0.1697
 3736SOL    HW222842   1.595   0.570  15.925 -0.1599 -3.1167  1.3951
 3737SOL     OW22843   0.686   4.549   6.659 -0.7208 -0.5190 -0.3299
 3737SOL    HW122844   0.709   4.456   6.656  0.4805 -0.2242 -0.4387
 3737SOL    HW222845   0.630   4.546   6.736 -0.8697  0.8244 -0.3810
 3738SOL     OW22846   4.415   3.102   2.553  0.1138  0.0437 -0.0320
 3738SOL    HW122847   4.480   3.169   2.576  0.3262 -0.0523 -0.3601
 3738SOL    HW222848   4.350   3.152   2.503 -0.5539  1.6780  2.4269
 3739SOL     OW22849   0.236   4.599  14.257 -0.4030 -0.6675  0.9351
 3739SOL    HW122850   0.278   4.602  14.342  0.7282 -1.4203  0.4064
 3739SOL    HW222851   0.264   4.679  14.213  0.7408 -0.9789  1.0792
 3740SOL     OW22852   2.187   2.961  12.721 -1.0078  0.0682  0.0866
 3740SOL    HW122853   2.224   2.901  12.786 -2.2043 -1.2668 -0.4811
 3740SOL    HW222854   2.139   2.902  12.663  0.0946  0.4914 -1.2555
 3741SOL     OW22855   0.193   3.858  11.855 -0.4539 -0.7089  0.4634
 3741SOL    HW122856   0.198   3.770  11.819 -0.6716 -0.4054 -0.3051
 3741SOL    HW222857   0.152   3.911  11.787  0.7402  1.4523  1.4289
 3742SOL     OW22858   4.280   1.956   6.060  0.0328 -0.0936  0.3000
 3742SOL    HW122859   4.254   2.041   6.096  0.9319  0.8718 -1.2998
 3742SOL    HW222860   4.335   1.917   6.127  0.2794 -0.2108  0.0274
 3743SOL     OW22861   0.916   2.893   4.043 -0.3720 -0.8929  0.7463
 3743SOL    HW122862   0.994   2.918   4.094 -0.8562  1.6494  0.2379
 3743SOL    HW222863   0.914   2.798   4.051 -0.1438 -0.8322  1.4789
 3744SOL     OW22864   0.037   3.273   8.924 -0.6955 -0.1510 -0.0813
 3744SOL    HW122865   4.687   3.303   8.924 -0.0888  1.6594  0.5595
 3744SOL    HW222866   0.025   3.203   8.860  1.4226 -0.0396 -0.5944
 3745SOL     OW22867   3.953   3.206   6.288 -1.0703  0.4832  0.4156
 3745SOL    HW122868   3.951   3.126   6.340 -0.1979 -0.5434 -1.1190
 3745SOL    HW222869   3.891   3.261   6.337 -1.8194  0.0718 -0.0745
 3746SOL     OW22870   3.260   4.278   6.711  0.1653 -0.3697 -0.1566
 3746SOL    HW122871   3.295   4.307   6.795 -0.3014 -0.0011 -0.0877
 3746SOL    HW222872   3.260   4.187   6.740  1.5767 -0.1231  0.6499
 3747SOL     OW22873   4.668   2.631  13.106 -0.2266  0.0360 -0.0745
 3747SOL    HW122874   4.701   2.710  13.150 -0.1738 -0.7293  1.2517
 3747SOL    HW222875   4.582   2.632  13.147  0.1959 -0.3534  0.8300
 3748SOL     OW22876   0.971   0.864  14.760 -0.1695  0.6312 -0.2322
 3748SOL    HW122877   0.905   0.817  14.811  2.0596 -2.5389 -0.2368
 3748SOL    HW222878   1.036   0.889  14.827  0.7320  0.3679 -1.0104
 3749SOL     OW22879   4.098   3.184  15.417 -0.5554 -0.5876  0.8426
 3749SOL    HW122880   4.054   3.101  15.398  0.3279 -1.1353  1.1881
 3749SOL    HW222881   4.180   3.158  15.375 -0.3056 -0.1794  1.0749
 3750SOL     OW22882   3.117   2.906   5.505 -0.0190 -0.2496 -0.4284
 3750SOL    HW122883   3.022   2.902   5.516  0.1493  0.5329  1.3067
 3750SOL    HW222884   3.121   2.993   5.467  0.1997 -0.2175 -0.3298
 3751SOL     OW22885   3.915   2.340  10.153  0.2049 -0.1373 -0.2274
 3751SOL    HW122886   3.998   2.323  10.198 -0.6102  0.0661  1.3407
 3751SOL    HW222887   3.857   2.370  10.222  1.8933  1.6589  0.4404
 3752SOL     OW22888   3.876   4.667  12.315 -0.1021  0.1333 -0.1776
 3752SOL    HW122889   3.833   4.621  12.388  0.1905  0.5290  0.2459
 3752SOL    HW222890   3.906   4.589  12.270 -0.5937  0.6186 -1.3488
 3753SOL     OW22891   3.812   1.371   0.523 -0.2766  0.2692  0.0706
 3753SOL    HW122892   3.876   1.439   0.501  0.2852 -0.1687  0.3673
 3753SOL    HW222893   3.756   1.423   0.580 -1.8870  0.0115 -1.2931
 3754SOL     OW22894   2.555   0.826  14.514  0.3292  0.6670  0.0138
 3754SOL    HW122895   2.557   0.921  14.498 -0.9892  0.9382  1.4306
 3754SOL    HW222896   2.609   0.803  14.439  1.5951 -2.6297  1.9696
 3755SOL     OW22897   0.504   3.301   0.752 -0.1615 -0.0891 -0.1586
 3755SOL    HW122898   0.590   3.336   0.775  0.3277  0.6034 -3.0066
 3755SOL    HW222899   0.493   3.247   0.830  0.1068 -0.4079 -0.3397
 3756SOL     OW22900   3.630   0.044   1.407  0.0762 -0.2552  0.1078
 3756SOL    HW122901   3.700   0.109   1.406  2.3206 -2.6742 -0.3012
 3756SOL    HW222902   3.582   0.065   1.487 -1.2669 -2.8290 -0.0108
 3757SOL     OW22903   3.822   4.688   4.154  0.1625  0.5284 -0.2649
 3757SOL    HW122904   3.758   4.621   4.130 -0.3414  0.1651  2.1439
 3757SOL    HW222905   3.872   4.640   4.221  2.7552  0.5053 -2.1801
 3758SOL     OW22906   2.879   3.128   4.495 -0.0060  0.3606 -0.2151
 3758SOL    HW122907   2.809   3.065   4.481 -0.8882  1.2157  0.3641
 3758SOL    HW222908   2.830   3.203   4.529 -0.7529  1.1090 -2.9851
 3759SOL     OW22909   0.921   4.598   1.973 -0.6275  0.1463  0.2197
 3759SOL    HW122910   0.922   4.675   1.916  0.3115  0.6128  0.8764
 3759SOL    HW222911   0.837   4.560   1.948  0.1130 -0.9390 -0.6228
 3760SOL     OW22912   1.378   1.487   2.176  0.1934  0.1683  0.4442
 3760SOL    HW122913   1.435   1.437   2.235  0.7840 -0.5709 -0.7500
 3760SOL    HW222914   1.425   1.569   2.162 -1.5154  1.2117  0.8570
 3761SOL     OW22915   3.598   0.622   6.279 -0.0694 -0.9410 -0.9252
 3761SOL    HW122916   3.598   0.632   6.184  1.7950  0.1350 -0.8084
 3761SOL    HW222917   3.512   0.582   6.296 -0.0534 -0.9723 -0.9183
 3762SOL     OW22918   0.372   2.855   5.554 -0.4121 -0.0624  0.2293
 3762SOL    HW122919   0.289   2.886   5.518 -0.1803  1.9574  1.3976
 3762SOL    HW222920   0.422   2.796   5.497  0.9504  1.6839 -0.4143
 3763SOL     OW22921   4.707   0.904   4.872 -0.5294  0.0573  0.0763
 3763SOL    HW122922   4.722   0.987   4.918 -1.8407  2.0271 -3.0743
 3763SOL    HW222923   4.675   0.939   4.789  0.1636 -0.0437 -0.2361
 3764SOL     OW22924   1.645   1.451   9.384  0.2948  0.0115  0.2958
 3764SOL    HW122925   1.735   1.476   9.360 -1.1514  0.2259 -4.7943
 3764SOL    HW222926   1.621   1.402   9.306  0.6125 -1.7813  1.3239
 3765SOL     OW22927   0.863   0.426   2.376 -0.1992 -0.0345  0.4645
 3765SOL    HW122928   0.774   0.428   2.411 -1.6663 -0.4648 -3.3225
 3765SOL    HW222929   0.902   0.455   2.459  2.5275 -0.6914 -0.5633
 3766SOL     OW22930   2.755   1.148   8.719 -0.0403 -0.0860  0.3226
 3766SOL    HW122931   2.846   1.175   8.733  0.0159 -0.1094 -0.0133
 3766SOL    HW222932   2.774   1.059   8.689 -1.9033 -0.6010  0.6633
 3767SOL     OW22933   1.954   3.548   3.236  0.0286 -0.7583  0.0984
 3767SOL    HW122934   1.860   3.536   3.253 -0.6318  1.9744 -1.6507
 3767SOL    HW222935   1.955   3.505   3.150  2.0819  1.3276 -0.8962
 3768SOL     OW22936   2.425   1.219   9.167 -0.9146  0.0598  0.0703
 3768SOL    HW122937   2.374   1.248   9.091  1.0431 -1.4547 -1.7873
 3768SOL    HW222938   2.454   1.132   9.141  1.8779  0.6439  1.2457
 3769SOL     OW22939   2.953   3.493  11.521 -0.0974  0.1598 -0.3653
 3769SOL    HW122940   2.990   3.490  11.609 -1.6065  0.8653  0.2817
 3769SOL    HW222941   3.026   3.465  11.464 -0.1051 -0.0271 -0.2835
 3770SOL     OW22942   3.171   0.379  10.818  0.0302  0.2850  0.2580
 3770SOL    HW122943   3.175   0.330  10.900 -0.7722 -1.0784 -0.5187
 3770SOL    HW222944   3.259   0.416  10.822  0.7374 -1.3892  0.2190
 3771SOL     OW22945   3.348   0.735   7.012 -0.2000  0.6429 -0.3326
 3771SOL    HW122946   3.437   0.740   6.977 -0.3850 -1.3264 -1.0356
 3771SOL    HW222947   3.333   0.642   7.029 -1.3982  0.7996 -0.5197
 3772SOL     OW22948   0.809   1.655   1.213  0.0991 -1.1612  0.2401
 3772SOL    HW122949   0.830   1.619   1.127  0.6731  0.1019 -0.1416
 3772SOL    HW222950   0.823   1.749   1.202 -1.0693 -1.0503 -0.3372
 3773SOL     OW22951   4.541   0.607   8.803  0.2743 -0.5620 -0.1225
 3773SOL    HW122952   4.452   0.615   8.837  0.0847  0.7849 -0.9125
 3773SOL    HW222953   4.529   0.572   8.715 -0.3426 -0.1898 -0.1906
 3774SOL     OW22954   3.303   1.642   5.323  0.5071 -0.1593  0.4182
 3774SOL    HW122955   3.257   1.696   5.259  0.3133  1.7794  2.1880
 3774SOL    HW222956   3.284   1.688   5.405  1.2064  1.0551 -0.0892
 3775SOL     OW22957   2.341   2.863  12.138  0.2269  0.0909  0.6692
 3775SOL    HW122958   2.253   2.885  12.169 -1.1589  0.5587 -3.5559
 3775SOL    HW222959   2.392   2.906  12.206 -0.5185  0.4493  1.0064
 3776SOL     OW22960   3.301   0.132   4.266  0.0594  0.1579  0.1410
 3776SOL    HW122961   3.314   0.164   4.177  0.4853  0.4230  0.2950
 3776SOL    HW222962   3.354   0.192   4.319  0.7430  0.5240 -0.9667
 3777SOL     OW22963   1.349   1.372   2.873  0.1448  0.0130  0.6204
 3777SOL    HW122964   1.417   1.309   2.851 -0.4935 -0.7607  0.8627
 3777SOL    HW222965   1.339   1.373   2.968 -0.0851  0.4546  0.5922
 3778SOL     OW22966   0.720   4.017   4.137  0.6151 -0.1221 -0.0009
 3778SOL    HW122967   0.728   3.931   4.095 -3.1288  0.3304 -1.6689
 3778SOL    HW222968   0.652   3.998   4.203 -0.7680 -0.3115 -1.4720
 3779SOL     OW22969   0.062   2.772   2.889  0.0355 -0.0722  0.8261
 3779SOL    HW122970   0.126   2.830   2.849 -0.0472  1.3143  2.6916
 3779SOL    HW222971   0.007   2.835   2.937 -1.4635 -2.5236  2.3427
 3780SOL     OW22972   4.105   2.904   6.047 -0.4602  0.1589  0.2824
 3780SOL    HW122973   4.015   2.875   6.036 -0.4768  0.1979  0.3167
 3780SOL    HW222974   4.139   2.856   5.971 -0.3323 -2.0525  1.7454
 3781SOL     OW22975   3.852   2.907   5.501 -0.6400  0.0323 -0.5812
 3781SOL    HW122976   3.804   2.847   5.443  0.5512  0.2502 -1.8047
 3781SOL    HW222977   3.932   2.918   5.450  0.2556 -1.0951  0.5927
 3782SOL     OW22978   1.819   1.416   8.522 -0.2564 -0.5043  0.3892
 3782SOL    HW122979   1.897   1.361   8.515  0.0007 -0.0166 -0.5459
 3782SOL    HW222980   1.787   1.422   8.432 -0.6924  0.2378  0.5930
 3783SOL     OW22981   3.270   0.881   9.411 -0.1222  0.6909  0.5505
 3783SOL    HW122982   3.307   0.872   9.499 -0.7685 -1.5401  0.5723
 3783SOL    HW222983   3.268   0.976   9.398  1.4483  0.4660 -1.2171
 3784SOL     OW22984   3.903   0.566  16.465  0.1852  0.1139  0.5213
 3784SOL    HW122985   3.848   0.644  16.463 -0.0152 -0.1160 -2.9431
 3784SOL    HW222986   3.858   0.518  16.396  1.9395 -0.0092 -0.5612
 3785SOL     OW22987   0.701   2.931  17.230 -0.3742  0.7405 -0.3637
 3785SOL    HW122988   0.721   2.986  17.306  1.6147 -2.0432  1.1391
 3785SOL    HW222989   0.789   2.934  17.192  0.4974  0.2296  1.5800
 3786SOL     OW22990   1.030   3.869   1.988  0.1809 -0.1511 -0.2162
 3786SOL    HW122991   1.040   3.784   1.944  1.1529 -0.3885  0.4625
 3786SOL    HW222992   1.056   3.850   2.079  1.9583  0.9990 -0.4862
 3787SOL     OW22993   1.237   1.097   1.811  0.2120  0.1857 -0.4258
 3787SOL    HW122994   1.213   1.141   1.893 -0.2540 -0.1195 -0.3959
 3787SOL    HW222995   1.154   1.067   1.774  0.9312 -0.2962 -1.6411
 3788SOL     OW22996   3.430   0.690   5.040 -0.1973 -0.0134  0.1883
 3788SOL    HW122997   3.522   0.677   5.064 -0.2256  1.0884  0.8858
 3788SOL    HW222998   3.403   0.600   5.026  0.9451 -0.0981 -1.5276
 3789SOL     OW22999   3.210   1.391   3.011  0.1977 -0.2508  0.7834
 3789SOL    HW123000   3.130   1.433   2.980  1.2447  0.1232 -1.4020
 3789SOL    HW223001   3.176   1.302   3.010  1.1302 -0.5863 -0.1248
 3790SOL     OW23002   4.019   1.018   3.005  0.0157  0.2694  0.6603
 3790SOL    HW123003   4.079   0.987   2.937  0.4080 -0.8730  1.5191
 3790SOL    HW223004   4.058   0.974   3.081  0.5357 -0.4918 -0.0553
 3791SOL     OW23005   4.650   2.799   2.060  0.4174 -0.5295 -0.3832
 3791SOL    HW123006   4.731   2.838   2.029 -0.7098 -0.1273 -2.8257
 3791SOL    HW223007   4.597   2.795   1.980  0.6582 -1.5175 -0.4997
 3792SOL     OW23008   4.335   3.181   8.647  0.0576 -0.9479 -0.3690
 3792SOL    HW123009   4.330   3.085   8.647  0.4205 -0.9670 -0.5113
 3792SOL    HW223010   4.259   3.216   8.600  2.2536  2.9352 -1.0209
 3793SOL     OW23011   3.938   3.060   7.419  0.2351  0.5291 -0.0736
 3793SOL    HW123012   3.925   3.073   7.513 -1.5008  2.5280 -0.6005
 3793SOL    HW223013   3.923   2.966   7.406  0.8130  0.6196 -1.3523
 3794SOL     OW23014   4.493   0.735   5.240  0.5369  0.0868 -0.2306
 3794SOL    HW123015   4.574   0.711   5.194 -0.4675  0.0279 -1.9883
 3794SOL    HW223016   4.538   0.774   5.314 -1.6984  0.0414  1.1418
 3795SOL     OW23017   1.334   1.478   5.665  0.6218  0.2581 -0.1207
 3795SOL    HW123018   1.359   1.517   5.749  0.4708  1.6327 -0.7137
 3795SOL    HW223019   1.250   1.442   5.695  0.8674 -0.6837 -0.5514
 3796SOL     OW23020   2.235   3.508   7.424 -0.2612  0.0336  0.0793
 3796SOL    HW123021   2.208   3.511   7.516  1.0550  1.0442  0.4280
 3796SOL    HW223022   2.311   3.449   7.427 -0.3458 -0.0685  0.2078
 3797SOL     OW23023   4.183   2.841  10.570  0.7053  0.2256  0.3202
 3797SOL    HW123024   4.161   2.898  10.643 -1.6676  1.1025 -1.0720
 3797SOL    HW223025   4.108   2.816  10.516  0.8760  0.0162  0.1773
 3798SOL     OW23026   0.676   3.186   2.852 -0.3483  0.2798 -0.0850
 3798SOL    HW123027   0.613   3.194   2.924 -0.5778  0.3986 -0.3023
 3798SOL    HW223028   0.699   3.278   2.843  2.0441 -0.4420 -1.4556
 3799SOL     OW23029   1.757   2.025  12.336  0.4508 -0.1004 -0.4902
 3799SOL    HW123030   1.662   2.020  12.348  0.5721 -1.2687 -0.0187
 3799SOL    HW223031   1.774   2.097  12.396 -0.6313 -0.6077  0.4222
 3800SOL     OW23032   3.588   1.494  14.015  0.0248  0.0573  0.0557
 3800SOL    HW123033   3.497   1.508  13.992 -0.3363 -1.8221  0.3638
 3800SOL    HW223034   3.601   1.572  14.068 -1.3535 -0.9501  1.8437
 3801SOL     OW23035   2.715   1.518   4.930  0.5641  0.1588 -0.2114
 3801SOL    HW123036   2.762   1.449   4.883  0.0632 -0.7479  0.6196
 3801SOL    HW223037   2.688   1.566   4.852 -1.1767  0.5074  0.5871
 3802SOL     OW23038   1.103   0.392   4.779  0.7531  0.1594  0.3483
 3802SOL    HW123039   1.161   0.401   4.855  1.5592 -3.5945  0.1854
 3802SOL    HW223040   1.169   0.390   4.710 -0.1638  0.6220 -0.5384
 3803SOL     OW23041   2.530   2.323   5.154 -0.5790 -0.5210 -0.0382
 3803SOL    HW123042   2.471   2.285   5.219  1.7961 -3.1232  0.6168
 3803SOL    HW223043   2.580   2.245   5.128  0.7563  0.1737  0.4570
 3804SOL     OW23044   4.489   4.497   7.020 -0.1954  0.3723 -0.2266
 3804SOL    HW123045   4.562   4.442   7.048 -0.9703 -1.6040 -2.0865
 3804SOL    HW223046   4.437   4.516   7.099  1.4221  0.8253  0.7169
 3805SOL     OW23047   0.518   2.930  14.459 -0.7732  0.6010  0.8389
 3805SOL    HW123048   0.543   2.838  14.452  1.8743  1.4589 -0.7224
 3805SOL    HW223049   0.427   2.917  14.485 -0.3794  0.7365  2.3052
 3806SOL     OW23050   1.804   3.410   8.510  0.1297 -0.0375 -0.5655
 3806SOL    HW123051   1.828   3.398   8.418 -1.6742 -1.8855 -0.8130
 3806SOL    HW223052   1.886   3.387   8.554  0.5979  0.7908 -1.0015
 3807SOL     OW23053   1.662   2.539   4.684 -0.1585  0.2715  0.2822
 3807SOL    HW123054   1.589   2.557   4.625  0.6646 -1.1003 -1.1455
 3807SOL    HW223055   1.728   2.506   4.624 -1.1619 -2.0463  0.4597
 3808SOL     OW23056   2.601   3.953  14.377 -0.3242 -0.0179 -0.5427
 3808SOL    HW123057   2.675   3.905  14.414  0.3004  0.4793 -1.1436
 3808SOL    HW223058   2.524   3.905  14.408 -0.7679  2.3263  2.0164
 3809SOL     OW23059   0.121   4.524   1.892 -0.5707 -0.3283  0.1034
 3809SOL    HW123060   0.090   4.471   1.965  2.1508 -2.5451 -0.3639
 3809SOL    HW223061   0.042   4.514   1.839 -0.1199  1.8917 -0.9863
 3810SOL     OW23062   4.236   3.145   7.726 -0.2887  0.3789 -0.5834
 3810SOL    HW123063   4.158   3.091   7.732  0.4499 -0.6325  0.0088
 3810SOL    HW223064   4.208   3.224   7.679  1.4407  0.3301 -1.7373
 3811SOL     OW23065   0.259   0.582   2.053 -0.4134  0.5874  0.1791
 3811SOL    HW123066   0.337   0.566   2.000 -0.9754  0.2280 -0.5303
 3811SOL    HW223067   0.304   0.638   2.117 -1.0425  0.1584  0.9933
 3812SOL     OW23068   1.307   2.421  16.195  0.2436  0.0973  0.0618
 3812SOL    HW123069   1.332   2.504  16.154  1.5075 -0.1310  0.3776
 3812SOL    HW223070   1.226   2.447  16.239  0.1127 -1.4120  0.7216
 3813SOL     OW23071   0.231   2.867   3.313 -0.7141  0.2367  0.0588
 3813SOL    HW123072   0.182   2.813   3.251  1.0234 -1.6136  0.2872
 3813SOL    HW223073   0.310   2.888   3.262 -0.5045 -0.0801  0.2495
 3814SOL     OW23074   3.253   3.865   4.018 -0.3121  0.4896  0.0433
 3814SOL    HW123075   3.328   3.860   4.077  0.6234  0.5994 -1.1434
 3814SOL    HW223076   3.289   3.911   3.942 -1.6503 -1.2585 -1.6700
 3815SOL     OW23077   4.468   2.134   0.346 -0.0510 -0.2896  0.0568
 3815SOL    HW123078   4.460   2.164   0.255 -2.0936 -0.2763  0.2228
 3815SOL    HW223079   4.515   2.203   0.391 -0.5770  0.4424 -0.5215
 3816SOL     OW23080   2.433   4.674   1.020 -0.2084  0.1447  0.1873
 3816SOL    HW123081   2.522   4.709   1.015  0.0289 -0.5328 -0.4031
 3816SOL    HW223082   2.401   4.736   0.955  0.8443 -0.3161 -0.7819
 3817SOL     OW23083   1.693   1.744  14.987 -0.0882 -0.4529 -0.2026
 3817SOL    HW123084   1.775   1.695  14.978  1.4923  2.0054  0.6350
 3817SOL    HW223085   1.646   1.757  14.905  0.6106 -0.7225 -0.6436
 3818SOL     OW23086   0.902   2.611  10.431 -0.1572  0.1639 -0.7196
 3818SOL    HW123087   0.967   2.546  10.405  0.4324  0.5166 -0.1532
 3818SOL    HW223088   0.856   2.574  10.507 -0.3655 -2.3235 -2.0646
 3819SOL     OW23089   4.514   3.225   0.987  0.4652  0.1686 -0.7994
 3819SOL    HW123090   4.543   3.134   0.984  2.0893  0.6349  0.6789
 3819SOL    HW223091   4.593   3.278   0.981 -0.4212  1.4715 -0.8070
 3820SOL     OW23092   2.303   0.532   7.491 -0.4097  0.2217 -0.4628
 3820SOL    HW123093   2.355   0.608   7.466  0.2521 -0.5420 -1.4337
 3820SOL    HW223094   2.219   0.576   7.506 -0.5807 -0.7992  1.5634
 3821SOL     OW23095   3.282   2.867  14.343 -0.0340 -0.2790  0.0655
 3821SOL    HW123096   3.245   2.779  14.352 -1.8480  0.5128  0.2248
 3821SOL    HW223097   3.235   2.908  14.416  0.4928  1.0149 -0.3291
 3822SOL     OW23098   1.788   3.842   5.862 -0.0895 -0.3049  0.4361
 3822SOL    HW123099   1.877   3.809   5.860  0.1259  0.2891  0.3178
 3822SOL    HW223100   1.749   3.813   5.780  1.9121  0.3071 -0.7278
 3823SOL     OW23101   1.095   1.959  14.842  0.0044  0.1825  0.3822
 3823SOL    HW123102   1.030   1.933  14.776 -0.0890 -1.4149  1.0927
 3823SOL    HW223103   1.033   1.977  14.914 -1.1110 -0.5671 -0.3937
 3824SOL     OW23104   3.294   2.783   5.334 -0.6698 -0.1783 -0.3076
 3824SOL    HW123105   3.258   2.815   5.417  1.9341  0.0978  0.7296
 3824SOL    HW223106   3.220   2.751   5.284 -0.4076 -0.2865 -0.6235
 3825SOL     OW23107   0.231   0.922   2.641  0.4484  0.0125  0.2690
 3825SOL    HW123108   0.197   0.880   2.563  2.6211 -0.9157 -0.1923
 3825SOL    HW223109   0.316   0.942   2.600  0.9671  0.9496  1.7913
 3826SOL     OW23110   0.792   2.387   4.089  0.2094  0.2121  0.4440
 3826SOL    HW123111   0.806   2.473   4.049  0.1158 -0.6317 -1.4333
 3826SOL    HW223112   0.793   2.330   4.012 -2.2669  1.2976 -0.3903
 3827SOL     OW23113   1.236   2.163   3.998 -0.1494  0.2571 -0.1819
 3827SOL    HW123114   1.204   2.095   4.056 -0.4927  0.8039  0.2703
 3827SOL    HW223115   1.249   2.243   4.049  0.5921 -0.4298  0.7069
 3828SOL     OW23116   4.563   1.402   2.195 -0.2830  0.2964  0.4523
 3828SOL    HW123117   4.569   1.403   2.291 -2.8496  3.1755  0.6176
 3828SOL    HW223118   4.618   1.328   2.173 -1.1086 -0.7383  1.8741
 3829SOL     OW23119   0.042   1.249   2.268 -0.1652  0.1661  0.0827
 3829SOL    HW123120   0.030   1.261   2.362  1.1160 -0.6098  0.3441
 3829SOL    HW223121   0.134   1.267   2.247 -1.0235  2.0770 -2.0565
 3830SOL     OW23122   2.162   0.108   9.378  0.2449 -0.2502  0.1489
 3830SOL    HW123123   2.250   0.137   9.354  0.6041 -0.1186  1.6214
 3830SOL    HW223124   2.151   0.156   9.460 -0.8433 -1.0751  0.4971
 3831SOL     OW23125   2.117   0.283  16.607  0.0075  0.0161  0.9384
 3831SOL    HW123126   2.186   0.305  16.544  0.4902 -0.2214  1.3952
 3831SOL    HW223127   2.049   0.250  16.547  0.4358 -0.5607  0.7711
 3832SOL     OW23128   0.075   3.983   6.588 -0.1837 -0.2293 -0.3936
 3832SOL    HW123129   0.015   4.055   6.606 -0.7562 -0.9014  0.4102
 3832SOL    HW223130   0.056   3.928   6.665  4.1908  0.4781  1.2203
 3833SOL     OW23131   4.125   1.367   4.426 -0.2379  0.1329  0.1441
 3833SOL    HW123132   4.123   1.455   4.464 -0.4899  0.6350 -1.0270
 3833SOL    HW223133   4.064   1.318   4.479  2.1807 -0.9303  1.9477
 3834SOL     OW23134   2.440   2.248   7.943 -0.2599  0.0733 -0.1447
 3834SOL    HW123135   2.385   2.184   7.898 -1.5523  0.5667  0.7682
 3834SOL    HW223136   2.527   2.220   7.912  0.6161  0.6118  1.8109
 3835SOL     OW23137   0.708   3.248   3.615  0.0343  0.1007 -0.1948
 3835SOL    HW123138   0.756   3.307   3.557  0.5146 -0.7200 -0.6282
 3835SOL    HW223139   0.760   3.167   3.615  0.5651  0.4404  0.3353
 3836SOL     OW23140   3.281   0.453   2.682 -0.2230 -0.6034 -0.4145
 3836SOL    HW123141   3.220   0.501   2.626 -0.2249 -0.8665 -0.6339
 3836SOL    HW223142   3.217   0.400   2.730 -1.4546  0.2621 -1.0846
 3837SOL     OW23143   0.439   0.600  14.413 -0.0447 -0.0283  0.2499
 3837SOL    HW123144   0.396   0.686  14.423 -0.3384 -0.2468  0.8927
 3837SOL    HW223145   0.531   0.626  14.418  0.0735 -0.2314 -1.0568
 3838SOL     OW23146   2.502   1.537   5.153 -0.2449  0.3974  0.5306
 3838SOL    HW123147   2.571   1.518   5.215 -0.1564  1.1326  0.6511
 3838SOL    HW223148   2.557   1.551   5.075  1.5266 -0.7327  1.5885
 3839SOL     OW23149   1.346   2.967   2.078 -0.0490 -0.3954 -0.6446
 3839SOL    HW123150   1.436   2.961   2.046  0.3760  2.0592  0.1129
 3839SOL    HW223151   1.302   2.941   1.997 -0.0176  0.7065 -1.0052
 3840SOL     OW23152   0.343   2.811   8.199  0.7737  0.1460  0.2795
 3840SOL    HW123153   0.393   2.776   8.125 -1.2729 -3.5738  0.6491
 3840SOL    HW223154   0.395   2.785   8.275  0.2292 -0.5956  0.4055
 3841SOL     OW23155   0.735   1.175   3.471  0.4019 -0.7700 -0.0871
 3841SOL    HW123156   0.779   1.106   3.521 -0.1742 -0.7314  0.4700
 3841SOL    HW223157   0.654   1.129   3.449  1.1407 -1.1579 -2.0066
 3842SOL     OW23158   0.594   2.932   6.353  0.4242  0.3183  0.3216
 3842SOL    HW123159   0.536   2.857   6.339  3.3169 -2.4045  3.0137
 3842SOL    HW223160   0.563   2.967   6.436  0.7298 -0.8499  0.9218
 3843SOL     OW23161   0.874   3.598   5.616 -0.2710 -0.3422 -0.2574
 3843SOL    HW123162   0.853   3.632   5.704  1.3453 -0.3487  0.1342
 3843SOL    HW223163   0.830   3.514   5.609 -3.6086  1.4401 -0.8638
 3844SOL     OW23164   3.241   0.677   3.670 -0.3705 -0.2352  0.2714
 3844SOL    HW123165   3.187   0.659   3.593 -0.9808  0.5184  0.5255
 3844SOL    HW223166   3.260   0.770   3.659 -2.6247 -0.0140 -1.9035
 3845SOL     OW23167   2.893   1.241   7.665 -0.4306  0.1625  0.1141
 3845SOL    HW123168   2.900   1.337   7.660  1.0567  0.0057 -0.8081
 3845SOL    HW223169   2.930   1.216   7.581  1.5787  2.3617  0.3336
 3846SOL     OW23170   1.194   0.015   2.807 -0.4207 -0.1608 -0.6453
 3846SOL    HW123171   1.273   0.065   2.824 -1.2041  0.4213  1.3130
 3846SOL    HW223172   1.205   4.740   2.714 -0.6880  0.2527 -0.7452
 3847SOL     OW23173   4.694   0.224  17.712  0.5588  0.2040  0.7389
 3847SOL    HW123174   4.675   0.149  17.656  3.3107  1.0046 -1.3129
 3847SOL    HW223175   4.661   0.187   0.034  1.3408 -1.2918  0.3783
 3848SOL     OW23176   3.387   1.682  12.076  0.1416 -0.0466  0.5319
 3848SOL    HW123177   3.479   1.706  12.062  1.6101 -5.0049  1.6442
 3848SOL    HW223178   3.342   1.725  12.004  0.1977 -1.7896 -0.5550
 3849SOL     OW23179   1.664   2.801  10.904 -0.0908  0.6258  0.1359
 3849SOL    HW123180   1.731   2.750  10.858 -1.4623  1.1739 -2.4662
 3849SOL    HW223181   1.710   2.822  10.985 -0.3757 -0.4799  0.5917
 3850SOL     OW23182   2.287   1.084  17.070  0.1142  0.4133  0.1597
 3850SOL    HW123183   2.197   1.102  17.098 -0.3402  0.0986 -1.1083
 3850SOL    HW223184   2.257   1.062  16.982  2.4423  0.9968 -0.7680
 3851SOL     OW23185   3.531   1.126   3.093 -0.0288  0.5005  0.0357
 3851SOL    HW123186   3.439   1.111   3.117  0.7370  1.8794  3.7942
 3851SOL    HW223187   3.571   1.041   3.113 -2.1990 -0.8064 -1.1831
 3852SOL     OW23188   0.914   1.883   3.123 -0.2556  0.1572  0.6049
 3852SOL    HW123189   0.918   1.791   3.147  0.4674 -0.6760 -2.6536
 3852SOL    HW223190   0.897   1.874   3.029  3.4958  0.5782 -0.1234
 3853SOL     OW23191   2.761   4.333   2.494  0.1009  0.5729 -0.0364
 3853SOL    HW123192   2.829   4.399   2.509  0.2970  0.3906 -0.1192
 3853SOL    HW223193   2.687   4.391   2.475 -0.6640 -0.4864 -0.2838
 3854SOL     OW23194   2.670   1.822   5.549  0.4784 -0.4254 -0.2245
 3854SOL    HW123195   2.709   1.774   5.623  2.5477 -1.8888 -2.2548
 3854SOL    HW223196   2.674   1.759   5.477  1.2010  0.5375 -1.0238
 3855SOL     OW23197   1.498   2.933   8.984 -0.0873 -0.0387  0.5342
 3855SOL    HW123198   1.508   3.026   9.005 -0.4438  0.3654 -1.0974
 3855SOL    HW223199   1.499   2.899   9.074 -3.9749  1.0429  0.9907
 3856SOL     OW23200   2.137   1.131   2.181  0.1403 -0.3726 -0.1946
 3856SOL    HW123201   2.156   1.217   2.144  1.1765 -0.7177 -0.4712
 3856SOL    HW223202   2.047   1.142   2.213 -0.0674 -2.2225 -0.1501
 3857SOL     OW23203   3.116   2.593  15.925  0.2617  0.1765 -0.0060
 3857SOL    HW123204   3.189   2.655  15.917  1.5542 -1.6334 -2.1409
 3857SOL    HW223205   3.050   2.632  15.983 -0.4848  1.2322 -1.5877
 3858SOL     OW23206   0.015   3.907   1.152 -0.1961 -0.3535 -0.1980
 3858SOL    HW123207   0.090   3.935   1.205  0.7419 -2.5646 -0.3521
 3858SOL    HW223208   0.036   3.935   1.063 -0.1769 -0.2175 -0.1514
 3859SOL     OW23209   4.564   1.753  10.824 -0.3170  0.4305  0.2238
 3859SOL    HW123210   4.517   1.751  10.741 -0.2242  1.0911  0.1545
 3859SOL    HW223211   4.527   1.686  10.881  1.4413 -0.5639  0.2145
 3860SOL     OW23212   4.640   1.738  12.928  0.1040  1.0197 -0.0195
 3860SOL    HW123213   4.682   1.822  12.945 -0.6758  1.5042 -0.5035
 3860SOL    HW223214   4.606   1.755  12.841  0.3479  1.6395  0.0029
 3861SOL     OW23215   3.235   3.086   3.142  0.1497 -0.0809 -0.0449
 3861SOL    HW123216   3.214   3.168   3.187  0.4031  0.7935 -1.5041
 3861SOL    HW223217   3.331   3.089   3.150  0.1216 -0.1144  0.2890
 3862SOL     OW23218   1.943   0.787   9.254  0.1680  0.5509  0.0933
 3862SOL    HW123219   1.980   0.782   9.166 -2.9130  1.0639 -1.2553
 3862SOL    HW223220   1.963   0.696   9.274  2.2325  1.0730  0.3664
 3863SOL     OW23221   2.023   4.091   3.970  0.1648 -0.6597 -0.4985
 3863SOL    HW123222   2.022   3.995   3.966 -1.9954 -0.6013 -1.5282
 3863SOL    HW223223   1.930   4.101   3.990 -0.1998 -2.1608 -1.3583
 3864SOL     OW23224   2.489   0.074   7.710 -0.1308  0.2334  0.2641
 3864SOL    HW123225   2.522   0.010   7.647 -2.4540  0.1625 -0.8788
 3864SOL    HW223226   2.566   0.130   7.717  1.0137 -1.3223  0.1031
 3865SOL     OW23227   0.046   0.131  12.353 -0.2885 -0.1814 -0.0672
 3865SOL    HW123228   0.133   0.156  12.385 -1.3166 -0.3189  2.7694
 3865SOL    HW223229   0.037   0.203  12.291 -0.3042 -0.9139 -0.9216
 3866SOL     OW23230   4.631   1.036   0.178  0.0634 -0.3485 -0.1206
 3866SOL    HW123231   4.610   1.027   0.085  0.7377 -1.4020 -0.1598
 3866SOL    HW223232   4.727   1.042   0.173  0.1261 -0.6991  0.7154
 3867SOL     OW23233   0.417   1.180   4.937  0.1877 -0.4734  0.4329
 3867SOL    HW123234   0.454   1.106   4.889  0.3453 -0.2959  0.2775
 3867SOL    HW223235   0.404   1.240   4.863 -2.7336 -0.5568  0.9020
 3868SOL     OW23236   3.304   0.083   3.178 -0.2400  0.2118  0.1871
 3868SOL    HW123237   3.347   0.075   3.093  0.5185  0.4159  0.5461
 3868SOL    HW223238   3.250   0.005   3.191  1.5839 -0.9905  0.6677
 3869SOL     OW23239   0.415   0.274   2.806 -0.0259 -0.1153 -0.0930
 3869SOL    HW123240   0.367   0.237   2.731 -1.2413  4.6222 -1.6402
 3869SOL    HW223241   0.506   0.273   2.776  0.3141 -1.9565  1.0016
 3870SOL     OW23242   0.571   2.535   9.208  0.0273  0.3154  0.6182
 3870SOL    HW123243   0.509   2.528   9.136 -1.1868 -0.9189  1.7641
 3870SOL    HW223244   0.564   2.444   9.238  1.8164 -0.2255 -0.6056
 3871SOL     OW23245   4.339   4.070   6.599 -0.4094  0.0884 -0.2090
 3871SOL    HW123246   4.296   4.153   6.620  1.7412  1.3031 -0.7239
 3871SOL    HW223247   4.363   4.086   6.508 -1.0159 -0.2687 -0.4370
 3872SOL     OW23248   3.648   0.287   5.926  0.5232 -0.2617 -0.5367
 3872SOL    HW123249   3.670   0.246   5.842 -0.4610 -0.0649 -0.8829
 3872SOL    HW223250   3.737   0.313   5.948  0.1909  0.4019 -0.0119
 3873SOL     OW23251   4.708   0.678  11.282  0.0111 -0.0099  0.0230
 3873SOL    HW123252   4.679   0.592  11.251  0.0065 -0.7339  2.0930
 3873SOL    HW223253   4.723   0.729  11.202  1.7988 -1.2116 -0.3944
 3874SOL     OW23254   0.247   1.272   3.372  0.1399  0.1853 -0.1871
 3874SOL    HW123255   0.213   1.230   3.293 -1.9083  1.2987  0.1046
 3874SOL    HW223256   0.183   1.238   3.434 -2.7638 -0.4101 -3.4951
 3875SOL     OW23257   2.602   2.903  15.917  0.5398 -0.3122  0.6178
 3875SOL    HW123258   2.529   2.856  15.957 -0.5592  1.5668  0.7848
 3875SOL    HW223259   2.557   2.928  15.836  2.0941  1.8107  0.4145
 3876SOL     OW23260   3.604   0.844   4.325 -0.1318 -0.0350 -0.1547
 3876SOL    HW123261   3.524   0.865   4.373  0.6651  2.0963  0.2503
 3876SOL    HW223262   3.603   0.924   4.272 -1.3351 -0.3634 -0.6280
 3877SOL     OW23263   0.156   0.396   6.069  0.4195 -0.0327  0.4144
 3877SOL    HW123264   0.231   0.367   6.120  1.0808  1.0465  0.0415
 3877SOL    HW223265   0.189   0.475   6.027  0.6751  1.7205  3.9267
 3878SOL     OW23266   0.147   4.524   8.316 -0.5366  0.1235  0.5404
 3878SOL    HW123267   0.066   4.522   8.265 -0.4005  0.8434  0.2965
 3878SOL    HW223268   0.107   4.502   8.400  0.9964 -0.6429  1.0735
 3879SOL     OW23269   1.249   2.857   5.818 -0.4845  0.2442  0.2066
 3879SOL    HW123270   1.222   2.829   5.906  0.4106 -0.9051  0.1240
 3879SOL    HW223271   1.263   2.947   5.846 -0.3786  1.1150 -2.6716
 3880SOL     OW23272   1.174   1.680   8.995 -0.2394  0.4175 -0.0923
 3880SOL    HW123273   1.176   1.753   8.934  1.2732 -1.2575 -2.0619
 3880SOL    HW223274   1.133   1.605   8.952 -1.2367  0.7255  0.3340
 3881SOL     OW23275   3.731   2.332   4.267 -0.5516 -0.2804 -0.2552
 3881SOL    HW123276   3.766   2.312   4.181 -1.7665  2.0323 -1.2963
 3881SOL    HW223277   3.745   2.249   4.313  0.8862 -0.1123 -0.4002
 3882SOL     OW23278   3.121   4.321   4.888 -0.2876 -0.0109 -0.1271
 3882SOL    HW123279   3.145   4.241   4.842  0.5790  1.6280 -2.4991
 3882SOL    HW223280   3.197   4.325   4.946 -1.1276  0.7514  0.9330
 3883SOL     OW23281   4.067   3.989   3.384  0.2296 -0.2733  0.4780
 3883SOL    HW123282   4.027   3.925   3.444 -1.7359  0.5555  0.0518
 3883SOL    HW223283   4.107   3.931   3.320  0.1141 -0.9795  1.0426
 3884SOL     OW23284   1.107   3.211   8.706  1.0112  0.3516 -0.6774
 3884SOL    HW123285   1.105   3.219   8.610 -1.6590 -0.8910 -0.7245
 3884SOL    HW223286   1.098   3.118   8.722  1.9710  0.6823  1.8434
 3885SOL     OW23287   3.910   3.581   6.140  0.4255 -0.2287 -0.0049
 3885SOL    HW123288   3.991   3.529   6.136  1.4643  1.6147 -2.6540
 3885SOL    HW223289   3.942   3.660   6.183 -2.2639  0.8078  0.0758
 3886SOL     OW23290   4.182   3.492  11.989 -0.2787  0.3908 -0.1753
 3886SOL    HW123291   4.273   3.502  11.960 -0.0318  0.1830  0.5298
 3886SOL    HW223292   4.181   3.567  12.049 -2.8739  0.6438 -0.5209
 3887SOL     OW23293   0.303   1.598   6.870 -0.2760  0.1316 -0.4909
 3887SOL    HW123294   0.272   1.659   6.803 -0.1923  0.8950  0.1702
 3887SOL    HW223295   0.317   1.523   6.812  1.7418  0.5784 -0.5762
 3888SOL     OW23296   2.595   2.753   5.480  0.0003 -0.0176  0.1037
 3888SOL    HW123297   2.528   2.700   5.437 -0.5490  1.9041 -1.4136
 3888SOL    HW223298   2.546   2.827   5.516 -0.0892 -0.4400  0.8602
 3889SOL     OW23299   1.527   1.343   2.351 -0.2245 -0.0934 -0.1822
 3889SOL    HW123300   1.606   1.384   2.386  1.9817 -3.5369 -1.0507
 3889SOL    HW223301   1.553   1.251   2.354 -0.2133 -0.0294  1.3309
 3890SOL     OW23302   4.158   2.676  15.125  0.6850  0.5722  0.4393
 3890SOL    HW123303   4.148   2.604  15.188  0.9179  0.1784  0.0301
 3890SOL    HW223304   4.186   2.625  15.049 -0.1412  1.2045 -0.2733
 3891SOL     OW23305   0.605   4.439   5.824  0.2481  0.4421  0.4113
 3891SOL    HW123306   0.639   4.424   5.911 -0.7215 -1.2060  0.5080
 3891SOL    HW223307   0.543   4.508   5.847 -1.6675 -2.1092  2.9218
 3892SOL     OW23308   2.797   4.140   7.810 -0.1452 -0.1787 -0.1944
 3892SOL    HW123309   2.750   4.211   7.855  1.2370  0.9332 -0.4867
 3892SOL    HW223310   2.791   4.182   7.724  3.4018 -1.0314 -0.8704
 3893SOL     OW23311   2.133   4.549  15.773  0.6771 -0.2425  0.4711
 3893SOL    HW123312   2.228   4.547  15.780  0.6279 -4.8298 -0.0971
 3893SOL    HW223313   2.126   4.526  15.680  0.6343  0.5249  0.2883
 3894SOL     OW23314   0.003   3.657  11.540  0.6321  0.7175 -0.6504
 3894SOL    HW123315   4.732   3.732  11.599  0.0124 -0.3900  0.6279
 3894SOL    HW223316   0.079   3.680  11.486  1.6429  3.0535  1.7471
 3895SOL     OW23317   0.882   3.949   5.170  0.0234 -0.3146 -0.4224
 3895SOL    HW123318   0.881   3.876   5.232 -0.6906  0.9288  1.0224
 3895SOL    HW223319   0.796   3.981   5.196  0.6210  1.0967 -0.2371
 3896SOL     OW23320   0.350   1.023   2.219  0.4209  0.7824 -0.4933
 3896SOL    HW123321   0.358   1.119   2.216 -1.5600  1.0491  2.3398
 3896SOL    HW223322   0.280   1.003   2.158  0.3752 -4.2790  1.2151
 3897SOL     OW23323   2.223   3.376   1.609 -0.2846  0.2998 -0.6810
 3897SOL    HW123324   2.154   3.311   1.617  1.1027 -0.6863  3.2559
 3897SOL    HW223325   2.279   3.344   1.679 -1.6626  0.3128  0.4191
 3898SOL     OW23326   4.740   1.428   0.793 -0.0693  0.3968 -0.7718
 3898SOL    HW123327   0.002   1.480   0.874 -0.6028 -1.4088  0.3986
 3898SOL    HW223328   0.073   1.472   0.750 -0.1250  1.1336 -0.1325
 3899SOL     OW23329   0.358   4.206   8.483  0.5216  0.0160  0.2109
 3899SOL    HW123330   0.426   4.164   8.535 -0.8253 -2.7097 -0.2254
 3899SOL    HW223331   0.278   4.167   8.519 -1.5811  3.5786 -0.6100
 3900SOL     OW23332   0.186   1.612   9.064  0.1093  0.0204  0.4915
 3900SOL    HW123333   0.107   1.590   9.114 -0.7361  2.1239  0.0708
 3900SOL    HW223334   0.248   1.634   9.134  0.4759 -1.0162  0.4843
 3901SOL     OW23335   2.544   3.789   0.870 -0.1016  0.1965 -0.8496
 3901SOL    HW123336   2.526   3.867   0.817 -0.9708  0.5886  0.0207
 3901SOL    HW223337   2.451   3.771   0.883  0.4654 -0.3089  2.3777
 3902SOL     OW23338   2.335   2.135   3.514 -0.1137 -0.3319  0.9501
 3902SOL    HW123339   2.252   2.146   3.560 -0.6082  2.7135 -0.6410
 3902SOL    HW223340   2.324   2.043   3.491 -3.2732  0.8988 -2.4448
 3903SOL     OW23341   1.729   1.505   2.444  0.0182  0.0694  0.4386
 3903SOL    HW123342   1.743   1.599   2.436 -0.1979  0.0991  0.4148
 3903SOL    HW223343   1.811   1.473   2.408  0.1561 -0.3188  1.0987
 3904SOL     OW23344   3.308   0.697   3.181  0.2060  0.8212 -0.2970
 3904SOL    HW123345   3.243   0.706   3.111 -0.0692  1.5599  0.0540
 3904SOL    HW223346   3.392   0.689   3.135  1.9245  1.4922  2.7328
 3905SOL     OW23347   1.702   4.155   5.005  0.3421  0.8382  0.1003
 3905SOL    HW123348   1.649   4.144   5.084  1.3906  2.9769  1.0941
 3905SOL    HW223349   1.675   4.086   4.945 -0.7219  2.3254 -1.1057
 3906SOL     OW23350   3.664   2.370  10.770  0.5887  0.3825 -0.0193
 3906SOL    HW123351   3.643   2.335  10.684 -0.0863 -1.2643  0.8120
 3906SOL    HW223352   3.732   2.431  10.742  0.2405  0.1336 -1.3863
 3907SOL     OW23353   0.020   1.569   3.243  0.2871 -0.7942 -0.1968
 3907SOL    HW123354   4.666   1.558   3.229  0.1128 -0.3052  0.6070
 3907SOL    HW223355   0.042   1.629   3.172 -1.6857  0.4872  0.2847
 3908SOL     OW23356   3.505   0.119   1.628  1.0682  0.1543 -0.2245
 3908SOL    HW123357   3.428   0.070   1.655  0.4204  0.2504 -1.9071
 3908SOL    HW223358   3.540   0.145   1.713  1.5153  0.1754 -0.4145
 3909SOL     OW23359   3.055   3.943   9.615  0.2920  0.1243 -0.4895
 3909SOL    HW123360   3.039   3.878   9.683 -0.2188  0.1234 -0.6086
 3909SOL    HW223361   2.977   3.998   9.626  1.6390  1.3480  2.6988
 3910SOL     OW23362   3.153   3.379   7.988 -0.0150  0.0964 -0.6376
 3910SOL    HW123363   3.187   3.465   7.965 -1.3798  0.3802 -1.6215
 3910SOL    HW223364   3.235   3.332   7.999 -0.0473  0.6373  1.8290
 3911SOL     OW23365   1.947   0.726  11.111  0.8508 -0.2237  0.3320
 3911SOL    HW123366   1.941   0.633  11.089  1.5894 -0.2655  0.2831
 3911SOL    HW223367   1.957   0.765  11.024  0.8428 -0.1949  0.3441
 3912SOL     OW23368   3.146   4.597  12.896 -0.2112 -0.0847  0.3278
 3912SOL    HW123369   3.238   4.571  12.887  0.1965  1.1187  1.1535
 3912SOL    HW223370   3.147   4.674  12.840  0.0062  0.6042  1.2922
 3913SOL     OW23371   4.076   3.029   5.392 -0.4008 -0.0487  0.7179
 3913SOL    HW123372   4.037   3.116   5.396 -1.1731 -0.3651 -0.1161
 3913SOL    HW223373   4.087   3.034   5.297  0.7189 -1.4472  0.7786
 3914SOL     OW23374   0.931   4.563  13.891 -0.2699 -0.3640 -1.0869
 3914SOL    HW123375   0.868   4.626  13.856 -1.5124 -0.2571  1.3564
 3914SOL    HW223376   0.905   4.494  13.830  1.5055 -0.8511 -1.2839
 3915SOL     OW23377   1.519   2.556   6.778 -0.1966  0.4796  0.0310
 3915SOL    HW123378   1.550   2.467   6.793  2.0747  1.1760 -0.5056
 3915SOL    HW223379   1.525   2.564   6.682 -1.1289  1.6594  0.0676
 3916SOL     OW23380   2.071   1.598   8.235 -0.3666  0.3163 -0.3611
 3916SOL    HW123381   1.999   1.643   8.190 -0.9322 -2.1278 -1.9157
 3916SOL    HW223382   2.138   1.664   8.217 -0.0305  0.2832  0.7753
 3917SOL     OW23383   1.286   4.595  16.706 -0.2538  0.9306  0.2137
 3917SOL    HW123384   1.248   4.683  16.708  2.7604  2.2529  1.0894
 3917SOL    HW223385   1.248   4.550  16.631  2.5010  0.1209 -0.7064
 3918SOL     OW23386   1.433   3.441   2.461  0.0799 -0.3618  0.2923
 3918SOL    HW123387   1.416   3.529   2.495 -1.4251  0.0953 -1.6130
 3918SOL    HW223388   1.345   3.401   2.466  1.0135 -2.4011  0.4351
 3919SOL     OW23389   3.477   3.859  13.198 -0.4251 -0.9072  0.7561
 3919SOL    HW123390   3.515   3.845  13.284  1.2638 -2.9112 -0.3241
 3919SOL    HW223391   3.469   3.955  13.204  1.6846 -0.6844  0.2027
 3920SOL     OW23392   4.273   2.218   1.845  0.1572 -0.5122  0.3143
 3920SOL    HW123393   4.179   2.205   1.862 -0.0028  1.7610  1.0849
 3920SOL    HW223394   4.279   2.186   1.755 -1.8155  2.2099 -0.7908
 3921SOL     OW23395   4.097   0.693   0.700  0.4092  0.1480  0.0903
 3921SOL    HW123396   4.096   0.736   0.785  0.6697 -0.1533  0.2463
 3921SOL    HW223397   4.046   0.614   0.714  2.0004 -0.6888  1.1765
 3922SOL     OW23398   1.371   1.581  14.183  0.0536 -0.0255  0.2539
 3922SOL    HW123399   1.410   1.499  14.152 -0.3123 -0.1974  0.2390
 3922SOL    HW223400   1.293   1.550  14.230 -1.2453  1.9583 -0.6032
 3923SOL     OW23401   3.431   2.707   5.776 -0.5338  1.2055  0.2745
 3923SOL    HW123402   3.337   2.699   5.762 -0.5899  0.3663  1.1648
 3923SOL    HW223403   3.445   2.801   5.786  0.6582  1.2275 -1.4851
 3924SOL     OW23404   1.011   3.015   3.247 -0.2996  0.0251 -0.4440
 3924SOL    HW123405   1.067   2.974   3.313 -0.4768  1.4030  0.5812
 3924SOL    HW223406   1.056   2.977   3.172  0.8690 -2.6598  1.6643
 3925SOL     OW23407   3.863   1.192   4.771 -0.3987 -0.1578  0.4501
 3925SOL    HW123408   3.837   1.157   4.856 -0.8655 -0.3889  0.2108
 3925SOL    HW223409   3.863   1.286   4.791  2.4121  0.1085 -0.6462
 3926SOL     OW23410   4.272   2.603   7.608 -0.0566 -0.0081 -0.6295
 3926SOL    HW123411   4.333   2.538   7.573  1.0034  0.8284 -0.3218
 3926SOL    HW223412   4.267   2.576   7.700 -1.0839  1.3781 -0.2763
 3927SOL     OW23413   2.714   0.765   3.946  0.3482  0.2613  0.3291
 3927SOL    HW123414   2.781   0.724   4.000 -0.7756 -0.9940  0.7554
 3927SOL    HW223415   2.754   0.738   3.863 -1.5645  0.8082 -0.7710
 3928SOL     OW23416   3.579   4.271   8.678  0.2458  0.6098  0.4524
 3928SOL    HW123417   3.629   4.196   8.710  1.6570  1.6033  0.5915
 3928SOL    HW223418   3.547   4.309   8.760 -0.8460  0.3074  0.1637
 3929SOL     OW23419   2.440   3.813   6.233 -0.1783  0.0963 -0.1213
 3929SOL    HW123420   2.528   3.849   6.227 -0.3523  0.1415 -2.6135
 3929SOL    HW223421   2.424   3.774   6.147 -3.2212  1.1242 -0.0088
 3930SOL     OW23422   0.922   0.636   5.405  0.4993  0.1641  0.6808
 3930SOL    HW123423   0.987   0.688   5.358 -1.5902  0.1878 -2.1757
 3930SOL    HW223424   0.907   0.565   5.342  1.1688 -0.9184  1.7422
 3931SOL     OW23425   3.325   3.322   8.654 -0.1267  0.0114 -0.8445
 3931SOL    HW123426   3.396   3.324   8.718 -2.2012 -2.0112  1.5363
 3931SOL    HW223427   3.332   3.415   8.632  2.3484  0.3884  1.5042
 3932SOL     OW23428   3.766   2.174   3.544  0.1856 -0.3356  0.2110
 3932SOL    HW123429   3.715   2.127   3.478  2.7116 -1.6520 -0.8039
 3932SOL    HW223430   3.710   2.251   3.552 -1.3844 -1.1047 -3.3931
 3933SOL     OW23431   3.625   2.606  11.980 -0.2435 -0.4174 -0.4189
 3933SOL    HW123432   3.571   2.584  12.056 -1.0418  1.2357 -0.5135
 3933SOL    HW223433   3.598   2.695  11.957 -1.9330 -0.9710 -0.6054
 3934SOL     OW23434   3.611   4.581   1.784 -0.5572 -0.3971  0.8164
 3934SOL    HW123435   3.631   4.527   1.860  0.0559 -0.9697  0.2493
 3934SOL    HW223436   3.700   4.617   1.776 -0.5559 -0.5297  0.2086
 3935SOL     OW23437   0.496   2.566   2.763  0.4080  0.0624 -0.0962
 3935SOL    HW123438   0.410   2.591   2.728  0.5532  1.1228  0.3050
 3935SOL    HW223439   0.524   2.494   2.706  0.3939  0.3826 -0.5115
 3936SOL     OW23440   3.834   4.267  15.652 -0.1833 -0.2640  0.4375
 3936SOL    HW123441   3.917   4.282  15.608 -0.7650 -0.7881 -0.8188
 3936SOL    HW223442   3.831   4.172  15.638  0.8140 -0.0808 -0.9131
 3937SOL     OW23443   4.277   3.747   6.092 -0.5207  0.3195 -0.1891
 3937SOL    HW123444   4.280   3.660   6.052  1.0388  0.0756  0.4896
 3937SOL    HW223445   4.265   3.790   6.008 -2.4675 -1.1384 -0.6873
 3938SOL     OW23446   2.158   4.499   6.881 -0.3022 -0.6330 -0.1293
 3938SOL    HW123447   2.191   4.558   6.949  0.0534 -1.8543  0.7506
 3938SOL    HW223448   2.226   4.516   6.816 -1.2344  1.9839 -0.4529
 3939SOL     OW23449   1.543   1.749   6.872 -0.0757  0.2006 -0.7109
 3939SOL    HW123450   1.458   1.708   6.882  0.9025 -1.8361 -0.8504
 3939SOL    HW223451   1.517   1.804   6.798  0.7955 -0.1457 -1.2733
 3940SOL     OW23452   0.007   4.462   8.571  0.2192  0.2791 -0.0643
 3940SOL    HW123453   4.734   4.369   8.586  3.4034 -0.0659  0.6060
 3940SOL    HW223454   4.694   4.502   8.640  0.3496 -0.0824  0.2463
 3941SOL     OW23455   4.305   3.945   7.652  0.3870 -0.6354  0.4057
 3941SOL    HW123456   4.340   3.891   7.581 -0.2744 -1.2943  0.5710
 3941SOL    HW223457   4.279   4.026   7.607 -1.0126 -0.1116  2.1358
 3942SOL     OW23458   0.756   4.068   0.376  0.0240 -0.1895  0.5077
 3942SOL    HW123459   0.775   3.991   0.322  1.1503 -0.5221  1.3958
 3942SOL    HW223460   0.746   4.133   0.306 -1.6474  0.0175  0.9255
 3943SOL     OW23461   2.707   2.947   6.023  0.1146  0.1664 -0.0820
 3943SOL    HW123462   2.671   2.936   6.111  1.3499  2.7283  0.7512
 3943SOL    HW223463   2.676   2.865   5.985 -0.2650  0.9622 -1.4956
 3944SOL     OW23464   4.729   3.192   5.955  0.0118  0.4188  0.3150
 3944SOL    HW123465   4.740   3.236   6.040  1.8478 -0.9674  0.8006
 3944SOL    HW223466   0.046   3.247   5.901 -1.1293 -2.1140 -3.4153
 3945SOL     OW23467   2.914   1.763   6.444 -0.3096  0.5480 -0.1961
 3945SOL    HW123468   2.832   1.749   6.397 -1.3001 -0.4259  1.8748
 3945SOL    HW223469   2.916   1.688   6.503  0.2821  0.0400 -0.8526
 3946SOL     OW23470   3.998   1.897   9.626  0.1715  0.2405  0.5654
 3946SOL    HW123471   3.904   1.891   9.605  0.5857  2.7222 -1.9153
 3946SOL    HW223472   4.003   1.833   9.697 -1.8888  0.3472  0.8371
 3947SOL     OW23473   1.065   1.504  17.163 -0.2917  0.2155 -0.0381
 3947SOL    HW123474   1.086   1.411  17.155 -0.5063  0.2853 -1.4302
 3947SOL    HW223475   1.037   1.515  17.072 -1.9785  0.3233  0.5060
 3948SOL     OW23476   1.644   1.086   6.409  0.2836  0.2081 -0.5339
 3948SOL    HW123477   1.700   1.094   6.332  1.3666  1.8400  0.4282
 3948SOL    HW223478   1.634   1.180   6.424  0.7585 -0.0426  1.3423
 3949SOL     OW23479   3.326   4.448   3.949  0.0242  0.4301 -0.2469
 3949SOL    HW123480   3.388   4.445   3.876  1.1473 -0.2960  0.7282
 3949SOL    HW223481   3.264   4.512   3.915 -2.1985 -1.2049  0.7399
 3950SOL     OW23482   0.014   2.335   6.649 -0.3373  0.0835  0.3871
 3950SOL    HW123483   0.053   2.290   6.574  0.6402  0.5691  0.5897
 3950SOL    HW223484   4.691   2.390   6.603 -0.1337 -0.2456 -0.2946
 3951SOL     OW23485   3.329   1.439   6.723  0.6833 -0.3004  0.0679
 3951SOL    HW123486   3.339   1.375   6.652 -0.4584 -2.1127  1.5195
 3951SOL    HW223487   3.319   1.380   6.798  0.1075  2.2765  2.0116
 3952SOL     OW23488   0.897   1.250   9.226 -0.7557  0.1289 -0.1183
 3952SOL    HW123489   0.826   1.210   9.175 -0.8521  0.6297 -0.3835
 3952SOL    HW223490   0.950   1.173   9.246  1.2588  2.0151  1.7872
 3953SOL     OW23491   0.294   3.038   3.022  0.3748  0.4328 -0.0010
 3953SOL    HW123492   0.364   3.019   3.084 -2.1079 -2.8369  1.8222
 3953SOL    HW223493   0.233   3.087   3.077  1.5651  0.7162  1.0567
 3954SOL     OW23494   4.550   1.801   5.652  0.0225 -0.1021  0.3419
 3954SOL    HW123495   4.556   1.708   5.630  0.3477  0.2455 -1.0010
 3954SOL    HW223496   4.503   1.799   5.735  0.4012  0.4599  0.5734
 3955SOL     OW23497   2.852   4.067   6.022 -0.6586 -0.5541  0.5068
 3955SOL    HW123498   2.882   4.087   5.933 -2.7238  0.9558  0.1507
 3955SOL    HW223499   2.928   4.103   6.068 -0.2912  0.1075 -0.6048
 3956SOL     OW23500   1.550   2.658   1.869 -0.0141 -0.4071 -0.1534
 3956SOL    HW123501   1.470   2.663   1.922  0.4711  0.5039  0.4880
 3956SOL    HW223502   1.612   2.707   1.922  0.1881 -1.8171  0.9073
 3957SOL     OW23503   2.088   2.383   6.605  0.1093  0.0764  0.3632
 3957SOL    HW123504   2.041   2.391   6.688 -0.3997  1.5603 -0.0708
 3957SOL    HW223505   2.119   2.472   6.588  1.1432 -0.4540 -0.5494
 3958SOL     OW23506   1.932   0.683   8.779  0.7311 -0.4046  0.0247
 3958SOL    HW123507   1.932   0.613   8.844 -0.0832  0.8239  1.3434
 3958SOL    HW223508   1.838   0.681   8.761  1.1096  2.2371 -2.2624
 3959SOL     OW23509   3.993   0.612   7.848 -0.8137  0.7073 -0.1314
 3959SOL    HW123510   3.955   0.666   7.778  1.3617  0.1430 -1.7568
 3959SOL    HW223511   3.962   0.648   7.931  1.3651  1.6254  0.2749
 3960SOL     OW23512   2.365   3.213   2.441  0.1295 -0.2554  0.1252
 3960SOL    HW123513   2.447   3.262   2.442 -0.8880  1.4653  1.2069
 3960SOL    HW223514   2.395   3.128   2.410  0.8179  0.3694 -0.8734
 3961SOL     OW23515   3.300   2.519  10.650  0.0024  0.4783  0.3811
 3961SOL    HW123516   3.299   2.429  10.619  0.4314  0.2900  0.9222
 3961SOL    HW223517   3.318   2.510  10.744 -0.8249  2.1420  0.7160
 3962SOL     OW23518   0.095   2.669   4.735 -0.2238 -0.3374 -0.3167
 3962SOL    HW123519   0.025   2.621   4.692  1.0359 -2.6919  0.2419
 3962SOL    HW223520   0.080   2.645   4.827 -1.3950  0.0266 -0.4157
 3963SOL     OW23521   4.610   4.554   2.509  0.3444 -0.1582 -0.3208
 3963SOL    HW123522   4.582   4.558   2.600  0.0797 -0.6801 -0.3838
 3963SOL    HW223523   4.527   4.535   2.466  2.3609 -0.8914 -3.9467
 3964SOL     OW23524   4.497   3.357   2.583 -0.3939 -0.4868 -0.0822
 3964SOL    HW123525   4.461   3.415   2.516  0.1102 -0.2791 -0.1715
 3964SOL    HW223526   4.572   3.411   2.608 -0.1365 -0.9822  0.2321
 3965SOL     OW23527   2.315   2.350   4.192 -0.4314  0.3495 -0.3209
 3965SOL    HW123528   2.346   2.262   4.211  0.2536 -0.0378 -3.1335
 3965SOL    HW223529   2.360   2.402   4.259 -1.1884  0.6273 -0.0336
 3966SOL     OW23530   2.287   4.633   3.796 -0.5515 -0.8295  0.9049
 3966SOL    HW123531   2.273   4.705   3.858 -1.7678  0.8844 -1.3840
 3966SOL    HW223532   2.219   4.646   3.730 -0.1768  1.9775  1.0903
 3967SOL     OW23533   3.422   2.541  10.911  0.3178  0.2587  0.4795
 3967SOL    HW123534   3.358   2.598  10.954  0.4176  0.1262  0.8072
 3967SOL    HW223535   3.435   2.473  10.977  2.5853  0.1327 -0.0869
 3968SOL     OW23536   3.919   4.570   9.665  0.4616  0.0828 -0.3117
 3968SOL    HW123537   3.970   4.496   9.630 -1.1187 -0.9166 -0.5029
 3968SOL    HW223538   3.853   4.583   9.597  1.1559  1.0697 -0.7857
 3969SOL     OW23539   0.014   3.360   1.046  0.2692  0.2818 -0.0975
 3969SOL    HW123540   4.709   3.384   1.126  1.0971 -1.7387  0.9926
 3969SOL    HW223541   0.085   3.303   1.077 -0.5459 -0.5488  0.2349
 3970SOL     OW23542   0.998   3.751   8.587 -0.2539  0.2064  0.3780
 3970SOL    HW123543   0.917   3.760   8.536  0.1630 -0.6959 -0.4450
 3970SOL    HW223544   0.971   3.802   8.664  1.7017 -0.4606  1.4862
 3971SOL     OW23545   1.321   1.410   7.126 -0.0700  0.3708 -0.1499
 3971SOL    HW123546   1.338   1.319   7.101 -2.6315 -0.0162 -0.4908
 3971SOL    HW223547   1.281   1.384   7.209  1.9388 -1.3779  0.2542
 3972SOL     OW23548   3.537   1.867   5.390  0.0659  0.1314  0.5552
 3972SOL    HW123549   3.495   1.835   5.470  1.6929  0.1620  1.4103
 3972SOL    HW223550   3.496   1.953   5.379 -0.2286 -0.2313 -1.1330
 3973SOL     OW23551   0.198   0.157   8.084 -0.5896 -0.2632 -0.8937
 3973SOL    HW123552   0.192   0.066   8.053  0.9258 -0.9331  0.8072
 3973SOL    HW223553   0.166   0.197   8.003 -0.6963 -1.9307 -1.6835
 3974SOL     OW23554   2.796   3.975   5.694  0.4008 -0.1738  0.3572
 3974SOL    HW123555   2.839   4.058   5.676 -2.3202  0.7772 -1.5999
 3974SOL    HW223556   2.713   4.005   5.731  1.9487  0.3139  3.4162
 3975SOL     OW23557   4.293   4.523   8.805  0.0545 -0.5613  0.0762
 3975SOL    HW123558   4.366   4.486   8.755 -0.8042  1.7363 -2.8757
 3975SOL    HW223559   4.335   4.607   8.824  0.8567 -1.4814  2.3063
 3976SOL     OW23560   3.581   4.418   5.576 -0.3650 -0.1106  0.1058
 3976SOL    HW123561   3.554   4.385   5.490  3.7322 -1.2149 -0.7540
 3976SOL    HW223562   3.670   4.444   5.556 -0.9308  0.0761 -2.1991
 3977SOL     OW23563   4.031   3.544  10.000  0.2868 -0.1635 -0.3259
 3977SOL    HW123564   4.044   3.597  10.079  0.7300  0.6361 -0.9429
 3977SOL    HW223565   3.947   3.586   9.981  0.4129  0.8859  1.4372
 3978SOL     OW23566   4.093   1.569   8.962  0.4874 -0.5110  0.1352
 3978SOL    HW123567   4.079   1.489   8.911  1.8438 -2.8965  3.4817
 3978SOL    HW223568   4.079   1.637   8.897 -0.5988 -1.5145 -0.6897
 3979SOL     OW23569   2.111   1.328   3.779 -0.4733 -0.1604 -0.5489
 3979SOL    HW123570   2.094   1.234   3.779 -0.4331 -0.1683 -0.6475
 3979SOL    HW223571   2.056   1.369   3.711  1.7950 -1.8187 -3.3878
 3980SOL     OW23572   0.966   2.975  17.128 -0.3513  0.5657  0.1282
 3980SOL    HW123573   0.975   3.002  17.037 -0.8264 -1.0839 -0.4038
 3980SOL    HW223574   1.039   2.913  17.124 -0.1752  0.8368 -0.9863
 3981SOL     OW23575   2.263   4.514   3.186 -0.7079  0.6186  0.3989
 3981SOL    HW123576   2.182   4.462   3.192 -0.6257  0.4174 -0.2263
 3981SOL    HW223577   2.249   4.605   3.211  4.7908  1.4739  0.2614
 3982SOL     OW23578   0.411   2.721  11.351 -0.2759 -0.2244  0.2427
 3982SOL    HW123579   0.491   2.690  11.392 -1.6280 -2.5085  1.1737
 3982SOL    HW223580   0.431   2.734  11.259 -0.4483  2.3105  0.5681
 3983SOL     OW23581   1.135   4.606  14.465 -0.0207 -0.4742  0.5889
 3983SOL    HW123582   1.072   4.559  14.411  0.3695  2.1689 -2.1687
 3983SOL    HW223583   1.167   4.674  14.406 -0.7431 -1.3388 -0.7881
 3984SOL     OW23584   1.538   0.792   8.251 -0.4826 -0.1068  0.1064
 3984SOL    HW123585   1.590   0.873   8.257 -1.3407  0.5317 -1.0688
 3984SOL    HW223586   1.612   0.735   8.231 -1.0361 -0.6382 -0.3915
 3985SOL     OW23587   3.373   0.336   5.662 -0.7056 -0.5554  0.3068
 3985SOL    HW123588   3.341   0.310   5.576 -1.3333  0.4042  0.2482
 3985SOL    HW223589   3.454   0.378   5.634 -0.5815 -1.2303 -0.3394
 3986SOL     OW23590   3.274   2.260  10.588  0.4656  0.3217  0.4078
 3986SOL    HW123591   3.288   2.196  10.518 -1.1905 -1.2013  1.4555
 3986SOL    HW223592   3.182   2.243  10.607  0.4022 -0.3805 -0.4957
 3987SOL     OW23593   2.165   3.206  12.866 -0.2771  0.2553  0.1636
 3987SOL    HW123594   2.188   3.122  12.826  0.6473  0.9002 -0.6627
 3987SOL    HW223595   2.075   3.195  12.897 -0.2469 -0.2724  0.0747
 3988SOL     OW23596   3.399   2.941   2.531 -0.0320  0.1202  0.2077
 3988SOL    HW123597   3.356   2.959   2.447 -0.1987  2.9509  0.8901
 3988SOL    HW223598   3.471   3.003   2.523 -1.8204  2.4872  2.1833
 3989SOL     OW23599   3.268   4.006   7.745 -0.0943 -0.0959 -0.4785
 3989SOL    HW123600   3.207   3.949   7.698  0.1070 -0.2476 -0.5535
 3989SOL    HW223601   3.352   3.986   7.703 -0.0964  1.8727 -1.4642
 3990SOL     OW23602   0.008   2.616  12.375  0.1925 -0.0319  0.8615
 3990SOL    HW123603   0.089   2.631  12.327  0.9230 -0.5624  1.9469
 3990SOL    HW223604   4.682   2.675  12.339  2.7349  1.2068 -1.8124
 3991SOL     OW23605   2.328   2.041  13.179  0.3756  0.3390 -0.3190
 3991SOL    HW123606   2.316   1.952  13.147 -0.0118  0.4660 -0.5366
 3991SOL    HW223607   2.422   2.043  13.197  0.0949 -0.3975  1.2500
 3992SOL     OW23608   1.049   0.563   6.091 -0.8333 -0.4586  0.1879
 3992SOL    HW123609   1.083   0.599   6.009  1.3289 -0.4736  1.0915
 3992SOL    HW223610   1.089   0.477   6.081 -0.9268 -0.5490  0.5715
 3993SOL     OW23611   0.697   2.954   5.580  0.1404  0.3906 -0.4466
 3993SOL    HW123612   0.608   2.953   5.616  0.6408  0.4246  0.7992
 3993SOL    HW223613   0.721   3.045   5.600  0.6983  0.3650 -1.0169
 3994SOL     OW23614   4.488   3.103   7.269 -0.6450 -0.0718  0.0314
 3994SOL    HW123615   4.408   3.056   7.242  0.8125 -1.3529 -2.0509
 3994SOL    HW223616   4.555   3.043   7.235  1.3310  1.0819  1.9141
 3995SOL     OW23617   0.635   0.722   7.894  0.1890  0.6476 -0.1355
 3995SOL    HW123618   0.679   0.785   7.951  0.7996  0.9011 -0.8908
 3995SOL    HW223619   0.620   0.781   7.819 -2.1001 -0.2595 -0.3981
 3996SOL     OW23620   3.421   4.616   3.497 -0.2256  0.4321  0.8658
 3996SOL    HW123621   3.330   4.646   3.495 -0.0737  0.7404 -1.5300
 3996SOL    HW223622   3.465   4.694   3.530 -1.4369  2.0368 -1.2639
 3997SOL     OW23623   1.696   0.055   2.700 -0.0772  0.1745 -0.1281
 3997SOL    HW123624   1.787   0.052   2.670 -0.5077  0.0245 -1.4572
 3997SOL    HW223625   1.669   4.705   2.686  3.8240 -0.6620 -2.2804
 3998SOL     OW23626   4.676   1.294  14.918  0.0020 -0.4142  0.1893
 3998SOL    HW123627   4.610   1.326  14.979 -0.2219 -1.4655  0.4981
 3998SOL    HW223628   4.620   1.249  14.855  0.0404 -2.5071  1.6585
 3999SOL     OW23629   3.738   1.211   7.629  0.1796  0.3676  0.1806
 3999SOL    HW123630   3.653   1.249   7.652  0.7392  0.6422  1.7560
 3999SOL    HW223631   3.794   1.275   7.673  0.6981 -1.7624  2.6340
 4000SOL     OW23632   3.879   2.832  13.678  0.0850 -0.8690  0.0028
 4000SOL    HW123633   3.846   2.841  13.768 -1.2863 -0.8598 -0.4943
 4000SOL    HW223634   3.961   2.790  13.702  0.6310  0.2133 -0.0011
 4001SOL     OW23635   4.036   3.008   4.007 -0.1232 -0.0980 -0.0381
 4001SOL    HW123636   3.996   2.962   3.932 -4.5173  0.5756  1.8558
 4001SOL    HW223637   3.973   3.030   4.076 -0.6963  1.1247 -0.9402
 4002SOL     OW23638   2.588   0.126   5.575  0.4882  0.0654  0.3005
 4002SOL    HW123639   2.556   0.202   5.625  0.2000  0.8609 -1.0927
 4002SOL    HW223640   2.651   0.170   5.519  1.6482  0.4183  1.8856
 4003SOL     OW23641   3.600   2.064  10.667  0.6701 -0.8509  0.1293
 4003SOL    HW123642   3.558   2.128  10.724 -0.4230 -2.1609  0.7901
 4003SOL    HW223643   3.692   2.083  10.684  0.0676  3.3738 -1.2463
 4004SOL     OW23644   4.632   3.965   2.450  0.8761  0.2742  0.0458
 4004SOL    HW123645   4.651   3.987   2.542 -1.8714 -1.0514  0.9591
 4004SOL    HW223646   4.574   3.890   2.463  0.3857  0.9507  1.9036
 4005SOL     OW23647   3.726   0.344   3.870 -0.2568 -0.0555  0.3931
 4005SOL    HW123648   3.684   0.360   3.955 -0.4739  0.2856  0.2218
 4005SOL    HW223649   3.761   0.257   3.887  1.1791  0.8108  1.8439
 4006SOL     OW23650   0.671   2.704   3.223  0.4752  0.1035  0.3910
 4006SOL    HW123651   0.683   2.755   3.303 -2.5054 -0.4154  1.1747
 4006SOL    HW223652   0.754   2.719   3.176  0.5880  1.8033  1.1337
 4007SOL     OW23653   0.043   3.724   5.423 -0.2189 -0.4537  0.4342
 4007SOL    HW123654   4.713   3.767   5.376 -1.5112 -1.7766  1.1648
 4007SOL    HW223655   0.111   3.791   5.422 -0.3439 -0.3678 -1.9774
 4008SOL     OW23656   3.261   1.246   3.742  0.4478 -0.0335  0.0364
 4008SOL    HW123657   3.199   1.316   3.766 -0.1363 -0.5131 -0.0726
 4008SOL    HW223658   3.269   1.264   3.649 -1.3171 -0.9683 -0.2984
 4009SOL     OW23659   2.264   0.455  13.883 -0.2862  0.3917 -0.1572
 4009SOL    HW123660   2.179   0.478  13.922 -0.4485  0.9632 -0.8462
 4009SOL    HW223661   2.249   0.483  13.793  0.4014  0.1683 -0.3368
 4010SOL     OW23662   3.094   2.336   8.885  0.7169 -0.4631 -0.0938
 4010SOL    HW123663   3.057   2.260   8.839 -0.7519 -0.4435  1.0733
 4010SOL    HW223664   3.121   2.300   8.969 -0.6343  0.4994  0.7345
 4011SOL     OW23665   4.363   1.510   1.801  0.1652 -0.1392  0.5144
 4011SOL    HW123666   4.392   1.421   1.783 -2.5845 -0.3794 -2.6623
 4011SOL    HW223667   4.362   1.522   1.896 -0.3312 -1.7012  0.7032
 4012SOL     OW23668   1.025   3.202  12.109 -0.2104 -0.0555 -0.1797
 4012SOL    HW123669   0.988   3.241  12.188 -2.1848  1.3984 -1.8061
 4012SOL    HW223670   1.086   3.273  12.088  1.9796 -1.5194  1.2581
 4013SOL     OW23671   0.348   2.236  16.506  0.0451  0.3839 -0.1450
 4013SOL    HW123672   0.403   2.178  16.558 -0.7088 -0.9525 -0.8449
 4013SOL    HW223673   0.307   2.285  16.577  1.7009  1.4788  0.0490
 4014SOL     OW23674   2.157   4.099   4.933 -0.9316 -0.0370  0.3833
 4014SOL    HW123675   2.208   4.076   4.856  2.9860  0.2339  2.8966
 4014SOL    HW223676   2.205   4.163   4.985 -1.4474  0.2650  0.4902
 4015SOL     OW23677   3.436   1.185   6.585  0.1772 -0.2708  0.1838
 4015SOL    HW123678   3.528   1.165   6.600  0.4572  0.9852  0.0977
 4015SOL    HW223679   3.406   1.118   6.646  0.5722 -0.6570 -0.0489
 4016SOL     OW23680   0.097   0.297   9.507 -0.2347 -0.6228  0.0925
 4016SOL    HW123681   0.175   0.265   9.462 -0.6840  0.8655 -1.7488
 4016SOL    HW223682   0.120   0.390   9.509 -1.1181 -0.3807 -1.1783
 4017SOL     OW23683   0.817   1.053   1.461  0.0786 -0.0627  0.8007
 4017SOL    HW123684   0.907   1.021   1.448  0.1592  0.9950 -1.2453
 4017SOL    HW223685   0.781   0.991   1.523 -2.1071 -0.4070 -0.8222
 4018SOL     OW23686   2.054   4.699   5.891  0.2753 -0.0993  0.1334
 4018SOL    HW123687   2.034   4.629   5.828  1.6675 -0.4041  0.0231
 4018SOL    HW223688   2.130   4.664   5.937 -1.5787 -1.6376  2.0057
 4019SOL     OW23689   0.632   2.955   4.596 -0.1068 -0.4065  0.1658
 4019SOL    HW123690   0.675   2.873   4.573 -1.0519 -0.6374 -0.7826
 4019SOL    HW223691   0.539   2.936   4.584 -0.6994  3.0264 -0.7501
 4020SOL     OW23692   0.897   2.340   9.586  0.7332  0.3856  0.1428
 4020SOL    HW123693   0.952   2.262   9.579 -1.1178 -0.7268 -1.8072
 4020SOL    HW223694   0.903   2.383   9.501 -0.2727 -0.9737 -0.6007
 4021SOL     OW23695   0.454   4.703   7.003  0.9397 -0.2533 -0.0674
 4021SOL    HW123696   0.507   4.684   7.080  0.7738  1.1834  0.4186
 4021SOL    HW223697   0.460   0.058   7.001 -0.5376 -0.1553  0.4478
 4022SOL     OW23698   3.329   0.468   3.925 -0.2551  0.1383  0.2421
 4022SOL    HW123699   3.307   0.550   3.968 -0.3195  0.2857 -0.0775
 4022SOL    HW223700   3.420   0.473   3.895 -0.4415  2.7240  0.1447
 4023SOL     OW23701   2.288   1.330   6.477 -0.2477 -0.3830 -0.5489
 4023SOL    HW123702   2.350   1.262   6.451  1.9793  1.2719  0.5157
 4023SOL    HW223703   2.209   1.297   6.434  0.1632 -1.2026 -0.6751
 4024SOL     OW23704   0.534   2.209  16.911  0.6030  0.0741  0.3614
 4024SOL    HW123705   0.612   2.258  16.885  0.8507 -0.1931  0.5950
 4024SOL    HW223706   0.493   2.281  16.958  0.0568  0.7800 -1.1975
 4025SOL     OW23707   2.242   1.490   9.085 -0.3097  0.1866  0.1038
 4025SOL    HW123708   2.294   1.464   9.009  1.3198 -0.6153  1.5016
 4025SOL    HW223709   2.152   1.461   9.067 -1.5587  2.2845  3.0079
 4026SOL     OW23710   1.181   1.346  12.562 -0.6147 -0.1899  0.3516
 4026SOL    HW123711   1.095   1.369  12.527  0.1643  1.2439 -0.6526
 4026SOL    HW223712   1.170   1.251  12.552 -0.9402 -0.1256  0.1200
 4027SOL     OW23713   2.914   2.030   9.336 -0.8363 -0.3590 -0.0166
 4027SOL    HW123714   2.945   1.998   9.421  0.8636  1.1286 -0.0819
 4027SOL    HW223715   2.857   2.102   9.364 -0.8449  0.4118 -2.0207
 4028SOL     OW23716   4.003   0.048   8.739 -0.5114  0.0962  0.4056
 4028SOL    HW123717   4.093   0.077   8.756  0.2684 -1.1840 -1.5269
 4028SOL    HW223718   4.015   4.720   8.674  0.7969  0.9633 -0.2647
 4029SOL     OW23719   3.229   1.766   7.981 -0.4895 -0.1757 -0.2291
 4029SOL    HW123720   3.163   1.835   7.989 -0.7293 -0.0880 -2.8006
 4029SOL    HW223721   3.184   1.687   8.010  1.4885 -0.6315  1.5532
 4030SOL     OW23722   3.594   3.492   6.759  0.1304 -0.5748 -0.2660
 4030SOL    HW123723   3.600   3.545   6.838  1.1665 -0.2682 -0.5496
 4030SOL    HW223724   3.684   3.465   6.739  0.1904 -0.9809  0.5894
 4031SOL     OW23725   1.666   4.251   8.006 -0.3697  0.0317 -0.4739
 4031SOL    HW123726   1.591   4.199   8.035 -0.3060 -0.2063 -0.7338
 4031SOL    HW223727   1.694   4.190   7.937 -2.0465  1.3174 -2.2956
 4032SOL     OW23728   4.620   0.908  10.711  0.3476 -0.1115  0.1384
 4032SOL    HW123729   4.547   0.917  10.773  0.8228  0.8932  0.5500
 4032SOL    HW223730   4.651   0.998  10.704 -1.8729  0.5807 -0.9793
 4033SOL     OW23731   1.306   4.177   1.665  0.3310  0.4100 -0.4983
 4033SOL    HW123732   1.386   4.226   1.647  0.1534  0.7553 -0.3465
 4033SOL    HW223733   1.263   4.185   1.579 -0.4713 -0.6390 -0.1907
 4034SOL     OW23734   1.314   4.549   3.933  0.8003  0.0505  0.3446
 4034SOL    HW123735   1.220   4.541   3.949  0.8302 -0.0953  0.4381
 4034SOL    HW223736   1.332   4.486   3.863  1.0516 -1.9509  2.2365
 4035SOL     OW23737   2.471   1.660   2.449  0.2178  0.0315  0.2899
 4035SOL    HW123738   2.419   1.624   2.521 -0.5775 -1.4292 -1.0297
 4035SOL    HW223739   2.561   1.661   2.483 -0.4093  0.6992  1.9309
 4036SOL     OW23740   0.104   0.645  15.059  0.2002  0.1812 -0.0820
 4036SOL    HW123741   0.016   0.619  15.034  0.3527 -0.8870  0.4755
 4036SOL    HW223742   0.144   0.667  14.975  1.9321 -0.1180  0.6536
 4037SOL     OW23743   3.822   2.613   5.042 -0.1009  0.2803  0.7776
 4037SOL    HW123744   3.880   2.665   5.099  1.9235  0.4595 -1.4241
 4037SOL    HW223745   3.805   2.678   4.974 -1.3226  2.4093  3.0740
 4038SOL     OW23746   0.598   0.920  15.165  0.0215  0.2495  0.2513
 4038SOL    HW123747   0.510   0.942  15.136  0.5804  0.3361 -1.4038
 4038SOL    HW223748   0.641   0.990  15.116 -1.7265  0.5594 -0.8383
 4039SOL     OW23749   3.643   4.055   7.808  0.1419 -0.5921 -0.4094
 4039SOL    HW123750   3.738   4.045   7.814  0.2195 -0.4448 -1.3819
 4039SOL    HW223751   3.615   4.012   7.889  3.8195 -2.0161  0.0848
 4040SOL     OW23752   0.448   4.688   5.038 -0.0452  0.3087 -0.0192
 4040SOL    HW123753   0.422   4.619   5.100 -0.6913  0.9817  0.4661
 4040SOL    HW223754   0.507   4.638   4.982  0.6225  0.5578  0.4624
 4041SOL     OW23755   2.124   4.434  10.402  0.1368  0.1759 -0.0250
 4041SOL    HW123756   2.037   4.398  10.386  0.0148 -0.0398  1.1771
 4041SOL    HW223757   2.097   4.506  10.459 -0.0393 -0.4232  0.6483
 4042SOL     OW23758   0.843   1.558   0.966 -0.5008  0.2668 -0.3680
 4042SOL    HW123759   0.862   1.474   1.009  1.2659  0.8008 -0.1072
 4042SOL    HW223760   0.782   1.528   0.898  0.8403 -0.8662 -1.0611
 4043SOL     OW23761   2.840   4.586   2.596 -0.3107  0.3700  0.0252
 4043SOL    HW123762   2.746   4.589   2.580 -0.3432 -1.3750 -0.1763
 4043SOL    HW223763   2.848   4.591   2.691 -0.7006 -2.1371  0.1881
 4044SOL     OW23764   0.661   1.759   8.494  0.2192 -0.2700  0.5505
 4044SOL    HW123765   0.606   1.837   8.491  0.5083 -0.0469  1.1043
 4044SOL    HW223766   0.672   1.739   8.587  1.7439 -1.6603  0.0727
 4045SOL     OW23767   4.198   0.179   4.062  0.2339 -0.9164  0.1769
 4045SOL    HW123768   4.191   0.121   3.986  0.1342 -0.9932  0.2462
 4045SOL    HW223769   4.110   0.183   4.098  0.1663  0.9849 -0.1746
 4046SOL     OW23770   4.110   0.889   5.572 -0.1377 -0.9257 -0.5123
 4046SOL    HW123771   4.017   0.870   5.561 -1.2328  1.4684  4.5543
 4046SOL    HW223772   4.111   0.907   5.666  1.0322  1.3896 -0.9715
 4047SOL     OW23773   3.162   3.940   2.716  0.0042  0.0001  0.0995
 4047SOL    HW123774   3.161   4.035   2.703  1.3275  0.0452  0.2584
 4047SOL    HW223775   3.239   3.938   2.773  0.5743 -1.0228 -0.6994
 4048SOL     OW23776   2.153   1.773   2.069  0.3124  0.4250 -0.1694
 4048SOL    HW123777   2.239   1.789   2.109  0.4676 -0.3795 -0.1921
 4048SOL    HW223778   2.185   1.741   1.985 -1.6487 -0.1334 -0.6923
 4049SOL     OW23779   2.475   1.168   7.638 -0.5781 -0.3142  0.0060
 4049SOL    HW123780   2.466   1.255   7.600  2.4160 -0.5450 -1.2103
 4049SOL    HW223781   2.457   1.112   7.563  2.4370 -1.5472  0.1901
 4050SOL     OW23782   2.285   2.958   3.678  0.3642 -0.6221  0.0431
 4050SOL    HW123783   2.376   2.930   3.676  0.8198  0.8055  1.0930
 4050SOL    HW223784   2.240   2.893   3.624  0.5823  1.7486 -2.9616
 4051SOL     OW23785   4.259   4.697   5.590  0.0935 -0.2392 -0.4497
 4051SOL    HW123786   4.234   4.610   5.561  0.7636 -0.8811  0.8816
 4051SOL    HW223787   4.331   4.685   5.653 -2.4975 -2.8873  1.9952
 4052SOL     OW23788   0.370   4.091   2.484 -0.2022 -0.5817  0.6928
 4052SOL    HW123789   0.310   4.092   2.410 -0.1524 -1.0292  0.6514
 4052SOL    HW223790   0.345   4.011   2.531 -0.7080 -0.6173  0.3623
 4053SOL     OW23791   1.437   1.387   9.843 -0.5172 -0.2379  0.1917
 4053SOL    HW123792   1.493   1.327   9.894 -2.7225 -1.8984  0.6425
 4053SOL    HW223793   1.500   1.451   9.810  0.0842 -0.8114  0.2384
 4054SOL     OW23794   0.707   3.932   2.062 -0.1750 -0.4201 -0.2485
 4054SOL    HW123795   0.779   3.994   2.074 -1.4515  0.8779  0.6017
 4054SOL    HW223796   0.724   3.862   2.125  1.5856  1.2293  1.1112
 4055SOL     OW23797   2.761   3.959  11.129 -0.2936  0.0294  0.2376
 4055SOL    HW123798   2.672   3.951  11.096  0.2939  1.4423 -1.6350
 4055SOL    HW223799   2.762   3.887  11.193  2.1500 -1.2266 -1.1943
 4056SOL     OW23800   2.678   2.770   2.017 -0.2414 -0.1484  0.0866
 4056SOL    HW123801   2.759   2.722   2.031  0.4781  0.1939 -2.9929
 4056SOL    HW223802   2.706   2.837   1.954 -2.4041  0.8661  0.1650
 4057SOL     OW23803   3.407   3.350   5.067  0.2671  0.7295  0.0820
 4057SOL    HW123804   3.339   3.348   5.000  1.3066 -2.1804 -0.8502
 4057SOL    HW223805   3.409   3.259   5.095  3.0658  0.1099 -2.2795
 4058SOL     OW23806   1.755   2.021  15.791  0.3873 -0.1074  0.0339
 4058SOL    HW123807   1.714   1.939  15.764 -1.2135  0.6264  0.2284
 4058SOL    HW223808   1.745   2.015  15.886  0.2090  0.5172  0.0505
 4059SOL     OW23809   4.133   1.479   8.004 -0.0714 -0.2245  0.2965
 4059SOL    HW123810   4.073   1.535   8.054  1.2950  0.6178  0.9831
 4059SOL    HW223811   4.214   1.491   8.054  1.1486 -0.1055 -1.7480
 4060SOL     OW23812   0.906   0.679   8.572  0.2199 -0.4014 -0.5018
 4060SOL    HW123813   0.842   0.725   8.627  0.0029 -0.5646 -0.6169
 4060SOL    HW223814   0.843   0.625   8.526 -1.3574 -0.0684  1.2600
 4061SOL     OW23815   0.239   2.710  12.150 -0.0934  0.1054 -0.1695
 4061SOL    HW123816   0.282   2.755  12.077 -1.1001 -1.2739 -1.6171
 4061SOL    HW223817   0.154   2.753  12.158 -0.4694 -0.4018 -1.4236
 4062SOL     OW23818   3.237   2.504  14.678 -0.0891 -0.3439  0.0438
 4062SOL    HW123819   3.314   2.505  14.622  0.0664  0.6777  0.2750
 4062SOL    HW223820   3.207   2.415  14.660  1.4307 -1.3755  2.6918
 4063SOL     OW23821   0.563   1.506  17.051  0.0775  0.1335  0.6405
 4063SOL    HW123822   0.529   1.440  16.991 -0.1426  0.8163  0.0126
 4063SOL    HW223823   0.490   1.534  17.107 -0.7106 -3.4327  1.4124
 4064SOL     OW23824   3.830   1.156  12.263 -0.1061  0.2711 -0.1827
 4064SOL    HW123825   3.747   1.196  12.288  0.2683 -0.2404  1.9282
 4064SOL    HW223826   3.817   1.068  12.299 -0.7146 -0.0272 -1.1313
 4065SOL     OW23827   1.663   3.489   2.672 -0.0324 -0.1449  0.5773
 4065SOL    HW123828   1.606   3.521   2.603 -1.3302 -3.0225  0.3114
 4065SOL    HW223829   1.727   3.445   2.616 -0.6303  0.9173 -0.9311
 4066SOL     OW23830   1.166   3.080  16.270 -0.1463  0.6886 -0.2480
 4066SOL    HW123831   1.193   3.111  16.356 -0.6895  0.9497 -0.1743
 4066SOL    HW223832   1.086   3.127  16.250  0.9925  1.2656 -3.4825
 4067SOL     OW23833   3.372   4.285   8.224 -0.0484  0.6367  0.2949
 4067SOL    HW123834   3.309   4.224   8.185 -0.5434 -0.3061  2.5889
 4067SOL    HW223835   3.433   4.298   8.151  2.1739  0.8268  2.1959
 4068SOL     OW23836   0.008   2.059   4.392  0.1537  0.0660 -0.1185
 4068SOL    HW123837   0.064   2.008   4.334 -1.7559 -2.3462  0.1401
 4068SOL    HW223838   0.006   1.991   4.460 -0.2799 -1.1350 -1.3277
 4069SOL     OW23839   2.534   4.410  12.895 -0.6632  0.4520 -0.1071
 4069SOL    HW123840   2.440   4.404  12.912 -0.2646  2.1301  2.6675
 4069SOL    HW223841   2.552   4.329  12.848 -0.5377  0.7591 -0.5890
 4070SOL     OW23842   4.127   3.867   2.327  0.0739 -0.0029  0.0428
 4070SOL    HW123843   4.138   3.906   2.413  0.3459  2.6537 -1.2065
 4070SOL    HW223844   4.120   3.773   2.347 -1.4677 -0.4234 -2.3837
 4071SOL     OW23845   0.190   3.726  16.168 -0.1051 -0.3125  0.5258
 4071SOL    HW123846   0.155   3.639  16.150  0.2421 -1.1635  3.9817
 4071SOL    HW223847   0.139   3.775  16.104  1.1856 -0.0171 -0.2646
 4072SOL     OW23848   3.042   1.695  13.083 -0.0764  0.1077  0.0478
 4072SOL    HW123849   2.987   1.618  13.068 -2.1738  1.3364  1.4310
 4072SOL    HW223850   3.009   1.716  13.170 -1.5894  1.2381 -0.7918
 4073SOL     OW23851   0.654   1.998   3.167  0.5002  0.2879  0.2478
 4073SOL    HW123852   0.697   2.046   3.238 -1.5279  3.8496 -0.9347
 4073SOL    HW223853   0.733   1.949   3.145  0.7808  0.6784  0.3844
 4074SOL     OW23854   4.061   0.022  15.477  0.3948  0.6327  0.1503
 4074SOL    HW123855   4.019   4.692  15.427  1.5053  0.0367  0.0521
 4074SOL    HW223856   3.994   0.086  15.454 -1.3732 -0.5416  2.1143
 4075SOL     OW23857   1.843   3.594   4.969 -0.1209  0.1035 -0.2048
 4075SOL    HW123858   1.781   3.655   5.009  2.2150  0.7183  2.4226
 4075SOL    HW223859   1.908   3.663   4.954  2.6570 -2.6469 -0.7935
 4076SOL     OW23860   2.462   3.667  13.656 -0.0094  0.3455 -0.3191
 4076SOL    HW123861   2.543   3.685  13.703 -1.1700  2.8238  0.7693
 4076SOL    HW223862   2.402   3.725  13.704  1.4309  0.9541  0.7611
 4077SOL     OW23863   0.101   3.470   7.244  0.6085  0.1005 -0.4039
 4077SOL    HW123864   0.195   3.462   7.229  0.0468 -2.8569 -2.2869
 4077SOL    HW223865   0.094   3.389   7.294 -1.0327 -0.1034 -0.9667
 4078SOL     OW23866   4.003   0.657   1.482  0.1894  0.4556 -0.1295
 4078SOL    HW123867   4.028   0.731   1.538  0.3229 -0.4827  1.0515
 4078SOL    HW223868   3.993   0.695   1.395 -1.6444 -1.3815 -0.7024
 4079SOL     OW23869   0.442   3.526   6.242  0.1466 -0.0422 -0.2448
 4079SOL    HW123870   0.470   3.434   6.240 -2.4757 -0.8188 -0.6627
 4079SOL    HW223871   0.407   3.536   6.331 -2.3031  1.0516 -1.3589
 4080SOL     OW23872   2.875   3.691   4.593  0.0600  0.3818  0.0161
 4080SOL    HW123873   2.811   3.629   4.557  2.1009 -1.9898  0.4507
 4080SOL    HW223874   2.958   3.656   4.560  0.0580  0.0887  0.3246
 4081SOL     OW23875   2.059   3.149   3.943  0.0204  0.3076  0.2211
 4081SOL    HW123876   2.076   3.129   3.851 -0.7137  2.2241 -0.3243
 4081SOL    HW223877   2.126   3.214   3.965  1.3504 -0.4840 -1.4348
 4082SOL     OW23878   1.380   0.133   2.586  0.4894  0.5381 -0.1916
 4082SOL    HW123879   1.393   0.044   2.619  2.2789  0.6544 -0.5884
 4082SOL    HW223880   1.412   0.185   2.660  1.3716 -0.1474 -0.0968
 4083SOL     OW23881   0.300   0.735  16.360  0.4103  0.1972 -0.0351
 4083SOL    HW123882   0.380   0.784  16.380 -0.1576  0.7004  1.0165
 4083SOL    HW223883   0.311   0.662  16.422  0.3064 -1.6990 -2.2471
 4084SOL     OW23884   0.369   0.265   3.062 -0.0795 -0.1486  0.4155
 4084SOL    HW123885   0.429   0.337   3.080 -0.4350  0.1110  0.5712
 4084SOL    HW223886   0.376   0.274   2.967 -2.5485 -1.9133  0.0482
 4085SOL     OW23887   1.322   2.631  15.091  0.0439  0.4568  0.5626
 4085SOL    HW123888   1.264   2.668  15.024  0.1829 -1.7507 -0.7576
 4085SOL    HW223889   1.363   2.708  15.131  2.6528 -1.2335  1.1642
 4086SOL     OW23890   3.367   4.664   1.756  0.3206 -0.0258 -0.7752
 4086SOL    HW123891   3.458   4.642   1.773  0.3007 -2.2332 -3.6608
 4086SOL    HW223892   3.331   4.580   1.729 -1.2254  0.1883  0.6014
 4087SOL     OW23893   3.692   0.124   7.783 -0.2618 -0.3436 -0.3166
 4087SOL    HW123894   3.607   0.081   7.774  0.2423 -1.2128 -0.9728
 4087SOL    HW223895   3.742   0.084   7.712 -0.4091  0.4777 -0.8784
 4088SOL     OW23896   3.854   4.127   3.605 -0.1843  0.1159 -0.2644
 4088SOL    HW123897   3.840   4.189   3.533 -2.1951  0.6669  0.6262
 4088SOL    HW223898   3.771   4.123   3.652 -0.2603 -1.0199 -0.4902
 4089SOL     OW23899   1.959   2.523   8.595  0.7186 -0.3770  0.6358
 4089SOL    HW123900   1.962   2.497   8.687 -1.8716  0.2157  0.8966
 4089SOL    HW223901   1.895   2.594   8.585 -0.6833 -1.8016 -0.6683
 4090SOL     OW23902   3.772   3.362   6.448  0.0274 -0.2960 -0.1173
 4090SOL    HW123903   3.697   3.311   6.479 -0.1904 -1.7421 -3.0242
 4090SOL    HW223904   3.802   3.387   6.536  0.2880  0.2276 -0.3541
 4091SOL     OW23905   3.829   0.662  17.571  0.6204  0.4060 -0.1438
 4091SOL    HW123906   3.761   0.657  17.638 -0.1376  1.2485 -0.8480
 4091SOL    HW223907   3.908   0.648  17.623  1.9559  1.1741 -1.9581
 4092SOL     OW23908   3.345   1.545   8.841 -0.5888 -0.1653  0.1820
 4092SOL    HW123909   3.337   1.632   8.802  1.4827 -0.6935 -1.3628
 4092SOL    HW223910   3.368   1.559   8.933 -0.0398  0.2525 -0.0211
 4093SOL     OW23911   3.530   4.102   2.059  0.1182  0.5164 -0.1780
 4093SOL    HW123912   3.479   4.132   2.134 -0.1954  0.6582 -0.4481
 4093SOL    HW223913   3.456   4.064   2.012 -1.2313  1.0601  1.5139
 4094SOL     OW23914   2.196   2.383   5.078  0.5097 -0.0124 -0.1977
 4094SOL    HW123915   2.150   2.301   5.061 -1.9234  1.4467 -0.6668
 4094SOL    HW223916   2.282   2.362   5.043  1.2416 -1.2432  2.3062
 4095SOL     OW23917   4.199   4.171   9.034  0.4277  0.4577  0.1901
 4095SOL    HW123918   4.200   4.105   9.104  0.9456 -2.3942 -2.4904
 4095SOL    HW223919   4.278   4.142   8.988  1.9101 -0.8427  3.5574
 4096SOL     OW23920   2.150   3.899   5.731  0.4940  0.1022  0.8746
 4096SOL    HW123921   2.090   3.827   5.754 -0.1447  0.3151 -0.1254
 4096SOL    HW223922   2.135   3.964   5.800 -1.6731 -0.7150  1.1904
 4097SOL     OW23923   1.015   3.055   5.482 -0.2075 -0.6809 -0.1162
 4097SOL    HW123924   0.977   2.990   5.542 -2.9549  0.9874 -0.0517
 4097SOL    HW223925   1.064   2.997   5.423 -0.9619  0.9657 -2.3628
 4098SOL     OW23926   2.304   0.600   4.596  0.8284 -0.6559 -0.7001
 4098SOL    HW123927   2.261   0.612   4.680  0.0709 -0.7216 -1.0779
 4098SOL    HW223928   2.315   0.691   4.567  0.7199  0.5240  2.9458
 4099SOL     OW23929   4.253   0.056  12.509 -0.4889 -0.9388 -0.0791
 4099SOL    HW123930   4.342   0.091  12.501 -0.3951 -1.3889 -1.0689
 4099SOL    HW223931   4.272   4.703  12.502 -0.3258 -1.1361  3.0058
 4100SOL     OW23932   0.432   3.026   9.123 -0.2337 -0.4026 -0.4177
 4100SOL    HW123933   0.498   2.996   9.186 -0.9811 -0.7983  0.1702
 4100SOL    HW223934   0.355   3.014   9.178 -0.6519  0.9531 -0.7121
 4101SOL     OW23935   3.242   2.600  14.372  0.1651  0.1909  0.2032
 4101SOL    HW123936   3.192   2.523  14.402 -0.0188  0.6479  1.0769
 4101SOL    HW223937   3.315   2.577  14.429  1.3932  3.7503  0.0829
 4102SOL     OW23938   1.881   1.703  17.357  0.6608  0.1992 -0.0067
 4102SOL    HW123939   1.905   1.746  17.439 -1.5656  0.6453  0.4225
 4102SOL    HW223940   1.787   1.721  17.347  0.9032  1.7165  0.5258
 4103SOL     OW23941   3.368   3.867   1.799  0.6664 -0.1105  0.0917
 4103SOL    HW123942   3.369   3.791   1.857 -0.8325 -1.8061 -2.1228
 4103SOL    HW223943   3.359   3.821   1.716 -0.1233 -1.0732  0.7006
 4104SOL     OW23944   4.066   2.992   6.773  0.6120  0.8249 -0.1590
 4104SOL    HW123945   4.012   3.041   6.711 -2.2271 -1.4562  0.5061
 4104SOL    HW223946   4.067   2.904   6.736 -0.7775  1.0075 -0.6287
 4105SOL     OW23947   0.544   1.878   8.877  0.1757  0.2350  0.3639
 4105SOL    HW123948   0.470   1.878   8.937 -0.7146  0.0354 -0.7413
 4105SOL    HW223949   0.496   1.872   8.794  1.0186  0.6210 -0.1576
 4106SOL     OW23950   0.820   1.764   1.528 -0.0011  0.5170 -0.7376
 4106SOL    HW123951   0.821   1.717   1.611  0.0866  0.8679 -0.5410
 4106SOL    HW223952   0.911   1.760   1.501  0.6413 -3.2381  1.9964
 4107SOL     OW23953   3.357   1.816  11.840 -0.6001 -0.0153 -0.7037
 4107SOL    HW123954   3.361   1.910  11.826  0.0168 -0.3008 -2.4316
 4107SOL    HW223955   3.430   1.791  11.784  0.0721  1.3321 -0.4136
 4108SOL     OW23956   1.273   0.091   8.959  0.3993 -0.1170  0.6447
 4108SOL    HW123957   1.249   0.162   8.899 -2.2085 -1.4048  0.1597
 4108SOL    HW223958   1.304   0.029   8.894 -1.6205 -0.3392 -0.1244
 4109SOL     OW23959   1.714   3.463   2.021 -0.0052  0.5198  0.2387
 4109SOL    HW123960   1.663   3.412   1.958  2.1403 -1.5430  0.1543
 4109SOL    HW223961   1.682   3.553   2.022 -0.4849  0.3287  1.2244
 4110SOL     OW23962   2.525   4.475   5.356  0.3135  0.2924  0.3522
 4110SOL    HW123963   2.581   4.488   5.280  1.7430  0.2741  1.3940
 4110SOL    HW223964   2.457   4.541   5.354  0.0274  0.0207  1.3825
 4111SOL     OW23965   0.203   4.201  10.197 -0.2520 -0.2423  0.2970
 4111SOL    HW123966   0.224   4.203  10.104 -0.1241  0.5601  0.3400
 4111SOL    HW223967   0.289   4.203  10.239 -0.3175 -0.0803  0.4253
 4112SOL     OW23968   2.158   1.916   5.882 -0.0385  0.4757 -0.1422
 4112SOL    HW123969   2.143   1.968   5.960  1.3043  0.9794 -0.2194
 4112SOL    HW223970   2.134   1.983   5.819  1.9455  1.6412  0.3517
 4113SOL     OW23971   3.964   0.377  10.089 -0.0968  0.3979 -0.3538
 4113SOL    HW123972   4.010   0.324  10.153 -1.5074  1.5726  1.6350
 4113SOL    HW223973   3.924   0.314  10.029 -1.5517  0.1478  0.8896
 4114SOL     OW23974   1.279   0.749  13.316  0.3938 -0.1404 -0.0209
 4114SOL    HW123975   1.223   0.820  13.283 -2.0241 -2.1067 -0.0974
 4114SOL    HW223976   1.360   0.800  13.313  0.0744  0.4126  0.7743
 4115SOL     OW23977   1.841   0.854   3.615  0.4594 -0.0824 -0.1498
 4115SOL    HW123978   1.777   0.785   3.596  0.3331 -0.3298  1.1831
 4115SOL    HW223979   1.918   0.798   3.617  0.9581  0.5775 -0.5836
 4116SOL     OW23980   2.324   4.564   9.250  0.0493 -0.0554  0.2298
 4116SOL    HW123981   2.311   4.605   9.164  0.5182 -0.3291  0.0298
 4116SOL    HW223982   2.356   4.481   9.217 -0.7012 -0.6341  0.9580
 4117SOL     OW23983   0.814   0.187   7.889  0.0981 -0.5040  0.2232
 4117SOL    HW123984   0.766   0.217   7.812 -0.2258 -0.2910  0.5096
 4117SOL    HW223985   0.854   0.103   7.867  0.9149  0.2004 -0.9814
 4118SOL     OW23986   2.833   2.933   5.532  0.1101 -0.5823  0.2273
 4118SOL    HW123987   2.779   2.859   5.563  0.6216 -0.1057  2.2673
 4118SOL    HW223988   2.786   2.959   5.453  2.9454  4.1805  0.1543
 4119SOL     OW23989   2.569   2.361   1.180 -0.0021  0.6583 -0.0850
 4119SOL    HW123990   2.629   2.293   1.213 -1.7085  0.2709  2.2355
 4119SOL    HW223991   2.608   2.435   1.226  0.3943  1.5401 -1.8421
 4120SOL     OW23992   3.701   1.422   7.954 -0.2970  0.2384  0.2074
 4120SOL    HW123993   3.757   1.412   8.031  1.3869  1.2931 -0.8624
 4120SOL    HW223994   3.741   1.490   7.899 -0.8834  0.8247  0.4995
 4121SOL     OW23995   3.676   0.101  16.547  0.4599  0.2164 -0.1460
 4121SOL    HW123996   3.607   0.039  16.523  2.1159 -1.6055 -0.2719
 4121SOL    HW223997   3.627   0.179  16.522  0.1085 -0.2551 -0.9223
 4122SOL     OW23998   2.281   1.469   5.334  0.1742  0.5134 -0.7955
 4122SOL    HW123999   2.311   1.514   5.413  0.1151 -0.7902 -0.0191
 4122SOL    HW224000   2.349   1.495   5.272  0.1863  2.1277 -0.1073
 4123SOL     OW24001   1.408   4.274   2.709  0.1899  0.1014 -0.4301
 4123SOL    HW124002   1.443   4.212   2.772  0.3819 -0.4988 -1.1252
 4123SOL    HW224003   1.315   4.254   2.719  0.2487 -0.6715 -1.4393
 4124SOL     OW24004   3.418   0.364  13.176 -0.5449  0.0858  0.1747
 4124SOL    HW124005   3.414   0.436  13.239 -1.1848  0.8927 -0.7930
 4124SOL    HW224006   3.326   0.339  13.185 -0.3131 -0.2259  1.6687
 4125SOL     OW24007   3.635   1.399   5.505  0.0105  0.2753  0.1384
 4125SOL    HW124008   3.624   1.488   5.539 -0.5705 -0.4822  1.9520
 4125SOL    HW224009   3.580   1.398   5.427  1.5040 -2.3438 -0.8818
 4126SOL     OW24010   1.592   4.539   8.001  0.2663 -0.0171  0.4331
 4126SOL    HW124011   1.617   4.447   8.002 -0.6109 -0.2870 -1.2831
 4126SOL    HW224012   1.561   4.546   8.091 -0.2845  0.5754  0.2039
 4127SOL     OW24013   0.372   1.411   2.467 -0.1052 -0.6854 -0.0949
 4127SOL    HW124014   0.316   1.385   2.540  0.5666  1.7499  1.3104
 4127SOL    HW224015   0.333   1.494   2.440 -3.3566 -2.2095 -0.0540
 4128SOL     OW24016   0.221   0.804   4.816 -0.1780 -0.5338  0.3184
 4128SOL    HW124017   0.141   0.853   4.835  1.7364  1.6845  2.6069
 4128SOL    HW224018   0.259   0.793   4.903  0.2023 -0.1180  0.2068
 4129SOL     OW24019   1.514   2.272   4.553 -0.2720  0.3682  0.0135
 4129SOL    HW124020   1.479   2.183   4.557  2.3218 -0.6701 -0.8939
 4129SOL    HW224021   1.577   2.258   4.623 -0.9924  3.8586  1.3592
 4130SOL     OW24022   3.804   1.213   3.724  0.0402 -0.0047  0.4562
 4130SOL    HW124023   3.790   1.213   3.819  1.2147 -0.8278  0.6234
 4130SOL    HW224024   3.899   1.223   3.720 -0.2416  0.7520 -3.6618
 4131SOL     OW24025   0.306   2.887   2.806  0.9532  0.4370 -0.1106
 4131SOL    HW124026   0.401   2.880   2.792  1.1458  0.4480  1.1861
 4131SOL    HW224027   0.295   2.959   2.869 -1.8632 -1.8672  2.0538
 4132SOL     OW24028   0.723   0.957   9.952 -0.8713 -0.0155 -0.0316
 4132SOL    HW124029   0.761   1.036   9.990  0.1408 -1.0487  1.1055
 4132SOL    HW224030   0.793   0.897   9.980  0.6085  2.7349  2.1422
 4133SOL     OW24031   3.809   0.314   2.400  0.4342  0.6313 -0.2228
 4133SOL    HW124032   3.724   0.318   2.358 -0.8389  0.2897  2.3103
 4133SOL    HW224033   3.810   0.231   2.448  2.1766  0.8556  0.1352
 4134SOL     OW24034   0.507   0.205   9.139 -0.4704  0.1059 -0.3506
 4134SOL    HW124035   0.531   0.294   9.113  1.3024  0.4924  2.6113
 4134SOL    HW224036   0.460   0.168   9.064 -0.0311  1.7608 -1.4289
 4135SOL     OW24037   3.132   0.760   2.962 -0.7848 -0.4406 -0.3423
 4135SOL    HW124038   3.136   0.817   2.885  2.2676  0.0678  0.1903
 4135SOL    HW224039   3.081   0.691   2.921 -0.4528 -0.1881 -1.1671
 4136SOL     OW24040   3.009   3.885   2.332  0.3038  0.1242 -0.4225
 4136SOL    HW124041   2.993   3.822   2.401  1.0555  0.2162 -0.1611
 4136SOL    HW224042   3.086   3.934   2.361 -0.7065  1.6500 -0.3280
 4137SOL     OW24043   3.618   4.470  12.194 -0.4425  0.0816  0.2207
 4137SOL    HW124044   3.565   4.492  12.117 -1.0774 -1.9449  0.0695
 4137SOL    HW224045   3.571   4.397  12.235 -2.3305  1.1455 -0.0508
 4138SOL     OW24046   1.518   4.505  12.687  0.1822  0.3961  0.3382
 4138SOL    HW124047   1.574   4.578  12.714 -0.6477  0.5533  1.6651
 4138SOL    HW224048   1.514   4.503  12.592 -1.9840 -3.7543  0.5173
 4139SOL     OW24049   4.376   3.991   4.874  0.6270 -0.1362  0.3278
 4139SOL    HW124050   4.312   3.994   4.945  0.0586 -0.8187 -0.1534
 4139SOL    HW224051   4.315   4.025   4.808  0.4358 -0.1344  0.5075
 4140SOL     OW24052   4.357   1.314   7.562 -0.5051  0.1946 -0.0997
 4140SOL    HW124053   4.369   1.219   7.561 -0.6633  0.1456  1.9038
 4140SOL    HW224054   4.443   1.342   7.592 -0.6883  3.2899 -2.4579
 4141SOL     OW24055   4.244   1.979   4.041 -0.3125 -0.3202 -0.0364
 4141SOL    HW124056   4.203   2.004   3.958 -0.9822  1.9386  0.9809
 4141SOL    HW224057   4.274   1.890   4.024 -1.7607 -1.1229  1.6545
 4142SOL     OW24058   4.396   1.974   7.019 -0.1802 -0.3021 -0.1098
 4142SOL    HW124059   4.477   1.923   7.009  0.5640  0.5056  1.8981
 4142SOL    HW224060   4.386   2.000   6.927 -1.1143  2.6617  0.8405
 4143SOL     OW24061   0.883   4.087   8.662 -0.5681  0.2760 -0.0673
 4143SOL    HW124062   0.839   4.101   8.578 -0.5905  0.3123 -0.0493
 4143SOL    HW224063   0.971   4.113   8.635 -0.4074  1.5027  1.6227
 4144SOL     OW24064   3.030   3.263   7.773  0.2199 -0.1349 -0.2307
 4144SOL    HW124065   2.957   3.235   7.828 -0.3225  0.6800 -0.5344
 4144SOL    HW224066   3.092   3.279   7.844 -1.1902  0.7865  0.7998
 4145SOL     OW24067   1.081   0.260   3.474 -0.2334  0.4621  0.0931
 4145SOL    HW124068   1.116   0.189   3.420  0.1764 -0.4797  1.5786
 4145SOL    HW224069   1.045   0.212   3.549 -1.3444 -1.5248 -1.7113
 4146SOL     OW24070   3.480   1.614   2.701  0.3255 -0.3967 -0.6810
 4146SOL    HW124071   3.487   1.627   2.796 -0.3860  0.2479 -0.7162
 4146SOL    HW224072   3.398   1.658   2.677  0.9040  1.2052  0.2994
 4147SOL     OW24073   4.528   2.022   7.390  0.1837 -0.2680  0.6323
 4147SOL    HW124074   4.462   1.967   7.348 -0.9017 -0.5861  2.7916
 4147SOL    HW224075   4.591   1.955   7.416  0.1743  0.3143  2.1657
 4148SOL     OW24076   2.926   2.274   8.187 -0.0010 -0.2062  0.4669
 4148SOL    HW124077   2.943   2.360   8.224 -1.6097  0.3823 -0.1358
 4148SOL    HW224078   2.957   2.213   8.254  0.5531 -0.4398 -0.0066
 4149SOL     OW24079   3.331   0.734  13.068 -0.4036 -0.0477  0.8672
 4149SOL    HW124080   3.314   0.816  13.116  0.3345  0.0341  0.9831
 4149SOL    HW224081   3.316   0.661  13.128 -1.1283 -2.5763 -2.4012
 4150SOL     OW24082   1.283   3.581   1.046 -0.2028 -0.1173  0.0067
 4150SOL    HW124083   1.274   3.567   0.952  0.5469  0.8225 -0.2007
 4150SOL    HW224084   1.330   3.664   1.039  0.3511 -0.4332 -0.0073
 4151SOL     OW24085   1.781   2.575   5.919 -0.2858 -0.9094 -0.0492
 4151SOL    HW124086   1.765   2.630   5.843 -1.6040  2.5840  2.7367
 4151SOL    HW224087   1.755   2.629   5.994  0.9103  1.6326 -1.4494
 4152SOL     OW24088   1.212   0.033   7.563 -0.1204  0.0930  0.5847
 4152SOL    HW124089   1.139   0.094   7.569 -0.1006  0.1782 -0.0454
 4152SOL    HW224090   1.287   0.085   7.594  1.8986 -1.6346 -1.3705
 4153SOL     OW24091   1.420   3.015   3.886  0.1470 -0.0583 -0.1905
 4153SOL    HW124092   1.389   3.106   3.890  0.1814 -0.0053 -1.0814
 4153SOL    HW224093   1.492   3.033   3.825 -0.5763  1.6241 -0.5628
 4154SOL     OW24094   4.247   1.711   2.649  0.2729 -0.0003  0.5421
 4154SOL    HW124095   4.176   1.647   2.664 -0.5040  0.6165 -0.4650
 4154SOL    HW224096   4.263   1.681   2.559 -0.3035  2.4005 -0.3563
 4155SOL     OW24097   3.038   1.358  10.329  0.0236 -0.1305  0.5825
 4155SOL    HW124098   3.080   1.433  10.372  0.7613  0.3139 -0.9032
 4155SOL    HW224099   2.995   1.328  10.409 -2.8165 -2.2231 -1.7278
 4156SOL     OW24100   1.057   2.685  14.301 -0.3020  0.1494  0.6368
 4156SOL    HW124101   1.001   2.740  14.356 -0.7291  1.5712 -1.2144
 4156SOL    HW224102   1.037   2.600  14.342  0.1752 -0.3116 -0.0787
 4157SOL     OW24103   1.818   2.768   2.576 -0.4090  0.3315  0.0327
 4157SOL    HW124104   1.776   2.712   2.511  0.6679 -0.4266 -0.0106
 4157SOL    HW224105   1.845   2.707   2.645  1.2057 -1.7389 -2.4169
 4158SOL     OW24106   2.660   4.414   4.210  0.2973  0.4548  1.2069
 4158SOL    HW124107   2.655   4.330   4.164 -1.6330  0.9915  0.4143
 4158SOL    HW224108   2.645   4.378   4.297 -2.0770 -1.7287 -0.1056
 4159SOL     OW24109   0.308   2.578   1.816 -0.0466 -0.3051 -0.1577
 4159SOL    HW124110   0.288   2.602   1.726 -0.8021 -1.2491 -0.2324
 4159SOL    HW224111   0.251   2.503   1.831  0.7329 -1.1079 -1.2517
 4160SOL     OW24112   2.917   2.331   9.606  0.0011  0.0468 -0.2530
 4160SOL    HW124113   2.890   2.310   9.517  1.5887 -1.2586 -0.4248
 4160SOL    HW224114   2.866   2.410   9.626  1.0605  0.2501  1.6517
 4161SOL     OW24115   2.003   3.961   9.022  0.4936 -0.3668  0.1581
 4161SOL    HW124116   1.993   4.046   8.980  1.3559 -0.4247 -0.1710
 4161SOL    HW224117   2.097   3.948   9.006  0.1578 -1.4706 -0.9044
 4162SOL     OW24118   3.563   2.535   1.360 -0.0781  0.2457  0.3180
 4162SOL    HW124119   3.568   2.583   1.277  1.1235 -0.4844 -0.0246
 4162SOL    HW224120   3.655   2.541   1.386 -0.2205  1.7467  0.5183
 4163SOL     OW24121   3.440   3.540   6.241  0.0272 -0.2512 -0.1135
 4163SOL    HW124122   3.528   3.514   6.212 -0.6362  0.3882 -2.7222
 4163SOL    HW224123   3.442   3.532   6.336 -0.4908 -1.2281 -0.1880
 4164SOL     OW24124   4.599   0.886   9.116 -0.0219 -0.4669  0.5133
 4164SOL    HW124125   4.541   0.894   9.041  1.6537  0.7980 -0.6684
 4164SOL    HW224126   4.609   0.974   9.153 -1.5141 -0.6288  1.3014
 4165SOL     OW24127   0.629   4.377   8.387 -0.0306  0.3995 -0.3751
 4165SOL    HW124128   0.596   4.429   8.460  0.6901  0.0109  0.2345
 4165SOL    HW224129   0.550   4.373   8.333  0.9838  1.2685 -1.9253
 4166SOL     OW24130   2.455   4.021   4.305 -0.1123 -0.4101  0.3395
 4166SOL    HW124131   2.380   3.974   4.268 -0.4731  0.0702  0.4692
 4166SOL    HW224132   2.510   3.945   4.325 -1.4461 -1.0096  1.6352
 4167SOL     OW24133   1.096   2.753   0.167 -0.2448  0.1584 -0.0923
 4167SOL    HW124134   1.122   2.809   0.240 -0.9278  2.0345 -1.3200
 4167SOL    HW224135   1.152   2.675   0.179 -0.8997 -0.4203 -0.8022
 4168SOL     OW24136   3.572   0.305  16.450 -0.1210  0.0800  0.0814
 4168SOL    HW124137   3.491   0.355  16.460  0.7666  1.3648  0.7337
 4168SOL    HW224138   3.632   0.352  16.392 -1.0254 -1.0869 -1.8047
 4169SOL     OW24139   3.854   3.370   1.626  0.1845  0.0601  0.3356
 4169SOL    HW124140   3.815   3.456   1.638  3.5483  1.5859  0.4460
 4169SOL    HW224141   3.832   3.346   1.536  0.2895  2.1194 -0.2479
 4170SOL     OW24142   2.868   3.003   2.137 -0.1244 -0.0658 -0.4368
 4170SOL    HW124143   2.807   2.940   2.176 -0.6417  0.0265 -1.0934
 4170SOL    HW224144   2.939   2.944   2.111  1.2607  1.7578 -0.7814
 4171SOL     OW24145   1.815   2.935  12.491 -0.2051  0.1135 -0.0854
 4171SOL    HW124146   1.720   2.942  12.478 -0.4399 -1.0696  1.0094
 4171SOL    HW224147   1.828   2.988  12.569  1.4946 -0.2691 -0.1028
 4172SOL     OW24148   4.197   3.203  15.709  0.1582 -0.2493 -0.5579
 4172SOL    HW124149   4.148   3.191  15.627  2.7267 -0.6925 -2.0321
 4172SOL    HW224150   4.281   3.218  15.666  1.3874 -1.4139  1.4495
 4173SOL     OW24151   0.513   1.518   5.400 -0.6590 -0.4198  0.3831
 4173SOL    HW124152   0.501   1.524   5.305  0.6631  0.4852  0.2710
 4173SOL    HW224153   0.430   1.539   5.441 -0.3929 -1.7126  1.5521
 4174SOL     OW24154   0.884   2.546  15.474  0.0503 -0.0631  0.2136
 4174SOL    HW124155   0.912   2.572  15.562  0.0940 -0.4742  0.3225
 4174SOL    HW224156   0.813   2.483  15.487 -0.5775  0.5904 -0.0928
 4175SOL     OW24157   2.458   3.929   8.949 -0.1497 -0.3145 -0.1094
 4175SOL    HW124158   2.469   3.842   8.910  0.1888  0.4439 -1.6966
 4175SOL    HW224159   2.365   3.945   8.935  0.3610  1.1471 -1.7935
 4176SOL     OW24160   3.879   0.884   7.783 -0.0188 -0.6074  0.0850
 4176SOL    HW124161   3.868   0.879   7.688  0.9620 -2.0410  0.0595
 4176SOL    HW224162   3.966   0.924   7.785 -0.4963  0.4819 -0.6665
 4177SOL     OW24163   4.418   2.938   8.114  0.5012 -0.5391 -0.4285
 4177SOL    HW124164   4.416   2.951   8.209 -4.0949 -1.1025 -0.4267
 4177SOL    HW224165   4.388   3.024   8.086 -0.9163 -0.5617  1.0416
 4178SOL     OW24166   4.405   2.111   3.518  0.3093  0.1359 -0.5187
 4178SOL    HW124167   4.384   2.204   3.522 -0.4585  0.0290 -2.0336
 4178SOL    HW224168   4.445   2.103   3.605 -0.5606  1.5420  0.0219
 4179SOL     OW24169   3.464   4.490   9.691  0.2069  0.3754 -0.0770
 4179SOL    HW124170   3.376   4.512   9.659 -0.5783 -1.5984  0.6889
 4179SOL    HW224171   3.443   4.427   9.760  2.2590  0.7621  0.9087
 4180SOL     OW24172   1.154   4.056  11.424 -0.8457 -0.7433  0.8192
 4180SOL    HW124173   1.218   4.108  11.473  1.1113 -1.1258 -1.2768
 4180SOL    HW224174   1.153   3.967  11.458 -1.8019 -0.7662  0.7210
 4181SOL     OW24175   0.405   0.980   8.152 -0.1807 -0.0957 -0.5693
 4181SOL    HW124176   0.380   1.072   8.159 -0.7510 -0.3837  1.2046
 4181SOL    HW224177   0.328   0.924   8.138  0.6302 -0.9794 -1.4519
 4182SOL     OW24178   4.187   0.239   9.480  0.4250  0.1516 -0.2554
 4182SOL    HW124179   4.190   0.292   9.401  0.5464  0.6879  0.1127
 4182SOL    HW224180   4.172   0.297   9.554  1.4686 -0.8537  0.7537
 4183SOL     OW24181   0.058   4.500   7.292 -0.2108 -0.5177 -0.0828
 4183SOL    HW124182   0.022   4.417   7.324  0.3204 -0.5750  0.3581
 4183SOL    HW224183   0.044   4.490   7.198  2.5424 -2.4497 -0.2816
 4184SOL     OW24184   1.103   3.874  15.312  0.2147 -0.7296  0.5995
 4184SOL    HW124185   1.127   3.901  15.401 -1.3803 -0.1011  0.8384
 4184SOL    HW224186   1.008   3.861  15.313  0.0454  0.4387 -1.0881
 4185SOL     OW24187   3.307   0.887  10.859  0.0100  0.2266 -0.4273
 4185SOL    HW124188   3.257   0.968  10.860 -0.1522  0.1063  2.4908
 4185SOL    HW224189   3.303   0.856  10.950  3.1611 -1.0288 -0.7197
 4186SOL     OW24190   4.079   0.083   9.917 -0.0545 -0.3641  0.1906
 4186SOL    HW124191   4.018   0.099   9.990 -1.4918 -0.8224 -0.9175
 4186SOL    HW224192   4.032   0.120   9.842 -0.0120 -0.3756  0.1585
 4187SOL     OW24193   2.577   3.730   4.854 -0.4853  0.5264  0.2243
 4187SOL    HW124194   2.568   3.641   4.886  3.0456 -0.5012 -1.5631
 4187SOL    HW224195   2.485   3.756   4.855 -0.5598  0.2911 -0.1847
 4188SOL     OW24196   1.556   3.259   5.864  0.0637 -0.0946 -0.0894
 4188SOL    HW124197   1.609   3.211   5.927  0.0185  0.1330  0.1222
 4188SOL    HW224198   1.620   3.324   5.835  0.4898  0.2929  1.7213
 4189SOL     OW24199   1.580   0.402   8.135  0.2972  0.4887  0.6709
 4189SOL    HW124200   1.552   0.359   8.054 -0.9266  0.8005  0.9327
 4189SOL    HW224201   1.561   0.326   8.191  0.5858  1.5983  2.2995
 4190SOL     OW24202   2.745   0.864  10.935  0.2201 -0.0169 -0.3829
 4190SOL    HW124203   2.737   0.919  10.857  0.0167  0.6625  0.1105
 4190SOL    HW224204   2.698   0.789  10.899  0.8875 -0.2331 -0.8090
 4191SOL     OW24205   3.531   1.665   1.979  0.1428  0.1145 -0.5602
 4191SOL    HW124206   3.592   1.637   1.911  1.4870  3.2244 -0.6396
 4191SOL    HW224207   3.546   1.601   2.049  1.5015  1.5447  0.4548
 4192SOL     OW24208   2.113   1.303   7.786 -0.0609  0.2309 -0.9045
 4192SOL    HW124209   2.027   1.261   7.788  0.6276 -1.1065  1.6270
 4192SOL    HW224210   2.171   1.231   7.811  1.1944  1.2685 -0.8515
 4193SOL     OW24211   3.961   2.868   2.934  0.0885  0.2698  0.1137
 4193SOL    HW124212   3.991   2.898   3.020 -2.0681 -1.3532  1.4468
 4193SOL    HW224213   4.003   2.933   2.879  2.4468 -3.0034 -1.9866
 4194SOL     OW24214   0.346   2.999  15.837 -0.2062 -0.1484  0.6277
 4194SOL    HW124215   0.358   2.936  15.765  1.0137  0.4846  0.2826
 4194SOL    HW224216   0.307   2.938  15.900  0.6416 -1.6775 -0.3098
 4195SOL     OW24217   2.879   1.207   6.418 -0.4312  0.2172  0.2012
 4195SOL    HW124218   2.962   1.220   6.465 -0.3310  1.6736 -0.3755
 4195SOL    HW224219   2.874   1.111   6.420 -3.0000  0.3795  0.5688
 4196SOL     OW24220   2.203   4.230   9.105  0.2153  0.0196  0.0342
 4196SOL    HW124221   2.242   4.147   9.134 -0.3562  0.1980  1.3071
 4196SOL    HW224222   2.265   4.264   9.040  0.2584 -0.6701 -0.2958
 4197SOL     OW24223   3.569   1.317   0.415  0.0859  0.4040 -0.1646
 4197SOL    HW124224   3.653   1.354   0.440  1.7723 -1.7656 -2.6371
 4197SOL    HW224225   3.556   1.251   0.484  0.2242 -0.0185 -0.5422
 4198SOL     OW24226   1.581   4.163  17.477 -0.1516  0.5727  0.2491
 4198SOL    HW124227   1.630   4.172  17.559 -0.1428  2.6763  0.0033
 4198SOL    HW224228   1.651   4.125  17.424 -0.1680  2.3525 -1.0103
 4199SOL     OW24229   4.237   4.266   2.436  0.5504 -0.4564 -0.7451
 4199SOL    HW124230   4.288   4.187   2.452 -0.2019 -0.6824  0.5345
 4199SOL    HW224231   4.150   4.235   2.414  0.4638 -0.5179 -0.3160
 4200SOL     OW24232   2.889   3.648   3.630 -0.4986  0.1734  0.3745
 4200SOL    HW124233   2.864   3.740   3.639 -0.8381  0.0631  0.5644
 4200SOL    HW224234   2.808   3.611   3.594 -1.4854  3.3070 -0.6840
 4201SOL     OW24235   2.884   0.981  12.126  0.2683 -0.1326 -0.3527
 4201SOL    HW124236   2.931   0.940  12.199  0.0190  0.3222  0.0680
 4201SOL    HW224237   2.906   0.934  12.046 -1.1870 -0.5737 -0.4932
 4202SOL     OW24238   3.598   2.064   7.015  0.0030  0.0309  0.2496
 4202SOL    HW124239   3.679   2.076   7.064  0.2558 -0.2371 -0.0978
 4202SOL    HW224240   3.569   1.983   7.056  0.6088  0.9180  2.4148
 4203SOL     OW24241   0.346   4.440   3.574  0.1046  0.4257 -0.0452
 4203SOL    HW124242   0.252   4.458   3.570  0.1759  1.0639  1.2089
 4203SOL    HW224243   0.375   4.531   3.579 -1.2198  0.9906 -2.5917
 4204SOL     OW24244   2.305   1.405   0.484 -0.7340 -0.2525  0.0268
 4204SOL    HW124245   2.337   1.453   0.561  0.7362  2.3214 -2.1866
 4204SOL    HW224246   2.376   1.440   0.430  0.5363 -2.1031  0.5054
 4205SOL     OW24247   3.902   1.740  12.159  0.2025  0.2303 -0.5442
 4205SOL    HW124248   3.922   1.826  12.198  0.2789 -0.0734  0.0821
 4205SOL    HW224249   3.904   1.690  12.240  2.8348 -2.7704 -2.4471
 4206SOL     OW24250   3.252   1.667   7.739 -0.7386  0.2926  0.1181
 4206SOL    HW124251   3.337   1.632   7.766 -0.0932  1.8057  0.0302
 4206SOL    HW224252   3.235   1.723   7.815  1.1965 -0.4503  1.1043
 4207SOL     OW24253   2.969   0.983   7.728 -0.0332  0.7232  0.3448
 4207SOL    HW124254   2.930   1.070   7.721  0.1178  0.7512 -0.1835
 4207SOL    HW224255   3.011   0.980   7.642  0.3659  1.1981  0.5164
 4208SOL     OW24256   4.413   0.639   3.364  0.2492  0.3401 -0.0121
 4208SOL    HW124257   4.489   0.696   3.356  0.3532 -0.0333 -1.5885
 4208SOL    HW224258   4.447   0.574   3.303  0.5253 -0.3647  0.8986
 4209SOL     OW24259   3.739   1.415   2.803  0.5564 -0.0228  0.4069
 4209SOL    HW124260   3.668   1.362   2.764 -0.7002  0.8058  1.5797
 4209SOL    HW224261   3.759   1.366   2.883 -0.9209 -1.0781  0.1372
 4210SOL     OW24262   0.628   0.204   6.345  0.5755  1.0705 -0.3156
 4210SOL    HW124263   0.654   0.140   6.411  3.0666  1.1765 -1.2093
 4210SOL    HW224264   0.652   0.163   6.262  0.0304  0.4454 -0.1609
 4211SOL     OW24265   1.267   2.751   3.415  0.2452  0.0544 -0.5540
 4211SOL    HW124266   1.271   2.663   3.453 -0.6385 -0.5690 -1.8767
 4211SOL    HW224267   1.310   2.751   3.329 -0.5656 -2.1027 -0.9782
 4212SOL     OW24268   3.510   4.613  14.840 -0.0050  0.2776  0.4287
 4212SOL    HW124269   3.570   4.583  14.909 -1.3222 -3.6083 -0.1268
 4212SOL    HW224270   3.461   4.534  14.818  1.8308 -0.4012 -1.1995
 4213SOL     OW24271   2.201   2.529  17.664  0.1471 -0.6495 -0.4308
 4213SOL    HW124272   2.279   2.522  17.718 -0.0939 -0.2849 -0.0416
 4213SOL    HW224273   2.156   2.591  17.721  0.2057  0.0555 -1.1603
 4214SOL     OW24274   2.568   1.164  10.577 -0.4413 -0.1474  0.5821
 4214SOL    HW124275   2.472   1.157  10.571 -0.2235 -2.2040 -0.3616
 4214SOL    HW224276   2.573   1.260  10.573 -0.8707 -0.1018  1.1914
 4215SOL     OW24277   0.974   4.043   2.879  0.1418 -0.5357 -0.0372
 4215SOL    HW124278   1.000   4.122   2.831 -1.2610 -0.0893 -0.0674
 4215SOL    HW224279   0.886   4.055   2.913 -0.1076 -1.9396 -0.1943
 4216SOL     OW24280   3.830   4.501   6.655  0.3220  0.4028 -0.6350
 4216SOL    HW124281   3.763   4.438   6.680  0.3758  0.4519 -0.3605
 4216SOL    HW224282   3.817   4.562   6.727 -0.6238 -1.0610  0.4328
 4217SOL     OW24283   1.736   2.425   4.905 -0.0415 -0.1063 -0.2047
 4217SOL    HW124284   1.769   2.491   4.966  0.4847  1.6739 -2.3981
 4217SOL    HW224285   1.710   2.479   4.831  1.1976  1.0242  0.1670
 4218SOL     OW24286   3.158   0.130   6.883  0.4743  0.0088  0.6154
 4218SOL    HW124287   3.077   0.096   6.846  0.4901 -0.1437  0.7203
 4218SOL    HW224288   3.208   0.151   6.804 -1.1755  0.7393 -0.2296
 4219SOL     OW24289   1.295   0.948   9.635  0.3653  0.2176 -0.2696
 4219SOL    HW124290   1.274   1.022   9.692 -0.8542 -1.4371  1.4324
 4219SOL    HW224291   1.279   0.870   9.688  0.5293  1.2704  1.3294
 4220SOL     OW24292   0.481   4.321   2.605  0.0701 -0.3557 -0.4880
 4220SOL    HW124293   0.550   4.302   2.669 -0.1134  1.2052  0.1766
 4220SOL    HW224294   0.454   4.233   2.577  0.7234 -0.2113 -1.5280
 4221SOL     OW24295   2.118   1.283   4.427 -0.1171 -0.4676 -0.1176
 4221SOL    HW124296   2.058   1.311   4.496 -1.3624  0.1311 -1.4460
 4221SOL    HW224297   2.135   1.361   4.372 -3.6567  0.6547  0.3983
 4222SOL     OW24298   1.025   1.830   3.707  0.0035  0.4053 -0.1197
 4222SOL    HW124299   0.966   1.781   3.650 -0.6441  0.0238  0.8823
 4222SOL    HW224300   0.966   1.890   3.753 -1.6606 -1.1384 -0.2213
 4223SOL     OW24301   2.859   1.091   3.533 -0.0607  0.2330 -0.1183
 4223SOL    HW124302   2.912   1.124   3.460 -0.7540 -0.1869 -0.8017
 4223SOL    HW224303   2.803   1.021   3.501 -0.0456  0.4964 -0.7351
 4224SOL     OW24304   1.112   2.089   5.333  0.5804 -0.5837  0.4779
 4224SOL    HW124305   1.039   2.036   5.365 -1.2531  0.0760 -2.6605
 4224SOL    HW224306   1.140   2.050   5.250  0.2406  0.0257  0.0805
 4225SOL     OW24307   1.931   3.176   5.587  0.3341 -0.0859 -0.2088
 4225SOL    HW124308   1.882   3.101   5.553  1.2889 -1.2481  0.9810
 4225SOL    HW224309   1.906   3.243   5.523  1.0154  0.5391  0.1757
 4226SOL     OW24310   1.837   1.437  17.292 -0.1774 -0.3032 -0.4122
 4226SOL    HW124311   1.877   1.517  17.329  1.8791 -0.1228 -3.0097
 4226SOL    HW224312   1.745   1.452  17.314  0.1767  0.9312  0.2720
 4227SOL     OW24313   4.671   2.883   8.305  0.3633 -0.0283 -0.2503
 4227SOL    HW124314   4.661   2.833   8.224  0.1321 -2.0458  1.0183
 4227SOL    HW224315   0.020   2.864   8.334  0.4070  2.5661  1.2833
 4228SOL     OW24316   3.722   0.402   9.903  0.0861 -0.4809 -0.1201
 4228SOL    HW124317   3.776   0.446   9.969  0.5531  1.7598 -2.0203
 4228SOL    HW224318   3.697   0.322   9.949  0.5312  0.8960  2.5372
 4229SOL     OW24319   0.660   2.199   4.569 -0.2508 -0.0530 -0.6504
 4229SOL    HW124320   0.679   2.247   4.489 -0.0081 -0.6583 -0.9584
 4229SOL    HW224321   0.701   2.250   4.638 -1.1340  0.1768 -0.2891
 4230SOL     OW24322   0.195   4.129  12.584  0.3398 -0.7774  0.0136
 4230SOL    HW124323   0.153   4.059  12.534 -0.9955  0.1762 -0.2202
 4230SOL    HW224324   0.122   4.138  12.646  0.1796  0.7595 -0.3959
 4231SOL     OW24325   3.817   3.166   8.494  0.1305 -0.5186 -1.0138
 4231SOL    HW124326   3.863   3.088   8.463  0.2691 -0.6041 -0.5859
 4231SOL    HW224327   3.866   3.238   8.454  1.9162 -0.9798  0.3607
 4232SOL     OW24328   3.695   4.406  14.262 -0.3666 -0.5528  0.0571
 4232SOL    HW124329   3.661   4.321  14.292 -1.3623 -0.2433 -0.1889
 4232SOL    HW224330   3.789   4.393  14.272 -0.1430  2.0985  1.2252
 4233SOL     OW24331   0.315   2.006   7.476 -0.2467  0.1454  0.0518
 4233SOL    HW124332   0.234   2.048   7.446 -1.8866 -2.0013  1.4751
 4233SOL    HW224333   0.368   2.085   7.491 -0.8839  0.8704 -1.5247
 4234SOL     OW24334   3.355   3.782   6.451 -0.4752  0.4299 -0.4682
 4234SOL    HW124335   3.347   3.686   6.452  0.9095  0.3159  1.7257
 4234SOL    HW224336   3.263   3.807   6.454 -1.3597 -2.5364 -2.5755
 4235SOL     OW24337   4.248   3.831   5.825 -0.1906 -0.0702 -0.5340
 4235SOL    HW124338   4.160   3.840   5.790 -0.3544  0.1607 -0.0513
 4235SOL    HW224339   4.275   3.747   5.787  1.1294  0.4820 -0.8074
 4236SOL     OW24340   3.142   3.265   4.060 -0.1612  0.1667  0.1457
 4236SOL    HW124341   3.194   3.331   4.014  0.6770  1.1809  2.5685
 4236SOL    HW224342   3.195   3.185   4.068 -0.4761  0.0492  0.9943
 4237SOL     OW24343   1.799   3.338   5.793  0.7102 -0.0883  0.1429
 4237SOL    HW124344   1.868   3.310   5.854 -0.0128  0.2138  1.0935
 4237SOL    HW224345   1.838   3.325   5.706  0.5830 -1.7644  0.3316
 4238SOL     OW24346   3.716   2.113  15.144 -0.3250  0.2713  0.0966
 4238SOL    HW124347   3.778   2.043  15.123  0.9247  1.5448 -0.5351
 4238SOL    HW224348   3.634   2.068  15.122 -1.1246  1.1848  1.2120
 4239SOL     OW24349   3.355   2.198   4.896 -0.1616  0.0201  0.3477
 4239SOL    HW124350   3.438   2.219   4.939 -0.8416  0.5829  1.4065
 4239SOL    HW224351   3.323   2.284   4.867  0.0203  0.3950  1.2605
 4240SOL     OW24352   3.330   0.072   5.155  0.4686 -0.1426 -0.0154
 4240SOL    HW124353   3.279   0.092   5.077 -0.7854  1.1843  1.1534
 4240SOL    HW224354   3.404   0.132   5.147  0.6944 -0.3876  0.2232
 4241SOL     OW24355   1.519   3.548   9.059 -0.0551 -0.0531 -0.6029
 4241SOL    HW124356   1.427   3.527   9.072  0.2633 -0.7955  0.4313
 4241SOL    HW224357   1.526   3.632   9.014  1.5870  0.0158 -0.2249
 4242SOL     OW24358   2.380   3.027   1.470 -0.0836 -0.2390  0.5118
 4242SOL    HW124359   2.287   3.039   1.489 -0.0060 -0.6358  1.1475
 4242SOL    HW224360   2.396   3.119   1.448  0.9531 -0.5050  0.1654
 4243SOL     OW24361   1.450   4.415   6.234 -0.0039 -0.0532 -0.3402
 4243SOL    HW124362   1.436   4.357   6.309 -0.5173 -0.4810 -0.7655
 4243SOL    HW224363   1.537   4.449   6.254  0.7644 -2.0786 -0.3437
 4244SOL     OW24364   2.517   0.939  17.479  0.8142 -0.2393  0.1515
 4244SOL    HW124365   2.529   0.879  17.553 -0.3870  1.7021  1.9224
 4244SOL    HW224366   2.606   0.961  17.453  0.0515  0.8416 -1.4764
 4245SOL     OW24367   2.931   1.462   3.030 -0.2559 -0.8192  0.1378
 4245SOL    HW124368   2.869   1.402   3.070  0.4592 -1.0427  0.9207
 4245SOL    HW224369   2.927   1.539   3.088 -1.5945 -1.2872  0.6492
 4246SOL     OW24370   3.230   0.086   7.720  0.0414  0.8055 -0.0486
 4246SOL    HW124371   3.261   0.163   7.768  0.0376  1.1383 -0.5762
 4246SOL    HW224372   3.146   0.129   7.703 -0.2926  0.0469 -0.2714
 4247SOL     OW24373   3.006   0.261  17.503  0.2734 -0.1760 -0.2972
 4247SOL    HW124374   2.969   0.214  17.428  1.1958 -0.6406 -0.4631
 4247SOL    HW224375   3.019   0.349  17.467  0.2141 -0.0717 -0.0649
 4248SOL     OW24376   2.121   4.104   3.667 -0.4461  0.0349 -1.0567
 4248SOL    HW124377   2.192   4.040   3.672 -0.0056  0.4435 -2.0799
 4248SOL    HW224378   2.104   4.115   3.761 -3.3857 -1.9497 -1.3791
 4249SOL     OW24379   4.730   3.876   3.058 -0.1375  0.1815 -0.7132
 4249SOL    HW124380   0.078   3.847   3.080 -0.5278 -2.0480 -2.0034
 4249SOL    HW224381   4.704   3.930   3.133 -2.4465 -0.0067 -1.3743
 4250SOL     OW24382   3.791   3.039   4.802  0.4574  1.1083  0.5435
 4250SOL    HW124383   3.762   3.112   4.857  0.8901  0.3806  1.7520
 4250SOL    HW224384   3.743   2.973   4.851 -0.2970  2.2633  1.3716
 4251SOL     OW24385   2.916   2.878   6.969 -0.3857  0.2143 -0.6130
 4251SOL    HW124386   2.874   2.964   6.970  2.3685  1.5302  2.1079
 4251SOL    HW224387   2.845   2.815   6.982 -1.2860  1.2924 -0.2554
 4252SOL     OW24388   0.737   2.399  16.853  0.1308 -0.1111 -0.0589
 4252SOL    HW124389   0.806   2.404  16.786  1.7227  0.2237  1.6087
 4252SOL    HW224390   0.739   2.486  16.893 -2.8965  0.5503 -1.3503
 4253SOL     OW24391   1.004   0.791  15.180  0.7631 -0.5908  0.2576
 4253SOL    HW124392   1.064   0.721  15.154  0.5763  0.9199 -4.1689
 4253SOL    HW224393   0.924   0.756  15.141  1.1741  1.6080 -2.5162
 4254SOL     OW24394   2.486   4.375  12.446  0.7036  0.4102 -0.0728
 4254SOL    HW124395   2.509   4.467  12.434 -1.6496  1.0414  0.2798
 4254SOL    HW224396   2.418   4.371  12.379  1.5111  1.6116 -0.9587
 4255SOL     OW24397   0.849   3.525  14.945  0.4362 -0.0516 -0.3691
 4255SOL    HW124398   0.908   3.467  14.993  1.0163  0.4899 -0.4300
 4255SOL    HW224399   0.822   3.458  14.882  0.5384 -0.3284 -0.1171
 4256SOL     OW24400   3.035   3.846   1.599 -0.4454  0.3011 -0.2969
 4256SOL    HW124401   3.081   3.919   1.641 -0.1575 -1.0455  1.6902
 4256SOL    HW224402   3.094   3.771   1.598  0.0480  0.6820  1.1909
 4257SOL     OW24403   3.133   0.890  12.318 -0.7680  0.3423 -0.3712
 4257SOL    HW124404   3.183   0.864  12.242 -0.0840 -0.6181  0.4037
 4257SOL    HW224405   3.193   0.860  12.386 -1.2664 -1.4257 -0.7338
 4258SOL     OW24406   0.014   1.117  14.160  0.0883 -0.5239 -0.1470
 4258SOL    HW124407   0.105   1.134  14.134 -0.5392  1.9181 -0.7412
 4258SOL    HW224408   4.730   1.044  14.103  2.1388 -1.5125  0.2104
 4259SOL     OW24409   2.831   0.631   6.821  0.1893  0.1557  0.2225
 4259SOL    HW124410   2.770   0.698   6.789  1.2516 -0.5418 -3.1450
 4259SOL    HW224411   2.872   0.681   6.892  1.6902  0.0812 -0.5991
 4260SOL     OW24412   4.133   0.636   7.045  0.3679  0.1534 -0.0964
 4260SOL    HW124413   4.078   0.602   7.116  1.2986 -2.2693 -0.5373
 4260SOL    HW224414   4.210   0.581   7.033  0.6033  0.2302  1.0741
 4261SOL     OW24415   1.896   3.638   2.757 -0.3291  0.3360  0.2232
 4261SOL    HW124416   1.900   3.697   2.681 -1.7127  1.1213  0.7716
 4261SOL    HW224417   1.807   3.604   2.749 -0.7999  1.6608 -0.2445
 4262SOL     OW24418   0.027   4.667   2.318 -1.0235  0.2267  0.3883
 4262SOL    HW124419   4.695   4.657   2.379 -1.8578  0.1871 -0.6110
 4262SOL    HW224420   0.078   4.719   2.380  2.5344 -0.9054 -1.5853
 4263SOL     OW24421   1.401   1.722   7.619 -0.3529  0.5432  0.0580
 4263SOL    HW124422   1.325   1.669   7.642 -0.5277 -0.0424 -1.8573
 4263SOL    HW224423   1.406   1.716   7.523  4.0385  0.3843  0.2971
 4264SOL     OW24424   1.006   4.357  17.310  0.2007  0.1582  0.0609
 4264SOL    HW124425   0.999   4.394  17.398  2.6016 -0.7470  0.6046
 4264SOL    HW224426   1.096   4.344  17.282 -0.4954 -2.5582 -0.8775
 4265SOL     OW24427   2.384   0.246   3.706  0.1379  0.2345 -0.0759
 4265SOL    HW124428   2.449   0.206   3.764 -0.2226 -0.1068  0.0903
 4265SOL    HW224429   2.449   0.264   3.638 -0.3918  0.9497 -0.3846
 4266SOL     OW24430   1.555   4.249  16.862 -0.1546  0.4718 -0.4258
 4266SOL    HW124431   1.591   4.333  16.832 -1.3647  0.9681 -0.5039
 4266SOL    HW224432   1.519   4.217  16.779 -0.9369 -0.4899  0.2912
 4267SOL     OW24433   4.654   0.255   9.693 -0.2088  0.1300 -0.1899
 4267SOL    HW124434   4.696   0.281   9.775  0.7138 -0.5187 -0.4537
 4267SOL    HW224435   4.727   0.259   9.632  0.7300  3.8495  1.1776
 4268SOL     OW24436   1.420   3.494   6.628 -0.1382  0.2483 -0.2447
 4268SOL    HW124437   1.356   3.546   6.677  1.0893 -0.5010  2.1449
 4268SOL    HW224438   1.428   3.439   6.706  0.3464  0.5354 -0.0877
 4269SOL     OW24439   4.284   3.590   3.450 -0.8366 -0.1107  0.0563
 4269SOL    HW124440   4.294   3.612   3.357 -4.0509  0.7375 -0.0796
 4269SOL    HW224441   4.189   3.600   3.455 -0.7823 -0.5749  1.9684
 4270SOL     OW24442   0.254   1.581   1.044 -0.1786  0.1766 -0.5676
 4270SOL    HW124443   0.249   1.488   1.022  0.5278  0.1888 -0.7895
 4270SOL    HW224444   0.343   1.599   1.013  0.3836 -3.1051 -0.8980
 4271SOL     OW24445   2.052   2.163  10.774  0.2009 -0.9007 -0.4652
 4271SOL    HW124446   2.117   2.109  10.819  2.4535  0.3686 -2.1315
 4271SOL    HW224447   1.977   2.180  10.830  1.7130  0.4656  1.1407
 4272SOL     OW24448   4.347   2.233   4.377 -0.5207 -0.2878  0.1446
 4272SOL    HW124449   4.383   2.151   4.344  0.7635  0.3414 -0.0062
 4272SOL    HW224450   4.432   2.277   4.382  0.0772 -1.9453  4.4230
 4273SOL     OW24451   4.033   2.888   6.329 -0.3600  0.3014  0.1559
 4273SOL    HW124452   3.994   2.829   6.265  1.4819 -1.4299  0.6361
 4273SOL    HW224453   4.125   2.886   6.302 -0.1136 -0.4755  1.0505
 4274SOL     OW24454   3.920   4.527   9.929  0.1982 -0.2403  0.1036
 4274SOL    HW124455   3.982   4.454   9.929  1.0455  0.4747  0.3705
 4274SOL    HW224456   3.906   4.544   9.836 -0.9592 -0.6148  0.2190
 4275SOL     OW24457   2.607   3.988  12.829 -0.0124 -0.1778 -0.3284
 4275SOL    HW124458   2.604   3.947  12.743 -1.6881 -1.0583  0.1560
 4275SOL    HW224459   2.573   4.076  12.814  0.9392  0.0649 -1.0529
 4276SOL     OW24460   4.194   0.735   8.164 -0.3798 -0.7234  0.8329
 4276SOL    HW124461   4.226   0.650   8.134  2.9015  0.7113  0.2137
 4276SOL    HW224462   4.103   0.741   8.137  0.1312  0.9182 -0.4926
 4277SOL     OW24463   2.283   4.473  11.388  0.0207  0.0369 -0.2008
 4277SOL    HW124464   2.205   4.525  11.371  0.6469  1.0225 -0.0700
 4277SOL    HW224465   2.352   4.536  11.368 -0.1260 -0.1848 -1.4130
 4278SOL     OW24466   4.099   4.101   5.937 -0.2066 -0.0141  0.0304
 4278SOL    HW124467   4.096   4.017   5.891 -1.9007 -0.6441  1.2648
 4278SOL    HW224468   4.141   4.074   6.019 -1.5424  1.0482  1.0703
 4279SOL     OW24469   1.861   1.645  16.691  0.1502  0.2076  0.0766
 4279SOL    HW124470   1.786   1.590  16.669  0.3748  0.4937 -1.4612
 4279SOL    HW224471   1.820   1.718  16.737 -0.2633 -0.9787  1.5573
 4280SOL     OW24472   1.989   0.146   3.443  0.1897 -0.1139 -0.4856
 4280SOL    HW124473   1.977   0.193   3.526 -2.1733  0.4316 -1.1388
 4280SOL    HW224474   1.898   0.155   3.413 -0.8987 -0.9512  2.5628
 4281SOL     OW24475   1.162   1.309   8.252  0.1390 -0.0948 -0.2654
 4281SOL    HW124476   1.217   1.231   8.259  0.9155  0.3906 -0.9293
 4281SOL    HW224477   1.141   1.323   8.344  1.0482  0.2051 -0.0986
 4282SOL     OW24478   1.628   4.736   5.604 -0.0125  0.7658 -0.2510
 4282SOL    HW124479   1.627   4.709   5.512  1.9932  0.3889 -0.1552
 4282SOL    HW224480   1.699   4.684   5.641 -0.8406 -0.1155  0.1013
 4283SOL     OW24481   1.940   2.185   1.687 -0.1374  0.1044  0.0328
 4283SOL    HW124482   1.897   2.270   1.700  1.2427  0.6566  1.0906
 4283SOL    HW224483   1.967   2.199   1.597 -1.7790  3.5291  0.0504
 4284SOL     OW24484   1.148   2.592   7.880  0.7285 -0.4269  0.4360
 4284SOL    HW124485   1.117   2.534   7.949 -1.7556  1.6317  1.0576
 4284SOL    HW224486   1.197   2.530   7.827 -1.1918 -2.7389  1.3598
 4285SOL     OW24487   0.355   4.320   0.512  0.5977 -0.2058 -0.2067
 4285SOL    HW124488   0.262   4.310   0.535  0.3246  0.1026 -1.1649
 4285SOL    HW224489   0.368   4.391   0.575 -0.8871 -2.0062  2.1739
 4286SOL     OW24490   2.960   0.222   4.722  0.2451 -0.2185 -0.1400
 4286SOL    HW124491   2.949   0.158   4.651 -0.0394  0.1587 -0.4397
 4286SOL    HW224492   2.895   0.188   4.783  1.0220  0.2123  0.9215
 4287SOL     OW24493   1.157   2.652  11.982  0.0056 -0.2858 -0.0673
 4287SOL    HW124494   1.140   2.666  12.075 -0.1437  0.9881 -0.2893
 4287SOL    HW224495   1.092   2.703  11.935 -1.4067  0.8093  3.1291
 4288SOL     OW24496   3.024   3.910   2.048 -0.2366  0.3713 -0.0720
 4288SOL    HW124497   2.972   3.955   2.114  0.2401  1.7455 -0.6381
 4288SOL    HW224498   2.975   3.931   1.968  0.1197 -2.5474 -1.0922
 4289SOL     OW24499   2.005   4.419  14.464 -0.7534  0.3978  0.4957
 4289SOL    HW124500   1.995   4.370  14.546  0.1190  1.1411  1.0467
 4289SOL    HW224501   1.912   4.423  14.439 -0.7182 -0.8057  0.1968
 4290SOL     OW24502   1.859   1.109   3.681  0.3110 -1.0618  0.1726
 4290SOL    HW124503   1.885   1.153   3.600 -1.5738  1.1214  0.7409
 4290SOL    HW224504   1.852   1.021   3.646 -2.8474 -1.4736  1.7871
 4291SOL     OW24505   1.740   2.707   2.094 -0.0488 -0.4034  0.5181
 4291SOL    HW124506   1.736   2.658   2.176  0.5174  0.7236  1.2234
 4291SOL    HW224507   1.835   2.713   2.087  0.0440 -2.5163  0.1012
 4292SOL     OW24508   4.186   0.898   6.969 -0.1462  0.3572  0.1889
 4292SOL    HW124509   4.109   0.953   6.962 -0.3292  0.3847  2.4853
 4292SOL    HW224510   4.158   0.820   7.016 -1.9397  1.5080  1.0247
 4293SOL     OW24511   1.237   0.295   8.163 -0.2841  0.2595 -0.0448
 4293SOL    HW124512   1.233   0.287   8.259  1.2252 -0.6955 -0.0488
 4293SOL    HW224513   1.161   0.241   8.141  0.2593 -0.4221 -0.2700
 4294SOL     OW24514   3.926   3.037   6.529  0.1749 -0.5465 -0.2190
 4294SOL    HW124515   3.845   2.991   6.550  1.8439 -2.7279  1.3910
 4294SOL    HW224516   3.980   2.987   6.467 -1.5654 -0.4037 -1.8481
 4295SOL     OW24517   3.837   0.095   3.891  0.4895  0.1191 -0.1072
 4295SOL    HW124518   3.832   0.043   3.972 -0.5687  0.0823 -0.1992
 4295SOL    HW224519   3.932   0.091   3.876  0.5313 -4.0933  1.3501
 4296SOL     OW24520   2.944   1.508   7.649 -0.8721  0.2865  0.3384
 4296SOL    HW124521   3.035   1.535   7.655 -0.3757 -1.0712 -0.9370
 4296SOL    HW224522   2.905   1.549   7.726 -1.6900 -0.7764  0.4958
 4297SOL     OW24523   0.612   2.067   0.809 -0.1550  0.1517 -0.4239
 4297SOL    HW124524   0.641   1.976   0.799  2.7114  1.3272 -2.6040
 4297SOL    HW224525   0.600   2.066   0.904  0.9334  0.7189 -0.2790
 4298SOL     OW24526   4.729   1.592  13.622  0.1721  0.3180 -0.0764
 4298SOL    HW124527   4.721   1.516  13.680  0.5623  1.0757  0.9722
 4298SOL    HW224528   4.691   1.562  13.540  1.1794 -0.8888 -0.1063
 4299SOL     OW24529   4.294   3.953  12.676  0.0689  0.3932 -0.5656
 4299SOL    HW124530   4.384   3.983  12.661  0.4579  0.0535  1.1645
 4299SOL    HW224531   4.246   4.031  12.703 -0.1563  0.0864 -0.0804
 4300SOL     OW24532   0.833   0.120  12.516 -0.1547 -0.7407  0.0858
 4300SOL    HW124533   0.898   0.120  12.586 -2.4223 -1.8642  2.1905
 4300SOL    HW224534   0.750   0.095  12.556 -0.4751 -0.0122 -0.1132
 4301SOL     OW24535   3.982   1.635   2.500 -0.4818 -0.3300  0.4681
 4301SOL    HW124536   4.003   1.668   2.413 -0.6792 -1.7493 -0.1317
 4301SOL    HW224537   3.906   1.678   2.539 -0.4380  0.2230 -0.0570
 4302SOL     OW24538   3.823   0.702  13.504 -0.5254  0.0126 -0.4307
 4302SOL    HW124539   3.801   0.763  13.574  1.2474  0.1101  0.0428
 4302SOL    HW224540   3.741   0.695  13.456 -1.1379  3.6229  0.0672
 4303SOL     OW24541   4.411   0.645   1.798  0.0184 -0.1249  0.2075
 4303SOL    HW124542   4.447   0.712   1.856 -0.2442 -0.9119  1.2659
 4303SOL    HW224543   4.498   0.620   1.766  0.0263 -0.8446  0.8060
 4304SOL     OW24544   0.443   3.410   1.263 -0.2944 -0.1331  0.6030
 4304SOL    HW124545   0.366   3.361   1.293 -0.0675 -1.6284 -1.2785
 4304SOL    HW224546   0.454   3.360   1.182 -1.6923  0.0071  0.3270
 4305SOL     OW24547   0.233   3.505  14.753 -0.1047  0.1189  0.0404
 4305SOL    HW124548   0.309   3.449  14.767 -1.6289 -2.3427 -1.4550
 4305SOL    HW224549   0.206   3.474  14.666 -4.5280  0.3539  1.3275
 4306SOL     OW24550   2.055   1.539  12.262 -0.4657 -0.1341  0.1681
 4306SOL    HW124551   2.031   1.522  12.353 -0.4685 -1.8017 -0.1446
 4306SOL    HW224552   2.068   1.454  12.221  2.5318  1.1966 -1.6068
 4307SOL     OW24553   2.892   1.806   8.664  0.1580 -0.8008 -0.5856
 4307SOL    HW124554   2.931   1.858   8.734 -0.8929  1.1622 -1.4594
 4307SOL    HW224555   2.969   1.775   8.615  1.9982  2.1386  0.4428
 4308SOL     OW24556   3.149   2.998   7.842  0.2605  0.0974 -0.3524
 4308SOL    HW124557   3.116   2.981   7.753 -0.4470  2.1680 -0.4759
 4308SOL    HW224558   3.198   3.079   7.839 -1.7294  1.2927 -0.5979
 4309SOL     OW24559   0.107   2.422   3.278 -0.3238  0.2674  0.6544
 4309SOL    HW124560   0.191   2.415   3.233 -1.0910 -1.2733 -0.5566
 4309SOL    HW224561   0.075   2.511   3.261 -1.0959  0.2231  1.8546
 4310SOL     OW24562   1.285   1.966   9.500  0.4040 -0.2329  0.1786
 4310SOL    HW124563   1.365   2.017   9.487 -1.3987  2.6398  0.2864
 4310SOL    HW224564   1.276   1.913   9.421 -0.2042 -0.8574  0.6661
 4311SOL     OW24565   0.789   2.980   1.151 -0.1640  0.1758 -0.2053
 4311SOL    HW124566   0.755   3.068   1.140  0.5037 -0.1770 -5.4464
 4311SOL    HW224567   0.833   2.971   1.066  3.2533 -0.5311  1.6565
 4312SOL     OW24568   0.171   3.663   2.893  0.2277  0.0540 -0.4909
 4312SOL    HW124569   0.160   3.571   2.917  0.7640  0.5639  1.7406
 4312SOL    HW224570   0.196   3.714   2.971 -0.1251  0.4921 -0.6626
 4313SOL     OW24571   3.803   1.034   1.742  0.1704  0.2675  1.2466
 4313SOL    HW124572   3.785   1.106   1.802  1.8320  2.3682 -0.7703
 4313SOL    HW224573   3.768   1.078   1.664  1.4957  1.3755  1.2736
 4314SOL     OW24574   0.042   2.521   5.990 -0.2451 -0.4162 -0.1797
 4314SOL    HW124575   0.031   2.459   5.918 -0.3289 -1.9189  1.1271
 4314SOL    HW224576   0.095   2.584   5.941  0.8525 -1.3552 -0.1903
 4315SOL     OW24577   2.567   2.407  12.149 -0.1834  0.0359  0.2258
 4315SOL    HW124578   2.569   2.487  12.201 -0.5821  0.7073 -0.8056
 4315SOL    HW224579   2.611   2.348  12.211 -0.9215 -0.2961  0.4378
 4316SOL     OW24580   4.277   3.013   9.788 -0.6718  0.3179 -0.6460
 4316SOL    HW124581   4.224   2.943   9.825 -2.6106  1.8608 -0.5007
 4316SOL    HW224582   4.293   3.057   9.872 -1.3765  1.9164 -1.3511
 4317SOL     OW24583   3.502   4.231   4.607 -0.0418 -0.0777 -0.7711
 4317SOL    HW124584   3.523   4.321   4.632 -0.5539 -0.4387  0.9996
 4317SOL    HW224585   3.426   4.238   4.549 -0.3270  1.8138 -0.1820
 4318SOL     OW24586   4.360   3.072  10.475  0.4068 -0.3829 -0.0047
 4318SOL    HW124587   4.448   3.107  10.489  0.2743  0.4204 -1.1493
 4318SOL    HW224588   4.371   2.980  10.498  1.0494 -0.3022  0.0232
 4319SOL     OW24589   2.029   1.954  11.356  0.3186 -0.5924 -0.3607
 4319SOL    HW124590   2.115   1.925  11.385  0.5809  0.9615  0.3646
 4319SOL    HW224591   2.045   1.962  11.262 -0.0974  0.4558 -0.3442
 4320SOL     OW24592   0.711   0.167   5.472 -0.1550  0.3706 -0.6193
 4320SOL    HW124593   0.678   0.107   5.538 -2.9765 -0.3496 -2.6644
 4320SOL    HW224594   0.766   0.097   5.435 -0.2517 -0.0083 -0.0509
 4321SOL     OW24595   1.018   4.547   8.664  0.4644 -0.0774  0.1010
 4321SOL    HW124596   1.019   4.486   8.737  0.7034 -1.4087 -1.0020
 4321SOL    HW224597   0.974   4.503   8.591  0.1798  1.9868 -1.0022
 4322SOL     OW24598   0.173   0.441   7.207  0.0269 -0.1514 -0.0169
 4322SOL    HW124599   0.114   0.516   7.213 -0.3614 -0.3650 -1.0165
 4322SOL    HW224600   0.239   0.473   7.146  2.5448 -4.5850  0.3437
 4323SOL     OW24601   3.600   1.763   4.655 -0.4859 -0.1551 -0.4864
 4323SOL    HW124602   3.619   1.783   4.563  0.1017  0.3029 -0.2695
 4323SOL    HW224603   3.678   1.803   4.693 -0.1102 -2.3763  1.0662
 4324SOL     OW24604   3.123   3.995   0.709  0.2822  0.2814  0.4365
 4324SOL    HW124605   3.147   3.993   0.802 -0.2997 -0.6881  0.5693
 4324SOL    HW224606   3.134   3.905   0.678 -1.9167 -0.1928  0.9672
 4325SOL     OW24607   3.925   0.572  10.615 -0.2165  0.5050  0.0637
 4325SOL    HW124608   4.004   0.582  10.669 -0.0200 -1.3701  0.1152
 4325SOL    HW224609   3.884   0.659  10.615 -3.1068 -0.8639  0.0339
 4326SOL     OW24610   0.029   1.544  14.817  0.2550 -0.7053 -0.0772
 4326SOL    HW124611   4.733   1.457  14.833  0.7706 -0.9016  0.0328
 4326SOL    HW224612   0.107   1.510  14.773  0.6947 -0.0155  0.1630
 4327SOL     OW24613   1.151   0.814   1.174 -0.1798  0.5417  0.1853
 4327SOL    HW124614   1.202   0.758   1.114  1.4196 -1.1304  3.1290
 4327SOL    HW224615   1.209   0.810   1.250 -0.6105 -3.5948  0.3234
 4328SOL     OW24616   2.080   2.208   5.795  0.1033 -0.7249 -0.7329
 4328SOL    HW124617   2.155   2.268   5.790 -2.4394  2.4314 -0.4613
 4328SOL    HW224618   2.016   2.244   5.856  1.2237 -1.7408  1.0685
 4329SOL     OW24619   0.604   1.651   4.083  0.5438 -0.3022  0.0029
 4329SOL    HW124620   0.615   1.719   4.149 -1.7196 -1.4749  1.5620
 4329SOL    HW224621   0.619   1.576   4.140 -1.5474  0.8606  2.0248
 4330SOL     OW24622   1.868   1.335   8.913 -0.2005  0.2748 -0.1609
 4330SOL    HW124623   1.781   1.357   8.881 -0.2774  0.5243  0.2279
 4330SOL    HW224624   1.923   1.369   8.842  1.4622 -0.7970  0.6004
 4331SOL     OW24625   1.574   1.315   9.148 -0.1723  0.3175 -0.5425
 4331SOL    HW124626   1.563   1.319   9.053  1.9976  3.4839 -0.6894
 4331SOL    HW224627   1.492   1.275   9.175 -0.1538  0.1861 -0.6813
 4332SOL     OW24628   1.380   0.922   5.790 -0.3617  0.6432 -0.3574
 4332SOL    HW124629   1.369   0.994   5.727 -0.9374  1.0894  0.2520
 4332SOL    HW224630   1.334   0.852   5.744 -1.3607  1.7981 -1.1151
 4333SOL     OW24631   0.570   1.481   9.065 -0.0467 -0.4335 -0.1786
 4333SOL    HW124632   0.517   1.547   9.110  1.6091  0.9118 -0.2047
 4333SOL    HW224633   0.628   1.455   9.136  2.2031 -0.1398 -1.8889
 4334SOL     OW24634   3.261   0.287   6.679  0.4890 -0.6826 -0.0735
 4334SOL    HW124635   3.203   0.327   6.615 -0.4982 -1.9755  0.0067
 4334SOL    HW224636   3.346   0.285   6.635 -0.0137 -1.0527 -1.0390
 4335SOL     OW24637   4.495   2.389  12.250  0.0083 -0.3097  0.0249
 4335SOL    HW124638   4.485   2.351  12.163  1.0126 -2.9322  1.0405
 4335SOL    HW224639   4.570   2.445  12.233  2.5959 -2.9700  2.6415
 4336SOL     OW24640   1.319   4.609   6.390 -0.4586 -0.0096 -0.0541
 4336SOL    HW124641   1.349   4.536   6.335  0.3770 -1.6957  2.6435
 4336SOL    HW224642   1.245   4.642   6.339  1.4754  1.5336 -1.8343
 4337SOL     OW24643   2.849   0.929   6.378  0.2576  0.7362  0.1126
 4337SOL    HW124644   2.841   0.869   6.303 -0.3769  1.5021 -0.4341
 4337SOL    HW224645   2.910   0.886   6.438  3.0700  0.5995 -2.8500
 4338SOL     OW24646   0.212   0.410   6.830  0.0055  0.2438  0.2844
 4338SOL    HW124647   0.188   0.317   6.828  1.1449  0.0028 -2.2644
 4338SOL    HW224648   0.279   0.430   6.765  1.7760 -1.0638  1.7112
 4339SOL     OW24649   4.474   0.218   6.010  0.3696  0.1753 -0.2921
 4339SOL    HW124650   4.488   0.134   6.054 -0.8502  0.9156  1.5119
 4339SOL    HW224651   4.384   0.240   6.032  0.0167  1.1762 -2.7884
 4340SOL     OW24652   4.197   0.446   9.280 -0.5875  0.1477 -0.5775
 4340SOL    HW124653   4.147   0.527   9.291 -2.7324 -0.7602 -3.6990
 4340SOL    HW224654   4.288   0.470   9.299  0.4207 -2.6092 -1.9285
 4341SOL     OW24655   3.935   2.422   0.566  0.1075 -0.1025 -0.5283
 4341SOL    HW124656   3.978   2.339   0.546 -0.2414 -0.4019 -0.0524
 4341SOL    HW224657   4.010   2.481   0.562  0.4188 -0.4969 -0.4879
 4342SOL     OW24658   4.375   1.619   2.424 -0.5661  0.0080  0.0762
 4342SOL    HW124659   4.452   1.566   2.444  1.2140  1.6799 -2.3582
 4342SOL    HW224660   4.415   1.675   2.357 -0.2516  1.3486  1.3736
 4343SOL     OW24661   4.653   1.850   9.094 -0.1280 -0.0948 -0.3692
 4343SOL    HW124662   4.605   1.921   9.136 -0.9078 -0.6296 -0.3473
 4343SOL    HW224663   0.002   1.879   9.108 -0.2771  0.6317 -0.9166
 4344SOL     OW24664   0.953   2.514   1.854 -0.4122  0.7380 -0.1462
 4344SOL    HW124665   0.888   2.461   1.901 -1.1414  1.6907 -0.0734
 4344SOL    HW224666   0.941   2.478   1.766  1.8651  1.2349 -0.6620
 4345SOL     OW24667   2.088   3.682   6.540  1.0595 -0.1381  0.2046
 4345SOL    HW124668   2.077   3.587   6.548 -0.7030 -0.0565 -1.0739
 4345SOL    HW224669   2.086   3.716   6.629 -1.7518  0.5271 -0.1040
 4346SOL     OW24670   2.691   3.594  11.504 -0.5960  0.1699  0.1379
 4346SOL    HW124671   2.682   3.536  11.429  3.5453  0.1211 -0.3152
 4346SOL    HW224672   2.772   3.557  11.539 -1.3170 -0.3189  1.3206
 4347SOL     OW24673   0.013   0.314  12.156  0.1747 -0.0298  0.1082
 4347SOL    HW124674   0.063   0.324  12.075  0.1632 -1.1626 -0.0434
 4347SOL    HW224675   4.679   0.373  12.151 -1.4079 -2.1394 -1.1266
 4348SOL     OW24676   3.328   0.348   8.523 -0.0407 -0.4121 -0.1455
 4348SOL    HW124677   3.356   0.302   8.602 -3.5247 -1.3283  0.5907
 4348SOL    HW224678   3.316   0.433   8.565 -2.3213  0.0635 -1.7476
 4349SOL     OW24679   1.368   0.981   5.224 -0.2823  0.1310  0.3187
 4349SOL    HW124680   1.438   1.045   5.208  0.3182 -0.3916  0.8646
 4349SOL    HW224681   1.402   0.904   5.179 -0.7348  0.5942 -0.8240
 4350SOL     OW24682   1.776   3.832   9.158 -0.0181 -0.5119 -0.1548
 4350SOL    HW124683   1.821   3.909   9.123 -0.4301 -0.2394 -0.0868
 4350SOL    HW224684   1.702   3.813   9.100  0.8692 -0.9652 -1.1337
 4351SOL     OW24685   1.597   3.775   6.356  0.5198  0.5294 -0.1990
 4351SOL    HW124686   1.690   3.753   6.361  0.0025 -0.6593  4.0089
 4351SOL    HW224687   1.587   3.765   6.262  1.7489  0.2162 -0.2997
 4352SOL     OW24688   0.320   1.078   3.925  0.7652 -0.1516  0.3128
 4352SOL    HW124689   0.327   1.096   4.019  1.2762  1.7511 -0.0749
 4352SOL    HW224690   0.297   1.159   3.879  2.2619 -0.1570 -0.4658
 4353SOL     OW24691   3.655   1.065   6.640  0.4252 -0.0814 -0.0597
 4353SOL    HW124692   3.748   1.048   6.655  0.2109  0.3150  1.7161
 4353SOL    HW224693   3.643   1.014   6.560 -2.3100  0.2953  0.1365
 4354SOL     OW24694   3.079   2.562  16.251 -0.1401  0.0007 -0.2172
 4354SOL    HW124695   3.142   2.633  16.238  0.0371 -0.2768 -0.8948
 4354SOL    HW224696   3.018   2.575  16.179  1.1630  1.6966 -1.0041
 4355SOL     OW24697   1.427   4.276   7.711 -0.2063  0.0584  0.2493
 4355SOL    HW124698   1.517   4.290   7.682 -0.4031  0.1691 -0.3142
 4355SOL    HW224699   1.404   4.223   7.634 -0.5393 -0.4454  0.6927
 4356SOL     OW24700   2.106   3.468   2.691 -0.0486  0.4799  0.0707
 4356SOL    HW124701   2.041   3.535   2.713 -1.1093 -0.4253 -0.3374
 4356SOL    HW224702   2.115   3.490   2.598 -1.2281 -3.5590 -0.9955
 4357SOL     OW24703   4.226   0.711   8.441  0.3313  0.3730  0.0081
 4357SOL    HW124704   4.219   0.705   8.346  1.3426  2.6726 -0.2078
 4357SOL    HW224705   4.137   0.684   8.464 -0.7084  2.5125 -1.5389
 4358SOL     OW24706   1.741   0.528   2.768  0.0020 -0.1531  0.5386
 4358SOL    HW124707   1.706   0.514   2.856  0.8446  2.1559  1.2477
 4358SOL    HW224708   1.699   0.460   2.715 -1.1011 -0.0654  1.3152
 4359SOL     OW24709   3.626   3.456   5.184 -0.8199 -0.1097  0.1638
 4359SOL    HW124710   3.558   3.403   5.143 -1.9098  0.4133  1.3360
 4359SOL    HW224711   3.622   3.417   5.271 -0.2857  0.4433  0.4370
 4360SOL     OW24712   3.014   2.426  16.526 -0.3175  0.2071 -0.4710
 4360SOL    HW124713   3.040   2.485  16.455 -0.6027  0.0413 -0.7113
 4360SOL    HW224714   3.052   2.345  16.491  0.4561  0.2330  0.3003
 4361SOL     OW24715   1.065   1.225  13.815 -0.2146  0.2891 -0.4072
 4361SOL    HW124716   0.981   1.259  13.846  1.6905  2.9645  1.8802
 4361SOL    HW224717   1.111   1.210  13.898 -1.8296  2.1170  0.8093
 4362SOL     OW24718   0.297   3.902   2.654 -0.2445  0.6202  0.2503
 4362SOL    HW124719   0.224   3.962   2.671  1.4614  2.2114  1.9864
 4362SOL    HW224720   0.338   3.911   2.740  0.1955  0.7875  0.0185
 4363SOL     OW24721   3.962   4.147   2.516  0.4542  0.0338  0.2344
 4363SOL    HW124722   3.895   4.159   2.584 -1.6425 -0.0251 -1.8098
 4363SOL    HW224723   4.003   4.062   2.534 -0.3762 -0.5451 -0.6250
 4364SOL     OW24724   0.390   2.855   4.549 -0.0960 -0.4784  0.0610
 4364SOL    HW124725   0.303   2.883   4.579 -0.0783 -0.7108  0.3293
 4364SOL    HW224726   0.387   2.762   4.529  0.5334 -0.2599 -1.0595
 4365SOL     OW24727   0.486   2.919   0.076  1.1631  0.2253  0.3373
 4365SOL    HW124728   0.502   3.010   0.052  1.0687 -0.0459 -0.7218
 4365SOL    HW224729   0.557   2.872   0.033  2.2031  2.8613 -0.8240
 4366SOL     OW24730   3.851   3.014   1.824 -0.1087 -0.6152  0.2307
 4366SOL    HW124731   3.763   2.996   1.791  1.3797 -0.0775 -3.9716
 4366SOL    HW224732   3.897   2.930   1.818 -0.9322 -1.0920  0.6655
 4367SOL     OW24733   3.618   3.096   8.888 -0.1210 -0.2473 -0.0439
 4367SOL    HW124734   3.592   3.187   8.874 -2.1872 -1.1020 -1.7819
 4367SOL    HW224735   3.538   3.057   8.922  0.5357 -0.1708  1.5826
 4368SOL     OW24736   1.566   0.452  12.909  0.5521 -0.0102  0.4459
 4368SOL    HW124737   1.499   0.516  12.886 -0.8396 -0.6652  2.6722
 4368SOL    HW224738   1.525   0.384  12.962  2.6011 -0.8064  0.9940
 4369SOL     OW24739   0.747   2.430   8.601 -0.4482  0.7608 -0.1894
 4369SOL    HW124740   0.661   2.395   8.580  0.0351 -0.9791  0.7752
 4369SOL    HW224741   0.716   2.505   8.651  1.9525 -0.2324  2.7937
 4370SOL     OW24742   4.050   4.066   9.629  0.2326 -0.4658 -0.1355
 4370SOL    HW124743   4.064   4.018   9.711 -0.6497  1.8616  1.3820
 4370SOL    HW224744   4.123   4.025   9.581 -1.7324  0.2942 -3.7632
 4371SOL     OW24745   0.697   2.416   4.729  0.0278  0.2737  0.4130
 4371SOL    HW124746   0.785   2.409   4.765 -0.0723  1.4370  0.8853
 4371SOL    HW224747   0.724   2.484   4.667  0.0489 -0.6441 -0.5716
 4372SOL     OW24748   3.560   3.177  11.592  0.3613  0.1983  0.1328
 4372SOL    HW124749   3.628   3.180  11.524  0.6782 -1.3258  0.3712
 4372SOL    HW224750   3.485   3.213  11.545 -0.1436 -0.6073  0.3190
 4373SOL     OW24751   0.267   4.685   6.313 -0.0849 -0.1669 -0.9019
 4373SOL    HW124752   0.266   4.593   6.286  0.5194 -0.9675  1.8516
 4373SOL    HW224753   0.333   4.686   6.383  0.2100  0.5620 -1.1944
 4374SOL     OW24754   2.271   2.326  14.715  0.5399 -0.0582 -0.9958
 4374SOL    HW124755   2.311   2.398  14.765  1.5311 -2.6824  1.9799
 4374SOL    HW224756   2.177   2.338  14.722  1.0018  4.1421 -1.6469
 4375SOL     OW24757   3.409   3.365   3.312  0.0705  0.4541 -0.2134
 4375SOL    HW124758   3.391   3.419   3.235 -1.6880 -0.2936 -0.3233
 4375SOL    HW224759   3.423   3.274   3.286  0.3723  1.0354 -2.0746
 4376SOL     OW24760   2.671   0.565   7.532 -0.1836 -0.3139 -0.4521
 4376SOL    HW124761   2.653   0.659   7.524 -0.4961 -0.3104  0.2775
 4376SOL    HW224762   2.730   0.550   7.458 -0.4194  0.1022 -0.7247
 4377SOL     OW24763   3.340   1.006   6.844 -0.3493  0.2721  0.2886
 4377SOL    HW124764   3.331   0.987   6.937 -1.1573  0.8330  0.3294
 4377SOL    HW224765   3.294   0.936   6.797  0.3845  0.6302 -0.9585
 4378SOL     OW24766   1.377   3.183   3.227  0.5844 -0.0041  0.2287
 4378SOL    HW124767   1.291   3.221   3.241  1.3814  1.5646  0.9241
 4378SOL    HW224768   1.389   3.144   3.314  2.7318  2.3711  1.0082
 4379SOL     OW24769   1.397   0.723   1.042  0.0590  0.0550 -0.1050
 4379SOL    HW124770   1.387   0.661   1.115 -2.5497 -0.7304 -1.1279
 4379SOL    HW224771   1.416   0.804   1.090  1.1605  0.1769 -0.7365
 4380SOL     OW24772   1.467   1.539   3.429  0.4162  0.2495 -0.6893
 4380SOL    HW124773   1.394   1.541   3.491  1.7062 -0.3200  0.8597
 4380SOL    HW224774   1.416   1.559   3.350 -2.9395 -4.2610  0.3795
 4381SOL     OW24775   0.423   4.646   5.879  0.2277  1.0379 -1.3816
 4381SOL    HW124776   0.367   4.696   5.820  0.2429  2.1563 -0.4470
 4381SOL    HW224777   0.371   4.662   5.958 -0.0566 -0.7900 -1.1878
 4382SOL     OW24778   0.624   2.808   5.335 -0.0308  0.2559  0.8070
 4382SOL    HW124779   0.715   2.788   5.358  0.5490 -1.5370 -3.0550
 4382SOL    HW224780   0.617   2.898   5.364  1.1274  0.5359  0.2232
 4383SOL     OW24781   4.663   0.639   1.163 -0.1737 -0.2331 -0.3394
 4383SOL    HW124782   4.681   0.607   1.251 -1.8049 -0.6648 -0.1588
 4383SOL    HW224783   4.647   0.733   1.175  0.3260 -0.1047 -0.6681
 4384SOL     OW24784   4.163   2.435   7.308  0.0330 -0.1008  0.0799
 4384SOL    HW124785   4.252   2.427   7.343  0.3952  0.4658 -0.7151
 4384SOL    HW224786   4.179   2.420   7.215 -0.3486  2.5634 -0.4028
 4385SOL     OW24787   4.222   1.569   5.954 -0.8836  0.4094 -0.2981
 4385SOL    HW124788   4.218   1.474   5.962 -1.8234  0.6346  1.9220
 4385SOL    HW224789   4.130   1.591   5.962 -0.4999  1.6793  0.6257
 4386SOL     OW24790   2.276   2.395   2.664 -0.0267 -0.1350  0.2711
 4386SOL    HW124791   2.359   2.346   2.665  1.1645  1.9100  1.2548
 4386SOL    HW224792   2.298   2.457   2.595  2.0149 -0.1342  0.9020
 4387SOL     OW24793   3.104   1.141   3.011  0.0647  0.1499 -0.0830
 4387SOL    HW124794   3.173   1.086   3.048  1.1601 -0.0032 -2.3875
 4387SOL    HW224795   3.090   1.099   2.926  0.2516  1.4168 -0.7263
 4388SOL     OW24796   0.456   3.690   6.729  0.1792  0.2874 -0.2103
 4388SOL    HW124797   0.376   3.650   6.763 -0.0187  0.4488 -0.4861
 4388SOL    HW224798   0.425   3.777   6.701  1.1182  0.2568 -1.3290
 4389SOL     OW24799   0.539   0.984   3.411 -0.4328  0.0732  0.2884
 4389SOL    HW124800   0.476   1.017   3.347 -0.0508 -1.4056 -0.8548
 4389SOL    HW224801   0.543   0.891   3.389 -4.8158  0.2294 -1.1655
 4390SOL     OW24802   3.830   2.459   1.868 -0.0928 -0.2113  1.0235
 4390SOL    HW124803   3.864   2.547   1.885 -0.9993  0.4545 -0.5649
 4390SOL    HW224804   3.861   2.415   1.947 -0.2212 -0.6117  0.8506
 4391SOL     OW24805   0.210   2.413   7.631 -0.1940 -0.0996  0.5251
 4391SOL    HW124806   0.160   2.439   7.709 -0.7893 -1.1417  0.4817
 4391SOL    HW224807   0.214   2.500   7.591 -3.6098 -0.8603 -1.4952
 4392SOL     OW24808   1.084   0.479   9.013  0.2387 -0.1369  0.1296
 4392SOL    HW124809   1.170   0.436   9.012  0.5504  0.6263 -4.0364
 4392SOL    HW224810   1.095   0.537   8.937 -0.7402 -2.6643 -1.9258
 4393SOL     OW24811   4.479   0.080   9.966  0.0212  0.0099  0.1650
 4393SOL    HW124812   4.508   0.162   9.927  1.3543 -1.8161 -2.6390
 4393SOL    HW224813   4.420   0.033   9.907 -0.8116  1.7215 -0.3652
 4394SOL     OW24814   4.190   2.697   4.401 -0.2627  0.0904 -0.3152
 4394SOL    HW124815   4.279   2.708   4.366  0.0827  1.2995  0.9568
 4394SOL    HW224816   4.145   2.667   4.322  3.7099  0.4279 -2.6989
 4395SOL     OW24817   4.692   2.177   1.925 -0.1382  0.1707 -0.1179
 4395SOL    HW124818   4.609   2.155   1.966 -1.2683  2.2780 -1.2482
 4395SOL    HW224819   4.674   2.138   1.840 -2.5513 -2.1760  1.4793
 4396SOL     OW24820   2.332   4.477   7.906  0.0155  0.1552  0.1129
 4396SOL    HW124821   2.249   4.510   7.940 -0.0191  1.7713 -1.5489
 4396SOL    HW224822   2.386   4.552   7.932  1.4860 -0.5561 -0.9066
 4397SOL     OW24823   0.464   1.901   8.121  0.0367 -0.1309  0.1565
 4397SOL    HW124824   0.455   1.810   8.146 -1.5588  0.0652  0.2812
 4397SOL    HW224825   0.497   1.899   8.031  0.3253 -0.6505  0.2721
 4398SOL     OW24826   2.084   0.059  15.867 -0.5249 -0.3435  0.5012
 4398SOL    HW124827   2.114   0.055  15.958  0.1253 -1.8153  0.2247
 4398SOL    HW224828   2.088   4.710  15.836  2.1909  0.0140 -0.2217
 4399SOL     OW24829   4.166   4.048   6.217  0.6844  0.1564 -0.5422
 4399SOL    HW124830   4.089   3.991   6.215  0.5421  0.3259  0.0819
 4399SOL    HW224831   4.205   4.016   6.299 -0.7918 -2.5651 -0.8898
 4400SOL     OW24832   0.661   3.206   9.173  0.0873  0.1205  0.1800
 4400SOL    HW124833   0.606   3.156   9.111  0.3991 -0.8614  0.6974
 4400SOL    HW224834   0.610   3.188   9.251  1.0264 -0.9085  0.5536
 4401SOL     OW24835   2.690   1.355   2.496 -0.3059 -0.3986  0.7269
 4401SOL    HW124836   2.720   1.445   2.500  0.2808 -0.5480 -0.2372
 4401SOL    HW224837   2.771   1.311   2.470 -0.0272 -0.4950  1.7327
 4402SOL     OW24838   4.596   1.717   1.888  0.0780  0.5980  0.4963
 4402SOL    HW124839   4.523   1.696   1.946  0.7924 -0.1823  1.1002
 4402SOL    HW224840   4.618   1.632   1.852  1.1445  1.2213 -0.3297
 4403SOL     OW24841   1.982   0.805  11.380 -0.3023 -0.5364  0.4928
 4403SOL    HW124842   1.984   0.776  11.289  0.1188  0.5802  0.1416
 4403SOL    HW224843   1.893   0.777  11.400 -1.9101  2.7003 -1.9920
 4404SOL     OW24844   2.425   1.513   8.417  0.3482  0.0213 -0.6401
 4404SOL    HW124845   2.488   1.469   8.475 -2.0991 -2.2003  0.3161
 4404SOL    HW224846   2.342   1.490   8.457 -0.4348  2.3964 -0.9181
 4405SOL     OW24847   4.706   3.021   4.888  0.2833  0.4301 -0.5053
 4405SOL    HW124848   4.732   3.102   4.845 -0.4629  1.0483  0.2184
 4405SOL    HW224849   0.043   3.006   4.943 -1.5538 -0.1112  1.9656
 4406SOL     OW24850   0.262   1.947   4.505 -0.0110  0.1555  0.2477
 4406SOL    HW124851   0.306   1.985   4.581 -1.7650  0.8629  0.9143
 4406SOL    HW224852   0.194   1.894   4.546 -0.4018 -1.1852 -2.1326
 4407SOL     OW24853   0.707   4.736   5.130  0.1614 -0.1613 -0.3746
 4407SOL    HW124854   0.730   4.696   5.046 -4.0401 -1.1993 -1.0147
 4407SOL    HW224855   0.619   0.030   5.118  0.1597  0.5061  1.7103
 4408SOL     OW24856   1.382   3.424  16.437 -0.0787 -0.1796 -0.1728
 4408SOL    HW124857   1.344   3.336  16.444 -0.9542  0.1686 -0.7003
 4408SOL    HW224858   1.308   3.480  16.416 -0.6639  0.4115  3.3624
 4409SOL     OW24859   1.943   3.247   6.758  0.1354  0.3924 -0.3723
 4409SOL    HW124860   1.995   3.327   6.766 -0.0123  0.1483  3.1762
 4409SOL    HW224861   1.873   3.254   6.823  1.7869  2.6899  1.1617
 4410SOL     OW24862   3.253   2.100   5.739  0.2456 -0.0398 -0.0254
 4410SOL    HW124863   3.327   2.072   5.685 -0.6730 -0.2997 -1.1395
 4410SOL    HW224864   3.213   2.015   5.760  0.1491 -0.9236 -3.7708
 4411SOL     OW24865   0.351   0.245   7.848  0.2952 -0.4753 -0.0370
 4411SOL    HW124866   0.378   0.305   7.779  0.4956 -0.9255 -0.3502
 4411SOL    HW224867   0.421   0.243   7.913 -0.2861  0.5098  0.6215
 4412SOL     OW24868   1.414   2.658   0.619  0.2014 -0.6326  0.3021
 4412SOL    HW124869   1.321   2.652   0.595  0.7518  1.3689 -2.3240
 4412SOL    HW224870   1.452   2.658   0.531  1.1068  1.5740  0.6886
 4413SOL     OW24871   0.886   4.652   3.082 -0.2178  0.2945 -0.2555
 4413SOL    HW124872   0.809   4.706   3.101  0.5279  0.1885  3.0636
 4413SOL    HW224873   0.887   4.578   3.142  0.6578  0.1877 -0.4091
 4414SOL     OW24874   1.261   4.141  15.619 -0.6492 -0.3301  0.1463
 4414SOL    HW124875   1.229   4.228  15.643  3.1376  0.6087  1.7259
 4414SOL    HW224876   1.355   4.141  15.633 -0.6445  0.3962  0.1312
 4415SOL     OW24877   4.034   3.354   0.968  0.0757 -0.2179 -0.0756
 4415SOL    HW124878   4.101   3.322   1.029 -2.0481 -0.8236  1.9497
 4415SOL    HW224879   4.025   3.289   0.899 -1.6807  0.1084 -0.1517
 4416SOL     OW24880   4.338   0.384   4.976  0.0888 -0.1704 -0.4322
 4416SOL    HW124881   4.316   0.301   4.934  0.9912 -0.9788  0.7005
 4416SOL    HW224882   4.398   0.351   5.043 -1.4469  0.9613  1.5046
 4417SOL     OW24883   0.366   4.463   5.179  0.5675  0.5561 -0.4508
 4417SOL    HW124884   0.321   4.394   5.130 -0.9966  0.1423  1.5586
 4417SOL    HW224885   0.300   4.495   5.241 -0.4657 -0.6488 -0.9220
 4418SOL     OW24886   1.996   3.870   4.224 -0.3508 -0.4671 -0.1324
 4418SOL    HW124887   1.966   3.961   4.211 -2.0118 -0.6453  2.4631
 4418SOL    HW224888   1.926   3.826   4.273  2.0455 -1.1358  2.6922
 4419SOL     OW24889   1.371   2.312   9.404 -0.3716  0.4829  0.5846
 4419SOL    HW124890   1.437   2.262   9.356 -0.5324 -0.5760  1.4732
 4419SOL    HW224891   1.374   2.277   9.493  1.7527  0.5277  0.5323
 4420SOL     OW24892   4.233   3.421   3.939 -0.2028 -0.1044 -0.1788
 4420SOL    HW124893   4.192   3.344   3.901 -0.3012 -0.2065  0.1363
 4420SOL    HW224894   4.154   3.471   3.960 -0.3147 -0.4240  0.1431
 4421SOL     OW24895   1.748   1.739   8.952  0.1112  0.6793  0.3795
 4421SOL    HW124896   1.831   1.772   8.917 -0.9300 -0.2294 -2.9765
 4421SOL    HW224897   1.716   1.695   8.873  0.4864  0.7672  0.1748
 4422SOL     OW24898   3.960   0.426   3.934 -0.5580 -0.2692 -0.5601
 4422SOL    HW124899   3.992   0.480   3.862 -0.1221  1.2717  0.7916
 4422SOL    HW224900   3.876   0.396   3.901 -1.0116  1.3926 -0.8946
 4423SOL     OW24901   0.207   1.869   3.235  0.7504  0.2522 -0.4767
 4423SOL    HW124902   0.173   1.949   3.276  0.5100  1.0295 -2.2054
 4423SOL    HW224903   0.136   1.835   3.180  0.9103 -3.1714  1.4332
 4424SOL     OW24904   3.147   4.724   0.059  0.1732  0.3412 -0.5052
 4424SOL    HW124905   3.153   0.079   0.056 -0.1340  0.3616 -0.4939
 4424SOL    HW224906   3.238   4.701   0.077 -0.1551 -0.7291 -0.2499
 4425SOL     OW24907   0.576   1.385   1.082  0.5269  0.3222 -0.1283
 4425SOL    HW124908   0.546   1.397   1.172 -0.0253 -0.6789 -0.1780
 4425SOL    HW224909   0.654   1.336   1.105  2.5662  2.7172 -1.8654
 4426SOL     OW24910   4.014   2.345   8.267  0.1882  0.2576  0.1132
 4426SOL    HW124911   4.055   2.428   8.289  1.2521  0.3386 -2.2725
 4426SOL    HW224912   3.989   2.366   8.177  0.6805  1.0729  0.1702
 4427SOL     OW24913   2.330   3.528   5.301 -0.2327 -0.5116  0.0803
 4427SOL    HW124914   2.290   3.464   5.242 -0.3187 -2.8637  2.7154
 4427SOL    HW224915   2.327   3.603   5.242 -0.6776 -0.4845  0.1446
 4428SOL     OW24916   2.520   1.035   5.602  0.1831 -0.4248 -0.5839
 4428SOL    HW124917   2.492   0.958   5.552  2.3590 -0.2574 -2.0750
 4428SOL    HW224918   2.615   1.025   5.607 -0.0471 -2.0372  0.7233
 4429SOL     OW24919   3.265   1.081   2.006  0.2043  0.3514  0.0500
 4429SOL    HW124920   3.262   0.990   1.974  2.0589 -0.5473  2.4334
 4429SOL    HW224921   3.319   1.121   1.938 -0.0082 -1.1287 -0.9974
 4430SOL     OW24922   1.590   1.023   7.674 -1.2118  0.0607 -0.1360
 4430SOL    HW124923   1.642   0.987   7.746 -1.1931  0.8328  0.2292
 4430SOL    HW224924   1.517   1.067   7.717  0.4694  1.0394  1.7387
 4431SOL     OW24925   0.596   3.757   2.585  0.3163 -0.4097 -0.2490
 4431SOL    HW124926   0.652   3.688   2.622 -1.6776  0.3794  4.3475
 4431SOL    HW224927   0.543   3.717   2.516  0.0205 -0.3120 -0.0824
 4432SOL     OW24928   1.218   3.070  14.665 -0.0654 -0.2104  0.2152
 4432SOL    HW124929   1.292   3.020  14.631  1.8094  2.3365  0.5188
 4432SOL    HW224930   1.209   3.149  14.612 -1.2977  0.6674  1.7480
 4433SOL     OW24931   3.656   2.265   8.324 -0.0288 -0.0989  0.2296
 4433SOL    HW124932   3.697   2.274   8.238 -3.9121 -0.4815 -1.6432
 4433SOL    HW224933   3.625   2.175   8.315  0.4921  0.0969 -3.4166
 4434SOL     OW24934   4.218   1.530   4.909  0.4361 -0.7367 -0.1161
 4434SOL    HW124935   4.199   1.564   4.996 -0.4573 -0.1370 -0.5495
 4434SOL    HW224936   4.198   1.437   4.923  1.6957 -1.1415 -1.0443
 4435SOL     OW24937   1.638   1.503  11.990 -0.6530  0.0568 -0.3466
 4435SOL    HW124938   1.700   1.551  12.045  0.4974 -2.4006  0.4849
 4435SOL    HW224939   1.590   1.572  11.944  1.3084 -0.1207 -2.6325
 4436SOL     OW24940   3.846   1.295   3.011 -0.4123 -0.0257 -0.1265
 4436SOL    HW124941   3.868   1.335   3.095 -0.1298  1.6323 -1.0045
 4436SOL    HW224942   3.883   1.209   3.033 -0.5519 -0.0094  0.1818
 4437SOL     OW24943   2.490   2.716   1.224 -0.5772  0.2819 -0.4838
 4437SOL    HW124944   2.535   2.651   1.279  1.1344  0.7025 -1.3733
 4437SOL    HW224945   2.398   2.690   1.229 -0.2416 -0.8924 -0.3659
 4438SOL     OW24946   3.093   2.368   7.305 -0.2399  0.2480  0.1883
 4438SOL    HW124947   3.110   2.274   7.313 -0.5975  0.4839  3.8815
 4438SOL    HW224948   3.176   2.409   7.331 -0.0422 -0.1870  0.2411
 4439SOL     OW24949   1.442   3.690   1.947  0.2168  0.0931 -0.3403
 4439SOL    HW124950   1.393   3.617   1.908  0.3414  0.7319 -1.7060
 4439SOL    HW224951   1.428   3.667   2.039 -0.3090  1.1101 -0.1679
 4440SOL     OW24952   3.264   3.570   9.503  0.0051  0.0714  0.4158
 4440SOL    HW124953   3.303   3.503   9.560 -1.9171 -0.2273  1.3843
 4440SOL    HW224954   3.329   3.636   9.481  2.5143 -1.7127  2.4159
 4441SOL     OW24955   3.703   0.897   3.964  0.3023 -0.0186 -0.0966
 4441SOL    HW124956   3.621   0.903   3.916 -1.2429 -2.3692  2.2482
 4441SOL    HW224957   3.717   0.988   3.992  3.5855 -0.3231 -0.7517
 4442SOL     OW24958   0.687   1.921   4.555  0.7057 -0.0939 -0.4615
 4442SOL    HW124959   0.686   2.016   4.554 -2.5291 -0.1358 -1.0994
 4442SOL    HW224960   0.782   1.922   4.565  0.9030  0.6822 -2.5535
 4443SOL     OW24961   4.042   3.057   3.540  0.2217  0.2750  0.3041
 4443SOL    HW124962   4.103   3.080   3.470 -1.1043 -1.6627 -1.5262
 4443SOL    HW224963   4.081   3.108   3.611 -0.0325 -0.1650  0.7614
 4444SOL     OW24964   4.691   1.029   9.673  0.1354 -1.0688  0.3123
 4444SOL    HW124965   4.621   1.022   9.738 -2.1837 -1.1837 -2.2118
 4444SOL    HW224966   4.731   1.113   9.697 -0.1264 -0.9536  0.3540
 4445SOL     OW24967   1.253   1.607  10.658 -0.0951 -0.0158 -0.7652
 4445SOL    HW124968   1.326   1.586  10.601 -0.0611 -1.9803 -0.0038
 4445SOL    HW224969   1.224   1.696  10.638  1.2493  0.6116  0.0705
 4446SOL     OW24970   1.606   1.118  13.861 -0.2390  0.1958  0.2816
 4446SOL    HW124971   1.583   1.209  13.877 -0.9778  0.5640 -2.8320
 4446SOL    HW224972   1.543   1.098  13.792  0.5141  1.3103 -0.7400
 4447SOL     OW24973   2.019   1.124  17.031  0.2828  0.3286  0.5620
 4447SOL    HW124974   1.973   1.154  16.952 -0.4975  0.3444  1.0259
 4447SOL    HW224975   1.964   1.052  17.062 -1.1006  1.1211 -0.0215
 4448SOL     OW24976   4.503   3.654  13.230 -0.2922 -0.2329 -0.3341
 4448SOL    HW124977   4.570   3.605  13.276  0.7708 -0.5073 -2.1548
 4448SOL    HW224978   4.441   3.586  13.201  0.6102 -0.8583 -0.8012
 4449SOL     OW24979   2.428   3.644   3.275  0.2934  0.4704  0.0795
 4449SOL    HW124980   2.452   3.734   3.296  0.1545  0.2441  1.2294
 4449SOL    HW224981   2.446   3.625   3.183 -0.0110  0.2076  0.0721
 4450SOL     OW24982   4.026   2.676   2.474 -0.0182  0.2507  0.0126
 4450SOL    HW124983   4.003   2.754   2.423  1.1075 -0.4048 -1.5270
 4450SOL    HW224984   3.968   2.667   2.549 -3.1715  2.5863 -2.1586
 4451SOL     OW24985   2.340   2.820  12.885  0.0653  0.2283 -0.7059
 4451SOL    HW124986   2.391   2.747  12.920  0.1540 -0.2523 -1.8546
 4451SOL    HW224987   2.399   2.832  12.811 -0.2062 -0.7322 -1.0739
 4452SOL     OW24988   2.475   3.533   1.017 -0.5238  0.0548 -0.1352
 4452SOL    HW124989   2.539   3.463   1.004  1.4001  1.8071  0.0328
 4452SOL    HW224990   2.511   3.605   0.966 -1.4498 -0.1030 -0.9991
 4453SOL     OW24991   2.538   0.255   7.403 -0.0308 -0.0926  0.7207
 4453SOL    HW124992   2.516   0.331   7.348 -0.2476 -0.6247  0.0796
 4453SOL    HW224993   2.452   0.217   7.420 -0.3640  0.7633  0.9702
 4454SOL     OW24994   0.171   1.396   2.651  0.4297  0.0560  0.4237
 4454SOL    HW124995   0.101   1.437   2.701  0.0204 -0.7442  0.4988
 4454SOL    HW224996   0.129   1.312   2.632 -0.2646  0.2722  0.9886
 4455SOL     OW24997   1.367   1.871   0.632 -0.1208  0.4048 -0.1775
 4455SOL    HW124998   1.367   1.938   0.564  0.5260 -1.0894 -1.6440
 4455SOL    HW224999   1.445   1.820   0.609 -0.6684 -0.8635  0.7829
 4456SOL     OW25000   0.782   4.103  12.490 -0.4864  0.3926 -0.0731
 4456SOL    HW125001   0.778   4.140  12.402 -1.4666  1.3856  0.3941
 4456SOL    HW225002   0.833   4.024  12.470 -1.6905 -0.4095  0.0572
 4457SOL     OW25003   0.768   2.405   6.422  0.4719  0.4447  0.6445
 4457SOL    HW125004   0.762   2.419   6.327  0.2746  0.8843  0.7213
 4457SOL    HW225005   0.675   2.413   6.443  0.2428 -0.4556 -0.0664
 4458SOL     OW25006   4.114   2.450   5.283 -0.4385  0.7390  0.0835
 4458SOL    HW125007   4.154   2.415   5.362 -1.1238 -1.8536 -0.7222
 4458SOL    HW225008   4.179   2.438   5.213  0.2192  2.0292  0.4626
 4459SOL     OW25009   4.547   2.251  12.549 -0.5063  0.1852  0.2836
 4459SOL    HW125010   4.594   2.244  12.632 -1.1381 -1.1710  0.5258
 4459SOL    HW225011   4.558   2.346  12.546 -0.2386  0.1512  0.2191
 4460SOL     OW25012   0.408   0.530  15.255  0.1578 -0.6197  0.5176
 4460SOL    HW125013   0.420   0.473  15.179  1.6123  0.3590  0.0044
 4460SOL    HW225014   0.401   0.620  15.222  0.5306 -0.3796  1.1066
 4461SOL     OW25015   4.608   4.247  13.772 -0.6607 -0.5262 -0.3501
 4461SOL    HW125016   4.527   4.287  13.804 -0.4400  2.9629 -4.0914
 4461SOL    HW225017   4.601   4.161  13.813  0.5976 -0.4656 -0.0251
 4462SOL     OW25018   2.113   3.854   3.305 -0.3820 -0.5312 -0.2735
 4462SOL    HW125019   2.024   3.889   3.304 -0.3387 -0.4980 -3.0324
 4462SOL    HW225020   2.113   3.807   3.222 -1.5715 -2.9091  1.0473
 4463SOL     OW25021   2.296   2.698   6.096 -0.2742  0.8415 -0.0089
 4463SOL    HW125022   2.275   2.618   6.047  1.3776  0.5499 -0.2521
 4463SOL    HW225023   2.259   2.762   6.035 -0.8434  0.6770  0.1670
 4464SOL     OW25024   3.730   0.567  12.058  0.2368 -0.4158  0.0903
 4464SOL    HW125025   3.714   0.528  12.144 -1.1907 -1.3767 -0.6172
 4464SOL    HW225026   3.789   0.499  12.025 -1.6214 -1.1257 -1.7751
 4465SOL     OW25027   0.151   4.308  14.728 -0.2902 -0.1677 -0.5994
 4465SOL    HW125028   0.071   4.257  14.711 -1.0557  0.7836  0.1479
 4465SOL    HW225029   0.208   4.243  14.768 -0.3790  0.3069  0.2822
 4466SOL     OW25030   2.033   4.331  13.025  0.0830 -0.1619  0.0237
 4466SOL    HW125031   1.974   4.285  13.086  2.4543 -0.6197  1.9523
 4466SOL    HW225032   2.118   4.338  13.068 -0.1370 -0.3898  0.5016
 4467SOL     OW25033   4.738   1.452   7.482 -0.4677 -0.4361  0.1229
 4467SOL    HW125034   0.032   1.452   7.571 -0.8495 -0.9036  0.2718
 4467SOL    HW225035   4.716   1.362   7.455 -0.2418  0.1390 -2.0294
 4468SOL     OW25036   1.259   0.998  14.993 -0.8023 -0.2384  0.4696
 4468SOL    HW125037   1.278   0.904  14.998  0.3470  0.0138  0.6484
 4468SOL    HW225038   1.341   1.039  14.968 -2.2372  1.6832 -1.0946
 4469SOL     OW25039   3.620   2.134   8.833 -0.4686  0.0965  0.2821
 4469SOL    HW125040   3.698   2.185   8.854 -0.9345  1.5588 -1.5867
 4469SOL    HW225041   3.556   2.179   8.887 -0.1929  2.3393 -1.2754
 4470SOL     OW25042   3.367   3.244   9.587 -0.1345  0.3116  0.5438
 4470SOL    HW125043   3.397   3.155   9.569 -0.8116  1.0240 -4.0319
 4470SOL    HW225044   3.283   3.241   9.541  1.1996 -0.9952 -1.8057
 4471SOL     OW25045   4.069   0.553   6.772 -0.5798 -0.5179  0.3768
 4471SOL    HW125046   4.006   0.502   6.823  0.5583 -0.7458  1.5465
 4471SOL    HW225047   4.134   0.571   6.839  0.0407 -1.4561  0.0160
 4472SOL     OW25048   1.974   1.513  11.870  0.2740 -0.1249  0.3671
 4472SOL    HW125049   1.906   1.565  11.913 -0.0879  0.8930 -1.4492
 4472SOL    HW225050   1.938   1.426  11.886 -0.7967  0.7155  2.4520
 4473SOL     OW25051   3.559   3.227   6.556  0.2118 -0.5098 -0.3327
 4473SOL    HW125052   3.537   3.140   6.524  1.0216 -0.0897 -2.0560
 4473SOL    HW225053   3.561   3.220   6.652  0.9975  0.0861 -0.3079
 4474SOL     OW25054   3.235   3.810   7.336 -0.3968 -0.1766  0.1071
 4474SOL    HW125055   3.248   3.716   7.321 -3.3387 -0.7720  1.3182
 4474SOL    HW225056   3.325   3.840   7.344 -0.8183  0.9199  0.7567
 4475SOL     OW25057   2.481   0.032   3.084  0.0557  0.1588  0.1400
 4475SOL    HW125058   2.481   0.073   3.170 -2.0022  2.1310 -0.8020
 4475SOL    HW225059   2.406   0.055   3.029  0.1293 -0.2043 -0.1177
 4476SOL     OW25060   1.374   0.495   9.038 -0.1257 -0.6778 -0.1763
 4476SOL    HW125061   1.410   0.577   9.073 -1.3791 -0.3109  0.2684
 4476SOL    HW225062   1.344   0.453   9.119  0.8000  1.1717  1.1254
 4477SOL     OW25063   4.172   4.560   1.362 -0.1957  0.2533  0.0413
 4477SOL    HW125064   4.208   4.473   1.377 -1.4478 -0.2872 -0.0777
 4477SOL    HW225065   4.109   4.554   1.433 -1.4067  0.4057 -1.0242
 4478SOL     OW25066   1.412   1.423   7.516  0.2264  0.1962 -0.3168
 4478SOL    HW125067   1.359   1.365   7.571  2.4615  0.3866  2.0428
 4478SOL    HW225068   1.384   1.387   7.432 -1.3427 -0.0291  0.3120
 4479SOL     OW25069   0.788   2.418   6.151 -0.0674 -0.0088 -0.3426
 4479SOL    HW125070   0.853   2.354   6.124 -0.2287 -0.5535  0.5547
 4479SOL    HW225071   0.806   2.496   6.099  0.2809  0.5681  0.6325
 4480SOL     OW25072   1.362   0.848   0.354 -0.2447 -0.2510 -0.4013
 4480SOL    HW125073   1.371   0.817   0.264  2.1228  1.4051 -0.7294
 4480SOL    HW225074   1.368   0.942   0.334 -1.7297 -0.1292 -0.3038
 4481SOL     OW25075   3.812   3.654   2.261  0.9041  0.2366  0.6459
 4481SOL    HW125076   3.833   3.685   2.172  1.0632 -0.2108  0.5282
 4481SOL    HW225077   3.897   3.645   2.304  1.5474  1.7229 -0.2671
 4482SOL     OW25078   2.186   2.118   8.801 -0.6556  0.0449  0.4094
 4482SOL    HW125079   2.259   2.173   8.773 -0.3220 -0.8849 -0.5632
 4482SOL    HW225080   2.194   2.126   8.896  2.0537  3.2432 -0.1042
 4483SOL     OW25081   0.398   1.543   3.801  0.5173 -0.0116 -0.2274
 4483SOL    HW125082   0.444   1.504   3.727  0.8706 -1.0021  0.5086
 4483SOL    HW225083   0.423   1.635   3.787  0.8203  0.0333  0.5896
 4484SOL     OW25084   1.402   0.626   8.809 -0.3616 -0.0337  0.3646
 4484SOL    HW125085   1.389   0.557   8.874 -1.3790 -0.6261 -0.4740
 4484SOL    HW225086   1.476   0.671   8.849  0.3718 -0.4061 -0.5840
 4485SOL     OW25087   1.984   3.166   6.225 -0.0759  0.2443 -0.2424
 4485SOL    HW125088   1.926   3.197   6.294  1.7898  0.2930  1.3258
 4485SOL    HW225089   2.070   3.152   6.265 -0.1082  0.6648 -0.0306
 4486SOL     OW25090   3.287   0.400   2.202 -0.0826  0.0932  0.1922
 4486SOL    HW125091   3.260   0.486   2.171  0.3135 -0.4529 -1.6846
 4486SOL    HW225092   3.344   0.428   2.274  0.8232 -0.9225 -0.1231
 4487SOL     OW25093   1.589   3.110  17.295  0.0217 -0.1959  0.3314
 4487SOL    HW125094   1.593   3.103  17.200 -3.2312 -1.0203  0.2232
 4487SOL    HW225095   1.681   3.128  17.314  0.3436  0.4768 -1.8466
 4488SOL     OW25096   0.923   1.284   6.606 -0.2041 -0.3196 -0.3677
 4488SOL    HW125097   0.837   1.243   6.600 -0.4233  0.1999 -0.8044
 4488SOL    HW225098   0.966   1.263   6.523 -2.0103 -0.9770 -1.1214
 4489SOL     OW25099   1.409   1.733  17.559  0.4034 -0.7175 -0.3847
 4489SOL    HW125100   1.447   1.751  17.645  0.8665 -3.0048 -0.1143
 4489SOL    HW225101   1.318   1.717  17.580  0.3027  1.1703  0.6427
 4490SOL     OW25102   4.168   4.015   5.093  0.0914 -0.3420  0.1946
 4490SOL    HW125103   4.177   4.045   5.183 -2.3995  0.7142  0.1129
 4490SOL    HW225104   4.096   4.070   5.060 -0.4444  0.1825  2.2736
 4491SOL     OW25105   1.345   0.069   6.819  0.4260  0.1808 -0.3830
 4491SOL    HW125106   1.285   0.103   6.753  1.5986  1.4673 -0.7858
 4491SOL    HW225107   1.382   4.737   6.770  1.3883  0.5229 -0.1733
 4492SOL     OW25108   0.257   1.254   9.982 -0.1985  0.1195  0.1583
 4492SOL    HW125109   0.301   1.336  10.006 -0.4382  0.5602 -0.9197
 4492SOL    HW225110   0.327   1.204   9.940  1.2940  1.7482  0.6989
 4493SOL     OW25111   4.722   0.158   5.223  0.8201 -0.1275 -0.0459
 4493SOL    HW125112   0.074   0.133   5.217  1.1620  0.6035  2.2651
 4493SOL    HW225113   4.688   0.069   5.215  0.4583 -0.0109  0.2252
 4494SOL     OW25114   2.705   0.052   9.254  0.7533  0.4406  0.1270
 4494SOL    HW125115   2.769   0.123   9.246 -0.2510  1.2703 -0.4997
 4494SOL    HW225116   2.744   4.733   9.319  1.4059  1.0976  0.3367
 4495SOL     OW25117   1.656   0.070   3.571  0.4834  0.0790  0.5127
 4495SOL    HW125118   1.733   0.090   3.625  1.3650 -1.2903 -0.2395
 4495SOL    HW225119   1.672   4.719   3.548  1.4601  0.7474 -1.5735
 4496SOL     OW25120   1.917   4.350  14.712 -0.5244  0.5328  0.1349
 4496SOL    HW125121   1.940   4.392  14.795  1.4655 -0.6190  0.1624
 4496SOL    HW225122   1.870   4.270  14.737 -2.1262  0.5583 -2.7799
 4497SOL     OW25123   3.550   4.418   0.036 -0.0138 -0.4768  0.4946
 4497SOL    HW125124   3.508   4.429  17.711 -0.7116 -2.5748  0.5752
 4497SOL    HW225125   3.535   4.326   0.058  0.2921 -0.5241  0.5033
 4498SOL     OW25126   1.706   2.519   4.367  0.3974  0.2515  1.1109
 4498SOL    HW125127   1.734   2.600   4.325 -2.1711 -0.4285 -1.9773
 4498SOL    HW225128   1.717   2.470   4.286 -0.7890  1.8160  0.0051
 4499SOL     OW25129   3.505   2.322  10.089 -0.8827  0.5960 -0.0642
 4499SOL    HW125130   3.583   2.299  10.038 -0.8162  0.6137  0.0284
 4499SOL    HW225131   3.517   2.417  10.097 -1.1407  0.4955  1.6605
 4500SOL     OW25132   1.469   0.563  10.619  0.1819  0.6204 -0.1518
 4500SOL    HW125133   1.422   0.499  10.566 -1.6410  1.6436  0.2170
 4500SOL    HW225134   1.530   0.588  10.549 -0.9940  1.3312 -0.9319
 4501SOL     OW25135   3.972   1.561   3.094 -0.2134 -0.6509  0.1160
 4501SOL    HW125136   3.956   1.542   3.002  1.4089  0.5582 -0.4025
 4501SOL    HW225137   3.908   1.631   3.106  0.2576 -0.0875 -0.7082
 4502SOL     OW25138   0.804   2.807  11.601  0.2405 -0.1209 -0.9394
 4502SOL    HW125139   0.716   2.780  11.575  0.4467 -1.1162 -0.5945
 4502SOL    HW225140   0.861   2.768  11.534 -1.3313 -0.3999 -2.0983
 4503SOL     OW25141   3.891   0.738   6.680  0.3115 -0.0834  0.4647
 4503SOL    HW125142   3.890   0.702   6.592  0.2273  1.2731 -0.0889
 4503SOL    HW225143   3.937   0.665   6.720  0.8707 -0.5885 -1.1264
 4504SOL     OW25144   2.073   4.309  13.611 -0.2408 -0.4467  0.0900
 4504SOL    HW125145   2.092   4.367  13.685 -0.5290  0.2488 -0.3782
 4504SOL    HW225146   2.046   4.375  13.547  0.7482  0.2060  0.3472
 4505SOL     OW25147   1.199   4.373   8.420 -0.0378 -0.1206  0.0327
 4505SOL    HW125148   1.242   4.380   8.335  1.9431 -2.7136  0.8341
 4505SOL    HW225149   1.108   4.391   8.397 -0.4179  0.5359  2.0620
 4506SOL     OW25150   3.778   2.092   4.385 -0.1133 -0.5614  0.0691
 4506SOL    HW125151   3.693   2.046   4.389 -0.5797  0.1047 -2.1113
 4506SOL    HW225152   3.832   2.016   4.364  0.1717 -0.0752 -0.9125
 4507SOL     OW25153   0.759   4.258   6.585 -0.1677  0.2099  0.7398
 4507SOL    HW125154   0.726   4.168   6.581 -0.1649  0.3659 -2.6434
 4507SOL    HW225155   0.827   4.263   6.652 -0.5283  1.2795  1.0373
 4508SOL     OW25156   1.250   2.849  17.661 -0.6712  0.4358 -0.1716
 4508SOL    HW125157   1.309   2.869  17.587  1.5200  0.0025  1.4536
 4508SOL    HW225158   1.163   2.833  17.626 -1.0010  0.4905  0.6326
 4509SOL     OW25159   4.471   3.199   6.979 -0.0314  0.3381  0.5987
 4509SOL    HW125160   4.417   3.241   7.046 -1.1888  1.4306 -1.0320
 4509SOL    HW225161   4.409   3.130   6.958  1.0735 -0.8520  1.2171
 4510SOL     OW25162   0.107   0.652   6.296 -0.2048 -0.1688  0.0029
 4510SOL    HW125163   0.084   0.662   6.204  0.4067  0.6392 -0.0601
 4510SOL    HW225164   0.200   0.672   6.289 -1.2226  4.4518 -0.5963
 4511SOL     OW25165   3.765   0.411  14.563 -0.0761  0.1923  0.2509
 4511SOL    HW125166   3.673   0.438  14.568 -1.0262 -3.1129  0.1312
 4511SOL    HW225167   3.783   0.395  14.470 -0.5291  1.0034  0.0197
 4512SOL     OW25168   0.958   4.018  17.302  0.1255  0.0447  0.2974
 4512SOL    HW125169   0.867   4.001  17.327  0.4150  0.8686  1.9006
 4512SOL    HW225170   0.968   4.112  17.291 -2.7729  0.5580  2.1215
 4513SOL     OW25171   1.279   1.107  13.720 -0.5535  0.2872  0.0802
 4513SOL    HW125172   1.190   1.134  13.745  0.1992  2.0716  0.8551
 4513SOL    HW225173   1.290   1.138  13.630 -2.0267 -1.7483 -0.8118
 4514SOL     OW25174   1.747   4.034   1.972  0.1487 -0.4933  0.0410
 4514SOL    HW125175   1.676   4.041   1.908  0.5901 -0.2185 -0.4128
 4514SOL    HW225176   1.734   4.107   2.033  1.4541  0.8968 -1.3563
 4515SOL     OW25177   2.027   1.199  10.073 -0.2198  0.3751 -0.2575
 4515SOL    HW125178   2.031   1.107  10.097  1.9223  0.5667  0.1578
 4515SOL    HW225179   2.116   1.215  10.040 -0.0820 -0.7003 -0.4028
 4516SOL     OW25180   0.787   2.990  17.511 -0.2681 -0.1580  0.3102
 4516SOL    HW125181   0.707   3.030  17.545 -0.1155 -0.6575  1.2529
 4516SOL    HW225182   0.850   3.046  17.557 -0.1917  0.2486 -0.2891
 4517SOL     OW25183   3.246   3.706   6.879 -0.1383 -0.0627  0.2833
 4517SOL    HW125184   3.264   3.730   6.788  1.0979 -1.9160  0.0425
 4517SOL    HW225185   3.223   3.613   6.875 -2.6722  0.7298 -3.7850
 4518SOL     OW25186   4.080   2.163   4.170 -0.5598  0.0984 -0.4610
 4518SOL    HW125187   4.076   2.128   4.260  1.5242  2.1120  0.4102
 4518SOL    HW225188   4.144   2.099   4.139  0.0624  0.5330 -0.0617
 4519SOL     OW25189   4.452   4.139   0.947 -0.1709 -0.0643 -0.3454
 4519SOL    HW125190   4.543   4.166   0.957 -0.7119  0.5719  2.6620
 4519SOL    HW225191   4.473   4.051   0.914 -1.8360 -0.4463 -0.4137
 4520SOL     OW25192   4.197   2.670  12.818  0.0841 -0.4573  0.5079
 4520SOL    HW125193   4.284   2.705  12.835 -1.6295  3.5367  0.9107
 4520SOL    HW225194   4.136   2.737  12.850 -0.5571 -0.6015 -0.4024
 4521SOL     OW25195   2.726   2.044   5.404 -0.3380  0.0260  0.4769
 4521SOL    HW125196   2.665   1.983   5.445  1.2325 -0.3662  2.2385
 4521SOL    HW225197   2.793   2.045   5.472 -1.6835 -0.2033  1.8079
 4522SOL     OW25198   4.288   3.809   3.766 -0.6236 -0.0184 -0.3279
 4522SOL    HW125199   4.354   3.749   3.802  0.4273  1.0506 -0.5001
 4522SOL    HW225200   4.311   3.824   3.674  1.9055 -2.8865 -0.1550
 4523SOL     OW25201   3.300   3.831   3.624 -0.2310  0.2671 -0.7438
 4523SOL    HW125202   3.395   3.835   3.608 -0.5468  1.2522 -2.3914
 4523SOL    HW225203   3.291   3.892   3.697 -1.6896 -0.8527 -0.0013
 4524SOL     OW25204   3.505   0.615   3.770  0.3930  0.0745  0.0917
 4524SOL    HW125205   3.540   0.698   3.803 -1.6460  1.0756 -0.2307
 4524SOL    HW225206   3.423   0.653   3.737  1.0337  0.7288 -0.7279
 4525SOL     OW25207   1.725   3.988   5.408 -0.3046 -0.3244 -0.7000
 4525SOL    HW125208   1.783   3.977   5.483 -0.5322  1.7025 -0.2455
 4525SOL    HW225209   1.676   4.060   5.447  0.7468 -0.0345  0.0634
 4526SOL     OW25210   3.879   0.506   3.409 -0.0261  0.5093 -0.0244
 4526SOL    HW125211   3.956   0.522   3.353  0.5094 -0.4146  0.4581
 4526SOL    HW225212   3.865   0.595   3.443  3.0322  0.4277  1.4050
 4527SOL     OW25213   3.176   3.666   7.869  0.1580  0.5374 -0.5800
 4527SOL    HW125214   3.157   3.757   7.892  1.6697  0.4030  1.1781
 4527SOL    HW225215   3.096   3.636   7.825 -0.2115 -1.1615  1.2556
 4528SOL     OW25216   3.227   2.623   1.840 -0.4465  0.0626  0.6902
 4528SOL    HW125217   3.280   2.680   1.896 -0.1739  0.2635  0.2299
 4528SOL    HW225218   3.286   2.548   1.849 -0.0010  0.0914 -1.9446
 4529SOL     OW25219   1.738   4.610  13.511  0.0851 -0.3270 -0.6294
 4529SOL    HW125220   1.728   4.527  13.559  0.2154 -0.8976 -1.5850
 4529SOL    HW225221   1.821   4.597  13.467  0.2709  1.4507 -0.7958
 4530SOL     OW25222   1.864   1.225  16.566  0.7284 -0.0798 -0.2759
 4530SOL    HW125223   1.861   1.302  16.510 -1.5895  0.8697  1.1248
 4530SOL    HW225224   1.949   1.247  16.604  1.8829 -3.9024 -0.6247
 4531SOL     OW25225   0.031   4.322   0.307  0.1271  0.2470  0.3292
 4531SOL    HW125226   0.013   4.343   0.215 -0.3482  1.0669  0.6089
 4531SOL    HW225227   4.685   4.296   0.336  0.1366  1.3619  1.3551
 4532SOL     OW25228   0.816   3.430   7.146 -0.5991  0.0448  0.5091
 4532SOL    HW125229   0.898   3.451   7.102 -0.1457  3.2276  2.9103
 4532SOL    HW225230   0.753   3.417   7.076  0.3929 -0.7025 -0.2513
 4533SOL     OW25231   0.367   4.060   3.542  0.0078  0.2846 -0.2532
 4533SOL    HW125232   0.319   4.129   3.589 -1.5397 -0.6574 -0.4313
 4533SOL    HW225233   0.413   4.012   3.610 -2.2911 -2.0411 -0.3430
 4534SOL     OW25234   3.631   0.956   8.537  0.4691 -0.5067  0.3299
 4534SOL    HW125235   3.661   1.007   8.461  0.7425 -1.8084 -0.4567
 4534SOL    HW225236   3.655   1.005   8.615 -1.8493  1.1298  0.0202
 4535SOL     OW25237   4.584   0.974   3.555  1.2018 -0.1036  0.2672
 4535SOL    HW125238   4.530   1.012   3.624 -0.6690 -0.9010 -0.7571
 4535SOL    HW225239   4.529   1.002   3.482  1.9219  0.5298 -0.0454
 4536SOL     OW25240   0.954   2.770  11.849  0.1398  0.0418 -0.0743
 4536SOL    HW125241   0.920   2.757  11.761  0.3145 -0.7494 -0.0312
 4536SOL    HW225242   0.921   2.858  11.868 -0.4451  0.0661 -1.2395
 4537SOL     OW25243   2.436   0.095   9.289  0.0355  0.5246 -0.0582
 4537SOL    HW125244   2.526   0.080   9.261 -0.3827 -1.2608 -0.4089
 4537SOL    HW225245   2.395   0.009   9.288  0.0740  0.5631 -3.3657
 4538SOL     OW25246   2.740   4.396   3.466  0.3656  0.8346 -0.0965
 4538SOL    HW125247   2.706   4.419   3.552 -5.1165 -2.6119 -1.4057
 4538SOL    HW225248   2.657   4.395   3.418  1.1452 -0.8500 -1.4093
 4539SOL     OW25249   3.090   0.487   9.295  0.8555  0.1034 -0.2971
 4539SOL    HW125250   3.010   0.483   9.242  0.6798  1.1370 -0.1123
 4539SOL    HW225251   3.118   0.579   9.300 -0.7700  0.6286 -0.6003
 4540SOL     OW25252   0.337   1.865   1.429 -0.1723  0.1303  0.3968
 4540SOL    HW125253   0.356   1.917   1.507 -0.9691  1.1769 -0.0991
 4540SOL    HW225254   0.420   1.825   1.405 -0.7222  0.3231 -1.8624
 4541SOL     OW25255   2.281   0.567   3.774  0.0530 -0.2562 -0.2153
 4541SOL    HW125256   2.295   0.487   3.723 -2.6004 -0.0173 -1.3581
 4541SOL    HW225257   2.209   0.554   3.835  0.3713  0.3823  0.3003
 4542SOL     OW25258   2.723   0.336   6.877 -0.0933 -0.1857 -0.3858
 4542SOL    HW125259   2.773   0.416   6.859  0.2375 -0.0654  1.0121
 4542SOL    HW225260   2.633   0.368   6.875 -0.1812 -0.3175  1.3245
 4543SOL     OW25261   3.379   2.516   8.958 -0.1689  0.1242 -0.1767
 4543SOL    HW125262   3.383   2.513   8.862 -1.3113  1.3353 -0.2505
 4543SOL    HW225263   3.286   2.531   8.970 -0.4158 -3.2489  2.2562
 4544SOL     OW25264   2.941   1.589   3.535 -0.5560  0.1151 -0.3058
 4544SOL    HW125265   2.986   1.522   3.484 -1.2553  0.0696 -0.8558
 4544SOL    HW225266   2.858   1.555   3.499 -0.7797 -2.3052  2.4593
 4545SOL     OW25267   0.833   2.696  10.176 -0.0903  0.0906  0.4096
 4545SOL    HW125268   0.864   2.681  10.265 -0.1232 -1.3102  0.1869
 4545SOL    HW225269   0.803   2.610  10.147 -0.9051  0.2482  0.8063
 4546SOL     OW25270   1.727   3.793   3.984  0.4562 -0.2036 -0.1198
 4546SOL    HW125271   1.763   3.705   3.992  1.7173  0.1876 -1.3253
 4546SOL    HW225272   1.638   3.774   4.013 -0.0003  0.2846 -1.1996
 4547SOL     OW25273   0.434   4.546   9.481 -0.2992 -0.6432 -0.8884
 4547SOL    HW125274   0.376   4.620   9.459  0.0711 -0.1813 -0.3221
 4547SOL    HW225275   0.413   4.530   9.573  0.3453  3.0124 -0.0949
 4548SOL     OW25276   1.317   2.220   7.249 -0.5560 -0.0330 -0.3269
 4548SOL    HW125277   1.330   2.304   7.203  1.2508 -0.0873  0.0868
 4548SOL    HW225278   1.364   2.158   7.193  0.5308  0.5878 -0.1166
 4549SOL     OW25279   0.894   0.481   4.928 -0.2844  0.4323 -0.2611
 4549SOL    HW125280   0.887   0.571   4.897  1.0373  0.2504 -1.1176
 4549SOL    HW225281   0.967   0.454   4.871  0.3005  0.0745  0.6607
 4550SOL     OW25282   4.704   0.921   2.251 -0.1652  0.2131  0.1695
 4550SOL    HW125283   4.615   0.947   2.276  0.0580  0.8608  0.3072
 4550SOL    HW225284   0.013   0.999   2.277 -1.8704  0.7675  1.7920
 4551SOL     OW25285   1.086   4.384   4.957  0.2389  0.3395  0.0762
 4551SOL    HW125286   1.050   4.299   4.984 -1.0618  1.0759  0.6432
 4551SOL    HW225287   1.116   4.428   5.037  0.0825  0.8265 -0.1381
 4552SOL     OW25288   3.632   0.125   5.219 -0.3364  0.3492  0.2930
 4552SOL    HW125289   3.622   0.073   5.298  1.8464  0.8578  0.8947
 4552SOL    HW225290   3.685   0.063   5.168 -1.2651  0.1790 -0.4642
 4553SOL     OW25291   1.507   1.368  17.364  0.6278  0.1613  0.2317
 4553SOL    HW125292   1.424   1.349  17.408  0.9419 -1.1156  0.2673
 4553SOL    HW225293   1.501   1.463  17.369  2.2202  0.2331  0.8968
 4554SOL     OW25294   4.257   1.681  15.913  0.2431  0.1565 -0.3792
 4554SOL    HW125295   4.258   1.694  16.008 -2.3316 -0.2239 -0.2913
 4554SOL    HW225296   4.219   1.761  15.877 -3.1950 -1.5391 -0.5714
 4555SOL     OW25297   2.464   0.767   5.500  0.4346 -0.2634 -0.8877
 4555SOL    HW125298   2.533   0.701   5.507  1.4326  0.7831 -0.9322
 4555SOL    HW225299   2.464   0.794   5.408 -0.8584 -2.6481 -1.5864
 4556SOL     OW25300   1.319   4.337   4.349 -0.0377 -0.4883 -0.1156
 4556SOL    HW125301   1.303   4.316   4.257  1.6590 -1.1428 -0.2528
 4556SOL    HW225302   1.381   4.410   4.342 -0.7765  0.1329 -0.1498
 4557SOL     OW25303   1.100   2.893   4.252  0.2427 -0.5972 -0.2446
 4557SOL    HW125304   1.179   2.936   4.219 -0.0312  0.3739  0.3568
 4557SOL    HW225305   1.143   2.827   4.307  0.7898  0.7124  0.9017
 4558SOL     OW25306   2.199   2.634   6.565  0.0438  0.0110  0.6772
 4558SOL    HW125307   2.281   2.620   6.612  1.3932  1.2254 -1.3144
 4558SOL    HW225308   2.241   2.672   6.488 -1.3050 -1.3605 -0.7426
 4559SOL     OW25309   1.973   0.386  14.881  0.3738  0.4834 -0.0647
 4559SOL    HW125310   2.014   0.390  14.967 -0.8063 -1.2786  0.5692
 4559SOL    HW225311   1.881   0.385  14.907  0.3774 -0.0324 -0.0801
 4560SOL     OW25312   3.449   3.324   1.102 -0.8218  0.1947  0.6237
 4560SOL    HW125313   3.445   3.248   1.161 -1.5620 -1.0750 -1.0723
 4560SOL    HW225314   3.542   3.327   1.081 -0.2566 -0.0808  3.1047
 4561SOL     OW25315   0.807   1.912   4.144  0.3568  0.6186  0.6780
 4561SOL    HW125316   0.887   1.865   4.164 -1.0294 -1.2728  1.7274
 4561SOL    HW225317   0.748   1.868   4.206 -0.0983  0.6795  0.2894
 4562SOL     OW25318   0.269   0.767   7.367  0.5491  0.2927 -0.0938
 4562SOL    HW125319   0.263   0.846   7.313  1.0167 -0.1707 -0.8261
 4562SOL    HW225320   0.315   0.706   7.308 -2.1388 -1.7789 -0.0222
 4563SOL     OW25321   1.804   1.326   2.774 -0.0767 -0.5326 -0.1788
 4563SOL    HW125322   1.813   1.418   2.749  2.1137 -0.3043  1.5217
 4563SOL    HW225323   1.866   1.293   2.709 -1.2994  1.2228 -2.2191
 4564SOL     OW25324   0.901   4.158  10.087  0.5119  0.1366  0.6567
 4564SOL    HW125325   0.891   4.090  10.154 -1.1863  0.0802  0.3321
 4564SOL    HW225326   0.862   4.111  10.013 -0.4460  0.0475  1.2257
 4565SOL     OW25327   3.540   0.736  11.965 -0.5848  0.4115  0.7652
 4565SOL    HW125328   3.486   0.731  12.044 -2.3253 -1.0016 -0.5106
 4565SOL    HW225329   3.616   0.683  11.991  0.7142  1.0307 -1.8182
 4566SOL     OW25330   4.140   3.266   3.056 -0.2556 -0.5213 -0.0816
 4566SOL    HW125331   4.225   3.265   3.012  1.2510  0.1236  2.8144
 4566SOL    HW225332   4.076   3.226   2.997 -1.0056  1.0797 -0.3852
 4567SOL     OW25333   4.135   3.948  14.581  0.3945  0.3505 -0.4136
 4567SOL    HW125334   4.180   3.872  14.544 -1.9368 -1.5707  0.7198
 4567SOL    HW225335   4.050   3.909  14.601  0.7174  0.8829  2.0686
 4568SOL     OW25336   0.920   1.560   8.347  0.2333 -0.4478 -0.0189
 4568SOL    HW125337   0.869   1.485   8.316 -1.9337  0.6362  0.9074
 4568SOL    HW225338   0.929   1.612   8.268  0.0566 -0.2763  0.0734
 4569SOL     OW25339   0.160   0.598  10.675  0.2967 -0.2925  0.4886
 4569SOL    HW125340   0.102   0.649  10.618  1.3367 -0.3981 -0.6793
 4569SOL    HW225341   0.172   0.659  10.747  2.0401 -0.4425  0.3131
 4570SOL     OW25342   1.886   4.325   8.196 -0.0760 -0.0664 -0.0458
 4570SOL    HW125343   1.803   4.322   8.149  0.6208 -2.8269 -1.0949
 4570SOL    HW225344   1.865   4.266   8.269 -0.7416 -3.7301 -3.2079
 4571SOL     OW25345   4.303   0.666  13.306  0.1611  0.1912 -0.6715
 4571SOL    HW125346   4.255   0.628  13.232 -0.0862  0.4609 -0.6520
 4571SOL    HW225347   4.236   0.728  13.335  1.3847  1.6776 -1.0053
 4572SOL     OW25348   4.286   1.084   3.405 -0.3721 -0.0987 -0.5801
 4572SOL    HW125349   4.228   1.044   3.341  0.3974  0.3893 -1.5861
 4572SOL    HW225350   4.255   1.031   3.479 -0.9519 -1.6130 -1.9318
 4573SOL     OW25351   1.451   0.602   5.493  0.3928 -0.1153 -0.3645
 4573SOL    HW125352   1.514   0.569   5.558  0.6199 -1.9255 -1.5093
 4573SOL    HW225353   1.484   0.692   5.492  1.6737 -0.5577  1.3880
 4574SOL     OW25354   1.322   1.190   4.526 -0.4508 -0.6506 -0.0502
 4574SOL    HW125355   1.309   1.262   4.465 -1.0927 -0.6573  0.0705
 4574SOL    HW225356   1.336   1.239   4.607  1.6970  0.1834 -0.9416
 4575SOL     OW25357   1.416   4.577  14.089  0.1523 -0.1943  0.3167
 4575SOL    HW125358   1.323   4.594  14.099  0.1512 -1.3390  2.1951
 4575SOL    HW225359   1.434   4.551  14.179  2.4221 -2.7762 -0.8730
 4576SOL     OW25360   4.132   3.489  16.490 -0.1619 -0.5259 -0.9180
 4576SOL    HW125361   4.215   3.456  16.524 -1.4456 -0.5553  2.1171
 4576SOL    HW225362   4.066   3.441  16.539 -0.1234  0.4005  0.0406
 4577SOL     OW25363   1.805   2.345   7.240  0.0618  0.2594  0.2228
 4577SOL    HW125364   1.719   2.337   7.281  0.2110  2.6169  0.9810
 4577SOL    HW225365   1.862   2.371   7.312  0.9752  1.8092 -1.0418
 4578SOL     OW25366   1.337   0.901   2.348 -0.1732 -0.3754  0.3921
 4578SOL    HW125367   1.285   0.846   2.406  0.7125  0.0979  1.6404
 4578SOL    HW225368   1.285   0.900   2.267 -0.0401  1.4757  0.2854
 4579SOL     OW25369   1.983   0.429  12.769  0.2975 -0.2084  0.1113
 4579SOL    HW125370   2.020   0.362  12.712 -0.6847  1.6359 -2.6786
 4579SOL    HW225371   2.065   0.470  12.797  0.6505 -1.1035  0.3995
 4580SOL     OW25372   1.513   0.010   3.037 -0.4998 -0.1774  0.1374
 4580SOL    HW125373   1.420   0.022   3.057 -0.9368 -2.8672 -0.3027
 4580SOL    HW225374   1.531   4.663   3.070 -1.2808 -0.0474  0.9206
 4581SOL     OW25375   2.759   0.760   3.122  0.2182  0.3796  0.1644
 4581SOL    HW125376   2.786   0.669   3.129  0.7610  0.4688 -0.7547
 4581SOL    HW225377   2.670   0.757   3.159 -0.2260  0.0402 -0.9372
 4582SOL     OW25378   1.029   3.070   2.078 -0.4257 -0.1066  0.0894
 4582SOL    HW125379   0.969   3.033   2.143  0.6176 -1.7039  0.1612
 4582SOL    HW225380   1.081   2.990   2.082 -0.0628  0.0790 -1.1563
 4583SOL     OW25381   3.576   3.033   2.979  0.2026  0.1138 -0.4155
 4583SOL    HW125382   3.591   2.970   2.908 -1.4545 -0.0748 -0.6000
 4583SOL    HW225383   3.530   2.976   3.041  0.4670 -1.2200 -1.4270
 4584SOL     OW25384   4.316   4.559   7.368 -1.0395 -0.3687 -0.3397
 4584SOL    HW125385   4.287   4.635   7.317  2.8809  1.0759 -0.4649
 4584SOL    HW225386   4.295   4.587   7.457  0.9251 -0.9529  0.3126
 4585SOL     OW25387   2.711   3.176   2.837 -0.1573 -0.0138 -0.0756
 4585SOL    HW125388   2.697   3.093   2.883  2.5507 -1.5136 -1.9367
 4585SOL    HW225389   2.681   3.246   2.894 -1.8694 -2.0082  1.4833
 4586SOL     OW25390   4.495   3.360   0.186  0.2728 -0.1405  0.6250
 4586SOL    HW125391   4.500   3.311   0.268 -0.5532  0.2639  0.9260
 4586SOL    HW225392   4.571   3.417   0.195  0.0794  0.5319 -2.0055
 4587SOL     OW25393   3.501   4.199   9.378 -0.1202  0.3461 -0.2001
 4587SOL    HW125394   3.508   4.124   9.437 -2.0662  0.6862  0.4404
 4587SOL    HW225395   3.545   4.262   9.436  2.6239 -2.3037  0.5877
 4588SOL     OW25396   2.742   2.873   4.527  0.2864  0.1349  0.1566
 4588SOL    HW125397   2.675   2.856   4.461  0.7787  0.7281 -0.4918
 4588SOL    HW225398   2.773   2.788   4.558 -2.0001 -1.1382 -1.0653
 4589SOL     OW25399   2.120   0.606   6.590 -0.4861 -0.0397  0.3567
 4589SOL    HW125400   2.051   0.608   6.656  1.0529  1.1519  1.9317
 4589SOL    HW225401   2.173   0.533   6.623  2.3238  1.6121 -0.4889
 4590SOL     OW25402   3.677   0.636   5.107 -0.3870 -0.3601 -0.1514
 4590SOL    HW125403   3.768   0.657   5.083 -0.1753 -0.9446  0.1408
 4590SOL    HW225404   3.691   0.550   5.147 -2.5818 -1.0176 -0.8125
 4591SOL     OW25405   1.551   0.268   4.086  0.8725  0.1064 -0.0422
 4591SOL    HW125406   1.483   0.201   4.072  1.3869 -0.0280 -1.8732
 4591SOL    HW225407   1.626   0.210   4.077 -0.1055 -1.2133  0.2277
 4592SOL     OW25408   1.564   0.441   8.487  0.3766  0.4449  0.1157
 4592SOL    HW125409   1.494   0.401   8.538 -0.5519  0.8088 -0.8596
 4592SOL    HW225410   1.589   0.372   8.427  1.0671  0.9314 -0.1603
 4593SOL     OW25411   4.145   0.893   6.381 -0.5567  0.1634 -0.2885
 4593SOL    HW125412   4.191   0.823   6.427 -1.9904 -0.7103 -0.1843
 4593SOL    HW225413   4.169   0.964   6.440  0.5145  1.5735 -2.4223
 4594SOL     OW25414   1.223   4.238  14.360  0.0596 -0.0602  0.1257
 4594SOL    HW125415   1.175   4.230  14.277  3.1831 -0.4816 -1.6332
 4594SOL    HW225416   1.221   4.328  14.390 -0.9835 -0.9810  2.8775
 4595SOL     OW25417   2.374   2.422   3.924  0.3250  0.2299 -0.2034
 4595SOL    HW125418   2.325   2.398   4.003  0.0272 -2.4283 -1.1939
 4595SOL    HW225419   2.438   2.352   3.932 -0.5375 -0.2122  3.0217
 4596SOL     OW25420   0.631   0.308  17.531 -0.0324  0.2713 -0.1712
 4596SOL    HW125421   0.662   0.349  17.611  1.7252 -0.1547 -0.6304
 4596SOL    HW225422   0.670   0.357  17.458 -1.2754 -2.5657 -2.7648
 4597SOL     OW25423   0.202   4.318   5.018  0.2765 -0.2946  0.4904
 4597SOL    HW125424   0.180   4.225   5.013 -3.3010  0.6102 -0.2808
 4597SOL    HW225425   0.118   4.333   5.061  0.5690 -2.0724  1.6853
 4598SOL     OW25426   2.538   0.028   4.668 -0.2082 -0.2291 -0.0516
 4598SOL    HW125427   2.621   0.060   4.634  0.1104 -1.3272 -0.3017
 4598SOL    HW225428   2.528   4.682   4.628  0.4667 -0.6017  0.5836
 4599SOL     OW25429   0.199   2.923  16.682 -0.8640  0.8082 -0.2008
 4599SOL    HW125430   0.273   2.882  16.638 -0.6122  1.2605 -0.1940
 4599SOL    HW225431   0.130   2.871  16.641  0.7235 -2.0431  0.7650
 4600SOL     OW25432   0.434   1.632   2.936 -0.3207  0.1198 -0.2318
 4600SOL    HW125433   0.514   1.655   2.888 -1.4335 -1.1336 -2.6926
 4600SOL    HW225434   0.446   1.677   3.020  0.3236  0.0863 -0.3065
 4601SOL     OW25435   0.235   0.978  11.881  0.0433  0.0931 -0.3053
 4601SOL    HW125436   0.180   0.900  11.871  1.9109 -1.2885  0.1336
 4601SOL    HW225437   0.187   1.039  11.825 -0.0794 -0.5221 -0.8654
 4602SOL     OW25438   1.980   1.413   9.165  0.4254 -0.1355  0.1308
 4602SOL    HW125439   1.973   1.382   9.074  0.4861 -0.6022  0.2831
 4602SOL    HW225440   1.909   1.476   9.170 -0.0396 -0.7713  1.4572
 4603SOL     OW25441   3.026   4.149   8.175  0.1185  0.2044 -0.1320
 4603SOL    HW125442   2.962   4.083   8.148 -0.4050  0.8150 -0.3872
 4603SOL    HW225443   2.982   4.226   8.140  0.9036 -0.0561 -1.7017
 4604SOL     OW25444   1.523   2.959   4.345  0.1188 -0.1536 -0.0648
 4604SOL    HW125445   1.539   2.943   4.252  0.6219  3.2921 -0.5642
 4604SOL    HW225446   1.548   3.050   4.364  0.2603 -0.3474  0.6793
 4605SOL     OW25447   1.914   1.499   3.664  0.2188 -0.4864 -0.4715
 4605SOL    HW125448   1.909   1.509   3.759  0.5826 -0.1278 -0.4914
 4605SOL    HW225449   1.832   1.534   3.630  0.5554  0.0500 -0.7294
 4606SOL     OW25450   1.830   2.627   4.149 -0.4729 -0.1333  0.0180
 4606SOL    HW125451   1.884   2.549   4.163  2.5097  1.7539 -0.9639
 4606SOL    HW225452   1.838   2.634   4.053 -1.8344 -0.2500 -0.1091
 4607SOL     OW25453   3.384   3.391  16.499 -0.2410  0.8975 -0.1518
 4607SOL    HW125454   3.340   3.339  16.431 -0.2604 -0.0965  0.6078
 4607SOL    HW225455   3.357   3.477  16.467  0.2844  0.6047 -1.4268
 4608SOL     OW25456   2.208   0.020   1.795  0.7250 -0.1357  0.0847
 4608SOL    HW125457   2.289   4.727   1.835  0.4397  1.2208  1.8065
 4608SOL    HW225458   2.154   4.690   1.831 -0.0110 -0.2557 -1.2563
 4609SOL     OW25459   2.661   4.225   4.966 -0.0213 -0.8003  0.2342
 4609SOL    HW125460   2.569   4.237   4.987  0.5888  1.5540  1.5597
 4609SOL    HW225461   2.676   4.140   5.007 -1.5616 -0.5757  1.2526
 4610SOL     OW25462   2.737   0.814  17.147  0.6911 -0.1283 -0.7608
 4610SOL    HW125463   2.648   0.848  17.152  0.4127 -1.3880  2.3880
 4610SOL    HW225464   2.769   0.838  17.233 -1.6214 -0.7344  0.2636
 4611SOL     OW25465   0.352   1.946   4.957 -0.2706 -0.0524 -0.2375
 4611SOL    HW125466   0.447   1.952   4.957 -0.3446  1.2468 -0.6898
 4611SOL    HW225467   0.325   1.884   5.025 -0.3818  0.2668  0.0101
 4612SOL     OW25468   2.587   3.118   5.622 -0.2012  0.1741 -0.6347
 4612SOL    HW125469   2.593   3.153   5.711 -0.0456 -1.2114 -0.0915
 4612SOL    HW225470   2.629   3.184   5.567  1.6079  1.1676  1.9491
 4613SOL     OW25471   3.453   4.157   0.633  0.0922 -0.0696 -0.4279
 4613SOL    HW125472   3.518   4.095   0.667  1.5569  1.8942  0.3663
 4613SOL    HW225473   3.469   4.232   0.690 -2.3879  1.7435 -2.1478
 4614SOL     OW25474   0.471   0.131   8.851 -0.2165  0.1789  0.2318
 4614SOL    HW125475   0.446   0.090   8.768  2.4208  0.4550 -0.6877
 4614SOL    HW225476   0.431   0.060   8.902 -1.3419  0.0173 -0.8733
 4615SOL     OW25477   2.331   2.274  13.310 -0.1455  0.5041 -0.4211
 4615SOL    HW125478   2.413   2.278  13.259  1.2531 -1.2969  1.6784
 4615SOL    HW225479   2.299   2.202  13.256 -0.3835  0.6757 -0.5111
 4616SOL     OW25480   1.331   3.128   5.936 -0.1769  0.1928  0.1290
 4616SOL    HW125481   1.330   3.089   6.023 -1.9787 -0.8458 -0.3422
 4616SOL    HW225482   1.415   3.173   5.930 -0.5431  0.8441 -0.0455
 4617SOL     OW25483   3.800   3.749   9.717 -1.0329  0.2638  0.3827
 4617SOL    HW125484   3.845   3.667   9.698  0.2528  1.2461 -0.8162
 4617SOL    HW225485   3.734   3.742   9.648 -1.5186  1.0085  0.7698
 4618SOL     OW25486   3.369   0.319   1.452 -0.0418  0.0852 -0.8245
 4618SOL    HW125487   3.368   0.391   1.515  0.3630 -2.0785  1.6334
 4618SOL    HW225488   3.428   0.259   1.498 -0.2129  1.7063  1.4859
 4619SOL     OW25489   0.074   0.046   7.128  0.5223 -0.1786  0.1219
 4619SOL    HW125490   0.131   0.003   7.193  1.6265  1.3589  0.1730
 4619SOL    HW225491   4.740   0.074   7.180 -1.1297 -1.3383 -1.6319
 4620SOL     OW25492   4.364   0.002  13.326 -0.3638 -0.4781  0.5627
 4620SOL    HW125493   4.297   0.068  13.307  2.2082  1.4748 -1.6261
 4620SOL    HW225494   4.432   0.023  13.262 -1.6123  1.6650 -0.0541
 4621SOL     OW25495   1.103   0.471   1.154  0.3684 -0.2531  0.4793
 4621SOL    HW125496   1.099   0.383   1.191 -1.6926 -0.8037 -1.0643
 4621SOL    HW225497   1.037   0.468   1.084  1.4805 -0.7692 -0.5566
 4622SOL     OW25498   0.833   2.934  14.022  0.7072  0.1779 -0.2645
 4622SOL    HW125499   0.778   3.008  14.046 -0.6858 -1.3906  1.4012
 4622SOL    HW225500   0.795   2.861  14.071  0.3025  0.1848 -0.5675
 4623SOL     OW25501   1.013   2.836  17.475  0.0423  0.1975  0.3105
 4623SOL    HW125502   0.987   2.814  17.564 -1.7163  2.3375  0.3280
 4623SOL    HW225503   0.943   2.888  17.434  2.7204  0.5993 -3.7336
 4624SOL     OW25504   1.835   1.650  12.126 -0.1630  0.3474 -0.3800
 4624SOL    HW125505   1.835   1.742  12.102  0.0147  0.7116  1.0422
 4624SOL    HW225506   1.923   1.631  12.159 -0.0175  1.3844 -0.1904
 4625SOL     OW25507   2.546   3.116   3.413 -0.8357  0.3423  0.2984
 4625SOL    HW125508   2.451   3.120   3.402 -0.8540  2.1129  1.0310
 4625SOL    HW225509   2.565   3.209   3.425  0.9750 -0.0187  0.2206
 4626SOL     OW25510   1.515   4.112   2.325 -0.1006  0.5243  0.1101
 4626SOL    HW125511   1.558   4.056   2.389 -1.6967 -1.3978 -0.5038
 4626SOL    HW225512   1.481   4.047   2.263  2.6357 -0.3093 -0.5134
 4627SOL     OW25513   1.873   3.865   6.853  0.1791  0.3271 -0.6111
 4627SOL    HW125514   1.865   3.782   6.808 -1.4246  1.0836 -1.7187
 4627SOL    HW225515   1.868   3.840   6.946 -1.3515 -0.4351 -0.9109
 4628SOL     OW25516   2.576   3.130   6.675 -0.2015 -0.1514  0.0370
 4628SOL    HW125517   2.650   3.068   6.666  0.5677  0.5695  1.4672
 4628SOL    HW225518   2.503   3.080   6.638 -1.3119  1.0217  0.6530
 4629SOL     OW25519   1.280   4.515  12.181  0.3595 -0.1043 -0.3548
 4629SOL    HW125520   1.297   4.535  12.273 -0.4462 -0.5438 -0.1017
 4629SOL    HW225521   1.358   4.537  12.131 -0.2124  1.3420 -0.6058
 4630SOL     OW25522   2.326   1.439  10.805 -0.0165  0.3072  0.0590
 4630SOL    HW125523   2.385   1.431  10.730  1.0692  1.9910  0.7204
 4630SOL    HW225524   2.313   1.532  10.823  0.7067  0.5681 -0.7777
 4631SOL     OW25525   4.101   3.251   4.260 -0.1016 -0.3930 -0.0731
 4631SOL    HW125526   4.017   3.254   4.214  0.8135 -0.8023 -1.7865
 4631SOL    HW225527   4.129   3.159   4.253  0.9084  0.1319 -2.7399
 4632SOL     OW25528   3.995   2.903  15.142  0.4873 -0.4594  0.4950
 4632SOL    HW125529   4.060   2.833  15.133  2.8089  1.8127 -0.6635
 4632SOL    HW225530   4.013   2.940  15.228 -1.1485  2.0262 -0.2550
 4633SOL     OW25531   1.160   4.291   1.862  0.5751 -0.1536 -0.1556
 4633SOL    HW125532   1.226   4.253   1.803 -1.8922  0.6013 -3.3773
 4633SOL    HW225533   1.154   4.381   1.829 -1.4729 -0.0356  0.5493
 4634SOL     OW25534   1.204   2.459  16.686  0.0595 -0.1935 -0.4351
 4634SOL    HW125535   1.129   2.400  16.694 -0.2613  0.0185 -1.8682
 4634SOL    HW225536   1.256   2.425  16.613 -2.1275  0.0314 -2.0762
 4635SOL     OW25537   4.639   3.654   1.158  0.4454 -0.4225  0.0379
 4635SOL    HW125538   4.599   3.660   1.071 -1.0197  1.8161  0.8606
 4635SOL    HW225539   4.693   3.733   1.150 -0.9664  0.6311  0.8142
 4636SOL     OW25540   2.993   2.499  15.696 -0.3838  0.2437 -0.4377
 4636SOL    HW125541   2.966   2.418  15.738 -0.7480  0.2410 -0.6796
 4636SOL    HW225542   3.011   2.553  15.773 -0.0108  0.5924 -0.7661
 4637SOL     OW25543   0.792   0.913   9.331  0.1914  0.1972  0.2792
 4637SOL    HW125544   0.785   0.818   9.342 -0.7823  0.3816  1.1967
 4637SOL    HW225545   0.768   0.949   9.417  1.2503 -0.3068  0.7879
 4638SOL     OW25546   3.221   1.534   7.184 -0.2428  0.3607 -0.0439
 4638SOL    HW125547   3.153   1.581   7.135 -0.1031 -0.6499 -1.2085
 4638SOL    HW225548   3.173   1.462   7.225 -2.0830  1.4298 -0.3198
 4639SOL     OW25549   1.027   1.160   8.031 -0.3332  0.1535 -0.3725
 4639SOL    HW125550   0.934   1.164   8.007 -0.5735 -0.9253  0.3535
 4639SOL    HW225551   1.015   1.122   8.118  0.3211 -0.3133 -0.4885
 4640SOL     OW25552   3.684   0.837   6.873  0.1171 -0.0008  0.0167
 4640SOL    HW125553   3.710   0.775   6.942  2.2514 -0.3367 -1.1235
 4640SOL    HW225554   3.734   0.813   6.796 -0.2314 -0.0405 -0.1982
 4641SOL     OW25555   3.413   0.192   7.904  0.2236  0.0956  0.4231
 4641SOL    HW125556   3.406   0.119   7.966 -2.6462 -1.4198 -1.6566
 4641SOL    HW225557   3.507   0.191   7.886 -0.0400 -1.6767 -0.8569
 4642SOL     OW25558   1.666   1.304  16.894 -0.0743 -0.0075 -1.2956
 4642SOL    HW125559   1.588   1.302  16.951  0.5194  0.6160 -0.4633
 4642SOL    HW225560   1.631   1.353  16.820 -3.2760  0.4423  0.5023
 4643SOL     OW25561   4.456   0.473   6.342  0.3172 -0.3869 -0.6842
 4643SOL    HW125562   4.546   0.444   6.329  0.7109 -0.6598  2.6119
 4643SOL    HW225563   4.478   0.556   6.386  0.5445 -1.2704  0.8600
 4644SOL     OW25564   0.571   0.353   9.469 -0.0050 -0.5326 -0.0129
 4644SOL    HW125565   0.535   0.405   9.541  2.2184 -0.5098  1.0961
 4644SOL    HW225566   0.508   0.281   9.465  0.2178 -0.6960 -0.6502
 4645SOL     OW25567   1.832   1.025   5.826  0.1805  0.0515 -0.1735
 4645SOL    HW125568   1.828   0.982   5.741 -0.7756 -0.9222  0.3490
 4645SOL    HW225569   1.923   1.002   5.841  0.1463  0.6942  1.0841
 4646SOL     OW25570   4.251   0.605   2.308  0.6654  0.0899  0.5953
 4646SOL    HW125571   4.279   0.554   2.231 -1.0284  2.0395 -1.3213
 4646SOL    HW225572   4.194   0.538   2.346  0.8661 -0.8743 -0.8122
 4647SOL     OW25573   3.277   4.216   8.511  0.0394 -0.8696 -0.0417
 4647SOL    HW125574   3.322   4.232   8.428  2.0629  1.1402  1.4585
 4647SOL    HW225575   3.202   4.163   8.484  0.9279 -1.1926 -1.8668
 4648SOL     OW25576   3.273   3.880   2.120 -0.0793 -0.0496  0.2929
 4648SOL    HW125577   3.242   3.914   2.204 -0.2844 -0.5881  0.4352
 4648SOL    HW225578   3.187   3.875   2.078 -0.3713 -0.5339  0.9518
 4649SOL     OW25579   0.336   3.619   2.691 -0.3219  0.0653  0.1861
 4649SOL    HW125580   0.326   3.714   2.685  0.3147  0.0752 -0.7909
 4649SOL    HW225581   0.305   3.610   2.781 -1.5939  1.0035 -0.1628
 4650SOL     OW25582   3.896   1.605  14.105 -0.3459 -0.3756  0.2288
 4650SOL    HW125583   3.835   1.561  14.046 -0.7145 -0.2573  0.5263
 4650SOL    HW225584   3.924   1.525  14.151  3.3174  0.9498  0.3054
 4651SOL     OW25585   2.267   0.307  15.051 -0.3408  0.5932  0.6042
 4651SOL    HW125586   2.310   0.253  15.118  1.4728  0.2451 -0.8606
 4651SOL    HW225587   2.245   0.385  15.101  2.6915  1.7292  0.1535
 4652SOL     OW25588   4.669   2.714  17.597 -0.0600 -0.4884  0.1909
 4652SOL    HW125589   4.620   2.661  17.659  1.3618  0.1398  1.8396
 4652SOL    HW225590   0.018   2.681  17.598 -0.6740 -2.1569  0.1575
 4653SOL     OW25591   1.984   3.241   9.087  0.1856  0.2780 -0.3066
 4653SOL    HW125592   1.913   3.224   9.148  1.4525 -2.1320  0.5098
 4653SOL    HW225593   2.036   3.303   9.137 -1.1038 -0.0298  1.4219
 4654SOL     OW25594   0.006   0.721   3.554  0.2322  0.2635 -0.5150
 4654SOL    HW125595   4.695   0.787   3.600 -1.1083 -0.5942 -0.7857
 4654SOL    HW225596   0.068   0.773   3.503  2.1609  0.0705  1.6251
 4655SOL     OW25597   3.721   0.934   2.669 -0.4506  0.2896  0.0773
 4655SOL    HW125598   3.664   1.000   2.709 -1.6454 -0.2976 -0.6730
 4655SOL    HW225599   3.760   0.979   2.594  1.7827 -1.9268 -0.1010
 4656SOL     OW25600   4.706   2.107  12.336 -0.3155  0.6725  0.5191
 4656SOL    HW125601   4.715   2.188  12.286 -1.4517  1.0048  0.8637
 4656SOL    HW225602   4.629   2.125  12.390 -1.2031  0.5565 -0.7156
 4657SOL     OW25603   0.058   2.316   2.229 -0.5643 -0.3775 -0.5705
 4657SOL    HW125604   0.112   2.388   2.194 -0.8504  1.5148  2.8241
 4657SOL    HW225605   0.073   2.335   2.321  1.2218  1.3103 -1.1922
 4658SOL     OW25606   4.498   3.185   0.427  0.1003  0.1885  0.2056
 4658SOL    HW125607   4.544   3.236   0.492  1.4985  1.3767 -1.7062
 4658SOL    HW225608   4.408   3.199   0.455 -0.9779 -0.4960 -2.8068
 4659SOL     OW25609   4.229   2.617   3.570  0.1213 -0.7781  0.6660
 4659SOL    HW125610   4.259   2.708   3.573 -1.9341 -0.1264  1.7552
 4659SOL    HW225611   4.243   2.584   3.659  1.3498 -1.8024  0.0813
 4660SOL     OW25612   4.507   3.909   0.814 -0.4554 -0.5503  0.6204
 4660SOL    HW125613   4.450   3.926   0.739 -1.7675 -0.4068  1.6559
 4660SOL    HW225614   4.598   3.928   0.792 -0.7604 -0.0122 -0.1402
 4661SOL     OW25615   3.281   0.399   9.498 -0.1396  0.5328  0.3614
 4661SOL    HW125616   3.258   0.310   9.527  1.5521 -0.1686 -0.4308
 4661SOL    HW225617   3.237   0.405   9.414  2.6464  1.1991 -1.0679
 4662SOL     OW25618   3.719   0.603   7.608 -0.6309 -0.1319 -0.0437
 4662SOL    HW125619   3.767   0.535   7.655 -0.3824 -1.3740 -2.0818
 4662SOL    HW225620   3.689   0.561   7.527 -1.6049 -0.2123  0.3569
 4663SOL     OW25621   1.644   2.899  17.732  0.9190  0.2046  0.1179
 4663SOL    HW125622   1.694   2.861  17.659  1.3690 -1.3323  1.2103
 4663SOL    HW225623   1.665   2.992  17.722 -0.4583  0.7172  2.1119
 4664SOL     OW25624   3.235   0.190   9.051 -0.1472 -0.2342 -0.6743
 4664SOL    HW125625   3.224   0.118   8.989 -1.3225 -1.8258  1.3936
 4664SOL    HW225626   3.245   0.140   9.131 -0.3746  1.0588  0.1671
 4665SOL     OW25627   2.399   1.129   3.489  0.1766  0.5547  0.7242
 4665SOL    HW125628   2.304   1.142   3.485  0.3233  1.5941  0.6449
 4665SOL    HW225629   2.430   1.121   3.399 -1.6484 -0.0328  0.1528
 4666SOL     OW25630   1.398   1.384   9.537 -0.1445 -0.2246  0.4128
 4666SOL    HW125631   1.485   1.398   9.500 -0.6752 -0.5557 -0.9964
 4666SOL    HW225632   1.369   1.475   9.541  3.6808  0.9592  1.0124
 4667SOL     OW25633   4.377   1.888   8.663 -0.8332 -0.6130  0.3536
 4667SOL    HW125634   4.396   1.930   8.580 -0.1484 -0.0105  0.8172
 4667SOL    HW225635   4.385   1.967   8.717  0.4214  1.6826 -3.2401
 4668SOL     OW25636   0.915   1.147   9.570 -0.2434 -0.4218  0.2365
 4668SOL    HW125637   0.940   1.056   9.586 -0.4104 -0.1763  1.9268
 4668SOL    HW225638   0.996   1.188   9.541 -0.0354  0.7449  2.4290
 4669SOL     OW25639   0.585   4.572   8.576 -0.5043  0.6032 -0.2485
 4669SOL    HW125640   0.526   4.647   8.576  0.3192  1.2376  1.4042
 4669SOL    HW225641   0.613   4.577   8.668  0.4284  1.4421 -0.5850
 4670SOL     OW25642   4.011   0.039   7.423  0.4129 -0.3368  0.4997
 4670SOL    HW125643   4.069   0.035   7.346  0.8748  1.2161  0.7730
 4670SOL    HW225644   4.006   0.134   7.431 -0.2924  0.0310 -4.3386
 4671SOL     OW25645   1.987   3.889   4.958 -0.4581 -0.5789 -0.6322
 4671SOL    HW125646   1.953   3.964   5.007 -0.6261 -0.8631 -0.3179
 4671SOL    HW225647   2.064   3.935   4.926 -0.4780 -0.7157 -0.8744
 4672SOL     OW25648   3.544   1.415   3.080  0.3027  0.0848 -0.1955
 4672SOL    HW125649   3.611   1.426   3.148  2.1650 -0.7002 -1.8688
 4672SOL    HW225650   3.555   1.322   3.059  1.8958  0.3474 -0.5974
 4673SOL     OW25651   2.584   0.685   4.606  0.2101 -0.1368  0.0631
 4673SOL    HW125652   2.496   0.722   4.598 -0.0712 -0.3951  2.0541
 4673SOL    HW225653   2.619   0.760   4.655  1.2631  0.3127 -1.3708
 4674SOL     OW25654   3.392   3.145  11.311  0.1429  0.1003  0.8720
 4674SOL    HW125655   3.470   3.141  11.256  0.4694  0.2836  1.3216
 4674SOL    HW225656   3.380   3.053  11.331 -1.0573  0.1014  0.1662
 4675SOL     OW25657   1.036   1.617  11.011 -0.0059  0.4173  0.3317
 4675SOL    HW125658   1.124   1.590  10.985 -0.6093 -1.3906  0.2418
 4675SOL    HW225659   1.037   1.567  11.093 -3.3349 -2.8153 -1.6299
 4676SOL     OW25660   3.803   2.366   9.715 -0.7630  0.1148  0.5139
 4676SOL    HW125661   3.812   2.301   9.645 -0.5462  1.0861 -0.3617
 4676SOL    HW225662   3.759   2.438   9.670 -0.4100 -1.5809 -2.5668
 4677SOL     OW25663   3.820   4.696   7.579 -0.6144  0.4032  0.1558
 4677SOL    HW125664   3.894   4.729   7.528  1.3906  0.8640  3.3637
 4677SOL    HW225665   3.867   4.623   7.620 -3.2588 -0.8766  0.9242
 4678SOL     OW25666   0.639   1.559  10.068 -0.0895  0.1489  0.0330
 4678SOL    HW125667   0.700   1.629  10.089 -0.4781  0.4776  0.0533
 4678SOL    HW225668   0.674   1.517   9.989 -2.1424  1.3318 -1.5052
 4679SOL     OW25669   1.535   0.497  10.052  0.1896 -0.2248  0.1003
 4679SOL    HW125670   1.621   0.466  10.024  0.5572  0.1682  0.7896
 4679SOL    HW225671   1.528   0.464  10.142 -3.1588 -0.2487 -0.1691
 4680SOL     OW25672   0.612   1.450  17.502  0.4567  0.0576 -0.0913
 4680SOL    HW125673   0.614   1.495  17.418 -0.3262  1.6182  0.7245
 4680SOL    HW225674   0.555   1.378  17.476 -1.9509  1.7790  0.4319
 4681SOL     OW25675   3.913   4.313  12.753 -0.0557  0.0834  0.4662
 4681SOL    HW125676   3.978   4.339  12.689  0.2137 -1.5661  0.0571
 4681SOL    HW225677   3.874   4.235  12.714  1.4343  0.4308 -1.7094
 4682SOL     OW25678   2.755   3.968   2.386  0.5865  0.7289 -0.1913
 4682SOL    HW125679   2.690   4.007   2.328  0.3310 -0.7875 -0.9328
 4682SOL    HW225680   2.834   3.971   2.333  1.7555  1.1124  1.5938
 4683SOL     OW25681   0.909   4.004   7.094 -0.1909  0.7090  0.2638
 4683SOL    HW125682   0.935   4.027   7.005 -0.0513 -0.6709 -0.0433
 4683SOL    HW225683   0.814   4.008   7.078  0.2856  1.2116 -2.4235
 4684SOL     OW25684   4.276   2.878   2.332  0.0715 -0.1297  0.3527
 4684SOL    HW125685   4.368   2.897   2.319 -0.1220  1.3480  1.1695
 4684SOL    HW225686   4.280   2.789   2.367 -0.5123 -0.3628 -0.1701
 4685SOL     OW25687   4.119   1.055   6.136 -0.3720  0.3484  0.0291
 4685SOL    HW125688   4.133   0.970   6.178 -2.9764 -0.2513 -0.3137
 4685SOL    HW225689   4.064   1.095   6.203 -0.7723 -1.4067  0.7641
 4686SOL     OW25690   4.609   0.776   2.623  0.3729  0.2232  0.4468
 4686SOL    HW125691   4.594   0.708   2.689  0.1081 -0.8721 -0.7384
 4686SOL    HW225692   4.607   0.860   2.669  0.7369  0.3451  0.2336
 4687SOL     OW25693   0.831   1.492   4.575 -0.3519  0.2183 -0.4762
 4687SOL    HW125694   0.794   1.406   4.594 -0.7759 -0.0445 -2.4698
 4687SOL    HW225695   0.906   1.464   4.521  0.2067  1.5446 -0.3921
 4688SOL     OW25696   3.689   3.601   1.676  0.3187  0.0096 -0.3999
 4688SOL    HW125697   3.622   3.599   1.608  0.8331  0.9326 -0.9314
 4688SOL    HW225698   3.711   3.694   1.672 -1.8951  0.5441 -0.4406
 4689SOL     OW25699   0.114   3.007   4.378 -0.1141 -0.4732  0.1812
 4689SOL    HW125700   0.115   2.976   4.468 -3.0772  0.5293  0.5413
 4689SOL    HW225701   0.115   2.925   4.329  2.4837 -1.1274  1.3097
 4690SOL     OW25702   4.585   0.201   3.019  0.2959  0.1486  0.1091
 4690SOL    HW125703   4.532   0.278   3.037  2.1501  1.5064 -0.2462
 4690SOL    HW225704   4.668   0.226   3.060  1.2773 -0.4849 -1.5084
 4691SOL     OW25705   4.668   3.258   0.613 -0.2421 -0.0542  0.2785
 4691SOL    HW125706   4.712   3.328   0.660  4.2244 -2.5595 -0.1598
 4691SOL    HW225707   4.709   3.175   0.637 -0.9484 -0.7071 -0.7714
 4692SOL     OW25708   2.998   2.664   6.716 -0.4323  0.2899  0.0808
 4692SOL    HW125709   3.059   2.626   6.653  0.1384  2.1315 -0.4941
 4692SOL    HW225710   3.055   2.727   6.760 -2.0963  2.8660 -1.4422
 4693SOL     OW25711   2.443   3.095   4.908 -0.7635 -0.3594  0.5311
 4693SOL    HW125712   2.460   3.137   4.824 -0.2194 -2.4585 -0.4209
 4693SOL    HW225713   2.402   3.014   4.879  0.1857 -0.3013 -0.9741
 4694SOL     OW25714   2.758   1.577   4.183  0.0752  0.0210  0.3271
 4694SOL    HW125715   2.694   1.523   4.136 -0.3049 -0.0281  0.8973
 4694SOL    HW225716   2.841   1.540   4.155 -0.7032 -1.4753 -0.0028
 4695SOL     OW25717   4.593   0.912  11.383 -0.4350 -0.1174 -0.9049
 4695SOL    HW125718   4.679   0.950  11.369  1.0311 -3.1374 -0.0501
 4695SOL    HW225719   4.616   0.823  11.356 -0.6008 -0.3471 -0.3004
 4696SOL     OW25720   2.760   0.453   8.357 -0.0947  0.5026  0.4014
 4696SOL    HW125721   2.703   0.510   8.306 -0.9944  0.0235  0.8539
 4696SOL    HW225722   2.697   0.426   8.425 -0.7226 -1.6585 -1.0382
 4697SOL     OW25723   3.230   1.535   4.684 -0.4185 -0.0849 -0.2488
 4697SOL    HW125724   3.325   1.526   4.688 -0.2817  0.7055 -1.7351
 4697SOL    HW225725   3.209   1.473   4.614 -1.9289 -0.8969  0.9251
 4698SOL     OW25726   4.712   0.785   9.875 -0.2861  0.0002 -0.0789
 4698SOL    HW125727   0.017   0.869   9.880  0.1197 -0.2084 -0.2919
 4698SOL    HW225728   0.027   0.721   9.921 -1.0803  0.1962  1.1572
 4699SOL     OW25729   3.760   0.579  16.033  0.6533  0.0837 -0.1236
 4699SOL    HW125730   3.670   0.612  16.040  0.0193 -0.6859 -4.4586
 4699SOL    HW225731   3.758   0.515  15.962  2.1403 -1.6784  1.4428
 4700SOL     OW25732   4.223   3.654  12.727 -0.7205  0.0617  0.1647
 4700SOL    HW125733   4.197   3.562  12.735  1.1716 -0.4452  0.5148
 4700SOL    HW225734   4.304   3.651  12.778  0.7860  0.3431 -2.1851
 4701SOL     OW25735   4.572   1.239  11.466  0.1285 -0.2458  0.0683
 4701SOL    HW125736   4.521   1.159  11.475  0.0867 -0.4449 -1.8997
 4701SOL    HW225737   4.522   1.288  11.531 -0.5737 -0.5866 -0.2169
 4702SOL     OW25738   1.020   3.407   6.984  0.4096  0.1283 -0.0371
 4702SOL    HW125739   1.083   3.400   6.913 -1.7687  0.6462 -2.0176
 4702SOL    HW225740   0.946   3.364   6.942 -0.0743  0.8062  0.1183
 4703SOL     OW25741   4.282   1.617   6.814  0.0344 -0.2966  0.1507
 4703SOL    HW125742   4.253   1.692   6.866  1.2428  0.0952  0.2752
 4703SOL    HW225743   4.378   1.626   6.819  0.2218 -2.0909 -0.2973
 4704SOL     OW25744   1.758   3.673   8.600 -0.1444  0.4382  0.1786
 4704SOL    HW125745   1.770   3.727   8.522  0.6276 -1.2659 -0.8591
 4704SOL    HW225746   1.789   3.586   8.578  0.6735  0.6366  0.5370
 4705SOL     OW25747   2.992   0.980   4.299  0.0314 -0.2234  0.1456
 4705SOL    HW125748   2.954   0.893   4.310  1.3347 -0.8021  0.0524
 4705SOL    HW225749   2.916   1.019   4.256  1.3441  2.7041  0.4634
 4706SOL     OW25750   3.197   2.633   9.745 -0.1251  0.5829 -0.2620
 4706SOL    HW125751   3.214   2.552   9.698 -0.9726  0.7251 -0.7988
 4706SOL    HW225752   3.273   2.630   9.804 -0.0320 -1.5093 -0.5018
 4707SOL     OW25753   0.469   0.790   6.627  0.1946  0.7322  0.2880
 4707SOL    HW125754   0.452   0.848   6.701  1.7306  0.7233  0.6479
 4707SOL    HW225755   0.440   0.841   6.552  2.2735  1.8120  0.2030
 4708SOL     OW25756   1.564   2.424   8.565  0.0985  0.5091  0.2869
 4708SOL    HW125757   1.623   2.496   8.542  0.0113  0.5426  0.1707
 4708SOL    HW225758   1.559   2.440   8.660 -2.2177  1.3757  0.0166
 4709SOL     OW25759   2.450   3.600  12.299  0.4604 -0.6175 -0.1919
 4709SOL    HW125760   2.376   3.539  12.299 -0.1280  0.1294  2.6747
 4709SOL    HW225761   2.423   3.649  12.222  1.3708 -1.0218 -0.7726
 4710SOL     OW25762   1.900   3.813   7.123 -0.0604 -0.3402  0.0359
 4710SOL    HW125763   1.916   3.824   7.217 -2.4186 -2.5422  0.6907
 4710SOL    HW225764   1.948   3.731   7.117  1.7675  0.7000  0.3302
 4711SOL     OW25765   2.367   1.284   4.758  0.2328  0.3479  0.0064
 4711SOL    HW125766   2.406   1.289   4.671  2.2535 -1.0490  0.8407
 4711SOL    HW225767   2.276   1.311   4.746 -0.0930 -0.7486  0.0666
 4712SOL     OW25768   1.170   3.225   8.227 -1.9837 -0.4503 -0.0360
 4712SOL    HW125769   1.206   3.173   8.299 -0.7190  1.5601  0.7826
 4712SOL    HW225770   1.112   3.285   8.273 -1.2153  0.6270 -0.4615
 4713SOL     OW25771   2.254   1.572   1.043  0.7148  0.4625 -0.3410
 4713SOL    HW125772   2.166   1.550   1.012  0.7725 -1.7437  1.0641
 4713SOL    HW225773   2.286   1.482   1.048  0.7736  0.6576  3.1392
 4714SOL     OW25774   0.474   1.605   8.188 -0.2140  0.7956 -0.1210
 4714SOL    HW125775   0.479   1.577   8.279 -0.1873  0.3822 -0.2494
 4714SOL    HW225776   0.388   1.573   8.161 -0.2977 -1.1951  2.4970
 4715SOL     OW25777   3.337   3.655  11.313  0.0177  0.6980 -0.0928
 4715SOL    HW125778   3.353   3.749  11.324  1.1703  0.2468  2.2688
 4715SOL    HW225779   3.349   3.620  11.402 -1.2610 -0.1492 -0.2609
 4716SOL     OW25780   2.489   3.810   1.916 -0.3513  0.1327  0.0900
 4716SOL    HW125781   2.536   3.747   1.971  1.0772  1.7406  0.7045
 4716SOL    HW225782   2.514   3.791   1.826  1.3173 -0.5406  0.6877
 4717SOL     OW25783   3.728   1.373   3.289 -0.3881  0.6072  0.3626
 4717SOL    HW125784   3.705   1.290   3.330 -2.8637 -0.1020 -2.4034
 4717SOL    HW225785   3.749   1.420   3.370  0.5279  0.2582  0.3276
 4718SOL     OW25786   4.288   2.579   5.912  0.1313 -0.0107  0.1779
 4718SOL    HW125787   4.207   2.545   5.950  0.4832 -1.8513 -0.7301
 4718SOL    HW225788   4.258   2.655   5.862 -0.3299 -0.6963 -0.5877
 4719SOL     OW25789   1.857   2.468  14.031 -0.5273 -0.2588  0.3133
 4719SOL    HW125790   1.839   2.381  13.994  3.3720 -1.0467  0.2184
 4719SOL    HW225791   1.852   2.441  14.123 -0.1141  2.0559  0.9950
 4720SOL     OW25792   0.534   4.075   8.628  0.4212  0.0887  0.3851
 4720SOL    HW125793   0.558   4.131   8.702 -0.7807  1.2532 -0.1119
 4720SOL    HW225794   0.564   3.987   8.652  1.2909 -0.7282 -3.8120
 4721SOL     OW25795   2.595   2.321   7.450  0.1738  0.6955  0.3858
 4721SOL    HW125796   2.605   2.226   7.453  1.3124  0.8359  0.9959
 4721SOL    HW225797   2.686   2.347   7.460  0.3688  0.5810 -1.1154
 4722SOL     OW25798   1.441   0.416   4.774 -0.6748  0.3569 -0.0928
 4722SOL    HW125799   1.478   0.370   4.699  0.4556  1.4246 -0.1851
 4722SOL    HW225800   1.475   0.373   4.853  1.3668 -0.5082 -1.4419
 4723SOL     OW25801   4.696   1.869   2.121 -0.1375 -0.6162  0.1592
 4723SOL    HW125802   4.732   1.949   2.084  1.1409 -1.0716  0.4007
 4723SOL    HW225803   4.690   1.817   2.041 -1.7316 -1.5031  0.8370
 4724SOL     OW25804   0.271   2.399  17.323  0.0834  0.1146 -0.2687
 4724SOL    HW125805   0.344   2.412  17.383  0.2113  1.3707 -0.6969
 4724SOL    HW225806   0.198   2.361  17.372  0.1921 -0.9821 -0.9378
 4725SOL     OW25807   2.251   4.512  12.254 -0.2724 -0.3982  0.3309
 4725SOL    HW125808   2.298   4.581  12.207 -2.0233  0.5960  0.0225
 4725SOL    HW225809   2.179   4.473  12.204 -1.1566 -0.1096  1.3717
 4726SOL     OW25810   0.215   1.726   8.280  0.2283 -1.1212 -0.4165
 4726SOL    HW125811   0.130   1.715   8.322  0.4899 -3.5238 -0.5637
 4726SOL    HW225812   0.197   1.792   8.214  1.4849  0.4278  0.7591
 4727SOL     OW25813   3.109   1.995  13.074 -0.6038 -0.5660  0.4693
 4727SOL    HW125814   3.081   1.914  13.032 -3.4847  0.0415  1.1715
 4727SOL    HW225815   3.199   1.975  13.100 -0.0648  0.7311 -0.4087
 4728SOL     OW25816   2.966   2.465   2.836 -0.0053 -0.5146  0.0150
 4728SOL    HW125817   2.937   2.374   2.829 -2.0726 -0.0024  1.8008
 4728SOL    HW225818   2.923   2.494   2.756  0.0100 -0.7028 -0.0605
 4729SOL     OW25819   0.218   0.156   3.914 -0.0626 -0.3555 -0.3954
 4729SOL    HW125820   0.189   0.068   3.892 -2.1202 -0.4666  2.7120
 4729SOL    HW225821   0.305   0.162   3.874  0.3638  4.0995  1.1824
 4730SOL     OW25822   2.711   3.073   4.732  0.2004 -0.2590  0.7904
 4730SOL    HW125823   2.623   3.053   4.700  0.6511 -1.7039  0.4532
 4730SOL    HW225824   2.752   3.006   4.677  1.3514  0.9606  0.1468
 4731SOL     OW25825   1.375   0.049  17.535  0.4093 -0.2853  0.5284
 4731SOL    HW125826   1.449   4.736  17.505  1.3576  1.5643 -0.4217
 4731SOL    HW225827   1.304   4.729  17.514 -0.2682  0.9388 -0.6878
 4732SOL     OW25828   4.609   2.315   4.339  0.2420  0.3223  0.1667
 4732SOL    HW125829   4.639   2.346   4.253 -1.7789  1.4070 -0.1521
 4732SOL    HW225830   4.651   2.229   4.344 -0.2711  0.0692  0.1014
 4733SOL     OW25831   3.868   1.032   5.405  0.2625 -0.0118  0.1574
 4733SOL    HW125832   3.927   1.095   5.447  1.6396 -2.3439  1.6976
 4733SOL    HW225833   3.800   1.096   5.381  1.1470  1.0085  0.3559
 4734SOL     OW25834   1.919   3.507   0.196 -0.3027  0.0526  0.3999
 4734SOL    HW125835   1.946   3.580   0.250  1.3166 -2.2345  2.6916
 4734SOL    HW225836   1.855   3.480   0.262 -1.9940 -2.6915 -2.3014
 4735SOL     OW25837   0.318   3.094  12.149 -0.3238 -0.4907 -0.5821
 4735SOL    HW125838   0.334   3.075  12.241 -2.9350 -1.7654 -0.3830
 4735SOL    HW225839   0.258   3.168  12.151  1.1365  0.6665 -0.1192
 4736SOL     OW25840   4.124   4.696   8.341  0.0199 -0.1905  0.2580
 4736SOL    HW125841   4.107   4.647   8.421 -0.2789  1.2846  1.1099
 4736SOL    HW225842   4.049   4.673   8.286 -2.0232  0.8498  2.6087
 4737SOL     OW25843   2.184   1.330   8.228  0.6858  0.2021  0.4365
 4737SOL    HW125844   2.173   1.412   8.180  0.0832  0.2843  0.7162
 4737SOL    HW225845   2.089   1.326   8.237  0.5423  1.6756 -0.4782
 4738SOL     OW25846   4.350   3.551   2.433  0.1769  0.1543  0.2541
 4738SOL    HW125847   4.408   3.538   2.358 -1.3773 -0.5251 -0.8378
 4738SOL    HW225848   4.397   3.620   2.478 -1.4074 -0.3502  2.6807
 4739SOL     OW25849   4.152   4.175   0.253 -0.4225  0.2422 -0.7503
 4739SOL    HW125850   4.189   4.165   0.165 -0.3983 -1.0089 -0.6011
 4739SOL    HW225851   4.125   4.085   0.273  0.5601  0.1760  0.2885
 4740SOL     OW25852   4.553   0.951  10.082 -0.3508 -0.1294 -0.1691
 4740SOL    HW125853   4.533   1.017  10.016 -1.7794 -0.5931 -0.2033
 4740SOL    HW225854   4.472   0.899  10.077  0.9895 -2.0886 -1.8280
 4741SOL     OW25855   4.730   1.858   1.300 -0.3177  0.2197 -0.0081
 4741SOL    HW125856   0.074   1.899   1.281 -0.4400  0.2849 -0.3985
 4741SOL    HW225857   4.672   1.933   1.313 -0.4895 -0.2430  2.0582
 4742SOL     OW25858   0.963   0.918  14.487  0.0894 -0.3804  0.6101
 4742SOL    HW125859   0.980   0.841  14.433 -1.5488 -0.1745 -0.1956
 4742SOL    HW225860   0.975   0.885  14.576  1.4699 -0.8697  0.2344
 4743SOL     OW25861   4.043   0.557   3.740 -0.1013 -0.2439  0.1869
 4743SOL    HW125862   4.025   0.650   3.750  0.6797  0.1345 -1.8521
 4743SOL    HW225863   4.117   0.557   3.679 -0.9654 -0.1031 -0.8585
 4744SOL     OW25864   3.902   1.904   2.094  0.1006 -0.1494 -0.3314
 4744SOL    HW125865   3.815   1.875   2.064 -1.1347  2.0870  1.0884
 4744SOL    HW225866   3.879   1.954   2.172 -0.2963 -0.1321 -0.4577
 4745SOL     OW25867   4.722   4.328   2.600  0.2052 -0.4870 -0.0347
 4745SOL    HW125868   0.074   4.332   2.575 -0.1436 -1.8480 -1.5783
 4745SOL    HW225869   4.692   4.412   2.567 -0.7694 -0.9219 -0.2580
 4746SOL     OW25870   4.226   3.246   2.048  0.7962 -0.1686 -0.5058
 4746SOL    HW125871   4.145   3.224   2.095  0.0403  0.4992 -1.4762
 4746SOL    HW225872   4.274   3.279   2.124 -0.0426 -0.1152  0.0042
 4747SOL     OW25873   2.145   1.785   6.300  0.1038 -0.7564  0.0374
 4747SOL    HW125874   2.107   1.760   6.216 -3.7789  1.8272  1.0274
 4747SOL    HW225875   2.239   1.783   6.281  0.0141  0.2137 -0.4971
 4748SOL     OW25876   4.322   0.835   9.823 -0.4994 -0.1736 -0.2216
 4748SOL    HW125877   4.257   0.817   9.891  0.4961 -1.9748  0.2531
 4748SOL    HW225878   4.376   0.757   9.821  0.6182  0.6241 -0.9134
 4749SOL     OW25879   3.043   3.560  16.654  0.3910  0.1427 -0.3619
 4749SOL    HW125880   3.108   3.563  16.583  1.5379  0.1295  0.6903
 4749SOL    HW225881   2.977   3.504  16.614 -0.0125  0.5646 -0.2816
 4750SOL     OW25882   3.004   2.836   2.502 -0.0044  0.3356 -0.1926
 4750SOL    HW125883   2.948   2.903   2.541  1.4328  0.3626  1.8039
 4750SOL    HW225884   3.065   2.821   2.575 -0.3732  0.3206  0.1094
 4751SOL     OW25885   1.362   1.475  11.530 -0.0967 -0.2302  0.7396
 4751SOL    HW125886   1.417   1.508  11.458 -1.0206 -0.6239 -0.1460
 4751SOL    HW225887   1.421   1.474  11.606 -1.9695  1.4398  2.2018
 4752SOL     OW25888   3.646   1.127   5.233  0.9840  0.4941 -0.1873
 4752SOL    HW125889   3.589   1.181   5.287  0.9084 -0.0183  0.2458
 4752SOL    HW225890   3.608   1.140   5.146  1.0451  0.0053 -0.2873
 4753SOL     OW25891   2.448   2.272   5.859  0.2247 -0.5741 -0.1723
 4753SOL    HW125892   2.436   2.362   5.890  0.8989 -0.0767 -1.3699
 4753SOL    HW225893   2.491   2.286   5.775 -0.0504  0.1181 -0.2044
 4754SOL     OW25894   3.469   2.956   4.614  0.7816 -0.0855  0.3286
 4754SOL    HW125895   3.476   3.040   4.660 -0.1866  0.8381 -1.1816
 4754SOL    HW225896   3.415   2.908   4.676  1.7700  1.1068  2.1167
 4755SOL     OW25897   2.455   4.307   9.348  0.3867  0.1918  0.1391
 4755SOL    HW125898   2.509   4.232   9.375 -0.3222 -1.5200 -3.1512
 4755SOL    HW225899   2.478   4.377   9.409 -0.5776 -1.0103  1.8781
 4756SOL     OW25900   4.029   0.619  16.922  0.1103  0.0264 -0.0548
 4756SOL    HW125901   4.018   0.707  16.958 -1.5745 -1.0003  1.9002
 4756SOL    HW225902   3.937   0.592  16.919 -0.1934  1.1271 -0.8994
 4757SOL     OW25903   2.680   2.560   9.001 -0.0607 -0.0373 -0.6234
 4757SOL    HW125904   2.713   2.493   9.060  1.2952 -0.7201 -2.1639
 4757SOL    HW225905   2.735   2.638   9.001 -2.7149  1.8595  1.3841
 4758SOL     OW25906   0.906   2.695   6.784  0.0814 -0.0004  0.6867
 4758SOL    HW125907   0.986   2.659   6.746 -2.0952 -3.3115 -0.7141
 4758SOL    HW225908   0.856   2.614   6.782 -0.9722  0.6167  2.0974
 4759SOL     OW25909   2.147   4.399   8.191 -0.0100 -0.0760  0.1793
 4759SOL    HW125910   2.056   4.369   8.194  0.1084 -0.1350  2.7956
 4759SOL    HW225911   2.144   4.473   8.130  2.5287 -1.0414 -1.1098
 4760SOL     OW25912   4.668   3.223   8.515  0.9071  0.1708  0.2157
 4760SOL    HW125913   0.013   3.261   8.493  0.1887  1.3419 -0.5348
 4760SOL    HW225914   4.698   3.186   8.598 -2.7626  0.3112  1.5849
 4761SOL     OW25915   4.707   0.500   5.548 -0.2433 -0.6941 -0.2535
 4761SOL    HW125916   4.665   0.560   5.610  1.9221  3.5992 -2.9389
 4761SOL    HW225917   0.042   0.481   5.603  0.5841 -0.5624 -1.3346
 4762SOL     OW25918   3.645   3.631   7.033  0.5224  0.0504 -0.0162
 4762SOL    HW125919   3.603   3.716   7.038  0.8933  0.0864  2.6453
 4762SOL    HW225920   3.739   3.643   7.037  0.7599 -1.2115 -1.7683
 4763SOL     OW25921   3.250   2.552   3.794  0.2793 -0.1895 -0.2217
 4763SOL    HW125922   3.241   2.587   3.705 -0.7670  3.3319  1.2597
 4763SOL    HW225923   3.323   2.493   3.777 -0.7450 -1.2937 -0.7294
 4764SOL     OW25924   3.623   1.618   3.928  0.1103  0.8162 -0.1594
 4764SOL    HW125925   3.709   1.635   3.968  0.8363 -1.2741 -0.7944
 4764SOL    HW225926   3.578   1.576   4.002 -2.6511  0.8608 -1.8560
 4765SOL     OW25927   1.248   3.852   6.120  0.0748 -0.3698  0.3640
 4765SOL    HW125928   1.340   3.871   6.103  0.7044 -2.2715  1.6474
 4765SOL    HW225929   1.254   3.759   6.139 -1.7247 -0.4926  0.2777
 4766SOL     OW25930   2.816   3.810  14.480 -0.6054 -0.4403  0.0920
 4766SOL    HW125931   2.772   3.730  14.449  0.6119  0.5885 -4.3187
 4766SOL    HW225932   2.900   3.777  14.512 -0.7357 -1.1413 -0.2766
 4767SOL     OW25933   2.987   3.804   9.814  0.5256 -0.2572 -0.1302
 4767SOL    HW125934   3.020   3.714   9.809 -0.5985 -0.8728  3.1491
 4767SOL    HW225935   2.892   3.801   9.816  0.4949  1.7625  1.1104
 4768SOL     OW25936   4.389   4.374   1.081 -0.4717  0.6702  0.1501
 4768SOL    HW125937   4.477   4.388   1.116 -0.7998 -1.3821  1.8226
 4768SOL    HW225938   4.379   4.282   1.054 -1.0883  0.1320  2.2075
 4769SOL     OW25939   4.349   2.823   8.414  0.0090 -0.0516  0.0337
 4769SOL    HW125940   4.274   2.851   8.465  0.1737  1.0453 -0.3151
 4769SOL    HW225941   4.417   2.878   8.454 -0.9051 -0.2331  1.8110
 4770SOL     OW25942   1.756   2.730   5.653 -0.3522 -0.2454  0.3221
 4770SOL    HW125943   1.731   2.815   5.689 -0.4064  0.0886 -0.5106
 4770SOL    HW225944   1.702   2.720   5.575 -0.5821 -1.5829  0.6569
 4771SOL     OW25945   0.791   2.613   0.944  0.5826 -0.4414 -0.1468
 4771SOL    HW125946   0.724   2.578   0.885  0.6370 -1.2783  0.2942
 4771SOL    HW225947   0.840   2.652   0.871  1.8540 -1.4320  0.1665
 4772SOL     OW25948   2.552   3.459  12.517  0.0498  0.6301 -0.4009
 4772SOL    HW125949   2.623   3.523  12.522  0.9087 -0.2692 -0.9705
 4772SOL    HW225950   2.507   3.490  12.439 -1.6272 -0.1922  0.2312
 4773SOL     OW25951   1.501   2.150  12.376  0.2767  0.3370  0.1714
 4773SOL    HW125952   1.409   2.141  12.401 -0.1877  0.2361 -1.5729
 4773SOL    HW225953   1.519   2.238  12.408  1.5273 -0.2962  1.2223
 4774SOL     OW25954   1.341   2.018   0.402 -0.4070  0.0477  0.2719
 4774SOL    HW125955   1.396   2.061   0.337  0.8453  0.8842  1.8945
 4774SOL    HW225956   1.270   1.976   0.353 -1.0380 -1.5628  2.5553
 4775SOL     OW25957   0.625   3.296   7.816  0.2396 -0.0547  0.3752
 4775SOL    HW125958   0.696   3.276   7.755 -1.0257 -1.4736 -0.6491
 4775SOL    HW225959   0.669   3.359   7.872  0.1106 -0.7700  1.2952
 4776SOL     OW25960   4.289   3.539  13.044  0.0880  0.2161 -0.4009
 4776SOL    HW125961   4.365   3.572  12.996  0.5781 -2.2765 -1.3493
 4776SOL    HW225962   4.245   3.485  12.978  0.5801  2.2428 -2.3589
 4777SOL     OW25963   0.971   4.095   7.336 -0.8235 -0.6281 -0.4350
 4777SOL    HW125964   0.975   4.189   7.320 -0.5184 -0.2425  1.8907
 4777SOL    HW225965   0.959   4.059   7.248  0.8681  0.4948 -1.1319
 4778SOL     OW25966   0.260   0.004   9.430 -0.2560 -0.5150  0.1045
 4778SOL    HW125967   0.190   0.026   9.368  1.2329  2.3991 -0.5334
 4778SOL    HW225968   0.308   0.087   9.429  0.4955 -0.9664 -0.7391
 4779SOL     OW25969   1.565   1.145   0.119  0.7964  0.1740  0.1845
 4779SOL    HW125970   1.537   1.214   0.060 -1.3924 -0.0140  1.0229
 4779SOL    HW225971   1.567   1.073   0.056  4.0130 -0.3895  0.9166
 4780SOL     OW25972   0.620   2.702   4.828  0.1466 -0.3283 -0.0564
 4780SOL    HW125973   0.551   2.645   4.862  0.5638 -0.8163 -0.0424
 4780SOL    HW225974   0.689   2.693   4.892 -1.2223  0.0777  1.4769
 4781SOL     OW25975   1.230   0.473   3.592 -0.7221 -0.4987  0.5628
 4781SOL    HW125976   1.195   0.403   3.537  0.8558  0.2236 -1.3602
 4781SOL    HW225977   1.160   0.536   3.574  0.5472  1.0227  0.9204
 4782SOL     OW25978   2.102   0.031  14.109 -0.0523 -0.2782  0.0766
 4782SOL    HW125979   2.018   0.077  14.112  0.1400  0.0594  0.3188
 4782SOL    HW225980   2.162   0.094  14.149 -1.1681 -0.3184  1.7790
 4783SOL     OW25981   2.189   1.671   2.926  0.0050  0.1090  0.7384
 4783SOL    HW125982   2.176   1.766   2.927 -2.6093 -0.2485 -0.5046
 4783SOL    HW225983   2.108   1.639   2.887 -0.2060 -0.6264  1.7541
 4784SOL     OW25984   1.812   0.998  17.165 -0.2647 -0.0973  0.3963
 4784SOL    HW125985   1.750   1.046  17.219 -0.2975 -0.1353  0.3926
 4784SOL    HW225986   1.821   0.919  17.219  1.7628 -0.6272 -0.7066
 4785SOL     OW25987   1.320   1.639  11.196 -0.5810 -0.3367 -0.2276
 4785SOL    HW125988   1.305   1.598  11.112  2.1100  0.8037 -1.2542
 4785SOL    HW225989   1.329   1.732  11.176 -2.4238  0.1730  1.2663
 4786SOL     OW25990   0.766   3.811   3.739 -0.1377 -0.4127  0.4342
 4786SOL    HW125991   0.681   3.767   3.731  0.5973 -1.9952  1.4859
 4786SOL    HW225992   0.834   3.748   3.717 -0.8014 -1.1436  0.4597
 4787SOL     OW25993   3.409   3.248  14.361  0.0119 -0.4859  0.5214
 4787SOL    HW125994   3.358   3.327  14.342 -0.1533 -1.5333 -3.2810
 4787SOL    HW225995   3.483   3.298  14.396 -0.5860 -0.1762  1.3642
 4788SOL     OW25996   0.016   3.027  11.886 -0.1315  0.6142 -0.3370
 4788SOL    HW125997   0.091   3.018  11.828  0.3586 -0.8959  0.5132
 4788SOL    HW225998   4.677   2.993  11.845  0.3662 -2.0931  0.9194
 4789SOL     OW25999   2.906   2.809  15.961  0.3141 -0.0615 -0.4123
 4789SOL    HW126000   2.835   2.824  15.898  0.3779  1.2066 -0.1779
 4789SOL    HW226001   2.900   2.891  16.009 -0.0776  1.3334 -2.8706
 4790SOL     OW26002   0.468   1.788   3.153  0.2711 -0.0987 -0.4031
 4790SOL    HW126003   0.377   1.816   3.160  0.1912 -0.7410  1.0912
 4790SOL    HW226004   0.511   1.873   3.160  0.9360 -0.2787 -2.1020
 4791SOL     OW26005   0.282   3.544   6.866  0.5675  0.2237  0.0283
 4791SOL    HW126006   0.240   3.544   6.780 -1.7530  1.3769  1.1570
 4791SOL    HW226007   0.260   3.455   6.894 -1.7189  0.7100 -0.2320
 4792SOL     OW26008   1.978   1.979  11.772  0.2962  0.2580 -0.0969
 4792SOL    HW126009   1.999   1.922  11.847 -1.1375 -3.5160 -2.5508
 4792SOL    HW226010   2.016   2.059  11.807 -0.1799  0.6469 -0.4779
 4793SOL     OW26011   3.691   4.290   6.715  0.1913 -0.4090 -0.0881
 4793SOL    HW126012   3.706   4.240   6.635 -1.2706 -0.3708 -0.3809
 4793SOL    HW226013   3.633   4.229   6.760  0.3636 -0.2882  0.2994
 4794SOL     OW26014   1.786   0.780   6.161 -0.7893 -0.0056  0.0592
 4794SOL    HW126015   1.741   0.824   6.089  2.4034  1.6319 -0.9188
 4794SOL    HW226016   1.865   0.834   6.162 -0.5419 -0.3636  0.2358
 4795SOL     OW26017   4.061   0.921   2.725  0.1741 -0.2591 -0.4783
 4795SOL    HW126018   4.147   0.960   2.709 -0.0694 -0.5637 -2.5838
 4795SOL    HW226019   4.004   0.997   2.727 -0.1598 -0.4729 -2.1083
 4796SOL     OW26020   1.716   3.169  17.653 -0.0394  0.5817 -1.0563
 4796SOL    HW126021   1.750   3.183  17.565  0.5217 -1.5731 -1.1795
 4796SOL    HW226022   1.625   3.197  17.642 -0.3712  0.2417  0.8283
 4797SOL     OW26023   3.777   1.769   7.024 -0.0783 -0.0451 -0.5891
 4797SOL    HW126024   3.692   1.767   7.069  0.4849  2.7196  0.5429
 4797SOL    HW226025   3.801   1.859   7.047 -0.8772  0.5322 -2.0460
 4798SOL     OW26026   1.578   1.908   9.555 -0.1489 -0.3339  0.1141
 4798SOL    HW126027   1.517   1.864   9.614 -1.1756 -0.2278 -0.8746
 4798SOL    HW226028   1.634   1.835   9.526  0.6205 -0.1632  1.1852
 4799SOL     OW26029   4.029   3.890  17.495  0.4418 -0.3101 -0.0441
 4799SOL    HW126030   4.079   3.972  17.497 -1.3159  0.7337  1.4356
 4799SOL    HW226031   4.030   3.864  17.403  3.2749  0.7742 -0.3380
 4800SOL     OW26032   2.928   0.235   3.298 -0.1887  0.5525 -0.3472
 4800SOL    HW126033   2.871   0.261   3.225 -0.2329 -1.2814 -0.9749
 4800SOL    HW226034   3.015   0.251   3.262  0.1738  1.1493  0.7830
 4801SOL     OW26035   0.081   3.871   5.765 -0.0378  0.1313  0.3324
 4801SOL    HW126036   4.730   3.846   5.755  0.2377  0.4973 -3.2663
 4801SOL    HW226037   0.125   3.792   5.796 -0.5653 -0.3884 -0.2502
 4802SOL     OW26038   2.642   3.398   7.860 -0.3241  0.0859  0.4541
 4802SOL    HW126039   2.564   3.360   7.900  0.2319  1.1831  2.5620
 4802SOL    HW226040   2.610   3.446   7.784  1.1030  1.2984  0.6233
 4803SOL     OW26041   1.970   4.214   8.948  0.0299  0.4518  0.4988
 4803SOL    HW126042   2.026   4.244   9.020  1.4101  0.8954 -0.7665
 4803SOL    HW226043   1.985   4.280   8.880  0.1433  0.3026  0.3785
 4804SOL     OW26044   3.236   2.430   4.852 -1.0662  0.2029 -0.0816
 4804SOL    HW126045   3.240   2.456   4.760 -0.9257  1.5750  0.3228
 4804SOL    HW226046   3.142   2.438   4.865 -0.5712  1.8453  2.4913
 4805SOL     OW26047   3.450   2.681   7.063 -0.0730  0.1266 -0.2826
 4805SOL    HW126048   3.456   2.744   7.135 -0.2028 -1.1220  0.8133
 4805SOL    HW226049   3.504   2.608   7.095 -1.0451  0.3506  1.8979
 4806SOL     OW26050   3.272   1.909   8.336 -0.0155  0.4378 -0.5463
 4806SOL    HW126051   3.217   1.976   8.295  1.5636  1.6062 -0.7348
 4806SOL    HW226052   3.235   1.898   8.424  2.6138 -0.8455  0.4022
 4807SOL     OW26053   2.926   2.252   5.242 -0.4671  0.1831 -0.0675
 4807SOL    HW126054   2.891   2.169   5.210  2.1150 -0.5171 -1.0116
 4807SOL    HW226055   2.954   2.284   5.156  1.3966 -1.4661 -0.0563
 4808SOL     OW26056   4.450   4.506  11.752  0.2707  0.0179 -0.2319
 4808SOL    HW126057   4.472   4.590  11.712 -1.3267  1.9430  2.9392
 4808SOL    HW226058   4.492   4.448  11.687 -0.4237 -0.6031 -0.1228
 4809SOL     OW26059   4.276   4.617   6.199  0.0460 -0.2574 -0.4826
 4809SOL    HW126060   4.211   4.681   6.171  1.9647  1.3302 -1.2818
 4809SOL    HW226061   4.223   4.538   6.184  0.0504  0.2042 -3.0001
 4810SOL     OW26062   4.553   0.370   2.037 -0.0561  0.6063  0.0380
 4810SOL    HW126063   4.617   0.380   1.968  1.4156  2.8601  1.7108
 4810SOL    HW226064   4.492   0.299   2.017  0.5925  0.4254 -1.2675
 4811SOL     OW26065   2.386   0.296   8.765 -0.1338  0.4009 -0.2335
 4811SOL    HW126066   2.416   0.272   8.853 -1.8011 -0.4200  0.1167
 4811SOL    HW226067   2.309   0.243   8.745 -0.5481  1.0762 -0.4315
 4812SOL     OW26068   1.893   2.056   9.188 -0.5104 -0.0739  0.3698
 4812SOL    HW126069   1.939   2.138   9.204 -1.0972  0.1442  0.9444
 4812SOL    HW226070   1.857   2.064   9.100  0.1709  2.4049  0.3111
 4813SOL     OW26071   3.439   3.630   7.864  0.3734  0.7852 -0.4915
 4813SOL    HW126072   3.345   3.643   7.861  0.1993 -0.1609  0.5493
 4813SOL    HW226073   3.446   3.537   7.842  0.1611  0.6060  0.1812
 4814SOL     OW26074   1.652   4.615   9.011  0.0611  0.3720 -0.3053
 4814SOL    HW126075   1.622   4.702   9.037 -0.8787  0.0370 -0.2708
 4814SOL    HW226076   1.678   4.575   9.094 -2.3400  1.2585  0.8705
 4815SOL     OW26077   3.732   2.691   5.331 -1.0274  0.0137  0.1051
 4815SOL    HW126078   3.656   2.696   5.274 -1.5955  2.8596  1.1388
 4815SOL    HW226079   3.800   2.646   5.280  1.4595  0.3902  3.0429
 4816SOL     OW26080   4.069   3.953   9.864  0.4099 -0.2402 -0.5040
 4816SOL    HW126081   4.099   4.022   9.923 -2.1626  0.5648 -0.1479
 4816SOL    HW226082   4.019   3.902   9.927 -0.3119 -1.1462 -1.8040
 4817SOL     OW26083   1.608   3.063   9.319  0.4753 -0.5655 -0.2052
 4817SOL    HW126084   1.517   3.092   9.325  0.1718 -1.2717 -1.3592
 4817SOL    HW226085   1.598   2.984   9.371  1.1018  0.3447  1.3095
 4818SOL     OW26086   1.101   4.291   5.693  0.2959 -0.0347  0.0766
 4818SOL    HW126087   1.078   4.210   5.647 -0.4217  1.3749 -2.0455
 4818SOL    HW226088   1.021   4.305   5.744  0.7518  0.5482  0.6138
 4819SOL     OW26089   0.233   0.476   9.227 -0.0814  0.3946 -0.5277
 4819SOL    HW126090   0.268   0.550   9.277  0.9429  0.0558 -0.7332
 4819SOL    HW226091   0.141   0.499   9.211  0.0880  1.7842  0.4890
 4820SOL     OW26092   1.978   4.399   0.600 -0.5933  0.1273 -0.5060
 4820SOL    HW126093   1.888   4.423   0.622 -1.4247 -4.3445  0.9024
 4820SOL    HW226094   1.994   4.463   0.531 -4.3914  0.4299 -1.0947
 4821SOL     OW26095   3.995   3.678   2.593 -0.0286 -0.2523  0.3023
 4821SOL    HW126096   3.972   3.637   2.677 -0.0342  1.5549  1.2039
 4821SOL    HW226097   4.027   3.605   2.541 -0.9637 -1.1563  0.9839
 4822SOL     OW26098   0.571   0.627  12.594 -0.2963 -0.3791  0.2918
 4822SOL    HW126099   0.587   0.538  12.627 -1.9916 -1.0881 -0.8575
 4822SOL    HW226100   0.649   0.674  12.625 -2.1004  2.8201 -0.0895
 4823SOL     OW26101   3.458   2.975   3.846 -0.5995 -0.0250 -0.7584
 4823SOL    HW126102   3.511   2.950   3.922 -0.4627  0.8784 -0.5621
 4823SOL    HW226103   3.379   2.927   3.869 -1.7071  2.6816  1.0770
 4824SOL     OW26104   3.093   3.121   5.351 -0.5539  0.5831 -0.0379
 4824SOL    HW126105   3.163   3.186   5.346 -0.6472  0.9261  3.0726
 4824SOL    HW226106   3.034   3.155   5.284 -0.1101 -0.4144 -0.9355
 4825SOL     OW26107   1.986   1.652   7.782 -0.1575  0.0078 -0.4502
 4825SOL    HW126108   2.059   1.634   7.842 -0.9278 -0.7004  0.2605
 4825SOL    HW226109   1.987   1.568   7.737 -0.0460  0.6850 -1.6946
 4826SOL     OW26110   2.441   0.759   7.458 -0.4329 -0.5842 -0.0898
 4826SOL    HW126111   2.382   0.805   7.398  1.5966 -0.4657 -2.0060
 4826SOL    HW226112   2.493   0.829   7.496 -0.3211 -1.5185  1.4985
 4827SOL     OW26113   0.984   3.344   7.353 -0.6253  0.5746  0.4878
 4827SOL    HW126114   0.921   3.381   7.292  0.3665 -1.4297 -1.7603
 4827SOL    HW226115   0.969   3.250   7.339 -1.2364  0.8138 -0.4259
 4828SOL     OW26116   0.821   2.428   5.451 -0.1445  0.0813  0.4563
 4828SOL    HW126117   0.803   2.511   5.495 -1.6745  0.8734 -1.6673
 4828SOL    HW226118   0.860   2.461   5.371 -2.2024  2.4583  0.4295
 4829SOL     OW26119   1.890   3.497   3.573 -0.0337  0.1951 -0.9206
 4829SOL    HW126120   1.880   3.441   3.650  1.4454  0.6775 -0.3638
 4829SOL    HW226121   1.815   3.464   3.524 -0.6793 -1.5652  1.2753
 4830SOL     OW26122   3.350   2.484   5.122 -0.0330  0.1333  0.4814
 4830SOL    HW126123   3.291   2.438   5.062 -1.6355  0.3560  1.8705
 4830SOL    HW226124   3.295   2.500   5.199 -0.3136 -2.0177  0.7193
 4831SOL     OW26125   2.535   3.809   1.624 -0.9207 -0.4679 -0.2480
 4831SOL    HW126126   2.574   3.725   1.648 -1.6239 -0.8501 -0.4519
 4831SOL    HW226127   2.615   3.860   1.609 -1.0280 -0.3389 -0.3833
 4832SOL     OW26128   0.410   2.977   3.769  0.2077  0.0302 -0.2057
 4832SOL    HW126129   0.325   3.014   3.794 -0.5990 -2.0391  0.1470
 4832SOL    HW226130   0.440   3.033   3.697 -0.8843  2.0317  0.9044
 4833SOL     OW26131   4.218   3.215  17.360  0.0367  0.4794  0.0368
 4833SOL    HW126132   4.210   3.309  17.376  1.4279  0.2531  2.0901
 4833SOL    HW226133   4.299   3.190  17.404  0.3735  1.2385 -0.1509
 4834SOL     OW26134   1.351   1.569   5.407 -0.0659  0.8008  0.2266
 4834SOL    HW126135   1.321   1.660   5.402  0.6723  1.0583  0.4140
 4834SOL    HW226136   1.371   1.565   5.501  0.3378  0.7434  0.1401
 4835SOL     OW26137   2.482   1.952   7.992  0.1482  0.2926  0.4561
 4835SOL    HW126138   2.525   1.977   8.074 -1.2161 -0.5523  1.4351
 4835SOL    HW226139   2.403   1.907   8.020  0.4769 -1.9007 -2.2307
 4836SOL     OW26140   2.354   3.025   7.024  0.0429  0.3726  0.6217
 4836SOL    HW126141   2.342   3.047   6.932 -2.5804 -1.8404  0.4228
 4836SOL    HW226142   2.335   2.932   7.014 -2.0882  0.9257 -0.5069
 4837SOL     OW26143   2.489   4.192  12.709 -0.4196  0.0113 -0.1429
 4837SOL    HW126144   2.499   4.246  12.631 -1.0110  0.3817  0.0464
 4837SOL    HW226145   2.398   4.210  12.730 -1.2854 -3.3126 -0.9224
 4838SOL     OW26146   3.039   3.168   5.901  0.2899 -0.3035 -0.1754
 4838SOL    HW126147   3.023   3.075   5.881 -2.1393  0.4391 -1.7596
 4838SOL    HW226148   2.974   3.197   5.836 -0.0067 -0.7844 -0.0937
 4839SOL     OW26149   2.228   0.724   7.960 -0.5257  0.0515 -0.5993
 4839SOL    HW126150   2.252   0.792   7.897 -0.8300  1.8193  1.1895
 4839SOL    HW226151   2.169   0.771   8.018  1.8402  0.4466  1.4708
 4840SOL     OW26152   1.221   2.853   1.874 -0.2093  0.5342 -0.2429
 4840SOL    HW126153   1.237   2.855   1.780  2.4372 -2.2221  0.1467
 4840SOL    HW226154   1.129   2.829   1.881  0.4788 -3.5120 -5.0574
 4841SOL     OW26155   4.136   0.629   3.090 -0.0324  0.3807  0.4545
 4841SOL    HW126156   4.052   0.621   3.044  1.7609 -2.0137 -2.4749
 4841SOL    HW226157   4.127   0.567   3.162 -1.2275 -1.4700 -1.2833
 4842SOL     OW26158   3.628   0.184   7.497  0.0714 -0.0866  0.1832
 4842SOL    HW126159   3.705   0.137   7.464  1.2479  1.7381  0.3160
 4842SOL    HW226160   3.583   0.107   7.532  1.1160  0.3575  2.5521
 4843SOL     OW26161   1.690   1.062   2.590 -0.0571 -0.2344 -0.2834
 4843SOL    HW126162   1.778   1.064   2.553 -0.3772  1.2545 -0.9783
 4843SOL    HW226163   1.684   0.973   2.624 -2.1470  0.3336  0.8490
 4844SOL     OW26164   1.297   2.052   2.949  0.6797  0.0332 -0.8852
 4844SOL    HW126165   1.291   1.992   2.875 -0.2186  0.5758 -1.2597
 4844SOL    HW226166   1.217   2.104   2.944  1.5663  1.7633  2.4499
 4845SOL     OW26167   1.087   2.614   8.379 -0.5398 -0.2850  0.7580
 4845SOL    HW126168   0.995   2.604   8.354 -0.0470 -1.5431 -0.5753
 4845SOL    HW226169   1.109   2.525   8.406 -2.3784 -0.4831  1.6466
 4846SOL     OW26170   4.200   0.612   5.018  0.4771 -0.1913 -0.3744
 4846SOL    HW126171   4.201   0.605   5.113  3.6751 -0.5085 -0.4144
 4846SOL    HW226172   4.256   0.537   4.995 -1.8272 -2.0837  0.2801
 4847SOL     OW26173   3.205   0.683   4.440  0.2137  0.4591  0.6055
 4847SOL    HW126174   3.138   0.668   4.507 -0.8554 -1.4918 -0.9248
 4847SOL    HW226175   3.286   0.712   4.483  0.2272 -2.2589  2.3862
 4848SOL     OW26176   0.313   1.580  10.300  0.1699  0.1190 -0.3997
 4848SOL    HW126177   0.396   1.553  10.339  0.0605 -0.4485 -0.5549
 4848SOL    HW226178   0.263   1.596  10.380 -1.7079  0.8048 -1.6988
 4849SOL     OW26179   3.870   3.523  14.495  0.0796  0.5678 -0.4697
 4849SOL    HW126180   3.894   3.532  14.587  0.9922 -0.9980 -0.5594
 4849SOL    HW226181   3.954   3.492  14.462 -0.2060  0.3887 -1.0331
 4850SOL     OW26182   1.811   3.272   3.971  0.0150 -0.2426  0.1184
 4850SOL    HW126183   1.905   3.253   3.972  0.3485  1.2609 -1.3829
 4850SOL    HW226184   1.790   3.236   4.056 -0.8616  0.9716  0.4196
 4851SOL     OW26185   3.540   2.039   4.105  0.7471 -0.4990  0.4559
 4851SOL    HW126186   3.476   1.975   4.138  0.8562 -0.9996 -0.3033
 4851SOL    HW226187   3.559   1.996   4.022 -2.7807  2.8046 -2.0583
 4852SOL     OW26188   2.914   1.090   2.713 -0.1965  0.3643 -0.5192
 4852SOL    HW126189   2.940   1.037   2.789  2.4840  1.3267 -0.7991
 4852SOL    HW226190   2.848   1.150   2.748 -0.5498  0.6962 -1.7680
 4853SOL     OW26191   0.878   2.393   3.095 -0.6224 -0.4282 -0.5447
 4853SOL    HW126192   0.803   2.338   3.121 -0.6547  0.3744  1.0504
 4853SOL    HW226193   0.836   2.451   3.032  4.3000  1.5797 -1.9703
 4854SOL     OW26194   2.658   0.433   6.095  0.2110  0.2131  0.5592
 4854SOL    HW126195   2.709   0.476   6.164  0.0220 -0.1217  0.9048
 4854SOL    HW226196   2.673   0.342   6.120 -1.4055 -0.0024  0.7463
 4855SOL     OW26197   1.387   2.825   6.290 -0.1358 -0.2129 -0.1327
 4855SOL    HW126198   1.358   2.915   6.276 -0.2998 -0.1295  0.7398
 4855SOL    HW226199   1.480   2.844   6.296 -0.2970  0.4697  0.1542
 4856SOL     OW26200   1.142   3.904  16.576 -0.1786  0.6115 -0.0191
 4856SOL    HW126201   1.128   3.933  16.486  1.2208  0.9071 -0.1337
 4856SOL    HW226202   1.236   3.907  16.590 -0.5754  1.3362  2.4918
 4857SOL     OW26203   3.569   2.103   9.189  0.8588  0.6062  0.1307
 4857SOL    HW126204   3.593   2.011   9.177  0.9653  0.6722 -0.1628
 4857SOL    HW226205   3.648   2.155   9.177  0.6891  1.2144  1.5488
 4858SOL     OW26206   3.174   4.132   4.541  0.4431 -1.1434  0.3205
 4858SOL    HW126207   3.085   4.166   4.539  0.0174 -2.2399  0.8848
 4858SOL    HW226208   3.179   4.088   4.626  1.8718 -0.3404  0.6596
 4859SOL     OW26209   3.763   0.413   9.407 -0.0953 -0.0600 -0.6001
 4859SOL    HW126210   3.814   0.333   9.411  1.1239  0.7207 -0.5842
 4859SOL    HW226211   3.675   0.384   9.431 -0.6396  0.7492 -1.5932
 4860SOL     OW26212   3.530   3.316   5.406  0.5127  0.1453 -0.6159
 4860SOL    HW126213   3.501   3.372   5.479  0.1567 -0.2232 -0.4732
 4860SOL    HW226214   3.475   3.242   5.432  0.4047 -0.2927 -2.1145
 4861SOL     OW26215   1.562   1.805   2.679  0.0714 -0.3802 -0.4200
 4861SOL    HW126216   1.546   1.712   2.696 -1.5160 -0.2132 -1.0287
 4861SOL    HW226217   1.611   1.839   2.754  1.1499 -0.1749 -1.2242
 4862SOL     OW26218   1.158   1.280   9.599  0.0831  0.4681 -0.0708
 4862SOL    HW126219   1.245   1.318   9.582 -1.3183  2.4721 -2.7001
 4862SOL    HW226220   1.177   1.220   9.671  0.3844  2.1532  1.2705
 4863SOL     OW26221   4.143   0.214  13.303 -0.4850  0.1747  0.5350
 4863SOL    HW126222   4.165   0.297  13.344  0.8196  0.7866 -1.4418
 4863SOL    HW226223   4.068   0.255  13.259 -0.7532  0.8586  1.6363
 4864SOL     OW26224   2.660   3.338  13.148 -0.5241 -0.0067  0.5997
 4864SOL    HW126225   2.583   3.368  13.196 -1.6626 -0.7209 -0.7775
 4864SOL    HW226226   2.719   3.407  13.177  2.0895 -2.3791  0.9060
 4865SOL     OW26227   3.620   4.388  17.328 -0.2420 -0.4087 -0.1280
 4865SOL    HW126228   3.576   4.414  17.409  0.6005 -1.4737  0.6654
 4865SOL    HW226229   3.635   4.477  17.296  0.1832 -0.8983 -1.2851
 4866SOL     OW26230   0.115   1.881   2.375 -0.2277 -0.0581 -0.0423
 4866SOL    HW126231   0.064   1.850   2.300  1.5023  0.8268 -1.5987
 4866SOL    HW226232   0.141   1.964   2.335 -0.7579 -0.0095 -0.2871
 4867SOL     OW26233   2.540   3.205  12.684  0.4226  0.3748  0.0010
 4867SOL    HW126234   2.535   3.215  12.779  1.4672 -1.4578  0.2461
 4867SOL    HW226235   2.544   3.297  12.660 -0.5328  0.5073  0.3308
 4868SOL     OW26236   0.460   1.626   4.891  0.3493 -0.2883 -0.4962
 4868SOL    HW126237   0.502   1.665   4.814 -2.4460 -0.2619 -1.9899
 4868SOL    HW226238   0.420   1.547   4.855  0.5471 -0.0238 -1.2932
 4869SOL     OW26239   4.415   2.525   4.716 -0.9834  0.0365  0.0693
 4869SOL    HW126240   4.459   2.551   4.797 -1.2468 -1.5594  0.7345
 4869SOL    HW226241   4.473   2.567   4.652  0.7490 -0.8174  1.0676
 4870SOL     OW26242   2.429   4.367   6.316 -0.3718  0.0276  0.6668
 4870SOL    HW126243   2.517   4.331   6.304 -0.5040  0.6289 -2.2071
 4870SOL    HW226244   2.444   4.445   6.263 -0.0406  0.5416  1.5324
 4871SOL     OW26245   2.632   2.801  12.679  0.5351  0.0170 -0.8418
 4871SOL    HW126246   2.648   2.850  12.760  0.1476  0.5224 -1.0709
 4871SOL    HW226247   2.558   2.851  12.643 -0.9286 -3.0688 -2.1287
 4872SOL     OW26248   3.409   1.397  17.496  0.0004  0.9186  0.0227
 4872SOL    HW126249   3.386   1.451  17.420 -1.0650 -0.1035 -0.3828
 4872SOL    HW226250   3.350   1.420  17.567  0.1165 -1.2562  0.8370
 4873SOL     OW26251   0.009   2.906  12.153  0.2124 -0.2196  0.8495
 4873SOL    HW126252   4.661   2.934  12.175 -0.7068 -2.8631  0.4252
 4873SOL    HW226253   4.737   2.926  12.061  0.0963 -0.4569  0.8170
 4874SOL     OW26254   0.542   0.236   8.019  0.4096  0.1882 -0.1694
 4874SOL    HW126255   0.633   0.233   8.051 -0.0059 -0.1277  0.9788
 4874SOL    HW226256   0.503   0.290   8.088  1.3237 -0.2983  0.7313
 4875SOL     OW26257   0.647   3.413   4.719 -0.0271  0.1004 -0.1305
 4875SOL    HW126258   0.701   3.433   4.796 -0.9567 -0.1683  0.5896
 4875SOL    HW226259   0.690   3.333   4.690 -2.3663 -0.6110 -1.5424
 4876SOL     OW26260   4.254   2.900   5.539 -0.2183 -0.2549 -0.2853
 4876SOL    HW126261   4.195   2.940   5.475 -1.8838  0.6274  1.8293
 4876SOL    HW226262   4.309   2.843   5.484  0.3734  0.8901 -0.8862
 4877SOL     OW26263   1.392   2.651   8.332  0.0896 -0.0970 -0.3653
 4877SOL    HW126264   1.318   2.644   8.392  0.2817  0.7010 -0.0292
 4877SOL    HW226265   1.441   2.726   8.364  0.4090 -0.3902 -0.1740
 4878SOL     OW26266   3.497   4.587  10.080 -0.1662 -0.1678 -0.3399
 4878SOL    HW126267   3.557   4.630  10.019  0.2788  2.2023  1.7770
 4878SOL    HW226268   3.429   4.654  10.072 -0.2766 -0.2555 -0.1374
 4879SOL     OW26269   2.608   2.316   1.653 -0.5478 -0.0696  0.0846
 4879SOL    HW126270   2.698   2.327   1.622 -0.6624 -0.8644 -0.5450
 4879SOL    HW226271   2.570   2.402   1.670  0.8399  0.2400  1.5298
 4880SOL     OW26272   4.585   2.355   2.871 -0.0025  0.2896  0.0078
 4880SOL    HW126273   4.523   2.425   2.890  1.2376  1.4387 -0.2058
 4880SOL    HW226274   4.663   2.409   2.856  0.9408 -0.8656  0.7798
 4881SOL     OW26275   2.442   1.952   2.373 -0.3047  0.4167  0.1259
 4881SOL    HW126276   2.450   1.871   2.424 -0.5905 -0.3649 -1.0719
 4881SOL    HW226277   2.353   1.976   2.400  0.3536  1.0537  1.7536
 4882SOL     OW26278   2.977   3.238  12.416 -0.2234 -0.0133 -0.0742
 4882SOL    HW126279   3.031   3.261  12.492  1.3239 -1.9179 -0.6142
 4882SOL    HW226280   3.045   3.218  12.352 -1.6179 -1.2817 -1.1748
 4883SOL     OW26281   1.068   4.575   7.438  0.1620  0.1832 -0.2551
 4883SOL    HW126282   1.129   4.635   7.480  2.2858 -1.3202 -1.2005
 4883SOL    HW226283   1.088   4.589   7.345 -1.1019 -1.3051 -0.7645
 4884SOL     OW26284   3.331   1.294   9.150  0.9158  0.6466 -0.3297
 4884SOL    HW126285   3.346   1.374   9.201  0.5128  0.7007 -0.2949
 4884SOL    HW226286   3.266   1.323   9.086  1.0747  0.7372 -0.4508
 4885SOL     OW26287   3.393   4.537  12.869 -0.3786  0.1215  0.1862
 4885SOL    HW126288   3.434   4.451  12.880 -0.2665  0.1212 -0.2222
 4885SOL    HW226289   3.462   4.582  12.820 -0.7740  0.8327  0.2922
 4886SOL     OW26290   4.234   4.066   0.009 -0.4109  0.6363  0.5755
 4886SOL    HW126291   4.281   3.999  17.719  0.6833 -0.8981  3.6507
 4886SOL    HW226292   4.198   4.124  17.702 -1.1547 -1.4455 -0.8180
 4887SOL     OW26293   0.650   1.345  16.152  0.2208  0.3566  0.0522
 4887SOL    HW126294   0.636   1.433  16.187 -0.8326  0.3585 -0.3600
 4887SOL    HW226295   0.714   1.368  16.085 -0.7515 -1.9933 -1.6958
 4888SOL     OW26296   2.334   0.190   4.757 -0.2008  0.1235  0.2168
 4888SOL    HW126297   2.406   0.147   4.713  1.9570  2.6654  1.2506
 4888SOL    HW226298   2.329   0.274   4.711  0.9861 -1.2659 -2.4404
 4889SOL     OW26299   4.241   1.900   2.211 -0.6172 -0.2365  0.0602
 4889SOL    HW126300   4.161   1.913   2.262 -1.4732 -1.2075 -1.0460
 4889SOL    HW226301   4.286   1.975   2.251  0.8634 -0.7464 -0.6491
 4890SOL     OW26302   3.943   3.858   3.601  0.5908  0.7078  0.1037
 4890SOL    HW126303   3.905   3.946   3.607 -0.6920  0.0175  1.9335
 4890SOL    HW226304   3.963   3.841   3.693 -0.6875 -2.4850 -0.1935
 4891SOL     OW26305   0.963   0.455   9.273 -0.3228 -0.3019  0.3885
 4891SOL    HW126306   0.967   0.546   9.302 -0.3717 -0.1936  0.0632
 4891SOL    HW226307   1.010   0.459   9.190  1.5979 -1.8557  1.4253
 4892SOL     OW26308   1.692   3.086   6.030 -0.3295  0.0703  0.1679
 4892SOL    HW126309   1.658   3.115   6.115 -2.3549  1.3550 -1.0879
 4892SOL    HW226310   1.772   3.037   6.049  1.2279  1.9231 -1.6205
 4893SOL     OW26311   4.144   0.725   4.207  0.2047 -0.8970 -0.6859
 4893SOL    HW126312   4.147   0.638   4.168  1.0561 -0.0767 -2.4194
 4893SOL    HW226313   4.053   0.748   4.187  0.6888  1.7937  0.2425
 4894SOL     OW26314   2.251   3.041   2.672  0.0444 -0.4458  0.0479
 4894SOL    HW126315   2.181   3.089   2.718  2.7873  1.5825  2.1190
 4894SOL    HW226316   2.202   3.004   2.599  0.7761  0.0364 -0.6738
 4895SOL     OW26317   3.400   0.946   4.928  0.2452 -0.3958  0.3810
 4895SOL    HW126318   3.408   0.867   4.982  1.2766 -0.5776 -0.0504
 4895SOL    HW226319   3.475   0.936   4.870 -2.1294 -2.5639 -2.3145
 4896SOL     OW26320   0.064   1.976   8.573  0.2315 -0.9700  0.6964
 4896SOL    HW126321   0.084   1.882   8.568 -0.2158 -1.0870  1.1470
 4896SOL    HW226322   0.031   1.978   8.663 -0.6118  0.6437  0.3383
 4897SOL     OW26323   2.546   0.149   2.814 -0.3237  0.0125  0.1359
 4897SOL    HW126324   2.490   0.149   2.737  0.5342  1.7743 -0.4740
 4897SOL    HW226325   2.516   0.074   2.866  1.3848  1.5211  3.3328
 4898SOL     OW26326   3.073   2.223   1.060 -0.0381  0.3044 -0.5072
 4898SOL    HW126327   3.124   2.304   1.050  0.2487  0.3707  1.5080
 4898SOL    HW226328   3.061   2.222   1.155  0.4381 -2.5112 -0.4660
 4899SOL     OW26329   3.183   3.171   2.793  0.2664  0.1422 -0.2036
 4899SOL    HW126330   3.126   3.227   2.845 -0.4663  0.1857 -1.0552
 4899SOL    HW226331   3.172   3.083   2.829  1.7150 -0.1902 -0.5812
 4900SOL     OW26332   2.394   0.279  10.164  0.0450 -0.3241 -0.7383
 4900SOL    HW126333   2.483   0.246  10.156  0.7149  1.0920  0.7234
 4900SOL    HW226334   2.395   0.357  10.220  0.2552 -0.3314 -0.7322
 4901SOL     OW26335   3.389   1.715   1.665  0.2681  0.3989 -0.3108
 4901SOL    HW126336   3.399   1.700   1.759 -0.0593  0.0185 -0.3350
 4901SOL    HW226337   3.295   1.698   1.661  0.4143 -0.5501  0.4856
 4902SOL     OW26338   1.377   1.134   5.603 -0.1297  0.4014 -0.2493
 4902SOL    HW126339   1.430   1.208   5.631 -0.9493  0.4719  1.1143
 4902SOL    HW226340   1.297   1.167   5.562 -0.2749 -1.8500 -1.7912
 4903SOL     OW26341   2.538   1.436   6.176  0.7585  0.7297  0.9677
 4903SOL    HW126342   2.597   1.369   6.211 -0.3731 -0.7153  0.1165
 4903SOL    HW226343   2.459   1.386   6.195  2.1832 -1.7224  0.4727
 4904SOL     OW26344   1.282   1.503   4.476  0.2479  0.3652  0.4472
 4904SOL    HW126345   1.329   1.462   4.403  0.5748  1.5032  0.0138
 4904SOL    HW226346   1.213   1.539   4.422  0.0180 -0.3761  0.2528
 4905SOL     OW26347   3.579   2.092  13.033  0.3758  0.0728  0.5266
 4905SOL    HW126348   3.583   2.103  13.128 -0.7806  1.6147  0.4014
 4905SOL    HW226349   3.615   2.004  13.035 -2.8329 -1.2803 -1.1029
 4906SOL     OW26350   4.487   4.400   1.446  0.4390  0.0371 -0.4766
 4906SOL    HW126351   4.395   4.374   1.456  0.3928  0.0331 -0.9103
 4906SOL    HW226352   4.482   4.482   1.398 -0.0357 -0.7800 -1.8192
 4907SOL     OW26353   3.034   3.585   7.548 -0.0561 -0.2622  0.3281
 4907SOL    HW126354   3.093   3.513   7.572 -0.9670 -1.2720 -0.4723
 4907SOL    HW226355   2.978   3.544   7.482 -1.5335 -0.6596  1.8281
 4908SOL     OW26356   3.954   3.213  13.143  0.3605 -0.2658 -0.1317
 4908SOL    HW126357   4.004   3.214  13.061  1.9189  0.6406  0.8342
 4908SOL    HW226358   3.953   3.122  13.173  2.3398 -0.6689 -1.2695
 4909SOL     OW26359   2.156   3.968  16.892 -0.1260 -0.0570  0.4115
 4909SOL    HW126360   2.061   3.963  16.894 -0.2294  0.2903 -3.6463
 4909SOL    HW226361   2.178   3.907  16.821 -1.5814 -1.0703  0.8201
 4910SOL     OW26362   4.726   2.048   3.285 -0.0233 -0.1087 -0.0584
 4910SOL    HW126363   4.681   2.113   3.230 -1.2893 -0.3906  0.6524
 4910SOL    HW226364   4.675   1.972   3.256 -1.3154  0.5136  0.5791
 4911SOL     OW26365   2.235   1.171  10.299  0.3699  0.2640  0.1676
 4911SOL    HW126366   2.228   1.079  10.325 -1.6761  0.1761 -0.6844
 4911SOL    HW226367   2.328   1.180  10.281  0.0552 -0.1037 -1.6138
 4912SOL     OW26368   1.454   2.383   1.523 -0.2608 -0.4759  0.1531
 4912SOL    HW126369   1.506   2.403   1.601 -4.3648 -1.4739  3.1549
 4912SOL    HW226370   1.510   2.312   1.493  1.2577  0.3658  1.0280
 4913SOL     OW26371   2.850   4.277   7.594 -0.0893 -0.0740 -0.5804
 4913SOL    HW126372   2.871   4.252   7.504  0.9302 -1.9553  0.1926
 4913SOL    HW226373   2.935   4.303   7.629 -0.5296  1.0789 -0.3473
 4914SOL     OW26374   4.454   1.196   6.548 -0.0703 -0.2735  0.3433
 4914SOL    HW126375   4.401   1.186   6.469 -0.7760 -2.4361  1.0945
 4914SOL    HW226376   4.539   1.221   6.513 -0.3191  0.6522  0.3824
 4915SOL     OW26377   3.058   2.018  10.753  0.2110  0.7652 -0.7192
 4915SOL    HW126378   3.090   1.933  10.722 -1.1720 -0.0081 -0.0168
 4915SOL    HW226379   3.021   2.053  10.672  0.4373  1.9589 -0.2960
 4916SOL     OW26380   4.428   2.733  17.442 -0.5232  0.0020  0.3440
 4916SOL    HW126381   4.518   2.731  17.474 -0.0930 -0.6451 -0.8968
 4916SOL    HW226382   4.368   2.718  17.515  0.9023 -1.4999  1.2112
 4917SOL     OW26383   2.059   2.272   9.196 -0.6368  0.2305 -0.4566
 4917SOL    HW126384   2.095   2.283   9.285 -2.3827  0.1065  0.2614
 4917SOL    HW226385   2.030   2.359   9.168  1.3826  0.3706 -2.1509
 4918SOL     OW26386   3.788   2.321   5.496  0.0174  0.1364 -0.5433
 4918SOL    HW126387   3.808   2.371   5.417 -0.2976  2.7927  1.0290
 4918SOL    HW226388   3.788   2.230   5.468 -0.4746  0.4855 -1.6882
 4919SOL     OW26389   0.193   4.209   5.370 -0.2979 -0.2190  0.1807
 4919SOL    HW126390   0.275   4.177   5.409 -1.2019 -2.1191  0.5007
 4919SOL    HW226391   0.167   4.266   5.442 -0.2303  0.2219 -0.1463
 4920SOL     OW26392   4.590   1.479   5.610 -0.0159 -0.3227  0.6429
 4920SOL    HW126393   4.522   1.458   5.546  2.0215 -0.8618 -1.3506
 4920SOL    HW226394   4.648   1.539   5.564 -2.7232  1.8913  0.1010
 4921SOL     OW26395   0.803   0.641   3.573 -0.3490  0.2086 -0.1411
 4921SOL    HW126396   0.828   0.639   3.481  1.3887  1.2554  0.3099
 4921SOL    HW226397   0.745   0.565   3.577 -0.9096  0.6240 -0.2370
 4922SOL     OW26398   2.459   2.724   8.919  0.3828  0.0324 -0.2890
 4922SOL    HW126399   2.384   2.739   8.976  1.0136 -2.4194  1.1717
 4922SOL    HW226400   2.523   2.673   8.969  1.5705  2.3228  0.5236
 4923SOL     OW26401   1.942   0.225  14.117 -0.2480  0.4436 -0.2903
 4923SOL    HW126402   1.982   0.305  14.083 -3.0578  2.4566  1.1470
 4923SOL    HW226403   1.913   0.246  14.206  0.6088  0.1596  0.0562
 4924SOL     OW26404   3.557   0.646  12.518 -0.1827  0.8305 -0.3651
 4924SOL    HW126405   3.543   0.728  12.565  1.0523  1.9318 -1.9375
 4924SOL    HW226406   3.650   0.643  12.541 -0.0803  1.8175 -0.6870
 4925SOL     OW26407   0.456   0.725   3.062 -0.4243  0.0265 -0.4908
 4925SOL    HW126408   0.524   0.777   3.017  2.3072 -2.3391  0.8776
 4925SOL    HW226409   0.373   0.766   3.037 -0.8819  0.7389  2.2351
 4926SOL     OW26410   4.316   3.133   5.690 -0.2309 -0.2779 -0.5472
 4926SOL    HW126411   4.373   3.177   5.627  2.4556 -0.3253  1.8177
 4926SOL    HW226412   4.305   3.050   5.644  1.1221 -0.6577 -0.1916
 4927SOL     OW26413   3.235   1.441   4.037  0.1567 -0.1581 -0.0642
 4927SOL    HW126414   3.145   1.431   4.007  0.6378 -2.4358 -0.7682
 4927SOL    HW226415   3.231   1.512   4.101 -1.6877 -0.4739  0.1715
 4928SOL     OW26416   2.291   3.011   5.257 -0.2326  0.1861 -0.9597
 4928SOL    HW126417   2.242   2.966   5.188 -0.6019  0.2565 -0.7463
 4928SOL    HW226418   2.211   3.050   5.292 -1.2102 -3.6478  1.0585
 4929SOL     OW26419   2.169   0.327   9.029 -0.0095  0.1052 -0.1647
 4929SOL    HW126420   2.132   0.381   8.959 -1.0185  0.4817  0.6505
 4929SOL    HW226421   2.147   0.237   9.005  0.1254  0.0531 -0.0937
 4930SOL     OW26422   0.706   2.765   1.619  0.7343  0.0350  0.4662
 4930SOL    HW126423   0.786   2.783   1.669 -0.3853  1.7076  1.6905
 4930SOL    HW226424   0.638   2.772   1.687 -0.3066  0.8061 -0.6425
 4931SOL     OW26425   4.428   1.206   4.380  0.0696 -0.1084 -0.6732
 4931SOL    HW126426   4.487   1.202   4.305  1.6887 -0.0872  0.5868
 4931SOL    HW226427   4.423   1.300   4.398 -1.9367  0.1839 -2.7587
 4932SOL     OW26428   2.693   0.689  16.347  0.1643  0.0209  0.0121
 4932SOL    HW126429   2.730   0.725  16.428 -0.9006 -1.6721  1.2458
 4932SOL    HW226430   2.709   0.762  16.288  3.4169 -0.3500  0.4467
 4933SOL     OW26431   3.549   2.389  12.513 -0.0882  0.5208 -0.1276
 4933SOL    HW126432   3.489   2.324  12.551  0.9218 -0.0702  0.4708
 4933SOL    HW226433   3.625   2.331  12.506  1.5732  2.3664  2.4395
 4934SOL     OW26434   3.527   1.553   3.679 -0.3156  0.0608  0.3639
 4934SOL    HW126435   3.547   1.559   3.772 -0.2696  0.9688  0.2989
 4934SOL    HW226436   3.461   1.622   3.684  0.9019  1.2601 -0.0169
 4935SOL     OW26437   0.262   2.083   8.386 -0.0343  0.1634  0.7060
 4935SOL    HW126438   0.217   2.137   8.321 -0.0568 -0.9634 -0.2140
 4935SOL    HW226439   0.192   2.055   8.444 -2.9855 -0.1657 -3.0024
 4936SOL     OW26440   2.010   4.457  16.003 -1.1527  0.1551 -0.1472
 4936SOL    HW126441   2.038   4.509  15.928  0.8940  0.1049  0.5599
 4936SOL    HW226442   1.927   4.418  15.976  0.0386 -2.5888  0.0759
 4937SOL     OW26443   3.768   0.243  15.672 -0.1560  0.5866 -0.0786
 4937SOL    HW126444   3.759   0.190  15.750 -0.7700 -0.7709 -1.0688
 4937SOL    HW226445   3.797   0.172  15.614  1.8867  0.9127  0.5307
 4938SOL     OW26446   0.693   4.090   7.316  0.0950 -1.0012 -0.9041
 4938SOL    HW126447   0.780   4.086   7.355  0.0086  1.5871 -0.4779
 4938SOL    HW226448   0.637   4.032   7.367 -2.7207  2.0190 -0.5717
 4939SOL     OW26449   2.136   2.195   6.415 -0.4561  0.2891  0.6357
 4939SOL    HW126450   2.098   2.250   6.483 -2.6857  0.3672 -0.6997
 4939SOL    HW226451   2.230   2.197   6.435 -0.4964 -1.7033  1.0320
 4940SOL     OW26452   0.786   0.187   3.659 -0.8843  0.3913  0.6941
 4940SOL    HW126453   0.811   0.172   3.751 -0.9723  1.5234  0.9023
 4940SOL    HW226454   0.764   0.280   3.657 -0.6532  0.4506  0.8372
 4941SOL     OW26455   1.759   4.406   6.274  0.3132  0.1090  0.0731
 4941SOL    HW126456   1.790   4.386   6.362  0.8836 -0.6409 -0.3045
 4941SOL    HW226457   1.809   4.337   6.231 -1.2814 -0.7250 -0.4477
 4942SOL     OW26458   4.148   0.535  10.790  0.5627 -0.3808  0.0043
 4942SOL    HW126459   4.202   0.591  10.845  0.3430 -1.4653  1.3266
 4942SOL    HW226460   4.135   0.461  10.849  0.1709 -0.3902 -0.0934
 4943SOL     OW26461   1.187   0.371   0.366  0.2705 -0.6733  0.0045
 4943SOL    HW126462   1.153   0.334   0.448  2.0259 -0.9754  0.6117
 4943SOL    HW226463   1.240   0.448   0.391 -0.5374 -0.1394  0.0551
 4944SOL     OW26464   4.427   3.083  11.483 -0.1540 -0.2244  1.1508
 4944SOL    HW126465   4.434   3.014  11.549 -1.6213 -1.6456 -0.2066
 4944SOL    HW226466   4.396   3.162  11.527 -0.2148 -0.9958  2.4995
 4945SOL     OW26467   0.543   1.862   2.246  0.1940  0.5402 -0.0731
 4945SOL    HW126468   0.591   1.828   2.171 -0.4145 -0.9605  0.2149
 4945SOL    HW226469   0.451   1.850   2.223  0.2015 -0.4757  0.3949
 4946SOL     OW26470   4.712   4.089  11.416  0.0463  0.0014  0.0377
 4946SOL    HW126471   4.714   4.152  11.343 -0.1975 -1.5017 -1.2750
 4946SOL    HW226472   0.021   4.020  11.371  1.3638  0.9223  0.0740
 4947SOL     OW26473   2.349   3.408   7.970 -0.2389  0.1448 -0.5211
 4947SOL    HW126474   2.350   3.495   8.009  0.0259  0.4519 -1.2166
 4947SOL    HW226475   2.318   3.353   8.042  1.4729  0.1169  0.2024
 4948SOL     OW26476   2.735   0.460   4.238  0.2997  0.0314  0.9544
 4948SOL    HW126477   2.669   0.415   4.185  2.0637 -2.2861  0.7542
 4948SOL    HW226478   2.785   0.383   4.263  0.9772  0.3045  0.4362
 4949SOL     OW26479   2.570   3.987   8.496  0.1038 -0.1643  0.6166
 4949SOL    HW126480   2.567   3.894   8.516  1.4821 -0.3329  0.0627
 4949SOL    HW226481   2.516   3.990   8.417 -1.7824  0.2949  1.9355
 4950SOL     OW26482   0.460   1.328   7.299 -0.3179 -0.6453 -0.2565
 4950SOL    HW126483   0.523   1.387   7.340 -2.0003  0.7833  0.2751
 4950SOL    HW226484   0.389   1.331   7.364 -1.0554  1.0960 -1.1542
 4951SOL     OW26485   3.865   1.363  12.047 -0.0886 -0.6425  0.0345
 4951SOL    HW126486   3.844   1.321  12.130 -0.6189 -1.2519 -0.4093
 4951SOL    HW226487   3.790   1.423  12.046 -0.5577 -1.2401 -0.3567
 4952SOL     OW26488   0.571   0.647   5.776 -0.1989  0.1434  0.3911
 4952SOL    HW126489   0.630   0.603   5.715 -0.3144  1.5801 -0.7470
 4952SOL    HW226490   0.590   0.738   5.754 -0.2463  0.1040  0.1954
 4953SOL     OW26491   1.413   4.146   9.919  0.1536 -0.5594  0.1557
 4953SOL    HW126492   1.323   4.173   9.934  0.0246 -1.4357  0.9589
 4953SOL    HW226493   1.466   4.180   9.991  2.0826 -1.4368 -0.8458
 4954SOL     OW26494   0.124   0.216   5.840  0.8127 -0.2385 -0.0470
 4954SOL    HW126495   0.138   0.286   5.776 -1.2948  0.0618 -0.1752
 4954SOL    HW226496   0.135   0.258   5.925 -2.3652  1.4980 -0.5100
 4955SOL     OW26497   3.935   1.953   6.790 -0.2971  0.0183 -0.3082
 4955SOL    HW126498   3.896   1.941   6.704  2.2508 -0.0222 -1.4466
 4955SOL    HW226499   3.891   2.027   6.833  3.8749  1.7223  1.0505
 4956SOL     OW26500   3.422   1.820   9.514  0.0713  0.1347  0.6952
 4956SOL    HW126501   3.418   1.731   9.548 -0.5503 -0.9193 -2.0844
 4956SOL    HW226502   3.381   1.869   9.586 -0.1677  0.4618  0.3432
 4957SOL     OW26503   1.017   2.662   3.541 -0.0316 -0.3047 -0.0558
 4957SOL    HW126504   1.091   2.632   3.594 -0.9781 -2.0505  0.2394
 4957SOL    HW226505   1.044   2.653   3.449  0.0694  1.1618 -0.1832
 4958SOL     OW26506   3.523   0.837  12.685  0.5723 -0.4588 -0.3005
 4958SOL    HW126507   3.587   0.888  12.735  2.1817  1.0810 -3.9576
 4958SOL    HW226508   3.448   0.844  12.743  1.5712 -2.1241  1.1975
 4959SOL     OW26509   2.147   1.633  14.430  0.3259 -0.3159  0.1268
 4959SOL    HW126510   2.169   1.550  14.387  2.6785 -0.5251  1.7406
 4959SOL    HW226511   2.212   1.639  14.500  1.1507 -2.4478 -0.4423
 4960SOL     OW26512   4.013   2.058   8.597  0.2828  0.3507 -0.4267
 4960SOL    HW126513   3.974   2.145   8.607 -2.9496 -1.0002 -1.5136
 4960SOL    HW226514   3.949   2.000   8.639 -0.9679  1.8772 -0.2120
 4961SOL     OW26515   0.845   4.530   2.659 -0.0092  0.4421 -0.4274
 4961SOL    HW126516   0.933   4.567   2.656 -0.8426  2.3508 -1.2165
 4961SOL    HW226517   0.801   4.581   2.728 -0.5581 -0.3010 -0.2283
 4962SOL     OW26518   1.084   1.975   8.864 -0.1320 -0.3238 -0.5300
 4962SOL    HW126519   1.060   1.967   8.772  0.2304  1.4646 -0.7921
 4962SOL    HW226520   1.170   1.936   8.847  2.4915  4.0177  2.7163
 4963SOL     OW26521   3.592   4.435   2.498 -0.3835  0.2353 -0.3113
 4963SOL    HW126522   3.594   4.430   2.402  0.9828 -0.0985 -0.2650
 4963SOL    HW226523   3.519   4.375   2.511 -0.1902  0.1553  0.3916
 4964SOL     OW26524   1.945   0.582   5.513 -0.3547  0.1173  0.0838
 4964SOL    HW126525   1.956   0.620   5.425 -0.0866 -0.6602 -0.2182
 4964SOL    HW226526   2.036   0.588   5.542 -0.1974  0.8122 -0.5431
 4965SOL     OW26527   4.582   0.855   3.275 -0.7188 -0.2219 -0.0602
 4965SOL    HW126528   4.629   0.859   3.358 -0.8823  0.9695 -0.0167
 4965SOL    HW226529   4.654   0.868   3.212 -1.2865 -0.8183 -0.8273
 4966SOL     OW26530   0.081   1.859  13.482  0.0554 -0.4993  0.3744
 4966SOL    HW126531   0.062   1.919  13.553 -1.1354 -1.0167  0.4926
 4966SOL    HW226532   0.045   1.776  13.514  0.0636 -1.1246 -1.2102
 4967SOL     OW26533   2.887   3.494   0.993 -0.0659 -0.5812 -0.6806
 4967SOL    HW126534   2.964   3.524   0.944 -0.8838 -0.5039 -1.9032
 4967SOL    HW226535   2.815   3.525   0.939 -0.2990  2.4773  1.4244
 4968SOL     OW26536   3.128   2.338  11.245 -0.2740 -0.5698  0.0502
 4968SOL    HW126537   3.062   2.407  11.252 -0.9154 -1.2271  0.4663
 4968SOL    HW226538   3.142   2.311  11.335 -0.4456  0.6222  0.4264
 4969SOL     OW26539   0.806   0.584  17.111  0.0469 -0.4018  0.6642
 4969SOL    HW126540   0.770   0.672  17.100  0.3483 -0.2829  0.6203
 4969SOL    HW226541   0.835   0.574  17.020 -0.7100 -0.8463  0.4715
 4970SOL     OW26542   0.088   2.940   6.070 -0.0444 -0.0520  0.5131
 4970SOL    HW126543   0.032   3.016   6.052  1.1360  0.8779  0.7354
 4970SOL    HW226544   0.132   2.943   5.985  1.7176 -0.9333  1.3833
 4971SOL     OW26545   1.672   2.037   5.469 -0.1404 -0.0201  0.3191
 4971SOL    HW126546   1.726   2.020   5.391 -0.0393  1.1697  0.1203
 4971SOL    HW226547   1.589   1.996   5.447  0.6973 -1.2322 -0.5814
 4972SOL     OW26548   0.499   3.800   3.481  0.1634  0.2236  0.1559
 4972SOL    HW126549   0.554   3.863   3.527  0.4660 -0.5128  0.8097
 4972SOL    HW226550   0.475   3.832   3.394  0.1459  0.9291  0.4207
 4973SOL     OW26551   1.671   1.441   6.744 -0.9355  0.3904  0.7122
 4973SOL    HW126552   1.578   1.427   6.760 -1.2729 -0.9546 -2.4078
 4973SOL    HW226553   1.712   1.404   6.822  0.1558  0.1471  0.0192
 4974SOL     OW26554   2.370   2.051  16.436  0.4514  0.2984  0.2639
 4974SOL    HW126555   2.403   2.089  16.517 -3.7422  2.2803  1.0475
 4974SOL    HW226556   2.387   1.960  16.464 -0.9330  0.0777  0.3948
 4975SOL     OW26557   2.807   1.833   4.278 -0.4609 -0.0375  0.0120
 4975SOL    HW126558   2.718   1.863   4.258 -2.2974 -2.9848  3.6818
 4975SOL    HW226559   2.808   1.748   4.234 -0.2334  0.2615 -0.5556
 4976SOL     OW26560   0.659   0.930   8.044 -0.4661  0.6580  0.4390
 4976SOL    HW126561   0.570   0.919   8.078  0.8773 -2.5295  2.8964
 4976SOL    HW226562   0.666   1.025   8.041 -0.3622  0.6825  1.5315
 4977SOL     OW26563   0.740   0.859   1.654 -0.7025 -0.3922 -0.4080
 4977SOL    HW126564   0.815   0.810   1.620 -0.4439 -0.2446 -0.0494
 4977SOL    HW226565   0.655   0.823   1.628 -0.0112 -1.5315 -1.0793
 4978SOL     OW26566   4.423   4.135   7.795 -0.0026  0.7125 -0.0237
 4978SOL    HW126567   4.365   4.063   7.770 -0.1012  0.4944  0.7992
 4978SOL    HW226568   4.408   4.124   7.889  0.7911  0.0693  0.0235
 4979SOL     OW26569   3.896   4.307   4.046 -0.2500  0.0701  0.4015
 4979SOL    HW126570   3.864   4.274   4.131 -0.7196  0.0051  0.1994
 4979SOL    HW226571   3.838   4.382   4.032  0.0102  0.2208  0.1432
 4980SOL     OW26572   0.856   2.573   9.337 -0.1942  0.2120  0.0085
 4980SOL    HW126573   0.771   2.574   9.294 -0.1091  2.4317 -0.1130
 4980SOL    HW226574   0.920   2.555   9.268  0.7804  1.4514  0.5635
 4981SOL     OW26575   3.936   1.949   0.822  0.0105 -0.1014 -0.4275
 4981SOL    HW126576   4.015   1.933   0.769  0.8206 -1.5299  1.2022
 4981SOL    HW226577   3.924   1.861   0.858  1.2297  0.6132  1.7650
 4982SOL     OW26578   1.706   1.011   1.589  0.1027 -0.6957  0.3694
 4982SOL    HW126579   1.687   1.005   1.683  1.1678  1.6999  0.7294
 4982SOL    HW226580   1.648   1.080   1.557  0.1069 -0.3681  1.0591
 4983SOL     OW26581   1.843   2.348   7.823  0.3201 -0.3331  0.1220
 4983SOL    HW126582   1.879   2.433   7.848  0.6985 -0.5427  0.2867
 4983SOL    HW226583   1.783   2.352   7.897  1.7566 -0.7965  1.3036
 4984SOL     OW26584   3.211   4.448  17.675 -0.6011 -0.0806  0.4743
 4984SOL    HW126585   3.189   4.360  17.707 -2.0144 -0.2174 -0.8946
 4984SOL    HW226586   3.162   4.502  17.736  1.1935  2.3988 -0.2890
 4985SOL     OW26587   3.960   0.305   3.635 -0.4370 -0.1538  0.3086
 4985SOL    HW126588   3.880   0.339   3.596 -0.7105  0.5879  1.5052
 4985SOL    HW226589   3.978   0.372   3.701  0.1288  1.4590 -1.4979
 4986SOL     OW26590   3.623   0.499   6.750 -0.2382  0.3449 -0.0527
 4986SOL    HW126591   3.574   0.577   6.774 -0.4319  0.7906 -1.8604
 4986SOL    HW226592   3.601   0.484   6.658 -1.8300 -1.1292  0.5709
 4987SOL     OW26593   2.676   3.194  12.400  0.3611 -0.2030 -0.1923
 4987SOL    HW126594   2.669   3.191  12.495  0.8005  0.4791 -0.1472
 4987SOL    HW226595   2.770   3.208  12.393  0.2372 -0.0521 -1.7043
 4988SOL     OW26596   0.906   0.632  12.586  0.3699  0.3328 -0.7471
 4988SOL    HW126597   0.882   0.556  12.639 -2.3066  0.1974 -2.1593
 4988SOL    HW226598   0.882   0.597  12.501 -0.6817  1.4086 -0.8973
 4989SOL     OW26599   4.130   3.457   7.337 -0.1755  0.0564  0.5075
 4989SOL    HW126600   4.121   3.367   7.305  1.8901 -0.7463  2.1215
 4989SOL    HW226601   4.105   3.446   7.429  0.2654  1.4382  0.7872
 4990SOL     OW26602   4.658   0.900   5.410  0.3444 -0.6162 -0.3052
 4990SOL    HW126603   4.683   0.975   5.357 -0.8076  0.3249  0.5070
 4990SOL    HW226604   0.005   0.865   5.427  0.0936  0.1012  2.5480
 4991SOL     OW26605   0.116   4.590  13.024 -0.1317  0.4941 -0.5223
 4991SOL    HW126606   0.198   4.596  13.073  0.4121  1.5707 -1.5704
 4991SOL    HW226607   0.081   4.677  13.040  0.9364  0.5340  1.4893
 4992SOL     OW26608   2.872   3.217   3.964 -0.1182  0.4910 -0.5316
 4992SOL    HW126609   2.954   3.199   4.009 -0.7076  0.2265  0.4283
 4992SOL    HW226610   2.869   3.312   3.952  1.6964  0.5983 -0.2155
 4993SOL     OW26611   0.791   2.505   2.260  0.2736 -0.4528  0.0103
 4993SOL    HW126612   0.877   2.487   2.222  0.9951 -0.0289  1.4319
 4993SOL    HW226613   0.762   2.421   2.296 -1.0556  0.7445  1.7368
 4994SOL     OW26614   2.045   0.174   5.686 -0.0290  0.0623 -0.0065
 4994SOL    HW126615   2.022   0.168   5.779  2.4691  0.5613  0.6552
 4994SOL    HW226616   1.999   0.248   5.646 -0.7339 -0.2423  0.2505
 4995SOL     OW26617   1.359   4.413   6.706 -0.0653  0.1398 -0.3255
 4995SOL    HW126618   1.383   4.495   6.663 -1.8026  1.3567  0.9910
 4995SOL    HW226619   1.442   4.396   6.751 -0.4764 -0.8389  0.0666
 4996SOL     OW26620   2.356   4.290   8.899 -0.2059  0.0273  0.3197
 4996SOL    HW126621   2.351   4.264   8.807 -3.7215 -0.4049  0.6198
 4996SOL    HW226622   2.432   4.237   8.923  0.5201 -0.4066 -2.8714
 4997SOL     OW26623   2.687   1.283   2.759  0.1928 -0.5899 -0.6675
 4997SOL    HW126624   2.675   1.314   2.669 -0.3780  1.4141  0.1001
 4997SOL    HW226625   2.669   1.357   2.817  0.9533 -1.4643  0.6852
 4998SOL     OW26626   3.702   0.379  13.240 -0.6718  0.2417 -0.4504
 4998SOL    HW126627   3.609   0.386  13.219 -0.6970  1.1067 -0.0296
 4998SOL    HW226628   3.698   0.440  13.313 -1.5733 -2.1057  1.4715
 4999SOL     OW26629   3.593   3.584  13.670  0.7046  0.1514  0.5407
 4999SOL    HW126630   3.587   3.632  13.752 -2.4691  0.9172 -0.1665
 4999SOL    HW226631   3.686   3.559  13.675  0.3093 -1.4549  0.1431
 5000SOL     OW26632   3.079   3.295   6.350  0.1178 -0.7753  0.2656
 5000SOL    HW126633   3.133   3.305   6.272  1.0519 -0.2292  0.9752
 5000SOL    HW226634   3.142   3.274   6.420 -0.0437 -1.1505  0.3016
 5001SOL     OW26635   3.740   0.943  12.006  0.5813 -0.6553 -0.1781
 5001SOL    HW126636   3.749   1.016  11.945  0.5679 -0.6453 -0.1680
 5001SOL    HW226637   3.676   0.886  11.963 -0.6204  0.4028  0.1940
 5002SOL     OW26638   1.984   2.206   2.014  0.3913  0.0937 -0.0213
 5002SOL    HW126639   2.061   2.259   1.991  1.0266 -1.4557 -1.4829
 5002SOL    HW226640   1.970   2.150   1.938  0.0504 -0.7877  0.6917
 5003SOL     OW26641   4.228   0.249   5.712  0.0561 -0.2431 -0.5715
 5003SOL    HW126642   4.311   0.207   5.687  0.9977  1.1957  0.1553
 5003SOL    HW226643   4.175   0.170   5.717 -0.0357 -0.0418  1.4815
 5004SOL     OW26644   1.470   3.125   5.554 -0.4924 -0.2805  0.1570
 5004SOL    HW126645   1.529   3.196   5.531  0.4997 -1.3167 -0.4960
 5004SOL    HW226646   1.419   3.154   5.629 -0.8414  1.3330 -0.6894
 5005SOL     OW26647   3.492   1.040   4.177  0.5009  0.1850 -0.0655
 5005SOL    HW126648   3.414   0.985   4.184 -0.2273  1.0791 -1.0770
 5005SOL    HW226649   3.462   1.125   4.144 -0.6370 -1.0496 -2.2038
 5006SOL     OW26650   3.190   4.674   2.762 -0.5108  0.0580  0.0549
 5006SOL    HW126651   3.222   4.729   2.690 -1.3599  1.5175  0.7810
 5006SOL    HW226652   3.269   4.662   2.815  0.4048  2.4207 -0.7572
 5007SOL     OW26653   2.181   0.610   2.516  0.6222 -0.3951 -0.2413
 5007SOL    HW126654   2.205   0.639   2.428  1.1217  1.1381  0.4086
 5007SOL    HW226655   2.110   0.548   2.498 -1.5369  1.3453  2.3357
 5008SOL     OW26656   1.325   2.945   0.125  0.0026  0.0266  0.1097
 5008SOL    HW126657   1.294   2.898   0.048  3.9726 -3.1832  0.4921
 5008SOL    HW226658   1.318   3.036   0.095  0.2292 -0.4705 -1.4481
 5009SOL     OW26659   1.009   1.066  15.085  0.6381 -0.1420  0.3270
 5009SOL    HW126660   1.010   1.003  15.157  1.1916  0.5850  0.9598
 5009SOL    HW226661   1.094   1.042  15.048  0.3732 -1.0690  0.3341
 5010SOL     OW26662   2.958   4.040   4.975 -0.5678  0.4468  0.1632
 5010SOL    HW126663   3.019   4.065   4.906 -1.6973 -2.4656 -1.8741
 5010SOL    HW226664   2.891   3.992   4.926  0.7754 -3.4293  2.1635
 5011SOL     OW26665   2.628   2.316   4.199 -0.6452 -0.9320 -0.4875
 5011SOL    HW126666   2.692   2.303   4.269 -0.9658  1.2925  0.2230
 5011SOL    HW226667   2.550   2.332   4.253  0.0656  0.2184  0.1977
 5012SOL     OW26668   4.319   3.853   2.813  0.0880  0.0812  0.7454
 5012SOL    HW126669   4.364   3.936   2.796  1.8381 -0.4139  2.9213
 5012SOL    HW226670   4.387   3.809   2.865 -0.0881 -1.2038 -0.1100
 5013SOL     OW26671   2.400   1.891  15.954  0.0126 -0.5285  0.1795
 5013SOL    HW126672   2.429   1.867  15.866  0.9258  0.7242  0.1380
 5013SOL    HW226673   2.313   1.851  15.949  0.0584 -0.5521 -0.3991
 5014SOL     OW26674   4.459   0.895  10.982  0.3500  0.3578 -0.6903
 5014SOL    HW126675   4.428   0.914  11.070  1.5518  0.4958 -0.2976
 5014SOL    HW226676   4.553   0.892  10.998  0.5656 -0.4945 -2.1167
 5015SOL     OW26677   0.281   1.297   7.551  0.7039 -0.4691 -0.8355
 5015SOL    HW126678   0.329   1.254   7.621 -0.3472  1.0044  0.7845
 5015SOL    HW226679   0.219   1.349   7.602 -1.0429 -2.2294 -1.1575
 5016SOL     OW26680   1.566   4.340   9.198 -0.5320 -0.5224  0.2401
 5016SOL    HW126681   1.634   4.276   9.177  1.2559  0.9932  1.4655
 5016SOL    HW226682   1.610   4.393   9.264 -1.1985  1.4042 -0.8550
 5017SOL     OW26683   0.205   3.342   8.236 -0.5959 -0.0756 -0.3774
 5017SOL    HW126684   0.262   3.266   8.248 -1.2849 -0.1988  1.9959
 5017SOL    HW226685   0.215   3.375   8.325 -1.6548  0.7249 -0.5515
 5018SOL     OW26686   0.517   0.866   8.393 -0.0465 -0.5822  0.3836
 5018SOL    HW126687   0.531   0.779   8.355  0.8114  0.1157 -0.9099
 5018SOL    HW226688   0.518   0.921   8.315 -0.3157  0.1491  0.8978
 5019SOL     OW26689   1.619   2.157   6.919 -0.4496 -0.0991 -0.3498
 5019SOL    HW126690   1.694   2.216   6.928  0.4766 -1.8415  3.4913
 5019SOL    HW226691   1.583   2.198   6.841  1.5397  1.1625 -0.6037
 5020SOL     OW26692   2.678   3.917   5.156 -0.2968  0.0705 -0.2369
 5020SOL    HW126693   2.586   3.910   5.130 -1.2096  0.7216  2.7606
 5020SOL    HW226694   2.688   3.846   5.219 -0.6508  0.5726  0.3910
 5021SOL     OW26695   3.635   2.472  13.503  0.8529  0.0339 -0.2693
 5021SOL    HW126696   3.619   2.542  13.440 -0.3115 -1.1120 -1.2653
 5021SOL    HW226697   3.553   2.422  13.499  0.2598  0.9825 -0.0607
 5022SOL     OW26698   2.190   1.010  13.604  0.1287 -0.4331  0.1900
 5022SOL    HW126699   2.200   1.105  13.607  2.2969 -0.6398 -0.0350
 5022SOL    HW226700   2.145   1.003  13.520  1.4735 -0.5215 -0.5306
 5023SOL     OW26701   1.270   0.522   2.790  0.2621 -0.2945 -0.4415
 5023SOL    HW126702   1.326   0.494   2.862  1.0496  0.2482 -0.8425
 5023SOL    HW226703   1.320   0.500   2.711 -1.1624 -1.0347 -1.1429
 5024SOL     OW26704   3.482   1.553   7.147  0.2492  0.2636 -0.4633
 5024SOL    HW126705   3.389   1.554   7.168  0.2982 -0.6348 -0.2446
 5024SOL    HW226706   3.526   1.537   7.230 -0.1017 -1.0545 -0.5403
 5025SOL     OW26707   0.682   0.840  14.574 -0.0669  0.2429  0.7019
 5025SOL    HW126708   0.771   0.867  14.549  0.6015  0.1756  3.0152
 5025SOL    HW226709   0.633   0.920  14.558 -1.9140 -0.5734  2.3472
 5026SOL     OW26710   0.944   1.591   3.171 -0.5980 -0.5053 -0.1468
 5026SOL    HW126711   0.944   1.497   3.153  1.4029 -0.7720  1.2557
 5026SOL    HW226712   0.974   1.602   3.261 -1.6196  1.9012 -0.1121
 5027SOL     OW26713   0.071   3.335   6.167 -0.5254 -0.0869 -0.3589
 5027SOL    HW126714   0.159   3.301   6.186 -1.2139 -1.3315  0.5971
 5027SOL    HW226715   0.042   3.354   6.256  0.2712  0.2684 -0.1727
 5028SOL     OW26716   3.625   3.050  13.189 -0.2139 -0.5891  0.6944
 5028SOL    HW126717   3.544   3.095  13.213 -0.4760 -0.0261 -1.2572
 5028SOL    HW226718   3.635   3.082  13.099 -1.5612  0.9328  1.0901
 5029SOL     OW26719   3.202   2.640  11.067 -0.3233 -0.1330  0.5240
 5029SOL    HW126720   3.113   2.620  11.037 -0.3737 -0.0847  0.6424
 5029SOL    HW226721   3.189   2.641  11.161  0.1979 -0.1355  0.5991
 5030SOL     OW26722   3.307   0.688   2.153 -0.0281 -0.8925  0.5579
 5030SOL    HW126723   3.401   0.667   2.151  0.1896  0.0526  1.1571
 5030SOL    HW226724   3.300   0.737   2.235  1.7532  0.7876 -0.2835
 5031SOL     OW26725   3.317   3.003   2.288 -0.3598 -0.7317 -0.1446
 5031SOL    HW126726   3.248   3.018   2.223  2.5265  0.6427 -2.8780
 5031SOL    HW226727   3.376   3.074   2.263  0.1116  0.0669  3.2415
 5032SOL     OW26728   4.293   4.186   2.048  0.6872 -0.3197 -0.4599
 5032SOL    HW126729   4.216   4.232   2.016  0.1490  0.1833  1.5823
 5032SOL    HW226730   4.269   4.096   2.071  0.0773  0.3377  1.4387
 5033SOL     OW26731   4.713   2.747  12.878 -0.4502 -0.1318 -0.2956
 5033SOL    HW126732   4.687   2.693  12.953  2.0813 -3.0326 -1.5162
 5033SOL    HW226733   0.043   2.800  12.914 -1.2875  0.2160  0.8309
 5034SOL     OW26734   3.079   1.294   6.613 -0.4093 -0.3415 -0.4060
 5034SOL    HW126735   3.040   1.275   6.698 -3.3871  0.8570 -1.4763
 5034SOL    HW226736   3.169   1.317   6.632 -0.4145 -1.9063  1.4759
 5035SOL     OW26737   3.533   0.036   5.906  0.4612 -0.3721  0.5756
 5035SOL    HW126738   3.570   0.034   5.818 -1.3057  0.5517 -0.1956
 5035SOL    HW226739   3.565   0.120   5.937  1.1225  0.1806 -1.6198
 5036SOL     OW26740   1.907   4.405   6.813 -0.5683  0.0262 -0.0221
 5036SOL    HW126741   1.921   4.311   6.814  0.3455  0.1756  2.0048
 5036SOL    HW226742   1.997   4.433   6.827  0.6411 -3.6799 -0.4343
 5037SOL     OW26743   1.737   1.825  14.605  0.2049  0.2887  0.1557
 5037SOL    HW126744   1.696   1.783  14.530 -1.2385 -1.0059  1.6587
 5037SOL    HW226745   1.676   1.800  14.675  2.5862  0.1074  2.1668
 5038SOL     OW26746   1.909   0.133  12.431 -0.1541 -0.4667  0.7882
 5038SOL    HW126747   1.886   0.050  12.473 -3.0659 -1.6125 -3.0863
 5038SOL    HW226748   1.829   0.170  12.393 -0.4930  0.8673  2.7675
 5039SOL     OW26749   4.574   0.609   7.698  0.2147 -0.1154  0.3801
 5039SOL    HW126750   4.516   0.533   7.706 -0.9575  0.7106 -0.1401
 5039SOL    HW226751   4.656   0.574   7.663 -1.7715 -0.9678 -3.4620
 5040SOL     OW26752   1.045   2.475   9.782 -0.0213 -0.3493  0.0134
 5040SOL    HW126753   0.991   2.437   9.712  0.8169  0.2726 -0.9765
 5040SOL    HW226754   1.103   2.401   9.799 -0.4024 -0.2722  1.6435
 5041SOL     OW26755   2.236   2.317   4.612 -0.1758 -0.2543 -0.4644
 5041SOL    HW126756   2.153   2.364   4.616  1.1934  2.1782 -0.5481
 5041SOL    HW226757   2.212   2.224   4.607  1.0979 -0.6053  0.0147
 5042SOL     OW26758   0.104   0.757  15.944 -0.4446  0.1992 -0.2894
 5042SOL    HW126759   0.170   0.794  16.002 -1.8787  0.4105  1.2296
 5042SOL    HW226760   0.080   0.828  15.885  1.8131  1.0118 -0.2115
 5043SOL     OW26761   3.338   0.320   6.963 -0.5581 -0.3354 -0.1933
 5043SOL    HW126762   3.317   0.338   6.872 -1.7393  2.0062  0.5414
 5043SOL    HW226763   3.282   0.243   6.970 -2.2396  0.9100  0.0816
 5044SOL     OW26764   0.533   0.864   8.964  0.3108  0.5069 -0.6082
 5044SOL    HW126765   0.484   0.801   9.017  1.7743 -1.3051 -1.3707
 5044SOL    HW226766   0.467   0.909   8.912  0.7115  1.4756 -0.2800
 5045SOL     OW26767   1.105   0.892   4.362  0.5261 -0.2039 -0.2190
 5045SOL    HW126768   1.168   0.905   4.433 -0.0362 -2.0160  0.6156
 5045SOL    HW226769   1.165   0.851   4.300  0.0026  1.3104 -1.7338
 5046SOL     OW26770   0.088   1.029  10.009 -0.6196 -0.4321  0.0331
 5046SOL    HW126771   0.126   1.116  10.017 -0.8322 -0.4322  1.0563
 5046SOL    HW226772   0.014   1.040  10.070 -2.6475 -2.0999 -2.1117
 5047SOL     OW26773   2.885   2.317  16.202  0.0970  0.0047  0.5247
 5047SOL    HW126774   2.900   2.411  16.204  0.5391 -0.0280 -1.1233
 5047SOL    HW226775   2.978   2.293  16.194 -0.2914 -1.3316  0.0414
 5048SOL     OW26776   2.739   2.492   4.852 -0.1395 -0.0687  0.3282
 5048SOL    HW126777   2.672   2.427   4.834 -1.6974  1.4273  0.7625
 5048SOL    HW226778   2.686   2.571   4.863  0.1557  0.0849  0.6490
 5049SOL     OW26779   4.082   0.365  16.215  0.4855  0.3408  0.0668
 5049SOL    HW126780   4.089   0.271  16.229 -3.9417 -0.2215 -1.5631
 5049SOL    HW226781   4.117   0.400  16.297  0.3677 -0.8862  0.6303
 5050SOL     OW26782   2.091   3.079   4.389 -0.3223  0.0494  0.2061
 5050SOL    HW126783   2.116   2.997   4.345  0.4911  0.1560  0.4592
 5050SOL    HW226784   2.011   3.056   4.436  0.4051 -0.5382  1.1531
 5051SOL     OW26785   0.136   0.018   4.138 -0.0763  0.5825 -0.2834
 5051SOL    HW126786   0.077   0.073   4.189 -1.8485  0.4316 -2.1637
 5051SOL    HW226787   0.153   0.075   4.063  1.0508  1.1879  0.4260
 5052SOL     OW26788   1.625   3.057   7.845  0.2573  0.3030  0.2201
 5052SOL    HW126789   1.552   3.004   7.878  0.0172 -0.4639 -1.5463
 5052SOL    HW226790   1.569   3.109   7.787  1.3783  1.2180 -0.0461
 5053SOL     OW26791   3.560   0.407   2.742 -0.3798  0.1659  0.0722
 5053SOL    HW126792   3.586   0.371   2.827  0.8905  1.1788  0.1303
 5053SOL    HW226793   3.472   0.442   2.751  0.2460  1.1334  2.5145
 5054SOL     OW26794   0.711   0.853  11.025  0.3187  0.2995  0.2935
 5054SOL    HW126795   0.736   0.833  11.115  0.4192 -0.3644  0.1140
 5054SOL    HW226796   0.753   0.939  11.016 -0.8740  0.9283  0.7791
 5055SOL     OW26797   0.309   2.873   7.270  0.7787 -0.3028 -0.0990
 5055SOL    HW126798   0.340   2.956   7.306 -0.3279  0.4572 -0.8977
 5055SOL    HW226799   0.384   2.852   7.213 -2.0154 -2.9826 -2.7605
 5056SOL     OW26800   2.621   4.589   8.781 -0.2861  0.0165  0.0928
 5056SOL    HW126801   2.544   4.630   8.741 -1.2875 -0.3999  1.5842
 5056SOL    HW226802   2.623   4.508   8.729  3.0058  0.1442  0.0402
 5057SOL     OW26803   3.717   2.738   2.982  0.3155  0.4125 -0.2776
 5057SOL    HW126804   3.804   2.770   2.958  0.2989 -0.1072 -1.0284
 5057SOL    HW226805   3.669   2.777   2.908  0.3816  1.8743  0.4461
 5058SOL     OW26806   0.283   4.106   5.937 -0.0975  0.2119  0.4723
 5058SOL    HW126807   0.301   4.091   6.030  0.2869 -0.7619  0.2521
 5058SOL    HW226808   0.190   4.120   5.953 -0.7709 -1.1922 -2.3950
 5059SOL     OW26809   1.307   1.731  13.248 -0.1954  0.4827  0.2889
 5059SOL    HW126810   1.236   1.741  13.185  1.0855  4.0154 -0.6067
 5059SOL    HW226811   1.388   1.743  13.199  0.3269  1.3266  1.3703
 5060SOL     OW26812   2.524   1.089   9.777 -0.9290  0.4703  0.0535
 5060SOL    HW126813   2.619   1.079   9.766 -1.0570  0.3008 -0.8974
 5060SOL    HW226814   2.504   0.996   9.765 -1.9480  0.7928 -0.7485
 5061SOL     OW26815   3.672   0.466   7.381 -0.2906  0.1042  0.3698
 5061SOL    HW126816   3.582   0.433   7.385 -0.2686  0.2000  1.6603
 5061SOL    HW226817   3.691   0.418   7.301  1.0015 -2.1369  2.0493
 5062SOL     OW26818   1.541   4.694  16.604  0.3973 -0.5427 -0.0166
 5062SOL    HW126819   1.458   4.687  16.651  0.5171 -1.5499  0.0627
 5062SOL    HW226820   1.522   4.624  16.542  0.8200 -0.1919 -0.5365
 5063SOL     OW26821   3.108   1.939   7.196 -0.2836  0.0415  0.0579
 5063SOL    HW126822   3.139   2.021   7.157 -0.3234  1.1840  2.4121
 5063SOL    HW226823   3.193   1.904   7.223 -1.1826 -0.5777  2.0416
 5064SOL     OW26824   0.627   1.952   6.624  0.2958  0.5448  0.4261
 5064SOL    HW126825   0.638   2.013   6.551 -0.9250 -0.3119 -0.4774
 5064SOL    HW226826   0.532   1.944   6.634  0.2473  0.4661 -0.1087
 5065SOL     OW26827   1.223   0.410   3.093  0.3516  0.0826 -0.3375
 5065SOL    HW126828   1.169   0.447   3.163  0.9047 -2.1593  1.2716
 5065SOL    HW226829   1.302   0.464   3.088 -0.5494  1.1306 -3.7710
 5066SOL     OW26830   2.174   4.513   0.774 -0.2919 -0.4727 -0.6510
 5066SOL    HW126831   2.168   4.481   0.864  0.6966  0.0676 -0.3950
 5066SOL    HW226832   2.086   4.484   0.751 -0.1986 -1.5038  0.3231
 5067SOL     OW26833   0.653   4.469   4.909  0.0668  0.5002 -1.0468
 5067SOL    HW126834   0.733   4.522   4.917  0.4750 -0.1065 -1.1317
 5067SOL    HW226835   0.659   4.440   4.818  0.1089  0.6319 -1.0867
 5068SOL     OW26836   4.548   0.028   3.937 -1.0397  0.1802  0.3071
 5068SOL    HW126837   4.592   4.706   3.994 -1.4677  1.4686  2.0391
 5068SOL    HW226838   4.591   0.006   3.854 -0.9205 -1.9078  0.9348
 5069SOL     OW26839   0.447   2.800  16.987 -0.3197  0.6110  0.4048
 5069SOL    HW126840   0.404   2.731  16.936 -1.1800  0.6088  1.1207
 5069SOL    HW226841   0.469   2.763  17.072 -2.0337 -1.7412 -0.1446
 5070SOL     OW26842   1.266   2.767   8.097  0.0432 -0.1970 -0.0141
 5070SOL    HW126843   1.223   2.695   8.050 -0.7223  0.7138 -0.7106
 5070SOL    HW226844   1.306   2.725   8.173  1.1389  1.0904  0.1333
 5071SOL     OW26845   3.004   0.186   3.991  0.3478 -0.1341  0.1395
 5071SOL    HW126846   3.032   0.105   4.034  0.8863  0.2980  0.6011
 5071SOL    HW226847   3.067   0.252   4.019 -1.0738  1.0359  0.5848
 5072SOL     OW26848   0.905   0.216   2.610  0.3016 -0.1892  0.7733
 5072SOL    HW126849   0.971   0.182   2.549 -2.4365  0.5323 -2.6272
 5072SOL    HW226850   0.951   0.275   2.669  1.3707 -1.6207  1.3823
 5073SOL     OW26851   4.574   2.774   7.710 -0.6841 -0.3168  0.3924
 5073SOL    HW126852   4.491   2.792   7.665  0.1837  0.5477 -0.8493
 5073SOL    HW226853   4.593   2.861   7.745  1.1746  0.1121 -1.7265
 5074SOL     OW26854   3.176   0.276  13.111  0.0736 -0.6216 -0.1098
 5074SOL    HW126855   3.140   0.271  13.023  0.4432 -1.5744 -0.2057
 5074SOL    HW226856   3.101   0.311  13.158  1.1567 -0.4642  1.5104
 5075SOL     OW26857   4.010   1.310   8.892  0.0404  0.0006 -0.2985
 5075SOL    HW126858   3.996   1.234   8.949 -0.6107  1.0147  0.9050
 5075SOL    HW226859   4.047   1.264   8.817  1.1472  0.0972  0.1907
 5076SOL     OW26860   3.069   2.784  16.751  0.3576 -0.1183 -0.3320
 5076SOL    HW126861   3.114   2.776  16.667  0.7717 -0.2235 -0.1009
 5076SOL    HW226862   3.134   2.748  16.812 -0.7808 -0.5450  0.6191
 5077SOL     OW26863   1.320   3.162  16.923 -0.5897  0.2166 -0.6457
 5077SOL    HW126864   1.236   3.199  16.897 -0.3805  0.0955 -1.4781
 5077SOL    HW226865   1.334   3.089  16.863  1.8169  0.8570 -0.8912
 5078SOL     OW26866   0.509   0.938   2.624  0.0035  0.1154 -0.0867
 5078SOL    HW126867   0.562   0.909   2.550  1.4201 -1.6683  1.6357
 5078SOL    HW226868   0.515   1.034   2.627  0.1833  0.1614 -1.8558
 5079SOL     OW26869   0.301   3.123   1.442  0.1134 -0.4045  0.3081
 5079SOL    HW126870   0.384   3.126   1.489  1.8689 -1.8470 -2.6663
 5079SOL    HW226871   0.324   3.072   1.363  0.3403  2.5522 -1.5289
 5080SOL     OW26872   1.366   4.176   9.355 -0.5478  0.2503  0.4554
 5080SOL    HW126873   1.440   4.228   9.324  1.3712 -3.0107 -0.3604
 5080SOL    HW226874   1.413   4.093   9.351 -1.4561 -0.1876 -1.2623
 5081SOL     OW26875   3.201   0.742   3.982  0.4358 -0.6018 -0.1863
 5081SOL    HW126876   3.210   0.837   3.986  0.3412 -0.5759 -0.6100
 5081SOL    HW226877   3.144   0.731   3.907 -2.2812 -2.6035  2.1454
 5082SOL     OW26878   4.572   1.962   6.548  0.2713  0.2901  0.5328
 5082SOL    HW126879   4.568   1.893   6.482  1.6522  0.4749  0.2577
 5082SOL    HW226880   4.591   2.038   6.494  3.2642 -2.3723 -2.1543
 5083SOL     OW26881   2.871   3.729   5.696  1.1165 -0.4012 -0.1311
 5083SOL    HW126882   2.921   3.726   5.777  0.4089 -0.1525  0.3137
 5083SOL    HW226883   2.842   3.820   5.692  0.8579 -0.5355 -1.6219
 5084SOL     OW26884   4.508   3.283   5.567  0.2302 -0.2493 -0.0755
 5084SOL    HW126885   4.575   3.220   5.593  0.9363  0.7924  0.6044
 5084SOL    HW226886   4.499   3.249   5.478 -0.4674  0.6819 -0.3620
 5085SOL     OW26887   3.233   3.466  14.579  0.1933  0.3438 -0.7637
 5085SOL    HW126888   3.147   3.505  14.565 -0.4978 -1.1032 -0.5295
 5085SOL    HW226889   3.271   3.455  14.492 -1.3529  0.1840 -1.4225
 5086SOL     OW26890   0.142   2.298   4.413 -0.1624  0.1617  0.0850
 5086SOL    HW126891   0.199   2.256   4.349 -0.7162 -0.4494 -0.0135
 5086SOL    HW226892   0.088   2.222   4.436  1.4339 -1.4347 -1.5098
 5087SOL     OW26893   0.396   3.393   7.275  0.1327  0.4330  0.1963
 5087SOL    HW126894   0.425   3.323   7.216  3.3125  1.8639  0.0353
 5087SOL    HW226895   0.386   3.344   7.357 -2.0160 -1.4050 -1.1839
 5088SOL     OW26896   3.868   2.369   5.198  0.1435  0.2902  0.2768
 5088SOL    HW126897   3.856   2.439   5.134  0.7725 -0.6006 -0.8164
 5088SOL    HW226898   3.952   2.393   5.239 -0.3041  1.2598  0.6380
 5089SOL     OW26899   3.353   4.508   6.578 -0.6616 -0.5118  0.5920
 5089SOL    HW126900   3.298   4.439   6.616 -1.9900 -0.3257 -0.9773
 5089SOL    HW226901   3.412   4.520   6.652  1.0202 -0.0947 -0.8057
 5090SOL     OW26902   1.242   3.455   1.900 -0.4159  0.0536  0.6787
 5090SOL    HW126903   1.203   3.380   1.855  1.1413 -1.4137  1.7977
 5090SOL    HW226904   1.191   3.529   1.867 -0.0394 -0.0384 -0.1095
 5091SOL     OW26905   2.431   3.658  11.587  0.1667 -0.3953 -0.5021
 5091SOL    HW126906   2.412   3.567  11.563  1.0451 -1.0237  1.1784
 5091SOL    HW226907   2.526   3.660  11.570  0.6962 -0.7381  2.3868
 5092SOL     OW26908   1.048   0.803  12.145  0.5371 -0.5362  0.1019
 5092SOL    HW126909   1.046   0.888  12.188 -1.0014 -1.0694  1.0819
 5092SOL    HW226910   0.959   0.777  12.120  0.4844  0.9938 -1.2562
 5093SOL     OW26911   1.762   1.107   6.145  0.1960 -1.0082  0.7473
 5093SOL    HW126912   1.706   1.102   6.067  2.8599 -0.4015 -1.1968
 5093SOL    HW226913   1.812   1.188   6.145  0.9792 -1.4866  0.7822
 5094SOL     OW26914   3.077   1.451   8.867  0.4112 -0.0237  0.2549
 5094SOL    HW126915   3.074   1.503   8.947 -3.3421  1.3464 -0.8006
 5094SOL    HW226916   3.165   1.475   8.836  0.9446  1.2946  2.7560
 5095SOL     OW26917   2.175   3.727   6.818 -0.1756 -0.4196  0.1115
 5095SOL    HW126918   2.127   3.775   6.885  0.0709  0.9271 -0.6796
 5095SOL    HW226919   2.265   3.759   6.815 -0.6978  0.6782 -3.0542
 5096SOL     OW26920   0.711   3.991   1.286  0.2846 -0.1234 -0.2869
 5096SOL    HW126921   0.705   3.932   1.210 -0.5063 -1.0101  0.4731
 5096SOL    HW226922   0.720   3.936   1.364 -0.4682  1.5280  0.9623
 5097SOL     OW26923   3.071   0.643   4.965 -0.0589  0.7153  0.1667
 5097SOL    HW126924   3.004   0.659   5.031  1.7758 -1.2873  2.5025
 5097SOL    HW226925   3.031   0.572   4.915  0.9512  0.3030 -0.0717
 5098SOL     OW26926   1.202   0.478   2.377 -0.7242  0.0615 -0.0160
 5098SOL    HW126927   1.148   0.544   2.419  0.4337  1.3167 -0.4716
 5098SOL    HW226928   1.267   0.536   2.337 -1.1424 -2.5274 -4.4610
 5099SOL     OW26929   0.635   4.382   7.298 -0.7889  0.4848 -0.2322
 5099SOL    HW126930   0.654   4.385   7.204 -0.3787 -0.9000 -0.1882
 5099SOL    HW226931   0.661   4.293   7.321 -1.5818  0.3037 -0.0396
 5100SOL     OW26932   2.325   4.419   5.773  0.3855 -0.0952 -0.8279
 5100SOL    HW126933   2.254   4.415   5.836  0.0942  2.5401 -0.9942
 5100SOL    HW226934   2.327   4.512   5.751  0.2692 -0.1376 -1.0164
 5101SOL     OW26935   0.488   3.597   2.365 -0.7354 -0.4772  0.1329
 5101SOL    HW126936   0.436   3.672   2.336 -1.9608  0.0382  3.6582
 5101SOL    HW226937   0.577   3.626   2.344 -0.2155 -1.8168  0.4277
 5102SOL     OW26938   0.937   0.773   3.091 -0.0406 -0.3755 -0.1517
 5102SOL    HW126939   1.028   0.769   3.062  0.2687  2.6815  0.3541
 5102SOL    HW226940   0.907   0.688   3.058 -3.8251  0.5054  0.9615
 5103SOL     OW26941   0.914   3.424   6.096 -0.2264 -0.3442  0.1651
 5103SOL    HW126942   0.978   3.381   6.152 -4.1109 -4.8267  1.1780
 5103SOL    HW226943   0.960   3.417   6.012  1.8565 -1.9771  1.4557
 5104SOL     OW26944   0.484   4.092   4.819 -0.2747  0.0870  0.1702
 5104SOL    HW126945   0.493   4.056   4.731  0.6827 -0.4086  0.4699
 5104SOL    HW226946   0.410   4.151   4.804 -0.9771 -0.4019  1.7312
 5105SOL     OW26947   1.457   4.644   6.620  0.6239 -0.7507 -0.0473
 5105SOL    HW126948   1.548   4.673   6.609  0.3936 -0.7502 -1.9511
 5105SOL    HW226949   1.420   4.641   6.532  0.1270 -1.0989  0.1755
 5106SOL     OW26950   2.767   1.336   4.587 -0.7159  0.3976  0.2296
 5106SOL    HW126951   2.723   1.256   4.561  1.5841 -1.2363  1.3501
 5106SOL    HW226952   2.698   1.391   4.623 -1.4517 -0.9014  0.7662
 5107SOL     OW26953   3.529   4.187   7.210  0.2329 -0.2039  0.3163
 5107SOL    HW126954   3.596   4.174   7.278 -1.1096  0.0040  1.6723
 5107SOL    HW226955   3.577   4.232   7.140 -0.3610  0.4616  0.3377
 5108SOL     OW26956   2.489   1.484   7.541 -0.2577 -0.0805 -0.0528
 5108SOL    HW126957   2.463   1.565   7.497 -2.8471 -0.6758  0.3768
 5108SOL    HW226958   2.582   1.484   7.519 -0.0613 -1.4303  0.8108
 5109SOL     OW26959   0.411   1.488   1.318  0.5568 -0.1385  0.0910
 5109SOL    HW126960   0.334   1.540   1.297  1.5593  1.0933 -0.5107
 5109SOL    HW226961   0.469   1.559   1.344 -0.3643 -0.1355  2.1473
 5110SOL     OW26962   0.996   2.072   0.077 -0.1696  0.0909 -0.2024
 5110SOL    HW126963   0.901   2.062   0.081 -0.1966  0.1778 -0.7673
 5110SOL    HW226964   1.005   2.021  17.757 -0.9039  0.9028 -0.7908
 5111SOL     OW26965   3.743   2.448   3.006  0.5229  0.7347 -0.2414
 5111SOL    HW126966   3.700   2.405   2.933 -0.6094  1.4855 -0.0113
 5111SOL    HW226967   3.703   2.534   2.999  1.9015  1.0854 -3.5946
 5112SOL     OW26968   2.917   1.542   5.117 -0.2038 -0.0691 -0.0509
 5112SOL    HW126969   2.851   1.533   5.048 -0.6962  1.0383  0.2621
 5112SOL    HW226970   2.988   1.568   5.059  0.3164  0.2311  0.7066
 5113SOL     OW26971   4.448   1.090   9.829  0.4459 -0.5199 -0.1980
 5113SOL    HW126972   4.405   1.010   9.801  0.4085 -0.1700 -1.1651
 5113SOL    HW226973   4.379   1.138   9.873  1.2402  2.0386 -1.7047
 5114SOL     OW26974   0.568   4.162   0.613 -0.0989  0.3470  0.0411
 5114SOL    HW126975   0.502   4.219   0.573  0.1610  1.8063  1.7183
 5114SOL    HW226976   0.597   4.111   0.537 -1.1068  1.2078 -0.9195
 5115SOL     OW26977   3.221   0.324   9.814  0.9099  0.0707  0.2087
 5115SOL    HW126978   3.249   0.392   9.754  0.2040  0.6476  0.5278
 5115SOL    HW226979   3.288   0.257   9.802 -0.8213 -1.6824  0.2285
 5116SOL     OW26980   3.917   4.664   0.836 -0.0634 -0.3529 -0.3305
 5116SOL    HW126981   3.993   4.665   0.777  1.3845  1.0923  1.5274
 5116SOL    HW226982   3.887   0.014   0.824 -0.4291 -0.4674 -0.2631
 5117SOL     OW26983   3.112   3.890   7.555  0.3109 -0.0760  0.4535
 5117SOL    HW126984   3.088   3.799   7.575  1.6658 -0.6210 -0.3511
 5117SOL    HW226985   3.144   3.878   7.465  0.6965  2.6904  0.2219
 5118SOL     OW26986   3.258   0.113   2.273  0.5569  0.0196  0.1299
 5118SOL    HW126987   3.265   0.081   2.182 -0.2333  0.0601  0.0570
 5118SOL    HW226988   3.273   0.207   2.261  1.3153 -0.1155 -0.0158
 5119SOL     OW26989   2.418   4.604   1.902  0.6882 -0.3302  0.2608
 5119SOL    HW126990   2.426   4.587   1.808  0.9315  0.3060  0.1707
 5119SOL    HW226991   2.508   4.583   1.928  0.7911  0.5326  0.5886
 5120SOL     OW26992   3.520   1.359   4.408 -0.2561  0.1659 -0.3378
 5120SOL    HW126993   3.608   1.336   4.439 -0.8537  0.8389  1.8106
 5120SOL    HW226994   3.472   1.277   4.416 -0.3536  0.5609  3.1935
 5121SOL     OW26995   2.842   2.793  15.400  0.0345 -0.0569 -0.7544
 5121SOL    HW126996   2.848   2.819  15.492 -1.1249 -1.9405 -0.1399
 5121SOL    HW226997   2.900   2.718  15.386 -3.1187 -2.7887  0.8263
 5122SOL     OW26998   4.132   2.686   4.132  0.2174 -0.9061  0.0997
 5122SOL    HW126999   4.200   2.746   4.103  0.9647 -1.8513 -0.0894
 5122SOL    HW227000   4.177   2.602   4.138  1.1548 -0.6256 -2.9617
 5123SOL     OW27001   2.464   3.322   7.374 -0.1182  0.9464  0.4111
 5123SOL    HW127002   2.515   3.367   7.307 -2.9576  3.8590  0.2580
 5123SOL    HW227003   2.448   3.235   7.336  0.2131  0.3361  1.6552
 5124SOL     OW27004   0.702   2.746   5.852  0.1542  0.3332 -0.6383
 5124SOL    HW127005   0.641   2.819   5.847  2.1291  1.8901 -2.1050
 5124SOL    HW227006   0.729   2.753   5.944 -0.0427 -1.9733 -0.3993
 5125SOL     OW27007   4.507   2.912   4.729  0.5044  0.2377  0.0749
 5125SOL    HW127008   4.487   2.981   4.667 -1.8689 -1.3740 -0.9526
 5125SOL    HW227009   4.557   2.958   4.797 -0.3891 -0.4689  1.2237
 5126SOL     OW27010   1.933   0.218   4.012  0.4608 -0.4226  0.0079
 5126SOL    HW127011   1.869   0.152   4.040 -1.4151  1.5231  0.3217
 5126SOL    HW227012   2.018   0.180   4.034  2.1806  3.5525  0.0564
 5127SOL     OW27013   0.789   2.557  13.113  0.2686 -0.0434 -0.2703
 5127SOL    HW127014   0.876   2.592  13.132  0.9793 -0.6840 -2.3599
 5127SOL    HW227015   0.783   2.489  13.180  0.2967 -1.3439 -1.6095
 5128SOL     OW27016   3.982   0.600   5.369  0.5899 -0.0831 -0.2573
 5128SOL    HW127017   3.960   0.680   5.321  0.7198  0.4150  0.5077
 5128SOL    HW227018   4.074   0.585   5.346  0.9731 -1.0726  1.9064
 5129SOL     OW27019   0.583   2.856   0.335 -0.4481 -0.2067 -0.6869
 5129SOL    HW127020   0.631   2.939   0.330  0.6311 -0.8554 -0.8701
 5129SOL    HW227021   0.522   2.863   0.261 -2.1697  0.3261  0.7777
 5130SOL     OW27022   2.385   3.453   9.355 -0.0046 -0.3806  0.0061
 5130SOL    HW127023   2.389   3.463   9.450  1.1490 -0.1216 -0.0613
 5130SOL    HW227024   2.444   3.526   9.333 -1.8047  0.2719 -2.6539
 5131SOL     OW27025   3.871   0.536   2.983 -0.2907  0.1221 -0.1648
 5131SOL    HW127026   3.889   0.448   2.952  0.0738 -0.0003  0.3818
 5131SOL    HW227027   3.889   0.598   2.912 -0.4679 -0.0187 -0.3310
 5132SOL     OW27028   0.045   4.643   5.053 -0.4348 -0.0554 -0.1056
 5132SOL    HW127029   0.114   4.603   4.999 -0.1536  1.4559 -0.8994
 5132SOL    HW227030   0.018   4.714   4.995  1.2815  1.5130  0.9984
 5133SOL     OW27031   0.356   2.607   0.757  0.1141  0.4399 -0.3198
 5133SOL    HW127032   0.301   2.529   0.751  0.6180 -0.0857  1.9301
 5133SOL    HW227033   0.436   2.566   0.789 -1.0057  0.0026  1.9760
 5134SOL     OW27034   0.562   3.929  12.317  0.6175 -0.9655  0.0984
 5134SOL    HW127035   0.596   3.999  12.262 -0.9118  1.5435  2.3398
 5134SOL    HW227036   0.572   3.845  12.271 -0.8830 -1.2072  0.2176
 5135SOL     OW27037   4.188   1.085  14.530 -0.0873  1.0113  0.1852
 5135SOL    HW127038   4.180   1.084  14.435 -2.6144 -1.2924  0.4220
 5135SOL    HW227039   4.244   1.010  14.551 -0.7915 -0.1014 -1.9435
 5136SOL     OW27040   0.770   2.384   7.924 -0.5036  0.6367 -0.0067
 5136SOL    HW127041   0.736   2.304   7.886  0.2026  0.0782  0.5386
 5136SOL    HW227042   0.802   2.424   7.842 -2.8098 -1.4582 -1.9282
 5137SOL     OW27043   2.854   4.370   8.131 -0.2065 -0.1726  0.0702
 5137SOL    HW127044   2.786   4.412   8.079  0.7661 -1.2014 -2.0199
 5137SOL    HW227045   2.857   4.430   8.206 -0.0681 -0.2540  0.1301
 5138SOL     OW27046   1.923   0.151   3.120  0.2624 -0.6372 -0.3983
 5138SOL    HW127047   1.998   0.144   3.061  0.1919 -1.5260 -0.3810
 5138SOL    HW227048   1.853   0.161   3.055  0.5217 -0.2140 -0.6179
 5139SOL     OW27049   4.503   2.572   0.000  0.2251 -0.2270 -0.6828
 5139SOL    HW127050   4.414   2.540   0.014 -0.2324  1.0009 -0.7929
 5139SOL    HW227051   4.552   2.511   0.056 -0.7528  0.5909  1.0656
 5140SOL     OW27052   2.148   2.684   3.542 -0.2689  0.1995  0.1133
 5140SOL    HW127053   2.157   2.652   3.452 -1.7399 -0.2602  0.1276
 5140SOL    HW227054   2.232   2.665   3.583 -0.7948 -1.5722  0.3897
 5141SOL     OW27055   2.543   4.100  10.867 -0.4327 -0.1061 -0.0657
 5141SOL    HW127056   2.451   4.125  10.855  0.8247  3.9524 -1.3312
 5141SOL    HW227057   2.570   4.186  10.899  0.9945 -1.3429  2.0141
 5142SOL     OW27058   1.310   1.734  14.499  0.3780  0.1918 -0.2606
 5142SOL    HW127059   1.277   1.666  14.440 -1.9376  0.3620  0.8472
 5142SOL    HW227060   1.272   1.716  14.585  2.0894  1.0630  0.6767
 5143SOL     OW27061   0.658   0.184   9.831 -0.2540 -0.4160 -0.2636
 5143SOL    HW127062   0.705   0.265   9.812  0.6993 -0.7453  0.6782
 5143SOL    HW227063   0.677   0.186   9.924 -0.9397  0.0531 -0.1298
 5144SOL     OW27064   1.408   3.016   7.330 -0.5119  0.4373 -0.2784
 5144SOL    HW127065   1.377   2.983   7.414 -0.8317  0.8750 -0.2255
 5144SOL    HW227066   1.348   3.088   7.313 -1.1395 -0.2866 -1.1090
 5145SOL     OW27067   4.076   1.870   5.876 -0.7975 -0.1945  0.3109
 5145SOL    HW127068   4.094   1.931   5.805 -0.1789 -0.9882 -0.2098
 5145SOL    HW227069   4.149   1.889   5.935 -0.1522 -0.4626 -0.4081
 5146SOL     OW27070   1.893   4.426  16.249 -0.2215  0.2777 -0.4125
 5146SOL    HW127071   1.933   4.458  16.168 -0.7829 -0.5997 -1.0378
 5146SOL    HW227072   1.886   4.332  16.233  0.6195 -0.3143  2.8311
 5147SOL     OW27073   2.283   2.553   8.112 -0.4654 -0.3286 -0.3727
 5147SOL    HW127074   2.256   2.555   8.203 -0.7993 -1.5300 -0.4416
 5147SOL    HW227075   2.199   2.586   8.077 -0.3828  0.0463 -0.2176
 5148SOL     OW27076   0.374   2.060   4.703 -0.3816 -0.0175  0.4426
 5148SOL    HW127077   0.367   2.024   4.792 -0.7850  2.6443  1.4998
 5148SOL    HW227078   0.465   2.090   4.706 -0.4669  0.1096  2.2483
 5149SOL     OW27079   4.489   0.588   9.894 -0.4804  0.1122 -0.0060
 5149SOL    HW127080   4.478   0.512   9.837  0.6602  0.5415 -0.8148
 5149SOL    HW227081   4.571   0.632   9.870 -1.2727  1.8253  0.4863
 5150SOL     OW27082   2.218   2.288  13.704 -0.0663 -0.7890 -0.3442
 5150SOL    HW127083   2.245   2.378  13.685  1.7281 -1.0536  0.9980
 5150SOL    HW227084   2.296   2.260  13.751  0.1225 -0.0656 -0.2286
 5151SOL     OW27085   0.579   1.733  15.764 -0.0449 -0.4003  0.3847
 5151SOL    HW127086   0.610   1.750  15.675 -2.4666 -2.3320 -0.8312
 5151SOL    HW227087   0.486   1.755  15.758 -0.5181 -2.2448  1.0441
 5152SOL     OW27088   0.781   3.096   8.047  0.3005 -0.1082  0.0035
 5152SOL    HW127089   0.866   3.056   8.066 -0.8588 -2.0329  1.1761
 5152SOL    HW227090   0.800   3.129   7.959 -3.0545 -0.1112 -0.7193
 5153SOL     OW27091   2.408   1.660   5.492 -0.2629  0.2228 -0.2949
 5153SOL    HW127092   2.479   1.682   5.552 -0.8402  1.1523  0.0566
 5153SOL    HW227093   2.408   1.742   5.443  2.9298  1.1541  1.2981
 5154SOL     OW27094   2.908   3.444  15.032 -0.2360  0.0668  0.8699
 5154SOL    HW127095   2.949   3.358  15.038 -0.3543 -0.0599 -0.1160
 5154SOL    HW227096   2.814   3.427  15.026  0.3223 -2.6856  0.2015
 5155SOL     OW27097   1.538   3.200   5.272  0.4276 -0.1740  0.2490
 5155SOL    HW127098   1.455   3.245   5.258  1.0878  0.3214 -1.9967
 5155SOL    HW227099   1.514   3.140   5.343  0.1271  3.4833  3.2424
 5156SOL     OW27100   2.893   0.578   4.051  0.0427  0.3764 -1.0247
 5156SOL    HW127101   2.854   0.534   4.126  1.0777 -0.3130 -0.8876
 5156SOL    HW227102   2.984   0.559   4.074 -0.0066  1.2039 -0.1487
 5157SOL     OW27103   1.205   2.361   1.646  0.1269  0.0446 -0.2984
 5157SOL    HW127104   1.213   2.411   1.727 -1.5784  1.1671 -0.8393
 5157SOL    HW227105   1.292   2.324   1.629  0.3952  1.1516 -1.3577
 5158SOL     OW27106   4.620   0.517   3.923  0.4791 -0.3520  0.3032
 5158SOL    HW127107   4.557   0.445   3.917 -0.6259  0.6994 -0.7317
 5158SOL    HW227108   4.564   0.587   3.890 -0.5319 -1.4769 -0.4092
 5159SOL     OW27109   1.149   1.409   6.710 -0.4703 -0.2593 -0.1144
 5159SOL    HW127110   1.136   1.497   6.676  1.5709  1.0829  2.5892
 5159SOL    HW227111   1.065   1.372   6.685  0.5961 -1.3835 -2.0169
 5160SOL     OW27112   0.414   3.731   4.722  0.0005  0.0792 -0.0846
 5160SOL    HW127113   0.337   3.714   4.777 -0.3699  0.8430 -0.3593
 5160SOL    HW227114   0.481   3.753   4.786 -1.7067  3.8605  0.4016
 5161SOL     OW27115   2.545   0.944   6.530  0.1387 -0.4543 -0.1552
 5161SOL    HW127116   2.453   0.920   6.534 -0.1061  0.2781 -1.3207
 5161SOL    HW227117   2.563   0.907   6.443 -0.2046 -1.2021  0.0883
 5162SOL     OW27118   4.643   1.823   3.587 -0.0884  0.4184 -0.2201
 5162SOL    HW127119   4.632   1.902   3.639 -0.5276  2.1701 -3.0286
 5162SOL    HW227120   4.680   1.860   3.507 -0.5334  2.2172  0.4087
 5163SOL     OW27121   2.588   4.562   2.533  0.0561 -0.3119 -0.1062
 5163SOL    HW127122   2.547   4.634   2.484 -1.5439 -1.9676 -1.1606
 5163SOL    HW227123   2.511   4.517   2.566 -0.1369  1.3143  1.6658
 5164SOL     OW27124   2.343   4.213   4.456 -0.0973  0.0242  0.0726
 5164SOL    HW127125   2.394   4.144   4.413 -0.9672 -1.3323  1.2395
 5164SOL    HW227126   2.282   4.156   4.503 -0.3046  0.5486  0.4431
 5165SOL     OW27127   4.415   3.557   6.752 -0.0908 -0.0733  0.2075
 5165SOL    HW127128   4.442   3.620   6.685  1.0163  0.4437  1.1222
 5165SOL    HW227129   4.353   3.501   6.707  0.2321  0.3551 -0.7772
 5166SOL     OW27130   3.883   0.770   3.456 -0.2620 -0.4853 -0.5653
 5166SOL    HW127131   3.976   0.780   3.477 -0.4904  0.3433  0.0593
 5166SOL    HW227132   3.837   0.830   3.515 -0.1782 -0.1720 -0.8168
 5167SOL     OW27133   1.769   3.767   1.910 -0.0511  0.3861  0.1385
 5167SOL    HW127134   1.761   3.861   1.923 -2.9315 -0.0941  1.9421
 5167SOL    HW227135   1.683   3.750   1.872 -0.7719  0.8478  1.5324
 5168SOL     OW27136   3.488   3.367  12.071 -0.6162  0.2072 -0.0826
 5168SOL    HW127137   3.540   3.287  12.075  0.5393  0.8601 -2.3256
 5168SOL    HW227138   3.543   3.437  12.105  1.2654 -0.5664 -1.5577
 5169SOL     OW27139   0.720   1.727   8.756 -0.8241  0.2867 -0.2209
 5169SOL    HW127140   0.755   1.677   8.830 -1.0780  0.7824  0.2351
 5169SOL    HW227141   0.655   1.782   8.800  1.0913  2.0303  0.4373
 5170SOL     OW27142   3.670   1.399  12.342  0.3100  0.2513  0.3654
 5170SOL    HW127143   3.597   1.345  12.372  0.6967 -1.5151 -1.8401
 5170SOL    HW227144   3.622   1.475  12.310  1.7266  0.0852 -2.1529
 5171SOL     OW27145   3.681   3.801  11.620 -0.1410 -0.6586 -0.7414
 5171SOL    HW127146   3.743   3.848  11.676 -2.1818  3.0207 -1.6472
 5171SOL    HW227147   3.740   3.734  11.585  0.5643  0.5482 -1.8367
 5172SOL     OW27148   3.951   1.758  16.917 -0.1212  0.1754  0.2477
 5172SOL    HW127149   3.929   1.717  16.833 -1.2346 -0.7049  0.9684
 5172SOL    HW227150   4.037   1.789  16.889 -1.0004  1.5381 -0.9080
 5173SOL     OW27151   3.451   0.509   2.446 -0.9675  0.3116  0.3970
 5173SOL    HW127152   3.495   0.594   2.444  3.6827 -2.1132  0.8649
 5173SOL    HW227153   3.437   0.490   2.539 -1.1496  0.0228  0.3085
 5174SOL     OW27154   0.025   0.394   4.497 -0.3386 -0.0931  0.5030
 5174SOL    HW127155   0.113   0.433   4.497 -0.4241  0.1186 -0.8544
 5174SOL    HW227156   0.052   0.306   4.471  1.9117  0.6676  0.2346
 5175SOL     OW27157   0.161   4.045   1.674 -0.0334 -0.2299 -0.2283
 5175SOL    HW127158   0.120   4.039   1.760  0.5756 -1.4810 -0.0131
 5175SOL    HW227159   0.182   4.138   1.673  2.2848 -0.6922  5.4170
 5176SOL     OW27160   1.199   3.180  13.486 -0.3279 -0.4084  0.0055
 5176SOL    HW127161   1.233   3.269  13.473  2.3330 -1.2628  1.0213
 5176SOL    HW227162   1.278   3.127  13.484  0.0693  0.1017  1.4139
 5177SOL     OW27163   0.710   3.158   1.872 -0.5394  0.1390 -0.3084
 5177SOL    HW127164   0.750   3.108   1.801 -2.4855  0.3838 -1.5584
 5177SOL    HW227165   0.700   3.094   1.942 -0.7875  2.0187  1.3947
 5178SOL     OW27166   2.828   4.151   9.061 -0.1845 -0.3427  0.0172
 5178SOL    HW127167   2.868   4.234   9.035  0.6897 -1.1445 -1.2120
 5178SOL    HW227168   2.904   4.096   9.043  1.9737  1.2645  4.0448
 5179SOL     OW27169   3.199   3.993   5.636 -0.4878 -0.3088  0.0513
 5179SOL    HW127170   3.129   3.952   5.584  0.3186 -0.6519 -0.7746
 5179SOL    HW227171   3.145   4.059   5.680  1.0191  1.2323 -0.4288
 5180SOL     OW27172   0.597   1.171  11.865 -0.6017  0.2363  0.2161
 5180SOL    HW127173   0.680   1.167  11.912 -0.4392  0.1465 -0.0762
 5180SOL    HW227174   0.539   1.209  11.931 -1.9549  1.3103 -1.5923
 5181SOL     OW27175   3.815   0.467  15.791  0.0731  0.4552 -0.4516
 5181SOL    HW127176   3.780   0.396  15.737 -1.4111  0.1437  0.9296
 5181SOL    HW227177   3.894   0.430  15.829 -0.4822 -0.5688 -0.2985
 5182SOL     OW27178   0.254   3.621   3.719  0.3509 -0.4009 -0.5695
 5182SOL    HW127179   0.235   3.680   3.792 -0.7089  1.0126 -1.9734
 5182SOL    HW227180   0.246   3.531   3.750 -2.1543 -0.3509 -1.0713
 5183SOL     OW27181   1.759   2.371   2.067  0.3889 -0.7121  0.5221
 5183SOL    HW127182   1.828   2.304   2.077  0.2218 -1.1175 -1.1174
 5183SOL    HW227183   1.811   2.447   2.040 -0.4133 -0.5802 -0.6005
 5184SOL     OW27184   0.187   4.042   9.636 -0.2291  0.0038 -0.0862
 5184SOL    HW127185   0.214   4.011   9.549 -0.1605 -0.6272  0.1595
 5184SOL    HW227186   0.243   4.115   9.662  0.2763 -0.9591  1.5050
 5185SOL     OW27187   3.611   4.035   2.951  0.4720  0.9256  0.4715
 5185SOL    HW127188   3.690   3.982   2.942  0.6020  0.8761  1.9556
 5185SOL    HW227189   3.610   4.054   3.045 -0.5194  0.5138  0.5487
 5186SOL     OW27190   1.767   3.547   8.902  0.5899 -0.6298 -0.1969
 5186SOL    HW127191   1.737   3.524   8.990 -1.3807 -3.6114 -1.6692
 5186SOL    HW227192   1.691   3.515   8.854  1.4356 -2.4514 -0.3518
 5187SOL     OW27193   3.204   0.891   1.349 -0.8074  0.0719 -0.2448
 5187SOL    HW127194   3.140   0.876   1.279 -2.5991 -1.6619  1.7668
 5187SOL    HW227195   3.157   0.866   1.428 -0.9658 -0.2409 -0.4404
 5188SOL     OW27196   1.725   2.583   2.353  0.0861 -0.1618  0.2020
 5188SOL    HW127197   1.639   2.551   2.381  0.5339 -1.0426  0.5738
 5188SOL    HW227198   1.778   2.505   2.368 -0.1691 -0.4183 -0.2565
 5189SOL     OW27199   4.034   1.015  14.789 -0.7700  0.2351  0.2323
 5189SOL    HW127200   3.939   1.019  14.785 -0.8025 -1.8795 -1.2581
 5189SOL    HW227201   4.066   0.995  14.701 -0.0469 -1.9389  0.9743
 5190SOL     OW27202   0.044   1.065   6.184  0.3398  0.3139 -0.0839
 5190SOL    HW127203   0.061   1.036   6.273  1.5042 -2.1124 -1.1176
 5190SOL    HW227204   4.708   1.012   6.166 -0.9362  1.6225  1.5635
 5191SOL     OW27205   1.464   4.060   8.716 -0.1343  0.0071  0.6055
 5191SOL    HW127206   1.463   4.048   8.811  3.4413  0.1900  0.6470
 5191SOL    HW227207   1.497   3.975   8.687  0.7815  0.4389  0.4039
 5192SOL     OW27208   3.012   3.082   1.868 -0.6276  0.0362  0.0424
 5192SOL    HW127209   2.948   3.017   1.894  1.2620 -2.3047 -1.1119
 5192SOL    HW227210   3.076   3.024   1.827 -0.7700  0.2349 -0.4651
 5193SOL     OW27211   4.677   0.902   3.972 -0.3019 -0.5079 -0.1832
 5193SOL    HW127212   4.737   0.908   3.898  0.9645  0.2708  0.8911
 5193SOL    HW227213   4.619   0.832   3.940 -2.5358  1.1668  0.1848
 5194SOL     OW27214   0.495   2.798   9.280 -0.4931 -0.0121 -0.8653
 5194SOL    HW127215   0.522   2.708   9.260 -0.3424 -0.3931  1.0583
 5194SOL    HW227216   0.402   2.785   9.297 -0.0805  0.9802  2.1833
 5195SOL     OW27217   0.161   3.389  14.511 -0.2404 -0.2885 -0.2796
 5195SOL    HW127218   0.199   3.328  14.447 -2.2517 -2.7188  0.8093
 5195SOL    HW227219   0.109   3.451  14.461  0.2672  0.3576  0.0032
 5196SOL     OW27220   2.176   3.719   8.109 -0.5906  0.2529 -0.2419
 5196SOL    HW127221   2.233   3.735   8.034 -1.2019 -2.8218 -1.3696
 5196SOL    HW227222   2.179   3.809   8.140 -0.6033  0.4664 -0.8620
 5197SOL     OW27223   0.409   3.587   4.279 -0.0203  0.0149  0.2750
 5197SOL    HW127224   0.430   3.528   4.352  1.3899  2.1679  1.5851
 5197SOL    HW227225   0.438   3.538   4.202 -1.6004  1.2126 -1.0834
 5198SOL     OW27226   3.241   2.895   6.215  0.6379 -0.3433  0.3740
 5198SOL    HW127227   3.161   2.868   6.170  1.4729 -0.3491 -1.1061
 5198SOL    HW227228   3.262   2.971   6.160 -2.8247  1.9962  2.2893
 5199SOL     OW27229   3.448   0.148   4.628 -0.5980  0.0057  0.2290
 5199SOL    HW127230   3.458   0.239   4.658 -1.1094  0.8399 -2.1624
 5199SOL    HW227231   3.440   0.155   4.533  1.2262  1.0992  0.1638
 5200SOL     OW27232   3.267   0.940   4.309 -0.4884  0.3571 -0.1428
 5200SOL    HW127233   3.269   0.858   4.359 -0.2809  1.2738  1.3593
 5200SOL    HW227234   3.175   0.965   4.319 -0.8310 -0.7111 -0.6228
 5201SOL     OW27235   2.738   0.521  10.032 -0.2445 -0.3222  0.4859
 5201SOL    HW127236   2.772   0.559  10.113 -0.1791 -0.1890  0.3948
 5201SOL    HW227237   2.808   0.457  10.018  1.7613  1.7112  1.2753
 5202SOL     OW27238   3.620   1.751   5.162 -0.4378 -0.3551  0.0722
 5202SOL    HW127239   3.562   1.781   5.233  0.9027  1.6937  0.2968
 5202SOL    HW227240   3.702   1.779   5.203  0.2779 -2.4789  0.0724
 5203SOL     OW27241   3.781   2.514   9.135  0.2573 -0.4298 -0.4306
 5203SOL    HW127242   3.688   2.528   9.155  0.4530  1.0721 -0.5595
 5203SOL    HW227243   3.776   2.420   9.151  3.5634 -0.7465 -1.3784
 5204SOL     OW27244   3.820   3.631   3.112 -0.5326 -0.0947 -0.5284
 5204SOL    HW127245   3.862   3.700   3.163  2.2125 -2.0898 -0.0874
 5204SOL    HW227246   3.803   3.556   3.168 -0.7890 -1.7968 -2.9100
 5205SOL     OW27247   0.252   1.487  12.164 -0.0680 -0.4570 -0.4052
 5205SOL    HW127248   0.223   1.466  12.075  1.0220 -1.7112 -0.4587
 5205SOL    HW227249   0.189   1.439  12.218 -0.2456 -3.4223 -3.2343
 5206SOL     OW27250   3.783   4.041   9.694  0.4506  0.4079 -0.1502
 5206SOL    HW127251   3.773   3.946   9.704 -1.9040  0.6112 -0.6283
 5206SOL    HW227252   3.876   4.060   9.679  0.5244  0.3012  0.1709
 5207SOL     OW27253   2.121   2.406   5.364  0.4101  0.4455 -0.0518
 5207SOL    HW127254   2.176   2.385   5.289 -1.3930 -1.1026 -0.9315
 5207SOL    HW227255   2.122   2.318   5.402  0.4675  0.5743  0.2496
 5208SOL     OW27256   1.126   3.289   5.532 -0.7006  0.4872 -0.7123
 5208SOL    HW127257   1.093   3.199   5.525 -0.3176  0.3479 -0.7474
 5208SOL    HW227258   1.211   3.286   5.488 -0.0613  1.8932  0.4386
 5209SOL     OW27259   0.652   2.925  15.571  0.1315 -0.7194 -0.4631
 5209SOL    HW127260   0.610   2.874  15.640  1.2256 -0.3364  0.5042
 5209SOL    HW227261   0.582   2.987  15.550 -0.1777 -1.2692 -1.0477
 5210SOL     OW27262   0.645   1.465   3.691  0.4280 -0.2023  0.0511
 5210SOL    HW127263   0.700   1.390   3.714 -1.9921 -1.5534  1.4954
 5210SOL    HW227264   0.601   1.431   3.613  1.0891 -2.2963  0.5802
 5211SOL     OW27265   4.715   4.443   2.907 -0.3457  0.5302  0.6634
 5211SOL    HW127266   4.706   4.354   2.875  0.0754  1.2744 -1.5309
 5211SOL    HW227267   4.630   4.457   2.950 -0.3107 -0.7816  1.1453
 5212SOL     OW27268   0.050   0.888   8.592 -0.4869 -0.1364 -0.0844
 5212SOL    HW127269   0.028   0.978   8.569  0.3545 -0.0832 -0.6567
 5212SOL    HW227270   0.094   0.858   8.512 -1.1047  0.8571 -0.8038
 5213SOL     OW27271   2.002   2.356   2.683 -0.0375  1.0005 -0.5539
 5213SOL    HW127272   2.094   2.384   2.673 -0.0030  0.9373 -0.4116
 5213SOL    HW227273   1.965   2.440   2.710 -1.0151  0.6563 -0.8291
 5214SOL     OW27274   3.252   2.791   3.940  0.2493 -0.5033 -0.0101
 5214SOL    HW127275   3.166   2.833   3.946 -0.3561 -1.3638 -2.3793
 5214SOL    HW227276   3.232   2.718   3.880  2.1151 -0.4019 -0.7493
 5215SOL     OW27277   1.778   3.300   3.705 -0.1095 -0.1824  0.1860
 5215SOL    HW127278   1.796   3.295   3.798 -2.9978  2.3050  0.8788
 5215SOL    HW227279   1.763   3.209   3.680 -0.1521 -0.0303 -0.3615
 5216SOL     OW27280   2.857   3.395  12.742 -0.2853  0.4765  0.1242
 5216SOL    HW127281   2.945   3.367  12.715 -0.3433  1.8899 -1.4986
 5216SOL    HW227282   2.822   3.311  12.772  1.8592 -0.8431 -1.0444
 5217SOL     OW27283   0.136   0.018   2.093 -0.3249  0.4821 -0.0203
 5217SOL    HW127284   0.105   4.734   2.180  1.2313  0.0845  0.4299
 5217SOL    HW227285   0.180   0.102   2.106 -1.3809  1.2334 -1.4465
 5218SOL     OW27286   0.643   0.615   2.175 -0.0393 -0.1323  0.5032
 5218SOL    HW127287   0.610   0.557   2.243  1.5487  0.8449  2.0933
 5218SOL    HW227288   0.703   0.665   2.231  0.6335 -1.5548  1.0454
 5219SOL     OW27289   2.942   0.656   4.545  0.2815  0.0406  0.2532
 5219SOL    HW127290   2.921   0.705   4.465  3.2841 -0.5493 -0.8881
 5219SOL    HW227291   2.886   0.580   4.529 -0.8188  0.5705  1.6334
 5220SOL     OW27292   3.452   2.711   3.456  0.4074 -0.7542  0.4017
 5220SOL    HW127293   3.410   2.797   3.460 -1.1718 -1.4815 -0.5114
 5220SOL    HW227294   3.537   2.754   3.446 -0.8180  1.9435  1.6129
 5221SOL     OW27295   2.234   0.537  13.605 -0.1196 -0.3105 -0.0513
 5221SOL    HW127296   2.206   0.537  13.514  0.5513 -0.9340 -0.2598
 5221SOL    HW227297   2.295   0.610  13.590  0.3121 -1.1139 -2.2711
 5222SOL     OW27298   2.995   0.471   1.237  0.2025 -0.0548 -0.0533
 5222SOL    HW127299   2.921   0.412   1.251  1.1849 -1.7671 -1.9600
 5222SOL    HW227300   3.046   0.442   1.313  0.6323  1.1912  0.1262
 5223SOL     OW27301   0.909   0.073   9.101 -0.7028  0.2344 -0.4143
 5223SOL    HW127302   0.836   0.037   9.151  0.4171 -3.7320 -1.6754
 5223SOL    HW227303   0.922   0.009   9.032 -3.0535 -2.3138  1.4959
 5224SOL     OW27304   1.143   3.890  17.166  0.5886  0.5033  0.1188
 5224SOL    HW127305   1.086   3.955  17.207 -1.5170  0.0753 -2.1611
 5224SOL    HW227306   1.123   3.802  17.199 -0.6208 -0.4955 -3.2781
 5225SOL     OW27307   1.044   2.120   7.147  0.0895 -0.2700  0.0080
 5225SOL    HW127308   0.977   2.166   7.095 -2.6019 -1.2150  2.6642
 5225SOL    HW227309   1.093   2.187   7.195 -1.1060  1.5879 -1.3297
 5226SOL     OW27310   0.617   4.248   1.999  0.1197 -0.3356 -0.5841
 5226SOL    HW127311   0.692   4.272   1.945  1.0462 -1.4308  0.2262
 5226SOL    HW227312   0.635   4.301   2.077  2.3239 -1.7078 -0.1617
 5227SOL     OW27313   4.159   0.295   7.591 -0.2091 -0.2393 -0.1502
 5227SOL    HW127314   4.181   0.388   7.593 -1.8338  0.0926  1.8038
 5227SOL    HW227315   4.169   0.282   7.685 -3.3809 -0.9022  0.0816
 5228SOL     OW27316   3.338   1.038   7.936  0.3756  0.0948  0.0853
 5228SOL    HW127317   3.428   1.059   7.963  0.9823 -0.4012 -1.5600
 5228SOL    HW227318   3.280   1.114   7.930 -1.3411 -1.2215  0.0884
 5229SOL     OW27319   0.317   1.824  13.379 -0.1980  0.4254 -0.2567
 5229SOL    HW127320   0.230   1.847  13.414  0.7572  1.5686  1.3752
 5229SOL    HW227321   0.342   1.765  13.450 -0.5234  1.1728  0.4843
 5230SOL     OW27322   0.858   2.800   7.851  0.0260 -0.1332 -0.2548
 5230SOL    HW127323   0.916   2.797   7.774 -0.6019  0.6902 -0.7577
 5230SOL    HW227324   0.772   2.816   7.813  0.1255  2.5533  0.7110
 5231SOL     OW27325   1.387   2.281   5.297  0.3685 -0.6221 -0.5243
 5231SOL    HW127326   1.427   2.200   5.330 -0.0806 -1.1047 -1.1807
 5231SOL    HW227327   1.415   2.271   5.206 -2.4319 -1.9924 -1.2320
 5232SOL     OW27328   2.879   0.849   8.368 -0.7116 -0.0081 -0.1914
 5232SOL    HW127329   2.948   0.916   8.375  0.6610 -1.3612 -0.9292
 5232SOL    HW227330   2.928   0.772   8.395  0.7886  1.7280  2.0609
 5233SOL     OW27331   3.622   3.785  13.868 -0.3660  0.0239  0.2105
 5233SOL    HW127332   3.703   3.826  13.837  0.5651 -1.8686  0.1278
 5233SOL    HW227333   3.556   3.837  13.822  0.1608  3.3466  3.2512
 5234SOL     OW27334   0.084   1.529   5.722 -0.3435  0.4384  0.1168
 5234SOL    HW127335   0.040   1.568   5.798 -1.0736 -1.7000  0.7811
 5234SOL    HW227336   0.008   1.489   5.680 -0.9639 -0.9007  2.4779
 5235SOL     OW27337   4.582   0.731   5.655  0.3665  0.1238  0.6623
 5235SOL    HW127338   4.627   0.783   5.588  1.2477  1.5039  2.3069
 5235SOL    HW227339   4.493   0.734   5.620  0.2972 -0.7787  0.7685
 5236SOL     OW27340   0.376   4.551   0.669  0.4988  0.1956 -0.0923
 5236SOL    HW127341   0.422   4.574   0.750  0.0175  0.1680  0.1867
 5236SOL    HW227342   0.350   4.639   0.642  0.2376 -0.4247 -1.9081
 5237SOL     OW27343   1.002   0.335   5.754 -0.3096  0.3463 -0.2230
 5237SOL    HW127344   0.933   0.273   5.732  0.0975  0.3318 -1.4569
 5237SOL    HW227345   1.082   0.289   5.730  0.5257  0.5225  2.2166
 5238SOL     OW27346   0.597   2.344   2.630  0.2733 -0.6448 -0.0080
 5238SOL    HW127347   0.681   2.322   2.590  1.4865  2.3194  0.9050
 5238SOL    HW227348   0.534   2.302   2.571  2.4084 -3.4067 -0.3255
 5239SOL     OW27349   2.731   4.191   8.358 -0.2636  0.1313 -0.1945
 5239SOL    HW127350   2.706   4.174   8.268  0.5538  1.2352 -0.6242
 5239SOL    HW227351   2.740   4.098   8.378 -0.4739  0.0653 -0.4230
 5240SOL     OW27352   2.666   2.072   5.139  0.1952  0.1373 -0.4094
 5240SOL    HW127353   2.668   1.978   5.151 -2.2744  0.0792 -0.3322
 5240SOL    HW227354   2.693   2.098   5.227  0.4832 -0.7594 -0.2426
 5241SOL     OW27355   1.880   3.238  12.932  0.5491  0.3473  0.2255
 5241SOL    HW127356   1.887   3.244  13.027  1.7615 -1.0027  0.2130
 5241SOL    HW227357   1.794   3.279  12.922  0.6343  0.7222  1.1360
 5242SOL     OW27358   1.878   1.116   4.402  0.1020  0.1975 -0.2949
 5242SOL    HW127359   1.921   1.064   4.470 -1.9605 -0.4951  0.4794
 5242SOL    HW227360   1.957   1.166   4.381  1.9784 -2.2747  0.7482
 5243SOL     OW27361   0.889   4.544  10.178 -0.5339  0.6289  0.1573
 5243SOL    HW127362   0.894   4.508  10.090  0.4937  1.2502 -0.0413
 5243SOL    HW227363   0.964   4.506  10.223 -0.3683  0.0596 -0.6035
 5244SOL     OW27364   0.381   0.909   1.888  0.5704 -0.5345  0.3718
 5244SOL    HW127365   0.407   0.821   1.916 -0.1749 -0.8334  0.1370
 5244SOL    HW227366   0.307   0.908   1.948 -0.2325  1.1507 -0.6012
 5245SOL     OW27367   1.004   4.724   9.995  0.4186 -0.1274  0.0695
 5245SOL    HW127368   1.000   4.640   9.949 -0.1080 -1.0931  1.8349
 5245SOL    HW227369   1.001   4.699  10.088  0.8921  0.2588  0.1877
 5246SOL     OW27370   0.511   3.798   5.696  0.3262  0.6589  0.0897
 5246SOL    HW127371   0.557   3.793   5.780 -0.3966  1.6141  0.5471
 5246SOL    HW227372   0.484   3.889   5.691  0.1689  0.6185  0.2211
 5247SOL     OW27373   1.868   2.192   0.424  0.1723 -0.2006 -0.1671
 5247SOL    HW127374   1.845   2.100   0.412  2.1267 -0.4461 -2.0624
 5247SOL    HW227375   1.788   2.221   0.467  0.1793 -1.5758  0.7679
 5248SOL     OW27376   1.145   3.701   4.820  0.0038 -0.3633 -0.0977
 5248SOL    HW127377   1.165   3.793   4.837  1.8232 -0.6932 -0.3832
 5248SOL    HW227378   1.054   3.697   4.850 -0.3152 -1.6390 -1.2227
 5249SOL     OW27379   1.250   2.167  15.093 -0.0515  0.4891 -0.4749
 5249SOL    HW127380   1.213   2.224  15.025 -2.0219 -1.8699 -1.4212
 5249SOL    HW227381   1.275   2.227  15.162 -1.7715  0.7500 -0.0840
 5250SOL     OW27382   3.641   4.559   9.184  0.2145  0.2423  0.0721
 5250SOL    HW127383   3.734   4.548   9.202  0.0377 -0.3618  0.6087
 5250SOL    HW227384   3.640   4.569   9.089 -0.0017  0.6397  0.1143
 5251SOL     OW27385   3.810   2.084   3.796  0.1978  0.3496 -0.2693
 5251SOL    HW127386   3.800   2.100   3.702 -1.7050  2.3516  0.2788
 5251SOL    HW227387   3.729   2.041   3.823  1.1777 -1.9638 -0.9886
 5252SOL     OW27388   0.218   2.331   8.722 -0.1719 -0.1334  0.0968
 5252SOL    HW127389   0.192   2.398   8.785  0.2856  0.0841  0.0563
 5252SOL    HW227390   0.203   2.242   8.755 -0.0806  0.1522  0.9273
 5253SOL     OW27391   0.441   0.125   9.613  0.1871 -0.1846  0.0888
 5253SOL    HW127392   0.375   0.056   9.627 -1.8865  1.3980 -1.6967
 5253SOL    HW227393   0.502   0.128   9.686 -0.8124 -0.0231  0.9253
 5254SOL     OW27394   0.833   3.986  15.326  0.2076 -0.0202  0.1854
 5254SOL    HW127395   0.819   4.076  15.357 -1.9135 -0.3283  0.1111
 5254SOL    HW227396   0.850   4.004  15.233  0.5206  0.2515  0.2919
 5255SOL     OW27397   2.535   1.800   9.483 -0.3229 -0.1234 -0.2977
 5255SOL    HW127398   2.558   1.738   9.414 -0.1539 -3.3363  2.5974
 5255SOL    HW227399   2.490   1.736   9.538 -0.2139 -1.0469 -1.2779
 5256SOL     OW27400   3.338   1.437   3.230 -0.0420  0.0504 -0.6286
 5256SOL    HW127401   3.290   1.420   3.149 -1.0678 -0.2134  0.0319
 5256SOL    HW227402   3.417   1.462   3.183  1.3740 -2.1023  0.6521
 5257SOL     OW27403   0.941   3.789   5.420  0.4465  0.2118  0.6604
 5257SOL    HW127404   1.025   3.765   5.382  1.5251  0.5691  2.8177
 5257SOL    HW227405   0.936   3.745   5.505  0.2463  1.4732  1.3187
 5258SOL     OW27406   4.134   2.125   9.529 -0.0369 -0.3170 -0.2680
 5258SOL    HW127407   4.106   2.206   9.571 -0.6133 -0.3677 -0.5480
 5258SOL    HW227408   4.182   2.082   9.600 -1.8001 -1.0166  0.4934
 5259SOL     OW27409   0.920   0.119   1.869 -0.2684 -0.3708  0.1831
 5259SOL    HW127410   0.929   0.196   1.813  2.4147 -0.7151  0.1348
 5259SOL    HW227411   0.871   0.154   1.943  0.7081 -0.6510  0.9613
 5260SOL     OW27412   3.370   3.030   8.987 -0.2529 -0.2960  0.3296
 5260SOL    HW127413   3.364   2.941   9.024 -0.2525  0.4311  2.0772
 5260SOL    HW227414   3.286   3.049   8.945 -0.0726  0.3461  0.2653
 5261SOL     OW27415   4.273   0.608   9.062 -0.1287  0.2654 -0.5231
 5261SOL    HW127416   4.356   0.596   9.108  0.2386 -0.4327 -1.3612
 5261SOL    HW227417   4.236   0.678   9.117  0.9322  0.5292 -0.1486
 5262SOL     OW27418   3.234   0.925  13.537 -0.1564  0.2218 -0.2833
 5262SOL    HW127419   3.154   0.962  13.573 -0.7278 -0.2176 -1.1075
 5262SOL    HW227420   3.241   0.944  13.443  1.8301  0.0990 -0.1713
 5263SOL     OW27421   2.927   3.510   1.903  0.3971 -0.1951 -0.5752
 5263SOL    HW127422   2.992   3.446   1.874 -0.2267 -1.4999  0.8846
 5263SOL    HW227423   2.984   3.553   1.967  0.0387 -1.0768  0.3398
 5264SOL     OW27424   0.476   3.535   5.682 -0.2738 -0.1898 -0.3379
 5264SOL    HW127425   0.485   3.629   5.698  0.1733 -0.7778  2.7447
 5264SOL    HW227426   0.390   3.509   5.714 -0.3886 -0.0086 -0.5032
 5265SOL     OW27427   1.439   0.001  13.067  0.1317  0.3116 -0.2516
 5265SOL    HW127428   1.529   4.717  13.047 -0.0828  1.0835 -2.0979
 5265SOL    HW227429   1.454   4.738  13.162 -1.6197 -0.0534  0.0141
 5266SOL     OW27430   2.733   2.129   4.634 -0.6958  0.0391  0.0849
 5266SOL    HW127431   2.816   2.099   4.598 -1.5920 -1.5202 -0.6801
 5266SOL    HW227432   2.731   2.085   4.719 -1.3572 -1.8519 -0.9041
 5267SOL     OW27433   1.090   4.357  10.155 -0.4096  0.2472  0.0033
 5267SOL    HW127434   1.019   4.294  10.163  0.0151 -0.2873 -0.4169
 5267SOL    HW227435   1.098   4.354  10.060 -1.8516 -1.8858 -0.0371
 5268SOL     OW27436   0.961   2.761  17.712  0.1983  0.3388 -0.2263
 5268SOL    HW127437   0.874   2.767  17.753 -0.2300  0.1464 -1.1062
 5268SOL    HW227438   1.018   2.768   0.029 -0.6196 -2.5305  0.6268
 5269SOL     OW27439   2.575   3.595   8.984 -0.4995 -0.2787 -0.8526
 5269SOL    HW127440   2.640   3.626   8.922 -0.4499 -0.4709 -0.8981
 5269SOL    HW227441   2.492   3.606   8.937 -0.0673  1.9410 -1.0916
 5270SOL     OW27442   3.874   1.571   4.286 -0.2689 -0.1863 -0.5213
 5270SOL    HW127443   3.891   1.486   4.326 -1.6285  0.0426  0.5297
 5270SOL    HW227444   3.890   1.553   4.193  1.6408 -1.7968  0.1333
 5271SOL     OW27445   1.340   2.704  14.289 -0.1325  0.8295  0.0027
 5271SOL    HW127446   1.247   2.681  14.294 -0.1056  0.7675  0.2280
 5271SOL    HW227447   1.374   2.648  14.219 -0.7684  1.2263 -0.6307
 5272SOL     OW27448   1.049   4.442   0.237 -0.6236  0.0746 -0.1494
 5272SOL    HW127449   0.967   4.432   0.189  1.3716 -1.3572 -3.2639
 5272SOL    HW227450   1.070   4.351   0.258 -0.3942 -0.4031 -2.5006
 5273SOL     OW27451   0.137   1.122   1.757  0.1896 -0.0757 -0.5615
 5273SOL    HW127452   0.206   1.143   1.819 -0.8552 -0.6065  0.7629
 5273SOL    HW227453   0.160   1.035   1.725 -1.1282 -1.8486  3.3572
 5274SOL     OW27454   2.979   3.938   9.308 -0.3569  0.6050  0.6819
 5274SOL    HW127455   3.032   3.875   9.260  0.7650  0.7862  1.6826
 5274SOL    HW227456   2.988   3.905   9.398  0.6795 -1.8144 -0.3060
 5275SOL     OW27457   2.858   2.591  16.111 -0.1881 -0.0874 -0.0503
 5275SOL    HW127458   2.763   2.581  16.108  0.0296 -1.4879 -2.0570
 5275SOL    HW227459   2.866   2.672  16.060 -1.6810 -0.5404 -1.0175
 5276SOL     OW27460   0.376   3.961   9.069 -0.1178 -0.1984  0.0383
 5276SOL    HW127461   0.427   4.041   9.082 -0.0741 -0.4870  1.7296
 5276SOL    HW227462   0.436   3.905   9.119  0.1461  0.0793  0.0282
 5277SOL     OW27463   4.613   2.811   6.192  0.0219  0.7363  0.2850
 5277SOL    HW127464   4.542   2.822   6.128 -0.4172 -3.6868  0.0033
 5277SOL    HW227465   4.681   2.870   6.160  1.3092 -0.4745  0.8079
 5278SOL     OW27466   4.273   1.455  15.701  0.4107  0.1694 -0.2654
 5278SOL    HW127467   4.298   1.519  15.767  2.5896 -0.6953 -0.2646
 5278SOL    HW227468   4.355   1.419  15.668  0.1153 -1.8823  1.2277
 5279SOL     OW27469   4.038   0.847   3.797  0.4082  0.4254 -0.4205
 5279SOL    HW127470   3.946   0.862   3.774  0.5249 -0.3221 -1.3825
 5279SOL    HW227471   4.053   0.901   3.875  1.1869  1.8617 -1.5478
 5280SOL     OW27472   3.736   0.521   2.577  0.5422  0.0675  0.0558
 5280SOL    HW127473   3.749   0.465   2.501  3.4141 -0.8704  1.2545
 5280SOL    HW227474   3.677   0.466   2.629 -0.9420  1.0375 -0.5981
 5281SOL     OW27475   2.333   2.182  15.241  0.1679 -0.3599 -0.1470
 5281SOL    HW127476   2.277   2.114  15.278  1.0965  0.3554  2.6211
 5281SOL    HW227477   2.321   2.178  15.146  2.1978 -0.6676 -0.4017
 5282SOL     OW27478   2.125   1.864   5.518 -0.1962  0.2713 -0.3665
 5282SOL    HW127479   2.097   1.784   5.473  1.4539 -0.0540 -0.8316
 5282SOL    HW227480   2.104   1.853   5.610  0.1352 -0.2222 -0.3481
 5283SOL     OW27481   1.514   4.453  16.456  0.0706 -0.2797 -0.1735
 5283SOL    HW127482   1.559   4.373  16.485  0.2238  0.9619  3.0098
 5283SOL    HW227483   1.425   4.425  16.437  0.3062 -0.6080 -0.8153
 5284SOL     OW27484   4.597   4.464  13.195  0.2957  0.6188 -0.5036
 5284SOL    HW127485   4.547   4.451  13.275 -1.5077  0.3587 -1.6673
 5284SOL    HW227486   4.533   4.467  13.124 -0.9446  3.5111  0.7142
 5285SOL     OW27487   3.083   3.710  10.155  0.8837 -0.3525  1.0434
 5285SOL    HW127488   3.128   3.787  10.188  0.5233  1.0706 -1.7707
 5285SOL    HW227489   3.153   3.644  10.155  2.4762  1.3411  0.1801
 5286SOL     OW27490   1.488   1.940   7.766 -0.0952 -0.3570  0.4128
 5286SOL    HW127491   1.580   1.960   7.754  0.3340 -1.2512  2.2853
 5286SOL    HW227492   1.475   1.858   7.718  3.1345  0.1939 -1.3517
 5287SOL     OW27493   2.863   2.411   5.929 -0.4906 -0.0480 -0.2605
 5287SOL    HW127494   2.886   2.462   6.007  3.2672 -2.0884 -0.0518
 5287SOL    HW227495   2.878   2.472   5.856 -0.9765  0.9284  0.4599
 5288SOL     OW27496   1.559   0.590   7.437  0.3752  0.1844  0.8199
 5288SOL    HW127497   1.582   0.682   7.453  1.9359  0.0636 -0.8067
 5288SOL    HW227498   1.647   0.553   7.430 -0.4168 -1.4804 -0.1985
 5289SOL     OW27499   2.827   2.072   6.246  0.4966  0.1749 -0.6546
 5289SOL    HW127500   2.839   2.107   6.157  0.2627 -0.4790 -0.9399
 5289SOL    HW227501   2.789   1.986   6.230  0.2746  0.0002  0.8155
 5290SOL     OW27502   0.710   2.752   6.131 -0.4517  0.6882 -0.0523
 5290SOL    HW127503   0.647   2.724   6.198  0.8785  0.3667  1.0641
 5290SOL    HW227504   0.791   2.760   6.182  0.0022 -1.8076 -0.3537
 5291SOL     OW27505   0.754   3.343   6.806 -0.5809  0.3004  0.4583
 5291SOL    HW127506   0.702   3.396   6.746 -2.4223 -0.6454  1.2232
 5291SOL    HW227507   0.689   3.328   6.874 -0.3044 -0.8401  0.4675
 5292SOL     OW27508   2.966   4.557   9.566  0.5019 -0.3001 -0.2553
 5292SOL    HW127509   2.962   4.547   9.661 -1.1880 -1.3618 -0.4428
 5292SOL    HW227510   2.940   4.467   9.548 -0.7564  0.0864 -0.3189
 5293SOL     OW27511   2.644   3.558   9.655 -0.7709 -0.0836 -0.0900
 5293SOL    HW127512   2.561   3.510   9.649 -0.8123  0.5821 -4.6441
 5293SOL    HW227513   2.677   3.531   9.569  0.0497 -0.7188  0.4231
 5294SOL     OW27514   0.251   1.855   0.968  0.5325  0.2891 -0.0952
 5294SOL    HW127515   0.235   1.892   1.054 -0.3549  0.2269 -0.2348
 5294SOL    HW227516   0.255   1.761   0.985  0.6115  0.0643 -1.3264
 5295SOL     OW27517   4.472   3.277   4.035  0.2289  0.4598 -0.3920
 5295SOL    HW127518   4.526   3.282   3.956 -0.9317  0.4663 -1.1780
 5295SOL    HW227519   4.398   3.331   4.007 -2.6827 -2.1867  2.3268
 5296SOL     OW27520   1.662   4.010   2.590 -0.0489  0.2343 -0.5403
 5296SOL    HW127521   1.724   3.938   2.577 -0.0259  0.4186 -1.4311
 5296SOL    HW227522   1.643   3.995   2.683  1.1246  0.0243 -0.3338
 5297SOL     OW27523   2.167   0.002   4.886  0.2663 -0.1599 -0.2399
 5297SOL    HW127524   2.244   4.707   4.930  0.1805  0.4570  0.4176
 5297SOL    HW227525   2.215   0.065   4.831  0.2299  1.3034  1.3733
 5298SOL     OW27526   3.892   1.860   4.279 -0.0487 -0.1801  0.2291
 5298SOL    HW127527   3.869   1.767   4.285  0.0772 -0.2241  0.0481
 5298SOL    HW227528   3.862   1.867   4.188 -0.0685  0.4763  0.2867
 5299SOL     OW27529   2.562   2.494   7.202 -0.5248 -0.3760 -0.0835
 5299SOL    HW127530   2.506   2.553   7.253 -1.7995 -0.6117 -1.1994
 5299SOL    HW227531   2.555   2.418   7.261 -2.0488 -0.8091 -0.8037
 5300SOL     OW27532   2.288   0.224  14.188 -0.0910  0.6164  0.0207
 5300SOL    HW127533   2.340   0.144  14.193 -2.2861 -0.7494  1.1611
 5300SOL    HW227534   2.339   0.279  14.129 -1.6576  1.5674 -0.4646
 5301SOL     OW27535   1.414   0.968   3.759 -0.3868 -0.7703 -0.3235
 5301SOL    HW127536   1.394   1.040   3.818  0.0521 -0.5571 -0.4348
 5301SOL    HW227537   1.434   0.900   3.823 -1.4056 -2.7904 -2.1298
 5302SOL     OW27538   4.606   2.459   8.655  0.2774  0.1377  0.0820
 5302SOL    HW127539   4.551   2.400   8.603 -0.9433  0.0251  1.4943
 5302SOL    HW227540   4.551   2.512   8.713 -0.5100 -0.6963  0.0904
 5303SOL     OW27541   1.843   4.359  15.024 -0.4000 -0.2161  0.1214
 5303SOL    HW127542   1.838   4.304  15.102  1.3454 -1.0220 -0.3564
 5303SOL    HW227543   1.751   4.381  15.004 -0.5060  0.0149  0.8620
 5304SOL     OW27544   4.103   3.747  10.177  0.9347  0.4931  0.3591
 5304SOL    HW127545   4.083   3.723  10.267 -1.4736 -1.4689 -0.7092
 5304SOL    HW227546   4.056   3.830  10.178  0.5019  0.2504  0.1818
 5305SOL     OW27547   2.229   1.415  14.316  0.3571 -0.2174  0.1555
 5305SOL    HW127548   2.202   1.383  14.230 -0.2062 -1.5935  0.8464
 5305SOL    HW227549   2.325   1.419  14.314  0.3917 -0.9743  0.4160
 5306SOL     OW27550   0.894   2.962   0.914 -0.4652 -0.5517 -0.3664
 5306SOL    HW127551   0.919   2.997   0.828 -0.8237  0.9454  0.1457
 5306SOL    HW227552   0.812   2.923   0.886 -1.6268  1.4214  0.3279
 5307SOL     OW27553   3.289   3.344   3.576 -0.1816  0.4329 -0.2201
 5307SOL    HW127554   3.201   3.378   3.559 -0.7405 -1.1502 -0.5041
 5307SOL    HW227555   3.332   3.347   3.490 -0.4033  0.1075 -0.3427
 5308SOL     OW27556   2.624   4.297   3.145 -0.2677  0.0019  0.0239
 5308SOL    HW127557   2.546   4.321   3.194 -0.3334 -1.6658  0.7625
 5308SOL    HW227558   2.668   4.382   3.148  1.2756 -0.8100  0.6972
 5309SOL     OW27559   4.642   3.892   4.996  0.3896 -0.5244 -0.1790
 5309SOL    HW127560   4.558   3.918   4.958  0.0604  2.0766  2.3380
 5309SOL    HW227561   4.649   3.800   4.970 -0.5013 -0.6234 -0.0403
 5310SOL     OW27562   4.471   3.032   7.747  0.2402 -0.7444 -0.1158
 5310SOL    HW127563   4.380   3.062   7.745  0.3761 -0.2674  0.6425
 5310SOL    HW227564   4.508   3.114   7.782 -2.4298  0.3955  0.0672
 5311SOL     OW27565   0.013   0.395   6.354  0.1106 -0.4604  0.4277
 5311SOL    HW127566   0.059   0.475   6.331  1.3433 -1.0759  0.7372
 5311SOL    HW227567   0.081   0.328   6.356  0.7844  0.2812  2.7126
 5312SOL     OW27568   1.006   3.329  15.006 -0.1373  0.2767  0.4057
 5312SOL    HW127569   0.979   3.237  15.005  0.6044  0.0567 -0.0198
 5312SOL    HW227570   1.073   3.328  15.074  0.3643  3.6971 -0.0240
 5313SOL     OW27571   2.898   1.598   2.765  0.3247 -0.2310 -0.0188
 5313SOL    HW127572   2.959   1.668   2.788  0.6995 -1.1631  1.8506
 5313SOL    HW227573   2.904   1.553   2.849 -1.2683  1.7015  1.1385
 5314SOL     OW27574   1.597   1.520   7.143  0.1023 -0.4488  0.4158
 5314SOL    HW127575   1.509   1.498   7.173 -0.1383  1.3346  0.9992
 5314SOL    HW227576   1.591   1.612   7.119  0.6012  0.2191  2.8140
 5315SOL     OW27577   0.018   0.816   8.875  0.1481  0.3856 -0.1247
 5315SOL    HW127578   4.704   0.748   8.915 -1.3634  1.1602 -0.8834
 5315SOL    HW227579   4.725   0.818   8.785  2.0755  1.5928 -0.8228
 5316SOL     OW27580   1.210   0.361  13.677 -0.6800 -0.6438  0.1116
 5316SOL    HW127581   1.171   0.377  13.763 -0.1943  1.0161  0.0131
 5316SOL    HW227582   1.159   0.283  13.653  0.8446 -0.6419 -3.1626
 5317SOL     OW27583   0.838   4.550  13.324 -0.0301  0.5366  0.4937
 5317SOL    HW127584   0.898   4.484  13.290 -3.3362 -0.5400 -3.3053
 5317SOL    HW227585   0.901   4.606  13.369  1.0846 -1.6822  1.6337
 5318SOL     OW27586   4.564   1.803  17.672  0.4544  0.3859 -0.2994
 5318SOL    HW127587   4.518   1.754  17.740  0.8777 -0.4442 -0.6189
 5318SOL    HW227588   4.608   1.866  17.730  2.5925 -0.4906 -0.9736
 5319SOL     OW27589   4.447   0.996   2.337  0.0715  0.2180 -0.2339
 5319SOL    HW127590   4.418   1.045   2.260 -1.3994  2.3405  1.6722
 5319SOL    HW227591   4.368   0.947   2.361 -0.4504  1.4563  0.5779
 5320SOL     OW27592   1.043   3.005   4.917 -0.0376 -0.2491  0.3492
 5320SOL    HW127593   1.113   3.070   4.910  0.1297 -0.4726 -0.0660
 5320SOL    HW227594   1.079   2.933   4.865  0.2130 -0.9468  1.5024
 5321SOL     OW27595   3.028   3.012   2.955  0.4521  0.1518  0.1838
 5321SOL    HW127596   2.942   2.976   2.972 -0.2921  0.6503 -2.4651
 5321SOL    HW227597   3.054   3.031   3.045 -0.8976  0.4973  0.4960
 5322SOL     OW27598   1.304   0.582   0.483  0.4026  0.5067  0.6116
 5322SOL    HW127599   1.352   0.660   0.455 -0.8727  1.8868  2.3068
 5322SOL    HW227600   1.249   0.626   0.547 -0.9498  0.5782 -0.6010
 5323SOL     OW27601   4.418   2.509  11.537 -0.6047 -0.2629  0.0268
 5323SOL    HW127602   4.421   2.577  11.470  0.5599  2.4536  2.8459
 5323SOL    HW227603   4.447   2.431  11.489 -1.4355  0.8236 -2.1904
 5324SOL     OW27604   1.614   1.421  11.117 -0.7940  0.6365 -0.0135
 5324SOL    HW127605   1.608   1.461  11.204 -2.4718  0.7203 -0.1690
 5324SOL    HW227606   1.674   1.349  11.136  0.2480  1.5386  0.1164
 5325SOL     OW27607   1.400   3.610   2.230 -0.0810  0.8712 -0.5872
 5325SOL    HW127608   1.307   3.587   2.229 -0.3782  1.9229  1.6659
 5325SOL    HW227609   1.433   3.545   2.292 -0.0030  1.2493 -0.2263
 5326SOL     OW27610   3.603   1.905   7.978 -0.7143 -0.5796 -0.3486
 5326SOL    HW127611   3.598   2.000   7.991 -0.2565 -0.6375  0.2228
 5326SOL    HW227612   3.547   1.901   7.900  0.0477 -0.3328 -0.9048
 5327SOL     OW27613   0.898   2.564  17.466  0.5665 -0.1330 -0.1436
 5327SOL    HW127614   0.943   2.649  17.473  1.4846 -0.5486 -0.9801
 5327SOL    HW227615   0.931   2.542  17.379 -0.7045 -0.5056 -0.5281
 5328SOL     OW27616   0.691   1.474   3.000  0.7253  0.4382 -0.1435
 5328SOL    HW127617   0.675   1.559   3.042  0.1293  0.5608 -0.6275
 5328SOL    HW227618   0.755   1.490   2.930  1.7220  0.3613  0.7430
 5329SOL     OW27619   1.454   1.622  10.111 -0.0412  0.2105 -0.2523
 5329SOL    HW127620   1.372   1.670  10.097  0.1094  0.1422 -1.3742
 5329SOL    HW227621   1.493   1.622  10.024  1.2169  0.3808  0.3190
 5330SOL     OW27622   0.271   2.105  11.712  0.1352 -0.0417  0.1535
 5330SOL    HW127623   0.356   2.132  11.676  0.9520 -0.4713  1.7504
 5330SOL    HW227624   0.310   2.052  11.782 -0.2831 -2.0598 -1.1386
 5331SOL     OW27625   2.400   3.484  12.741  0.4543 -0.3173 -0.5122
 5331SOL    HW127626   2.464   3.508  12.674 -0.7540  0.0911 -1.5335
 5331SOL    HW227627   2.450   3.503  12.820 -2.8040  0.8246  1.2748
 5332SOL     OW27628   3.928   4.727   4.655 -0.3317 -0.8347  0.4968
 5332SOL    HW127629   3.970   0.063   4.615 -0.1062 -1.4899 -0.5171
 5332SOL    HW227630   3.841   4.729   4.616  0.8798  1.5193 -2.0750
 5333SOL     OW27631   1.161   2.541   4.542 -0.4858  0.1841  0.5548
 5333SOL    HW127632   1.101   2.606   4.504  0.1495 -0.6363 -1.8680
 5333SOL    HW227633   1.222   2.535   4.469 -2.3383  1.5116 -1.1232
 5334SOL     OW27634   1.487   3.307  15.217  0.1934  0.5454 -0.6030
 5334SOL    HW127635   1.404   3.275  15.180  0.8277 -3.0234  1.0571
 5334SOL    HW227636   1.463   3.302  15.310 -0.9682  0.5920 -0.8914
 5335SOL     OW27637   0.037   0.122   8.355  0.1360 -0.0017  0.2556
 5335SOL    HW127638   0.076   0.121   8.268  1.4406 -0.2210  0.8410
 5335SOL    HW227639   0.106   0.164   8.406 -0.0993  0.2590  0.3534
 5336SOL     OW27640   4.495   4.109   6.956  0.0563 -0.3244 -0.0104
 5336SOL    HW127641   4.531   4.030   6.997 -0.4332 -0.9211 -0.7224
 5336SOL    HW227642   4.435   4.139   7.025  1.2553  0.1014  0.8444
 5337SOL     OW27643   0.515   4.016   7.510 -0.2265  0.7123  0.5635
 5337SOL    HW127644   0.438   4.033   7.455  0.4450 -0.5520 -0.7662
 5337SOL    HW227645   0.516   4.098   7.558  2.3786  1.7349 -1.2210
 5338SOL     OW27646   0.980   2.952  11.311 -0.4414  0.0127  0.2176
 5338SOL    HW127647   0.979   3.023  11.375 -0.1623 -0.0211  0.2576
 5338SOL    HW227648   0.989   2.871  11.361 -1.2426 -0.7837 -0.9173
 5339SOL     OW27649   2.623   3.197  12.129 -0.5069 -0.0304 -0.3055
 5339SOL    HW127650   2.636   3.207  12.223  0.7611  1.3280 -0.6281
 5339SOL    HW227651   2.637   3.287  12.100 -3.3344  0.0032 -1.5119
 5340SOL     OW27652   1.139   3.055  10.951  0.1279  0.0589 -0.4224
 5340SOL    HW127653   1.209   3.119  10.958  0.9108 -0.9074  0.4999
 5340SOL    HW227654   1.082   3.111  10.899  0.5662 -0.3198 -1.3187
 5341SOL     OW27655   3.900   2.542   8.067 -0.0760 -0.0574 -0.2952
 5341SOL    HW127656   3.855   2.619   8.101  0.1828  0.0468 -0.1900
 5341SOL    HW227657   3.966   2.580   8.008  0.0550 -1.3615 -0.9989
 5342SOL     OW27658   4.731   1.468   4.097 -0.0566  0.4279 -0.0436
 5342SOL    HW127659   0.022   1.383   4.066  0.7038  0.8169 -0.3121
 5342SOL    HW227660   0.040   1.478   4.178  1.3173  1.6511 -1.0429
 5343SOL     OW27661   0.355   3.138   6.602 -0.3170 -0.2272 -0.4806
 5343SOL    HW127662   0.374   3.081   6.676 -0.7911  1.1152  0.6739
 5343SOL    HW227663   0.260   3.149   6.601 -0.7467 -4.1955 -1.8794
 5344SOL     OW27664   3.727   0.007   8.953 -0.0104 -0.6122  0.0429
 5344SOL    HW127665   3.742   0.078   9.015 -1.1263 -0.8638  0.5883
 5344SOL    HW227666   3.723   0.064   8.876 -0.4042 -1.1470 -0.3317
 5345SOL     OW27667   1.695   2.088   4.337  0.5121  0.1871 -0.6198
 5345SOL    HW127668   1.627   2.154   4.355 -0.6910 -1.7250  1.8088
 5345SOL    HW227669   1.736   2.147   4.274  0.6551 -0.4339 -1.1117
 5346SOL     OW27670   3.786   3.446   9.631 -0.8570  0.6550  0.3260
 5346SOL    HW127671   3.732   3.402   9.565  2.5392 -0.4427 -1.7354
 5346SOL    HW227672   3.726   3.443   9.705 -1.0879 -2.0598  0.0327
 5347SOL     OW27673   4.034   3.139   1.635 -0.2837  0.0872 -0.0994
 5347SOL    HW127674   3.960   3.098   1.680  1.1638 -2.3221  0.0354
 5347SOL    HW227675   4.007   3.231   1.624  1.3182  0.7963  2.0340
 5348SOL     OW27676   0.893   2.594  11.210  0.2814  0.1350 -0.1352
 5348SOL    HW127677   0.917   2.653  11.138 -2.8716  1.1390 -0.3677
 5348SOL    HW227678   0.873   2.510  11.166 -0.9903  1.5619 -2.3082
 5349SOL     OW27679   2.195   0.700   5.612 -0.0993  0.1741  0.5448
 5349SOL    HW127680   2.284   0.670   5.591 -1.0375 -2.8392  0.8539
 5349SOL    HW227681   2.173   0.769   5.550 -0.0618  0.6454  1.0565
 5350SOL     OW27682   4.038   3.726   0.101  0.0725  0.0513  0.2247
 5350SOL    HW127683   4.134   3.731   0.098  0.2068 -2.7089  0.4365
 5350SOL    HW227684   4.009   3.811   0.136 -0.3012 -0.1720  0.4499
 5351SOL     OW27685   1.820   1.919  13.839  0.1316  0.4002  0.1987
 5351SOL    HW127686   1.853   1.943  13.925  1.3121  2.2890 -0.7740
 5351SOL    HW227687   1.738   1.886  13.875 -0.2198  0.1582 -0.8252
 5352SOL     OW27688   2.506   2.251  11.640  0.3547  0.4973 -0.2745
 5352SOL    HW127689   2.529   2.325  11.584 -0.0006  0.5683 -0.3311
 5352SOL    HW227690   2.458   2.290  11.713 -0.3360 -0.0585 -0.4343
 5353SOL     OW27691   1.052   4.614  15.537  0.1809 -0.6855  0.3223
 5353SOL    HW127692   1.035   4.663  15.457  2.7330 -0.0986  0.1424
 5353SOL    HW227693   0.973   4.634  15.588  0.7039 -1.9613  1.6612
 5354SOL     OW27694   1.032   0.414   6.554  0.1107  0.4850  0.1910
 5354SOL    HW127695   0.997   0.457   6.632  0.1666  0.1383  0.4012
 5354SOL    HW227696   0.985   0.469   6.490 -0.1909 -0.1556 -0.1356
 5355SOL     OW27697   1.824   2.940   3.907 -0.3579 -0.1886  0.2463
 5355SOL    HW127698   1.910   2.920   3.944 -0.6113  0.7650  1.3109
 5355SOL    HW227699   1.839   3.030   3.881 -4.0263  0.2771 -0.2408
 5356SOL     OW27700   2.743   3.321   6.791 -0.1062  0.5661  0.0228
 5356SOL    HW127701   2.684   3.262   6.746  0.8247 -0.6507  0.4120
 5356SOL    HW227702   2.798   3.335   6.714  2.0405 -2.9322  0.9145
 5357SOL     OW27703   3.333   0.084   9.293 -0.5619  0.1284  0.4014
 5357SOL    HW127704   3.286   0.125   9.366 -0.5996 -0.8433  0.9192
 5357SOL    HW227705   3.375   0.008   9.333 -0.8726 -1.9076 -3.2096
 5358SOL     OW27706   0.569   0.716   3.319 -0.0902 -1.0023 -0.1134
 5358SOL    HW127707   0.653   0.677   3.294  0.4249 -0.1305  0.2273
 5358SOL    HW227708   0.532   0.720   3.231  1.3665  0.1139 -0.6839
 5359SOL     OW27709   0.127   3.715   7.019  0.1113  0.2499 -0.0966
 5359SOL    HW127710   0.061   3.657   7.058  0.4630 -0.7904 -1.0335
 5359SOL    HW227711   0.161   3.655   6.953  1.3330 -0.4316  1.1387
 5360SOL     OW27712   0.052   3.568   6.030 -0.1431 -0.1232  0.7563
 5360SOL    HW127713   0.068   3.480   6.063  0.2099 -0.6748 -0.8824
 5360SOL    HW227714   0.113   3.574   5.956 -0.9983  2.7599  0.2856
 5361SOL     OW27715   0.314   1.108  16.362  0.2437  0.5810 -0.1269
 5361SOL    HW127716   0.404   1.091  16.334  0.9595  2.6214  0.8977
 5361SOL    HW227717   0.270   1.127  16.279  2.0994 -2.3758 -1.7823
 5362SOL     OW27718   0.260   0.354  16.868  0.1041 -0.6597  0.5329
 5362SOL    HW127719   0.290   0.442  16.892  2.1639 -1.3798  0.5593
 5362SOL    HW227720   0.196   0.382  16.803 -0.7748  1.1813  2.1879
 5363SOL     OW27721   3.261   1.824   6.569 -0.2576  0.0153  0.2289
 5363SOL    HW127722   3.185   1.863   6.524  0.3555  1.1801  0.2125
 5363SOL    HW227723   3.305   1.764   6.508  0.9856  0.3703  0.8037
 5364SOL     OW27724   1.445   0.251   8.653  0.3915  0.3163 -0.0225
 5364SOL    HW127725   1.355   0.260   8.682  0.5570 -0.0673  0.6229
 5364SOL    HW227726   1.472   0.166   8.689  0.7925  0.4012 -0.1246
 5365SOL     OW27727   2.072   4.550   9.733 -0.6321 -0.1956 -0.1688
 5365SOL    HW127728   2.151   4.497   9.740  0.3293  1.2802  0.1496
 5365SOL    HW227729   2.071   4.571   9.640 -2.7429  1.2198  0.1682
 5366SOL     OW27730   2.640   3.454   8.361  0.0129 -0.0485  0.7952
 5366SOL    HW127731   2.704   3.494   8.302 -0.6568 -1.2615 -0.7578
 5366SOL    HW227732   2.673   3.365   8.347 -0.0986  0.1815 -0.9377
 5367SOL     OW27733   3.952   3.022  10.057 -0.0081 -0.1729 -0.3090
 5367SOL    HW127734   3.966   3.105  10.012  1.4634 -0.1532  0.1779
 5367SOL    HW227735   4.005   3.030  10.137 -0.3488  1.4463 -0.2478
 5368SOL     OW27736   4.719   0.922   4.387 -0.0377 -0.1194 -0.1348
 5368SOL    HW127737   0.003   1.011   4.363  1.0597 -0.5399 -0.5859
 5368SOL    HW227738   4.645   0.908   4.328  1.1106 -2.9551 -0.9055
 5369SOL     OW27739   0.436   3.741  13.637  0.0078  0.9014 -0.1226
 5369SOL    HW127740   0.472   3.652  13.640  0.1741  0.9476 -0.7934
 5369SOL    HW227741   0.424   3.757  13.544 -2.5797 -0.4749 -0.0224
 5370SOL     OW27742   0.616   1.900   0.569  1.0230 -0.0987 -0.0952
 5370SOL    HW127743   0.643   1.829   0.628  1.4570  0.3708  0.2764
 5370SOL    HW227744   0.594   1.965   0.636 -0.5385 -0.0870 -0.6217
 5371SOL     OW27745   0.033   3.095   8.731  0.1958 -0.1087 -0.4641
 5371SOL    HW127746   0.127   3.082   8.739  0.2543  1.8082  2.2020
 5371SOL    HW227747   0.004   3.003   8.728 -3.2484  0.8698  1.7695
 5372SOL     OW27748   4.458   1.259   9.023 -0.1513 -0.1441 -0.1557
 5372SOL    HW127749   4.538   1.266   9.074  0.6491  1.7769 -1.6841
 5372SOL    HW227750   4.412   1.336   9.056 -1.9961 -1.5605  0.5698
 5373SOL     OW27751   3.303   4.296   4.339 -0.3677  0.8672  0.0610
 5373SOL    HW127752   3.228   4.355   4.346 -0.7619  0.2380  1.0546
 5373SOL    HW227753   3.277   4.216   4.384 -0.7300 -0.6698 -2.8997
 5374SOL     OW27754   1.274   2.727   1.634 -0.1399 -0.2742 -0.6406
 5374SOL    HW127755   1.299   2.692   1.549 -3.5304 -1.9441 -0.9569
 5374SOL    HW227756   1.321   2.664   1.689  0.0102  0.9988  0.6966
 5375SOL     OW27757   1.230   1.439   3.568  0.3042 -0.1797 -0.4951
 5375SOL    HW127758   1.290   1.412   3.637  2.5342  1.5421 -1.7393
 5375SOL    HW227759   1.205   1.351   3.540  0.1528  0.1445 -1.4059
 5376SOL     OW27760   1.030   1.268   7.764  0.0018 -0.7049  0.6130
 5376SOL    HW127761   1.033   1.214   7.843  0.8341 -2.9898 -0.9813
 5376SOL    HW227762   1.076   1.340   7.805  0.0047 -0.5937  0.4121
 5377SOL     OW27763   2.446   3.486   6.296  0.0574 -0.5107  0.5085
 5377SOL    HW127764   2.401   3.501   6.380  0.8414 -0.8122  0.9811
 5377SOL    HW227765   2.534   3.498   6.333  0.1265  1.3549 -0.2797
 5378SOL     OW27766   2.974   4.362   8.972  0.6315 -0.0094  0.5041
 5378SOL    HW127767   2.925   4.442   8.987 -0.0478 -0.4511  0.6471
 5378SOL    HW227768   3.060   4.398   8.995  0.0980  1.1353  0.6973
 5379SOL     OW27769   3.322   2.874   8.628  0.1408  0.3266  0.1855
 5379SOL    HW127770   3.236   2.899   8.664  0.1045 -1.3961  1.2747
 5379SOL    HW227771   3.309   2.785   8.597 -0.8626  1.3799 -2.3758
 5380SOL     OW27772   0.942   4.503   7.666 -1.0866  0.1028 -0.5841
 5380SOL    HW127773   0.957   4.543   7.581 -0.9967  1.6467  0.1706
 5380SOL    HW227774   0.868   4.444   7.647 -0.5657 -0.3926 -1.0580
 5381SOL     OW27775   1.516   0.586   7.887  0.0158 -0.4646 -0.6082
 5381SOL    HW127776   1.540   0.494   7.881  2.6206  0.1493  0.4891
 5381SOL    HW227777   1.434   0.572   7.934  2.4531 -1.1627  3.4113
 5382SOL     OW27778   1.485   1.384   8.448 -0.1260  0.2437 -0.1647
 5382SOL    HW127779   1.476   1.379   8.353  0.3133 -0.4809 -0.1688
 5382SOL    HW227780   1.507   1.294   8.469 -0.0473 -0.1238 -1.8162
 5383SOL     OW27781   0.528   0.240   7.155  0.4621 -0.2952 -0.7131
 5383SOL    HW127782   0.608   0.194   7.129  1.3881  0.7234  0.3308
 5383SOL    HW227783   0.569   0.322   7.184  2.9899 -1.5722 -0.6845
 5384SOL     OW27784   3.007   1.425  12.833 -0.3653 -0.6552  0.1042
 5384SOL    HW127785   2.952   1.444  12.909 -1.5208  0.4224 -1.0187
 5384SOL    HW227786   2.956   1.465  12.763  0.4359  1.6245  0.8184
 5385SOL     OW27787   3.988   3.870  17.238  0.1913 -0.1694 -0.2159
 5385SOL    HW127788   3.926   3.941  17.255  0.7591  0.2586  0.0779
 5385SOL    HW227789   3.989   3.872  17.143  0.2671  1.2697 -0.1855
 5386SOL     OW27790   3.594   4.714  17.251 -0.0372  0.7967  0.0245
 5386SOL    HW127791   3.544   4.737  17.330 -2.2015  2.4128 -1.8045
 5386SOL    HW227792   3.649   0.050  17.235 -0.6758  0.8694 -1.8622
 5387SOL     OW27793   1.225   2.261   2.535  0.2204  0.1785 -0.2520
 5387SOL    HW127794   1.249   2.172   2.563 -0.1899 -0.3861 -1.7158
 5387SOL    HW227795   1.303   2.298   2.495  0.2481  0.9311  0.4934
 5388SOL     OW27796   2.370   1.384   3.861 -0.7042 -0.1014 -0.0519
 5388SOL    HW127797   2.291   1.337   3.834  0.2974 -1.5837 -0.3644
 5388SOL    HW227798   2.402   1.405   3.773 -2.0559 -3.5372 -1.3707
 5389SOL     OW27799   4.010   1.454   1.004  0.0975  0.0489  0.3254
 5389SOL    HW127800   4.038   1.439   0.913 -1.0514  0.8476 -0.1436
 5389SOL    HW227801   4.093   1.435   1.049  0.5594  2.9733  0.6717
 5390SOL     OW27802   1.402   4.534   3.327  0.2172  0.0974  0.4257
 5390SOL    HW127803   1.354   4.457   3.295  2.1488 -1.1913  0.6538
 5390SOL    HW227804   1.470   4.546   3.261  0.0418 -1.7865 -0.0976
 5391SOL     OW27805   1.987   4.077   9.275 -0.0010  0.9652 -0.3259
 5391SOL    HW127806   2.021   4.060   9.363 -1.5209  0.9186  0.2614
 5391SOL    HW227807   2.038   4.028   9.211  1.5044 -0.8053  2.2126
 5392SOL     OW27808   1.265   2.218   0.018  0.6183 -0.3197 -0.6363
 5392SOL    HW127809   1.345   2.252   0.058  0.1181  0.0213  0.0840
 5392SOL    HW227810   1.202   2.228   0.089  0.6844  1.3901 -0.8367
 5393SOL     OW27811   0.925   4.084   2.144  0.1608 -0.3926  0.4470
 5393SOL    HW127812   1.011   4.059   2.112 -1.1307 -2.2149 -1.6215
 5393SOL    HW227813   0.942   4.178   2.142 -2.5937  0.1315  1.2996
 5394SOL     OW27814   3.116   2.216   9.122  0.3953  0.5206  0.7423
 5394SOL    HW127815   3.065   2.135   9.123 -1.4998  1.7423  4.4183
 5394SOL    HW227816   3.159   2.205   9.207 -2.4344 -0.1012  2.0959
 5395SOL     OW27817   4.627   1.311   9.231 -0.3340 -0.5187 -0.3395
 5395SOL    HW127818   4.632   1.404   9.207 -1.2269 -0.2839  0.4053
 5395SOL    HW227819   4.703   1.293   9.286 -0.7867  2.4624  1.2709
 5396SOL     OW27820   2.772   0.907  16.231  0.0338 -0.0332 -0.5781
 5396SOL    HW127821   2.699   0.957  16.195  1.0333  2.0837  0.3630
 5396SOL    HW227822   2.831   0.972  16.270  2.9637 -2.9989 -0.0208
 5397SOL     OW27823   1.598   2.016  17.552  0.0823 -0.7716  0.4974
 5397SOL    HW127824   1.507   2.025  17.580 -0.9964  0.1013 -3.2638
 5397SOL    HW227825   1.600   2.065  17.469 -0.0725 -1.2745  0.2000
 5398SOL     OW27826   2.942   3.283   7.503 -0.0444 -0.0184  1.0347
 5398SOL    HW127827   2.849   3.299   7.517 -0.7291  0.2209 -3.9716
 5398SOL    HW227828   2.963   3.267   7.595  0.5500 -1.6122  0.6321
 5399SOL     OW27829   2.805   2.933   9.560 -0.4806 -0.1962  0.0857
 5399SOL    HW127830   2.784   2.839   9.557 -1.3887  0.0604 -1.4441
 5399SOL    HW227831   2.900   2.922   9.556 -0.2532  1.7310  0.5073
 5400SOL     OW27832   3.368   3.538   4.505  0.3777  0.6074 -0.1528
 5400SOL    HW127833   3.382   3.539   4.410  0.6338  0.1164 -0.1212
 5400SOL    HW227834   3.432   3.595   4.548  0.1464 -0.5135  1.7065
 5401SOL     OW27835   2.056   1.752   6.617  0.2040 -0.4029 -0.2805
 5401SOL    HW127836   1.976   1.719   6.657  0.5465 -0.2283  0.5530
 5401SOL    HW227837   2.021   1.832   6.577  2.3883  1.3179  1.1629
 5402SOL     OW27838   2.611   0.534   9.802 -0.2964 -0.0169 -0.1570
 5402SOL    HW127839   2.639   0.525   9.893 -0.2341  0.0773 -0.1660
 5402SOL    HW227840   2.523   0.570   9.815  0.3348  1.3703  0.3076
 5403SOL     OW27841   1.827   1.944   5.250 -0.5394  0.3325 -0.9956
 5403SOL    HW127842   1.885   1.897   5.190  1.6419  0.4165  1.0346
 5403SOL    HW227843   1.902   1.994   5.282 -1.1057  1.0334 -0.7579
 5404SOL     OW27844   2.753   1.473   7.450  0.1606 -0.5452 -0.0534
 5404SOL    HW127845   2.831   1.469   7.505 -0.5668  0.5477  1.0350
 5404SOL    HW227846   2.790   1.474   7.361 -0.9335  0.9517 -0.4873
 5405SOL     OW27847   0.464   0.182   2.013 -0.6354 -0.7912 -0.1348
 5405SOL    HW127848   0.419   0.236   2.078 -0.0424  0.0466 -0.4166
 5405SOL    HW227849   0.434   0.100   2.051 -0.2561 -0.7154  0.3259
 5406SOL     OW27850   1.840   1.590   6.120  0.4597 -0.1718  0.1809
 5406SOL    HW127851   1.780   1.660   6.096 -0.3317 -0.6345  0.8029
 5406SOL    HW227852   1.925   1.623   6.092  0.1996 -1.4133 -2.0614
 5407SOL     OW27853   3.650   3.789   3.377 -0.2988 -0.6439  0.3755
 5407SOL    HW127854   3.702   3.721   3.419  2.9125  0.0081 -2.5468
 5407SOL    HW227855   3.593   3.814   3.449  0.1356 -2.0584  1.2084
 5408SOL     OW27856   3.395   0.292   6.101  0.2178 -0.0127  0.3474
 5408SOL    HW127857   3.477   0.289   6.053  0.1507  1.7956  0.1133
 5408SOL    HW227858   3.340   0.253   6.034  1.5439 -1.4572  0.0812
 5409SOL     OW27859   4.018   0.428  17.108  0.4031 -0.0194 -0.2745
 5409SOL    HW127860   3.953   0.381  17.056 -0.9028  0.1234  1.2346
 5409SOL    HW227861   4.055   0.494  17.050  3.5352 -0.5633  1.1172
 5410SOL     OW27862   0.605   0.548   1.637  0.8579 -0.1586  0.0937
 5410SOL    HW127863   0.597   0.488   1.562  0.6347  0.6646 -0.5425
 5410SOL    HW227864   0.698   0.571   1.635  0.5543  0.9782 -1.4544
 5411SOL     OW27865   3.381   1.932   0.737  0.3278  0.4588  0.0893
 5411SOL    HW127866   3.311   1.976   0.785  1.1974 -0.6896  2.4351
 5411SOL    HW227867   3.365   1.965   0.649 -0.9320  0.1951  0.2104
 5412SOL     OW27868   3.315   1.356   2.114 -0.2688 -0.2019 -0.0677
 5412SOL    HW127869   3.363   1.287   2.067 -1.1309 -0.2691 -0.8539
 5412SOL    HW227870   3.236   1.358   2.060 -0.0255  1.1458 -0.3771
 5413SOL     OW27871   0.174   1.809   6.093 -0.1244  0.3178 -0.5676
 5413SOL    HW127872   0.140   1.764   6.170 -0.6882  1.6832 -0.0028
 5413SOL    HW227873   0.100   1.869   6.076 -1.9554 -1.7149  0.3120
 5414SOL     OW27874   2.984   3.866   7.909  0.5224 -0.1160 -0.0328
 5414SOL    HW127875   2.978   3.957   7.878  2.8880  0.2145  0.4858
 5414SOL    HW227876   2.903   3.821   7.885 -1.2545  1.8497  2.1414
 5415SOL     OW27877   4.595   3.296   3.790  0.0969 -0.5584  0.4655
 5415SOL    HW127878   4.677   3.278   3.745 -0.4955  0.0230 -0.8319
 5415SOL    HW227879   4.523   3.291   3.727  0.2426 -2.2816  0.4369
 5416SOL     OW27880   0.039   0.844  11.091 -0.0237  0.3209  0.3870
 5416SOL    HW127881   0.090   0.832  11.011  1.1742  2.2355  0.8647
 5416SOL    HW227882   0.017   0.937  11.095 -1.5236  0.0719 -2.1387
 5417SOL     OW27883   3.913   1.834   2.806  0.1205  0.3301 -0.2061
 5417SOL    HW127884   3.962   1.893   2.749  0.1999  1.1519  0.7135
 5417SOL    HW227885   3.884   1.762   2.749  1.5013 -1.0692  0.8608
 5418SOL     OW27886   4.569   2.398   3.777  0.0296  0.2556 -0.8627
 5418SOL    HW127887   4.535   2.381   3.689  3.0488 -0.8191 -1.8310
 5418SOL    HW227888   4.611   2.313   3.791 -1.7804 -0.5597 -0.4163
 5419SOL     OW27889   3.495   0.117   6.578  0.1532 -0.1142  0.6118
 5419SOL    HW127890   3.416   0.119   6.523  0.6849 -2.1120 -0.2352
 5419SOL    HW227891   3.540   0.047   6.529  0.9844 -0.6845  2.2142
 5420SOL     OW27892   2.664   2.052   7.594  0.4182  0.3971  0.0551
 5420SOL    HW127893   2.678   1.958   7.580 -0.8524  0.1026  0.6891
 5420SOL    HW227894   2.573   2.043   7.624  0.7044  0.4553  0.9219
 5421SOL     OW27895   0.394   1.328   1.562  0.1211  0.5083  0.5835
 5421SOL    HW127896   0.409   1.370   1.477  0.3651 -1.5354 -0.3707
 5421SOL    HW227897   0.341   1.253   1.537  0.9171  0.0835  0.1888
 5422SOL     OW27898   0.454   1.110   2.898  0.2360 -0.2865 -0.0506
 5422SOL    HW127899   0.498   1.133   2.979 -0.0965  1.5342 -0.3963
 5422SOL    HW227900   0.464   1.196   2.857 -0.9664  1.0990  2.5519
 5423SOL     OW27901   1.035   0.886   9.566 -0.3820  0.0110 -0.1788
 5423SOL    HW127902   1.026   0.800   9.606  0.9571 -0.0961 -0.1111
 5423SOL    HW227903   1.123   0.905   9.599 -0.1501  1.0335 -1.3869
 5424SOL     OW27904   3.579   0.335   3.646 -0.3053 -0.0844 -0.4295
 5424SOL    HW127905   3.645   0.336   3.715  0.8086  0.7118 -1.5229
 5424SOL    HW227906   3.552   0.427   3.658 -0.3592 -0.0282 -1.0011
 5425SOL     OW27907   4.299   3.071   1.299 -0.4533 -0.2226 -0.2833
 5425SOL    HW127908   4.393   3.092   1.298 -0.7944  1.2594 -1.1887
 5425SOL    HW227909   4.279   3.109   1.213  0.6977  0.6976 -0.1397
 5426SOL     OW27910   1.213   4.652   9.139  0.2906 -0.0350  0.1316
 5426SOL    HW127911   1.139   4.618   9.088 -0.7584  0.0810  1.5835
 5426SOL    HW227912   1.217   4.735   9.092  0.9264  0.5231  1.1843
 5427SOL     OW27913   1.424   3.884   3.218  0.1582 -0.4545  0.0663
 5427SOL    HW127914   1.337   3.887   3.178  0.4594 -1.4280 -0.6555
 5427SOL    HW227915   1.469   3.828   3.155 -0.0651 -1.6518  0.9723
 5428SOL     OW27916   0.884   4.645  12.335 -0.1506  0.2224  0.3839
 5428SOL    HW127917   0.879   4.723  12.391 -0.8144 -0.0501  0.7137
 5428SOL    HW227918   0.791   4.623  12.342  0.1499 -1.4365 -1.1593
 5429SOL     OW27919   2.566   1.728   7.822  0.4551 -0.2508  0.6337
 5429SOL    HW127920   2.585   1.771   7.739  2.0006 -0.7815  0.7119
 5429SOL    HW227921   2.533   1.793   7.884  0.7063 -0.3451  0.8683
 5430SOL     OW27922   0.542   3.338  10.866  1.2549 -0.0345 -0.4284
 5430SOL    HW127923   0.578   3.254  10.839  1.0390 -0.2093 -0.1804
 5430SOL    HW227924   0.472   3.342  10.801 -0.9615 -1.0684  1.8594
 5431SOL     OW27925   0.574   1.676  12.379  0.1139 -0.1866  0.5046
 5431SOL    HW127926   0.492   1.682  12.332  0.0763  2.2876  0.8855
 5431SOL    HW227927   0.555   1.733  12.454  1.5919  0.4416  0.4067
 5432SOL     OW27928   0.447   0.451   9.713 -0.3255 -0.2190 -0.4683
 5432SOL    HW127929   0.417   0.423   9.800 -0.8043  1.2043 -0.1699
 5432SOL    HW227930   0.363   0.481   9.677 -0.1425  0.6883 -0.1544
 5433SOL     OW27931   4.512   0.109  13.104 -0.0817  0.3824  0.4812
 5433SOL    HW127932   4.593   0.092  13.056 -0.2537 -2.8128  1.3358
 5433SOL    HW227933   4.456   0.074  13.035 -1.6172 -0.5263  2.1882
 5434SOL     OW27934   3.905   1.640   6.558 -0.2198 -0.5172 -0.4924
 5434SOL    HW127935   3.965   1.586   6.608  0.0169  1.6720  1.5723
 5434SOL    HW227936   3.956   1.636   6.477  0.2481 -1.0208 -0.1728
 5435SOL     OW27937   1.764   0.433  10.989  0.1275 -0.5055 -0.4387
 5435SOL    HW127938   1.669   0.442  10.983  0.0832 -0.8905 -0.3036
 5435SOL    HW227939   1.796   0.468  10.906 -0.3642 -0.4343 -0.5956
 5436SOL     OW27940   1.744   2.710   7.723  0.3016 -0.1104 -0.4595
 5436SOL    HW127941   1.714   2.717   7.632 -0.8215  1.6914  0.0500
 5436SOL    HW227942   1.666   2.700   7.777 -0.5139 -1.1023 -1.8262
 5437SOL     OW27943   1.704   0.582   3.578  0.3684 -0.5884  0.1426
 5437SOL    HW127944   1.697   0.594   3.673 -1.1881  1.6178 -0.2545
 5437SOL    HW227945   1.623   0.537   3.552 -0.8164  0.1328  2.6397
 5438SOL     OW27946   2.812   2.358   6.588  0.0121  0.1084  0.8003
 5438SOL    HW127947   2.907   2.355   6.600  0.1645  4.5873  0.6935
 5438SOL    HW227948   2.795   2.359   6.494  1.2562 -1.6330  0.5492
 5439SOL     OW27949   2.671   1.336  10.070 -0.7646  0.3046 -0.7137
 5439SOL    HW127950   2.752   1.293  10.043  0.9209  0.2030  4.5369
 5439SOL    HW227951   2.660   1.406  10.005 -0.4793  0.2366 -0.8374
 5440SOL     OW27952   2.585   0.861   2.853  0.4923  0.1916  0.2555
 5440SOL    HW127953   2.679   0.870   2.869  0.1295  0.8607  1.9556
 5440SOL    HW227954   2.568   0.774   2.890  0.9715 -0.5502 -1.2649
 5441SOL     OW27955   1.020   4.404   4.674 -0.1070  0.2427  0.6633
 5441SOL    HW127956   1.063   4.366   4.751 -0.4347  0.4311  0.9419
 5441SOL    HW227957   1.088   4.445   4.620  0.6897 -1.1669  0.5996
 5442SOL     OW27958   3.034   0.081  17.022 -0.6865 -0.0106  0.1582
 5442SOL    HW127959   3.037   0.013  17.089  0.3939  0.0980  0.2151
 5442SOL    HW227960   3.004   0.162  17.064 -0.1677 -0.2684  1.0286
 5443SOL     OW27961   1.949   2.398   6.033 -0.2129  0.0981  0.3157
 5443SOL    HW127962   1.906   2.317   6.003  2.7183 -0.6971 -1.8056
 5443SOL    HW227963   1.893   2.457   5.983  1.4778  0.0409 -1.6498
 5444SOL     OW27964   1.029   0.399   4.018 -0.7543 -0.3164  0.1759
 5444SOL    HW127965   1.115   0.380   3.980 -0.3351  0.3356  0.7958
 5444SOL    HW227966   1.018   0.484   3.976  1.5522  1.2004  2.5930
 5445SOL     OW27967   1.754   4.153   9.143  0.5829 -0.3194  0.2544
 5445SOL    HW127968   1.827   4.131   9.201  0.1133  0.6730  1.2346
 5445SOL    HW227969   1.790   4.130   9.057 -2.8613  2.8941 -2.0405
 5446SOL     OW27970   2.188   2.352   1.596 -0.2040 -0.2131  0.3847
 5446SOL    HW127971   2.132   2.281   1.566  2.3509 -1.7373 -0.8076
 5446SOL    HW227972   2.242   2.377   1.520  0.0004 -1.9026 -0.0182
 5447SOL     OW27973   1.385   2.495  14.087 -0.2904  0.0519  0.4149
 5447SOL    HW127974   1.301   2.476  14.046  0.6590 -1.7575 -0.7050
 5447SOL    HW227975   1.437   2.484  14.008 -1.1540 -1.0870  0.0132
 5448SOL     OW27976   0.499   1.268   6.953 -0.1332 -0.6601  0.3194
 5448SOL    HW127977   0.535   1.223   7.029 -2.6640  0.1141  1.9586
 5448SOL    HW227978   0.408   1.277   6.980 -0.2346 -0.1131 -0.1883
 5449SOL     OW27979   0.752   4.525   8.851  0.1146 -0.5251 -0.2602
 5449SOL    HW127980   0.723   4.607   8.891 -0.0180 -0.4470 -0.5143
 5449SOL    HW227981   0.843   4.547   8.832  0.8868 -1.4177  2.3848
 5450SOL     OW27982   2.829   4.663   4.676  0.2441 -0.3189  0.8293
 5450SOL    HW127983   2.849   4.594   4.738  0.3508 -0.0167  1.1305
 5450SOL    HW227984   2.790   4.724   4.738  0.2977  0.1021  0.4479
 5451SOL     OW27985   1.490   3.828   8.323 -0.3751 -0.4269 -0.1865
 5451SOL    HW127986   1.467   3.735   8.323  0.7352 -0.7025  0.7794
 5451SOL    HW227987   1.404   3.871   8.318 -1.5057 -2.2991  3.0077
 5452SOL     OW27988   0.727   0.226   8.221 -0.4124  0.1808 -0.6562
 5452SOL    HW127989   0.751   0.135   8.203 -0.6842  0.5490 -2.9192
 5452SOL    HW227990   0.640   0.222   8.261 -0.9366  1.9618 -1.6092
 5453SOL     OW27991   1.886   1.873   8.626  0.1742  0.1843 -0.0268
 5453SOL    HW127992   1.890   1.778   8.615 -0.7140  0.2464 -0.9812
 5453SOL    HW227993   1.914   1.884   8.716  0.8359 -0.8569 -0.1045
 5454SOL     OW27994   2.638   2.772   4.269 -0.1684  0.0093 -0.3961
 5454SOL    HW127995   2.683   2.695   4.236  0.6775  0.2183  0.2785
 5454SOL    HW227996   2.667   2.832   4.199  1.5765  0.7048  0.9311
 5455SOL     OW27997   2.094   3.458   6.799  0.2059  0.5287  0.1513
 5455SOL    HW127998   2.111   3.545   6.835 -2.5874  1.1242  0.0151
 5455SOL    HW227999   2.158   3.405   6.847 -0.0201 -0.1248 -0.2695
 5456SOL     OW28000   0.251   3.979   3.847 -0.3767 -0.5720 -0.3496
 5456SOL    HW128001   0.342   3.969   3.821 -0.4619 -1.6263 -0.2413
 5456SOL    HW228002   0.248   4.073   3.827  0.5741 -0.6994 -1.0611
 5457SOL     OW28003   4.598   0.519   7.963  0.3526  0.2535  0.7403
 5457SOL    HW128004   4.599   0.584   7.893 -0.0540  1.3389  1.7484
 5457SOL    HW228005   4.573   0.432   7.931  0.1652  0.8091 -0.6144
 5458SOL     OW28006   3.081   2.205   6.968 -0.5599  0.0077  0.1134
 5458SOL    HW128007   3.007   2.144   6.979  1.0477 -2.3345 -2.1437
 5458SOL    HW228008   3.073   2.230   6.876 -0.9520  4.0768  1.2401
 5459SOL     OW28009   0.779   1.360   8.237 -0.2403 -0.1768  0.2139
 5459SOL    HW128010   0.822   1.289   8.285  0.3922 -1.2010 -1.8601
 5459SOL    HW228011   0.701   1.367   8.292  1.9206  1.1217  3.1213
 5460SOL     OW28012   2.693   0.561   2.824 -0.3840  0.2792  0.2032
 5460SOL    HW128013   2.698   0.526   2.735 -1.5328  0.0876  0.2036
 5460SOL    HW228014   2.600   0.569   2.847 -0.5368  1.5761 -0.8083
 5461SOL     OW28015   1.155   4.631   7.198 -0.5101  0.3866  0.4969
 5461SOL    HW128016   1.230   4.577   7.170 -0.0053  0.5533  1.5225
 5461SOL    HW228017   1.158   4.705   7.137 -0.0700 -0.2161 -0.2092
 5462SOL     OW28018   4.582   4.722   2.049  0.2318 -0.4171  0.1356
 5462SOL    HW128019   4.676   4.733   2.062  0.1014 -2.0200  2.4865
 5462SOL    HW228020   4.555   0.011   2.136 -1.6477 -0.9066 -0.2821
 5463SOL     OW28021   3.571   3.666   4.614 -0.4096 -0.0293  0.0580
 5463SOL    HW128022   3.665   3.659   4.628 -0.2350  0.6973 -0.7493
 5463SOL    HW228023   3.544   3.723   4.686  0.0605  0.4106 -0.1155
 5464SOL     OW28024   0.266   2.480   8.485  0.3569 -0.1817 -0.2201
 5464SOL    HW128025   0.242   2.422   8.556  3.8215 -0.8270  0.4112
 5464SOL    HW228026   0.214   2.442   8.414 -0.3873 -1.3109  0.9305
 5465SOL     OW28027   4.292   0.749   6.539  0.0264 -0.2373 -0.2965
 5465SOL    HW128028   4.239   0.669   6.536  1.4268 -1.2596  1.9982
 5465SOL    HW228029   4.383   0.720   6.546  0.2512  0.8473  1.1943
 5466SOL     OW28030   1.523   3.710   2.541 -0.9016 -0.3617  0.7122
 5466SOL    HW128031   1.584   3.756   2.597  1.6931 -1.9795 -0.7701
 5466SOL    HW228032   1.489   3.773   2.478  0.7976  0.3617  0.5252
 5467SOL     OW28033   4.052   0.428   4.382 -0.4458  0.4388 -0.1064
 5467SOL    HW128034   3.963   0.437   4.347  0.2885 -1.6808 -2.5121
 5467SOL    HW228035   4.110   0.472   4.320  0.0088  0.4583  0.3374
 5468SOL     OW28036   1.975   4.035   8.697 -0.1906  0.3329  0.0103
 5468SOL    HW128037   1.939   3.954   8.732  1.0173 -0.7867 -1.3354
 5468SOL    HW228038   1.912   4.105   8.714 -0.4815  0.2113 -0.5622
 5469SOL     OW28039   0.933   1.896   5.433 -0.2052  0.2003  0.1843
 5469SOL    HW128040   0.885   1.906   5.515 -0.2463  0.7948  0.0895
 5469SOL    HW228041   0.866   1.877   5.368  1.3623 -0.0308 -1.3638
 5470SOL     OW28042   0.181   1.321   6.127  0.5089  0.2088  0.4125
 5470SOL    HW128043   0.148   1.233   6.144 -0.7261  0.4102 -0.9643
 5470SOL    HW228044   0.156   1.371   6.204  0.3067  0.3673  0.2435
 5471SOL     OW28045   3.444   0.889   3.847 -0.0179  0.0189  0.4144
 5471SOL    HW128046   3.377   0.955   3.860 -1.8266 -2.1802  2.1268
 5471SOL    HW228047   3.461   0.891   3.753  0.8057 -2.1329  0.5132
 5472SOL     OW28048   4.495   1.517   3.948  0.0480  0.6096  0.1665
 5472SOL    HW128049   4.576   1.482   3.985 -0.4557 -0.1722  0.5300
 5472SOL    HW228050   4.535   1.549   3.867  4.2624  0.6132  2.2414
 5473SOL     OW28051   3.626   0.733   5.369 -0.0545  0.4288  0.7152
 5473SOL    HW128052   3.639   0.705   5.278  1.4582  1.6690  0.5551
 5473SOL    HW228053   3.548   0.788   5.365  1.0402  2.2013  3.2926
 5474SOL     OW28054   3.583   1.674  12.321 -0.0337 -0.2566  0.8909
 5474SOL    HW128055   3.653   1.724  12.363  1.3764 -1.3337 -0.1834
 5474SOL    HW228056   3.538   1.641  12.398 -1.8129 -0.3131 -0.1589
 5475SOL     OW28057   3.686   3.101   5.903  0.2596 -0.1232  0.4151
 5475SOL    HW128058   3.725   3.020   5.871 -1.8143 -1.0245  0.1453
 5475SOL    HW228059   3.752   3.157   5.943  0.8953  0.6390 -1.6491
 5476SOL     OW28060   3.863   0.037   2.465 -0.6338  0.1273 -0.0334
 5476SOL    HW128061   3.883   4.706   2.404 -0.4649 -0.8287  1.1537
 5476SOL    HW228062   3.787   0.002   2.510  0.8978 -0.8705  1.7822
 5477SOL     OW28063   4.014   0.626  14.803 -0.1269 -0.1434 -0.5266
 5477SOL    HW128064   4.076   0.645  14.873  0.2123  0.3909 -0.9707
 5477SOL    HW228065   3.930   0.635  14.848  0.2631 -1.0432  0.3906
 5478SOL     OW28066   4.360   4.485   2.376 -0.1774  0.6253  0.4465
 5478SOL    HW128067   4.273   4.524   2.374 -0.1352  0.7099  0.2356
 5478SOL    HW228068   4.335   4.394   2.392  0.2141  0.5638  0.7055
 5479SOL     OW28069   0.126   1.114   5.868 -0.1665  0.2943 -0.4513
 5479SOL    HW128070   0.204   1.153   5.906 -1.0750  1.8615 -0.2302
 5479SOL    HW228071   0.059   1.129   5.934  2.1721  0.9420  1.7677
 5480SOL     OW28072   1.047   2.529   2.153 -0.3706 -0.0380  0.0624
 5480SOL    HW128073   1.141   2.529   2.169 -0.6313 -1.5805  1.6445
 5480SOL    HW228074   1.034   2.612   2.107 -0.8149  0.7657  1.6095
 5481SOL     OW28075   2.601   1.100  14.551 -0.9462 -0.4355  0.6544
 5481SOL    HW128076   2.562   1.188  14.557  0.0258  0.0174  0.3672
 5481SOL    HW228077   2.635   1.111  14.463 -1.3276 -2.7488  0.2325
 5482SOL     OW28078   3.072   3.163   2.425  0.4835 -0.7057  0.4268
 5482SOL    HW128079   3.010   3.181   2.496 -0.0684  0.6002 -0.3877
 5482SOL    HW228080   3.050   3.238   2.369  1.5714 -0.8581 -0.1951
 5483SOL     OW28081   1.261   1.364  17.491 -0.6664  0.3708  0.0230
 5483SOL    HW128082   1.170   1.394  17.491 -0.0940  2.1029 -0.5937
 5483SOL    HW228083   1.253   1.278  17.450  0.7500  0.3806 -0.2874
 5484SOL     OW28084   4.005   4.297   7.344 -0.1220 -0.1733 -0.1974
 5484SOL    HW128085   3.914   4.287   7.315 -0.6907  1.7649  0.8992
 5484SOL    HW228086   4.052   4.288   7.261 -0.1639 -2.1410 -0.0012
 5485SOL     OW28087   3.371   4.484  14.050  0.5702  0.6183  0.0479
 5485SOL    HW128088   3.402   4.396  14.031 -0.0350  0.2672  0.6968
 5485SOL    HW228089   3.280   4.463  14.071  0.1392  2.3122 -0.1016
 5486SOL     OW28090   3.332   2.783   9.094 -0.1942  0.1933  0.6784
 5486SOL    HW128091   3.327   2.761   9.187 -0.6364 -2.1605  0.0741
 5486SOL    HW228092   3.255   2.744   9.052 -0.7970 -0.4205  2.3368
 5487SOL     OW28093   3.119   0.823   5.699  0.5142  0.0898 -0.0518
 5487SOL    HW128094   3.185   0.852   5.763  2.1648 -1.2593 -1.1520
 5487SOL    HW228095   3.095   0.907   5.659 -0.7481  0.6327  1.7769
 5488SOL     OW28096   1.817   3.740  13.204 -0.5301 -0.6110 -0.2597
 5488SOL    HW128097   1.910   3.738  13.179 -0.4201 -0.2515  0.0984
 5488SOL    HW228098   1.789   3.655  13.172  0.7201 -0.9702 -0.3977
 5489SOL     OW28099   0.796   2.629   8.054  0.2450  0.0229 -0.1814
 5489SOL    HW128100   0.808   2.684   7.977  2.0624  0.0182  0.0886
 5489SOL    HW228101   0.798   2.539   8.021 -0.4650 -1.6158  4.2410
 5490SOL     OW28102   1.296   0.878   1.391 -0.3563  0.0435  0.0167
 5490SOL    HW128103   1.386   0.876   1.358 -0.1682  1.6201  0.4238
 5490SOL    HW228104   1.301   0.954   1.449 -0.1619  1.4060 -1.7820
 5491SOL     OW28105   2.231   3.110   6.374 -0.2133  0.0405  0.1287
 5491SOL    HW128106   2.270   3.177   6.431 -1.3314  0.2091  0.7084
 5491SOL    HW228107   2.307   3.071   6.333  0.2823  1.9589 -0.7831
 5492SOL     OW28108   3.872   3.544   4.503 -0.0838  0.1213  0.0115
 5492SOL    HW128109   3.905   3.622   4.547  0.4556  0.7532 -1.5033
 5492SOL    HW228110   3.828   3.514   4.582  0.7842 -0.2335  0.3588
 5493SOL     OW28111   4.237   4.204   2.924  0.6424 -0.3742  0.0449
 5493SOL    HW128112   4.229   4.257   2.845 -1.1636 -0.1894  0.3636
 5493SOL    HW228113   4.154   4.225   2.967 -0.2946  1.1158 -2.5192
 5494SOL     OW28114   2.002   2.512  17.178 -0.1081  0.5591  0.2846
 5494SOL    HW128115   2.092   2.489  17.153 -0.1966  1.2870 -0.6949
 5494SOL    HW228116   2.031   2.549  17.262 -0.8415 -0.1300  0.8372
 5495SOL     OW28117   0.486   3.630   7.207 -0.0857 -0.0709  0.0673
 5495SOL    HW128118   0.439   3.548   7.224  2.2367 -1.0645  1.7711
 5495SOL    HW228119   0.417   3.696   7.201  1.2791  1.5014  1.7728
 5496SOL     OW28120   1.189   1.775   2.211 -0.1348 -0.2085 -0.6873
 5496SOL    HW128121   1.256   1.793   2.277 -1.9545  0.3530  1.0246
 5496SOL    HW228122   1.190   1.680   2.224  1.1971  0.1661  2.0857
 5497SOL     OW28123   1.358   1.653   6.307 -0.3261  0.3834  0.3858
 5497SOL    HW128124   1.276   1.693   6.277 -1.5358  0.5945  3.9727
 5497SOL    HW228125   1.401   1.732   6.342  1.2602  0.4813 -1.7765
 5498SOL     OW28126   0.909   0.567   6.365 -0.0113 -0.4669 -0.2064
 5498SOL    HW128127   0.949   0.588   6.281 -3.1500  0.9855 -1.3558
 5498SOL    HW228128   0.825   0.530   6.338 -0.8399  1.6295 -0.4869
 5499SOL     OW28129   2.415   2.997   2.292  0.5770 -0.3743  0.3388
 5499SOL    HW128130   2.452   3.040   2.215  2.2052  0.4206  1.5607
 5499SOL    HW228131   2.467   2.919   2.309 -0.0139 -0.9845 -0.6661
 5500SOL     OW28132   4.269   2.443   2.220 -0.4446  0.1332  0.1441
 5500SOL    HW128133   4.355   2.402   2.211 -0.6054 -0.6216  2.1664
 5500SOL    HW228134   4.284   2.502   2.294  1.2839 -1.8208  1.3249
 5501SOL     OW28135   2.009   3.378   1.899  0.2009 -0.2859 -0.2505
 5501SOL    HW128136   2.092   3.413   1.931  1.2016 -1.2020 -1.8227
 5501SOL    HW228137   1.978   3.462   1.865  0.4078  0.3433  1.1210
 5502SOL     OW28138   4.109   3.808   8.848  0.8203  0.2147 -0.0216
 5502SOL    HW128139   4.201   3.832   8.860  0.7198  1.4223 -1.6558
 5502SOL    HW228140   4.076   3.857   8.923 -0.7893  2.0529 -1.9474
 5503SOL     OW28141   2.703   0.130   8.077  0.1934  0.2283 -0.1909
 5503SOL    HW128142   2.676   0.195   8.013  0.5149  0.2276 -0.3273
 5503SOL    HW228143   2.672   0.167   8.160  1.8542  2.4805 -0.5832
 5504SOL     OW28144   1.755   0.809   0.495  0.2120  0.1703 -0.1350
 5504SOL    HW128145   1.748   0.859   0.414 -1.6310 -2.3238 -1.5031
 5504SOL    HW228146   1.682   0.838   0.549 -0.4020  1.3096 -1.6012
 5505SOL     OW28147   2.129   2.965   1.677 -0.0761 -0.2089 -0.3268
 5505SOL    HW128148   2.199   2.987   1.738 -1.7369 -0.8201  1.8199
 5505SOL    HW228149   2.088   3.050   1.661  1.8998  0.6448 -0.8159
 5506SOL     OW28150   3.067   1.395   3.387 -0.2839 -0.0930 -0.1605
 5506SOL    HW128151   3.143   1.375   3.442 -0.8898  1.3685  1.2138
 5506SOL    HW228152   3.063   1.313   3.339  1.6322 -0.5375  0.4588
 5507SOL     OW28153   4.712   0.275   2.584 -0.2180  0.4537 -0.0165
 5507SOL    HW128154   4.630   0.286   2.536 -0.2195 -1.7860 -0.5566
 5507SOL    HW228155   0.028   0.318   2.519 -1.5199  0.3812 -1.1948
 5508SOL     OW28156   3.421   3.353   8.287  0.3617 -0.4841  0.4671
 5508SOL    HW128157   3.456   3.279   8.336  0.6970 -0.1178  0.7749
 5508SOL    HW228158   3.505   3.397   8.303  1.4077 -2.4232  0.3552
 5509SOL     OW28159   2.311   2.748   1.653  0.4387 -0.3250  0.1989
 5509SOL    HW128160   2.307   2.830   1.603 -3.1557 -1.5288 -1.5236
 5509SOL    HW228161   2.284   2.779   1.739  1.8724  1.3202  0.0481
 5510SOL     OW28162   3.519   2.669  10.600 -0.0791  0.3975 -0.3830
 5510SOL    HW128163   3.448   2.604  10.609 -1.3963  2.0133  0.9281
 5510SOL    HW228164   3.491   2.709  10.518  0.3868  2.5374  0.5013
 5511SOL     OW28165   0.087   1.282  16.196  0.0386 -0.6930  0.4243
 5511SOL    HW128166   0.045   1.302  16.279 -0.0754  1.1094 -0.0610
 5511SOL    HW228167   0.051   1.358  16.150  0.9080 -0.2048  0.5406
 5512SOL     OW28168   2.981   0.520   9.785 -0.4404 -0.3478  0.0652
 5512SOL    HW128169   2.974   0.597   9.842 -0.1288 -0.4545  0.2485
 5512SOL    HW228170   3.039   0.465   9.838 -1.0670 -0.2503  0.8490
 5513SOL     OW28171   0.951   0.826   6.936  0.4038 -0.3387  0.4763
 5513SOL    HW128172   0.993   0.801   6.854 -0.7312  0.5708 -0.3743
 5513SOL    HW228173   0.866   0.857   6.907 -0.0163  0.3438  2.4096
 5514SOL     OW28174   2.434   1.546   4.262  0.0413 -0.0064  0.6302
 5514SOL    HW128175   2.356   1.501   4.231  0.1186 -0.4363  1.0518
 5514SOL    HW228176   2.492   1.524   4.189 -0.6400 -1.0665  0.4151
 5515SOL     OW28177   1.532   4.651   6.980 -0.4897 -0.2767  0.4202
 5515SOL    HW128178   1.491   4.599   7.049 -1.2417 -1.0186 -0.5765
 5515SOL    HW228179   1.478   4.729   6.979  0.0532  0.1246  1.9474
 5516SOL     OW28180   2.961   3.146  15.055  0.4792 -0.3517 -0.3301
 5516SOL    HW128181   2.868   3.169  15.046  1.2004  2.9068  0.2993
 5516SOL    HW228182   2.943   3.053  15.064 -1.1434  0.0922  1.0077
 5517SOL     OW28183   4.207   4.485   4.922 -0.6050 -0.1961 -0.0629
 5517SOL    HW128184   4.112   4.498   4.924 -0.6933 -0.9902  0.9902
 5517SOL    HW228185   4.219   4.408   4.866  1.5271  0.5383 -0.6308
 5518SOL     OW28186   4.076   3.119  17.019  0.1969  0.5324  0.1309
 5518SOL    HW128187   4.156   3.072  17.043  0.3513  0.5682 -0.3099
 5518SOL    HW228188   4.122   3.203  17.024  0.4168  0.3979  0.3559
 5519SOL     OW28189   1.069   4.382   5.978 -0.1064 -0.3270  0.1542
 5519SOL    HW128190   0.974   4.395   5.977 -0.1603 -0.3551  3.0435
 5519SOL    HW228191   1.077   4.309   6.040 -0.3042 -0.5412 -0.0756
 5520SOL     OW28192   2.032   2.602  17.452 -0.1495  0.5339 -0.7624
 5520SOL    HW128193   2.004   2.670  17.513 -1.6359 -1.0810  0.3704
 5520SOL    HW228194   2.111   2.580  17.500 -2.0196 -2.0676  1.1639
 5521SOL     OW28195   2.885   0.310   1.814  0.2937 -0.3880 -0.0835
 5521SOL    HW128196   2.860   0.361   1.736  0.9455  0.6052  0.3554
 5521SOL    HW228197   2.801   0.265   1.820  0.8032 -1.2549  0.5497
 5522SOL     OW28198   4.513   3.137   5.343  0.3984  0.5961  0.1194
 5522SOL    HW128199   4.573   3.153   5.270  1.1068  2.6318  1.1426
 5522SOL    HW228200   4.527   3.046   5.370  0.5292  0.7870  0.7059
 5523SOL     OW28201   0.557   2.233  17.722  0.2371 -0.2686 -0.1437
 5523SOL    HW128202   0.612   2.299  17.680  1.5406  0.2317  2.3202
 5523SOL    HW228203   0.613   2.160  17.747  1.7528  0.3988 -1.6138
 5524SOL     OW28204   2.734   2.613   6.648  0.3397 -1.0364 -0.2011
 5524SOL    HW128205   2.740   2.517   6.650 -0.2014 -1.1231 -2.3608
 5524SOL    HW228206   2.812   2.636   6.698  0.1549 -1.1865  0.1565
 5525SOL     OW28207   2.699   3.244   6.290  0.6612  0.4354 -0.3727
 5525SOL    HW128208   2.773   3.296   6.258  0.0414 -0.9198 -3.9896
 5525SOL    HW228209   2.638   3.313   6.315  1.5363  1.0299  0.1135
 5526SOL     OW28210   2.528   0.735   3.626  0.9719  0.1961  0.1217
 5526SOL    HW128211   2.567   0.656   3.590  1.0399  1.0721 -1.7256
 5526SOL    HW228212   2.434   0.718   3.631  0.9241  0.9252  1.7607
 5527SOL     OW28213   0.067   3.829   8.178 -0.5153  0.5246 -0.4675
 5527SOL    HW128214   0.137   3.838   8.243  1.2443 -0.1121 -2.2955
 5527SOL    HW228215   0.081   3.742   8.142  0.1696  0.6936 -0.6078
 5528SOL     OW28216   1.209   3.132   4.464 -0.1550  0.2460 -0.0065
 5528SOL    HW128217   1.252   3.151   4.380  0.9397  0.3501  0.5820
 5528SOL    HW228218   1.116   3.117   4.444  0.0831  0.4181 -1.2473
 5529SOL     OW28219   1.566   3.922   2.847  0.0523 -0.7056 -0.1789
 5529SOL    HW128220   1.570   3.852   2.913 -1.6353  0.4189  1.1170
 5529SOL    HW228221   1.479   3.957   2.866  0.8897  1.1412  0.2353
 5530SOL     OW28222   1.747   1.828   4.007  0.9356  0.3328 -0.3202
 5530SOL    HW128223   1.834   1.790   4.012  1.3420  1.0927 -1.6544
 5530SOL    HW228224   1.767   1.908   3.958 -1.1120  0.6336 -0.6872
 5531SOL     OW28225   2.218   2.796  11.367 -0.2657  0.3017 -0.2111
 5531SOL    HW128226   2.258   2.816  11.451 -0.4598 -0.2881  0.0158
 5531SOL    HW228227   2.164   2.875  11.364 -0.0007  0.5327  1.0405
 5532SOL     OW28228   4.259   3.147  10.056  0.5449  0.8626  0.6154
 5532SOL    HW128229   4.176   3.195  10.059  0.1938  0.3881 -1.9434
 5532SOL    HW228230   4.294   3.203  10.126 -0.0204 -0.8449  2.2908
 5533SOL     OW28231   0.345   3.145  12.410  0.1935  0.4280 -0.5730
 5533SOL    HW128232   0.286   3.217  12.388  1.9445  2.4691  1.4557
 5533SOL    HW228233   0.398   3.176  12.483 -0.4872 -0.6527  0.3913
 5534SOL     OW28234   4.110   4.731   3.888  0.2452  0.7699 -0.1694
 5534SOL    HW128235   4.071   4.657   3.933  0.9050  0.7856  0.4262
 5534SOL    HW228236   4.175   4.690   3.830  0.6568 -2.6408  2.7231
 5535SOL     OW28237   1.924   3.184   7.591 -0.0538  0.0217  0.2200
 5535SOL    HW128238   1.889   3.112   7.643  0.5649 -0.0786  0.5034
 5535SOL    HW228239   1.867   3.184   7.514 -0.8194  0.6797  0.7843
 5536SOL     OW28240   0.451   1.302   3.580 -0.4728  0.6026 -0.0738
 5536SOL    HW128241   0.385   1.274   3.516  0.0396 -1.7165  0.4160
 5536SOL    HW228242   0.445   1.222   3.632  0.3662  2.2214  2.4850
 5537SOL     OW28243   2.094   0.669   8.549  0.0143  0.6404  0.0556
 5537SOL    HW128244   2.042   0.669   8.469  0.0973  2.0454 -0.0081
 5537SOL    HW228245   2.033   0.706   8.612 -1.0415  1.4561 -1.4395
 5538SOL     OW28246   3.359   1.511   5.862 -0.1796 -0.2076 -0.2496
 5538SOL    HW128247   3.300   1.484   5.792  0.0071 -2.4555  0.4494
 5538SOL    HW228248   3.294   1.554   5.918  0.3911 -0.0055  0.2550
 5539SOL     OW28249   0.606   3.344   5.352 -0.4219 -0.1157 -0.3429
 5539SOL    HW128250   0.594   3.250   5.363  0.3940 -0.0155  1.3986
 5539SOL    HW228251   0.637   3.347   5.261  0.6047  0.6313  0.0293
 5540SOL     OW28252   3.864   1.160   5.063 -0.5918 -0.3965 -0.5085
 5540SOL    HW128253   3.880   1.079   5.014 -0.1727 -1.4133  1.2989
 5540SOL    HW228254   3.799   1.142   5.130 -0.4880  1.1973  0.0138
 5541SOL     OW28255   1.447   1.515  14.643  0.0620 -1.1963  0.0542
 5541SOL    HW128256   1.457   1.578  14.571 -0.6815 -2.1625 -0.8955
 5541SOL    HW228257   1.411   1.433  14.609 -0.6329 -0.6150 -0.6188
 5542SOL     OW28258   0.402   0.044   6.727 -0.0160  0.3080  0.4235
 5542SOL    HW128259   0.438   0.020   6.812  1.4936 -0.7275 -0.5016
 5542SOL    HW228260   0.309   0.054   6.747  0.2381 -1.2488  2.3803
 5543SOL     OW28261   0.833   0.798   1.984  0.0723 -0.2144  0.0226
 5543SOL    HW128262   0.747   0.832   1.960  0.5927 -0.1338 -1.7159
 5543SOL    HW228263   0.826   0.805   2.079  1.4535  2.0909 -0.0388
 5544SOL     OW28264   0.145   4.135   6.956  0.3542  0.8557 -0.1646
 5544SOL    HW128265   0.113   4.055   6.915 -0.2100  0.1921  1.6024
 5544SOL    HW228266   0.105   4.199   6.896  0.5129  0.7197 -0.4188
 5545SOL     OW28267   1.591   3.662   8.072  0.7231 -0.4316  0.3391
 5545SOL    HW128268   1.609   3.615   8.154 -0.5763 -2.1650 -0.3448
 5545SOL    HW228269   1.611   3.752   8.097  2.9228 -0.5900 -0.9185
 5546SOL     OW28270   2.400   1.745  12.580 -0.5560 -0.0948 -0.4740
 5546SOL    HW128271   2.374   1.662  12.618  2.8696 -0.1554  1.7410
 5546SOL    HW228272   2.367   1.732  12.491 -0.0269  2.7126 -1.1083
 5547SOL     OW28273   4.238   0.116   7.853 -0.9662  0.2909  0.1940
 5547SOL    HW128274   4.201   0.061   7.922 -2.2777  1.0770  0.1262
 5547SOL    HW228275   4.331   0.118   7.875 -1.1175  1.1576  0.7451
 5548SOL     OW28276   2.498   3.038   8.340  0.9413  0.2915  0.6338
 5548SOL    HW128277   2.578   3.083   8.313  1.9681 -0.5877  2.1503
 5548SOL    HW228278   2.452   3.109   8.384 -0.4468 -0.2520  0.0464
 5549SOL     OW28279   0.792   2.310   8.168 -0.7599 -0.6775  0.3276
 5549SOL    HW128280   0.759   2.350   8.088 -0.4798  0.3340  0.7238
 5549SOL    HW228281   0.860   2.256   8.129 -1.6681 -0.9726 -0.8556
 5550SOL     OW28282   2.791   0.119   5.836 -0.6750 -0.1538 -0.0228
 5550SOL    HW128283   2.849   0.087   5.905  1.3314 -0.1487 -1.6843
 5550SOL    HW228284   2.711   0.070   5.850 -0.5246 -0.4447 -0.1841
 5551SOL     OW28285   2.025   0.534  13.959 -0.2694  0.3931 -0.3516
 5551SOL    HW128286   2.020   0.574  14.046 -1.2103  0.6930 -0.5457
 5551SOL    HW228287   1.932   0.525  13.939 -0.6649 -1.1783  2.2184
 5552SOL     OW28288   4.403   2.575  13.170  0.0865 -0.1103 -0.1788
 5552SOL    HW128289   4.431   2.489  13.142  3.8751 -0.5491  4.8393
 5552SOL    HW228290   4.368   2.554  13.257  0.8887  1.0455  0.4210
 5553SOL     OW28291   4.548   2.603   4.951  0.0676  0.4664  0.0033
 5553SOL    HW128292   4.587   2.552   5.022 -2.2355  1.2807  1.8331
 5553SOL    HW228293   4.620   2.666   4.954  0.8210 -0.3503 -0.8929
 5554SOL     OW28294   2.473   2.980  12.343  0.3975 -0.6725  0.1626
 5554SOL    HW128295   2.450   2.956  12.433 -1.6911 -1.0672 -0.4761
 5554SOL    HW228296   2.550   3.037  12.352 -0.0428 -0.3656  1.9632
 5555SOL     OW28297   0.981   4.437  14.327 -0.0723 -0.1003 -0.0188
 5555SOL    HW128298   0.924   4.465  14.256  0.2432  1.1137  0.2169
 5555SOL    HW228299   0.928   4.434  14.407  0.6572 -1.5452  0.4088
 5556SOL     OW28300   3.365   4.695   6.092  0.2285  0.1061  0.3520
 5556SOL    HW128301   3.302   4.663   6.027  0.3656  0.2351  0.1545
 5556SOL    HW228302   3.437   4.727   6.037  0.0478 -0.6487 -0.3185
 5557SOL     OW28303   3.541   2.074  14.579 -0.0046 -0.3703 -0.1828
 5557SOL    HW128304   3.614   2.106  14.632  1.2077 -0.6190 -1.7206
 5557SOL    HW228305   3.543   2.138  14.508  1.0798  0.0481  0.2141
 5558SOL     OW28306   3.249   2.778  16.204 -0.8981  0.3386  0.2397
 5558SOL    HW128307   3.290   2.846  16.258  0.3298 -1.5479  1.6818
 5558SOL    HW228308   3.331   2.730  16.191 -0.1141  0.8664  3.0700
 5559SOL     OW28309   4.655   3.201   2.786  0.2817 -0.3929  0.1340
 5559SOL    HW128310   4.690   3.177   2.700 -2.1419  3.6247 -1.9578
 5559SOL    HW228311   4.590   3.265   2.758 -0.9666 -1.1443  1.2958
 5560SOL     OW28312   2.518   1.136   2.931  0.1254  0.2525 -0.4515
 5560SOL    HW128313   2.506   1.043   2.910 -0.9144  0.7181 -1.9392
 5560SOL    HW228314   2.581   1.157   2.862 -1.1402  0.4487 -1.5482
 5561SOL     OW28315   1.728   3.144   6.885  0.4454 -0.2635  0.1375
 5561SOL    HW128316   1.670   3.133   6.960  0.4050 -0.9207  0.0136
 5561SOL    HW228317   1.804   3.100   6.924  0.4683  0.0266  0.4226
 5562SOL     OW28318   3.051   1.701   7.041  0.9238  0.2598  0.0561
 5562SOL    HW128319   3.070   1.714   6.948  0.4239  0.8662  0.0415
 5562SOL    HW228320   3.068   1.789   7.074  1.1498 -0.7229  2.5788
 5563SOL     OW28321   0.436   0.703  15.036  0.3535  0.6223 -0.6124
 5563SOL    HW128322   0.420   0.608  15.039 -0.4904  0.8523  1.8475
 5563SOL    HW228323   0.398   0.729  14.952 -0.8624  0.2848 -0.1708
 5564SOL     OW28324   2.249   1.123   9.639  0.1420  0.3773 -0.9012
 5564SOL    HW128325   2.253   1.103   9.733 -0.2514 -0.7902 -1.1365
 5564SOL    HW228326   2.155   1.143   9.634 -0.5528 -2.5443  0.5685
 5565SOL     OW28327   1.496   2.801  14.815  0.3360  0.0059 -0.0924
 5565SOL    HW128328   1.578   2.800  14.765 -0.2745  1.2056 -1.1023
 5565SOL    HW228329   1.525   2.769  14.901  1.7023  1.6911  0.0641
 5566SOL     OW28330   0.886   2.168   1.066  0.6244  0.3549 -0.1526
 5566SOL    HW128331   0.889   2.253   1.109 -1.6636 -0.8353  2.4025
 5566SOL    HW228332   0.929   2.190   0.983  0.4976 -1.4952 -0.7126
 5567SOL     OW28333   3.591   4.707   8.697 -0.7053 -0.2407 -0.2089
 5567SOL    HW128334   3.579   4.684   8.605  1.3962 -0.6946 -0.3548
 5567SOL    HW228335   3.645   0.045   8.696 -3.0007  1.3632 -0.0051
 5568SOL     OW28336   1.658   3.309   9.062  0.2233  0.3029 -0.5515
 5568SOL    HW128337   1.588   3.247   9.042 -0.5682  0.8941  0.3696
 5568SOL    HW228338   1.602   3.375   9.103 -0.2697 -0.3895 -0.1023
 5569SOL     OW28339   3.083   4.686   4.096 -0.1252  0.4187  0.4701
 5569SOL    HW128340   3.099   4.625   4.024  2.1831  0.8843  0.5976
 5569SOL    HW228341   3.008   4.651   4.145  0.3232  0.0382  0.8882
 5570SOL     OW28342   3.794   4.705   6.824  0.2811 -0.7227 -0.0206
 5570SOL    HW128343   3.844   0.040   6.794 -1.3654  0.0291 -0.8566
 5570SOL    HW228344   3.713   0.006   6.853  0.2565 -2.2541  2.1425
 5571SOL     OW28345   1.201   1.909   3.436 -0.0706  0.3377  0.0460
 5571SOL    HW128346   1.152   1.830   3.462  1.2500 -0.1786  0.9775
 5571SOL    HW228347   1.144   1.961   3.380 -1.3597  0.4784  1.4732
 5572SOL     OW28348   0.847   2.119   2.864  0.0778 -0.3037  0.1849
 5572SOL    HW128349   0.825   2.034   2.826 -2.0484 -1.2211  3.4111
 5572SOL    HW228350   0.760   2.158   2.871  0.6802  0.9632  0.4684
 5573SOL     OW28351   2.913   0.196   5.609 -0.5335 -0.3894 -0.3720
 5573SOL    HW128352   2.980   0.128   5.604 -2.6993 -2.4761 -0.8519
 5573SOL    HW228353   2.873   0.174   5.693  3.8731 -1.3754  1.4727
 5574SOL     OW28354   4.484   1.689   4.356 -0.0061 -0.1035  0.4276
 5574SOL    HW128355   4.561   1.702   4.300 -1.6995 -2.1199 -2.3484
 5574SOL    HW228356   4.507   1.607   4.399 -0.2875  0.0774  0.9283
 5575SOL     OW28357   2.395   3.589   4.104  0.1884 -0.0875 -0.3509
 5575SOL    HW128358   2.368   3.558   4.017  1.7125  0.0343 -0.8851
 5575SOL    HW228359   2.489   3.569   4.104  0.0507 -0.7750 -1.1733
 5576SOL     OW28360   0.596   2.782   8.935  0.5950  0.2386 -0.1196
 5576SOL    HW128361   0.682   2.820   8.954  0.3915  0.3346  0.5762
 5576SOL    HW228362   0.528   2.827   8.984 -0.6583  0.1942 -1.8245
 5577SOL     OW28363   3.182   2.684   7.818  0.5001  0.0523 -0.8131
 5577SOL    HW128364   3.276   2.699   7.809  1.0471 -2.0656  1.2456
 5577SOL    HW228365   3.158   2.752   7.880 -1.5150 -0.6795 -0.8061
 5578SOL     OW28366   3.544   0.554   6.021 -0.4566  0.3824  0.1461
 5578SOL    HW128367   3.575   0.468   5.994 -0.6823  0.8560 -1.5967
 5578SOL    HW228368   3.452   0.547   5.997  0.0313 -0.4558 -1.4419
 5579SOL     OW28369   2.390   0.962   9.464 -0.2294  0.1031 -0.3458
 5579SOL    HW128370   2.394   0.986   9.557  0.9119  1.7398 -0.7998
 5579SOL    HW228371   2.304   0.996   9.438  0.6037  1.0877 -1.8395
 5580SOL     OW28372   1.746   4.054   7.857  0.3158  0.0139  0.0319
 5580SOL    HW128373   1.664   4.005   7.866  0.6183 -0.6440 -0.6955
 5580SOL    HW228374   1.811   3.993   7.821  0.0613  0.2758 -0.8865
 5581SOL     OW28375   0.894   1.812   7.993 -0.0056  0.0747  0.6507
 5581SOL    HW128376   0.952   1.774   8.059  1.7927 -0.0945 -1.0230
 5581SOL    HW228377   0.811   1.798   8.039 -0.2263  0.0382  0.2422
 5582SOL     OW28378   0.868   3.865  14.154  0.0738  0.1338  0.2440
 5582SOL    HW128379   0.855   3.939  14.095  0.3160 -0.0829 -0.0796
 5582SOL    HW228380   0.953   3.883  14.195  0.1623 -0.6236  0.4042
 5583SOL     OW28381   0.308   3.346   1.671  1.0291  0.7957 -0.0281
 5583SOL    HW128382   0.260   3.429   1.667 -0.9396 -0.3414  0.4202
 5583SOL    HW228383   0.242   3.277   1.674  0.5577  1.2407 -0.1312
 5584SOL     OW28384   2.829   2.387   1.360  0.4621  0.0853 -0.1631
 5584SOL    HW128385   2.792   2.301   1.378  2.4382 -0.7129  0.1071
 5584SOL    HW228386   2.919   2.358   1.344  0.9115  1.5759 -0.3215
 5585SOL     OW28387   1.159   0.795   9.844 -0.5802  0.3311  0.1007
 5585SOL    HW128388   1.215   0.729   9.885  1.5088  2.2108  0.2742
 5585SOL    HW228389   1.133   0.856   9.914 -1.7311  1.9759 -1.7722
 5586SOL     OW28390   0.358   1.176   9.124  0.1062  0.2162  0.3375
 5586SOL    HW128391   0.300   1.113   9.082  0.7732 -0.0540 -0.1798
 5586SOL    HW228392   0.312   1.204   9.203  1.1714 -2.7660  2.0142
 5587SOL     OW28393   4.123   1.891   8.156  0.0152  0.1562  0.2830
 5587SOL    HW128394   4.181   1.861   8.225  0.9183 -0.2927 -0.6795
 5587SOL    HW228395   4.077   1.966   8.195 -1.2329 -0.1343 -0.6085
 5588SOL     OW28396   2.684   0.116   1.817  0.4135 -0.2599  0.1641
 5588SOL    HW128397   2.610   0.151   1.768  1.1678 -0.1011 -0.8631
 5588SOL    HW228398   2.642   0.035   1.848 -0.4718  0.7448  1.5752
 5589SOL     OW28399   0.008   1.259   6.626 -0.7940  0.1867  0.5145
 5589SOL    HW128400   4.701   1.255   6.709 -0.1863 -0.5566  0.8312
 5589SOL    HW228401   0.002   1.352   6.608  0.7979  0.4742  1.4775
 5590SOL     OW28402   0.137   1.430  15.176 -0.5325 -0.6219  0.0798
 5590SOL    HW128403   0.070   1.458  15.114 -1.1067  0.3797  1.1726
 5590SOL    HW228404   0.213   1.415  15.119 -0.3669  1.0961 -0.1255
 5591SOL     OW28405   1.163   3.927  16.311 -0.0127  0.0864  0.5315
 5591SOL    HW128406   1.200   3.952  16.226  0.9673 -0.3493  0.8348
 5591SOL    HW228407   1.080   3.974  16.302  0.5771  0.9373 -0.3442
 5592SOL     OW28408   2.495   2.385   4.756 -0.0586  0.2253 -0.0177
 5592SOL    HW128409   2.410   2.420   4.730 -0.9352 -0.6727  1.6440
 5592SOL    HW228410   2.485   2.299   4.795 -2.2266  0.2629 -0.4978
 5593SOL     OW28411   1.686   3.473   6.523  0.7595  0.3524  0.4772
 5593SOL    HW128412   1.731   3.512   6.448  0.9023 -0.7357 -0.0097
 5593SOL    HW228413   1.593   3.491   6.510  0.8287 -0.3630 -1.0304
 5594SOL     OW28414   0.329   1.508   8.442  0.2677  0.4763  0.4794
 5594SOL    HW128415   0.252   1.462   8.474  0.1841 -0.1058 -0.5810
 5594SOL    HW228416   0.285   1.586   8.407  0.0620  0.1989  0.1252
 5595SOL     OW28417   0.149   2.670   3.130  0.3201 -0.0972  0.1225
 5595SOL    HW128418   0.128   2.663   3.037  1.0837  1.7871 -0.2046
 5595SOL    HW228419   0.237   2.632   3.128  1.4587  2.6136 -1.5061
 5596SOL     OW28420   2.990   1.004  14.325 -0.1098 -0.2689  0.1139
 5596SOL    HW128421   3.039   0.926  14.297  1.0516  0.1394  1.0336
 5596SOL    HW228422   2.899   0.976  14.313  0.3626 -1.5208 -0.5856
 5597SOL     OW28423   3.879   0.228   9.767 -0.0070 -0.3788  0.2967
 5597SOL    HW128424   3.838   0.185   9.692  1.2748  0.4660 -0.8813
 5597SOL    HW228425   3.802   0.275   9.800  0.1163 -0.4040  0.6163
 5598SOL     OW28426   1.528   2.433   0.747 -0.5025  0.2703  0.2957
 5598SOL    HW128427   1.494   2.521   0.767  0.3605  0.8525 -0.8553
 5598SOL    HW228428   1.459   2.405   0.686 -0.2659  0.6778 -0.1513
 5599SOL     OW28429   0.550   0.887   7.005  0.9957  0.2137  0.2940
 5599SOL    HW128430   0.462   0.892   6.967  1.2086  0.2302 -0.2030
 5599SOL    HW228431   0.598   0.967   6.983 -1.2322  1.8713  1.4072
 5600SOL     OW28432   0.844   2.943   5.063 -0.2291  0.3086  0.4853
 5600SOL    HW128433   0.907   2.966   4.995 -0.1123  1.5715  1.0210
 5600SOL    HW228434   0.857   3.018   5.121 -0.7122 -0.1595  1.1964
 5601SOL     OW28435   2.009   4.472   2.419  0.3503 -0.2007 -0.4603
 5601SOL    HW128436   2.029   4.438   2.331 -2.0197  1.1792 -1.5339
 5601SOL    HW228437   2.045   4.407   2.478 -0.8378 -2.1783 -1.9075
 5602SOL     OW28438   3.496   4.370   0.787  0.5337  0.1962 -0.4879
 5602SOL    HW128439   3.474   4.456   0.823 -1.1996 -0.4152 -0.1023
 5602SOL    HW228440   3.590   4.383   0.781  0.7214 -2.0789 -2.4629
 5603SOL     OW28441   1.717   4.507   3.931  0.2193  0.0653 -0.0615
 5603SOL    HW128442   1.661   4.471   3.862 -0.7336 -1.7565  1.6880
 5603SOL    HW228443   1.804   4.485   3.896 -1.0282  1.6743 -4.2540
 5604SOL     OW28444   2.779   0.463  13.811  0.5459 -0.5490 -0.3614
 5604SOL    HW128445   2.779   0.367  13.813 -1.7819 -0.5684 -0.4168
 5604SOL    HW228446   2.684   0.474  13.808  0.5478  0.4820  3.3964
 5605SOL     OW28447   3.351   2.360   3.578  0.8818 -0.1301 -0.3477
 5605SOL    HW128448   3.444   2.336   3.574  0.4826 -1.5963 -0.9989
 5605SOL    HW228449   3.336   2.394   3.490 -2.3420  0.2795  0.3527
 5606SOL     OW28450   4.437   4.372   8.632 -0.3812 -0.3626 -0.0247
 5606SOL    HW128451   4.421   4.433   8.560  0.9006  0.6129  0.5151
 5606SOL    HW228452   4.520   4.329   8.612  0.2102  1.6875 -2.0626
 5607SOL     OW28453   1.808   3.051  12.742 -0.0546 -0.3587  0.3946
 5607SOL    HW128454   1.859   3.117  12.789  1.3455 -1.3008  0.1972
 5607SOL    HW228455   1.761   3.011  12.815 -1.6252 -0.7061 -0.8011
 5608SOL     OW28456   0.476   4.547   3.907  0.1280 -0.0807 -0.4383
 5608SOL    HW128457   0.427   4.573   3.985 -0.2641  1.7037 -1.2970
 5608SOL    HW228458   0.514   4.472   3.954 -2.4390  0.2953  2.2325
 5609SOL     OW28459   2.771   1.761   9.910  0.0801 -0.2366  0.3585
 5609SOL    HW128460   2.766   1.809   9.828  1.6786 -0.1003  0.3514
 5609SOL    HW228461   2.706   1.693   9.891 -0.8959  0.6252  0.6505
 5610SOL     OW28462   4.713   4.692   3.705 -0.5426  0.3685 -0.0694
 5610SOL    HW128463   0.016   0.018   3.652  0.3613  0.5570  0.9175
 5610SOL    HW228464   0.049   4.637   3.723 -0.0803  0.1246 -2.8337
 5611SOL     OW28465   2.482   0.820   4.920  0.3769 -0.3969  0.0078
 5611SOL    HW128466   2.445   0.895   4.967  1.5531  0.4278 -0.3576
 5611SOL    HW228467   2.571   0.826   4.955  0.3787  1.6666 -0.3182
 5612SOL     OW28468   1.479   4.191  16.591  0.0990  0.1943 -0.2882
 5612SOL    HW128469   1.462   4.102  16.623  2.1153  0.2732  1.0638
 5612SOL    HW228470   1.398   4.197  16.541  0.8273  1.4445 -1.2944
 5613SOL     OW28471   0.717   3.825  15.563  0.5081 -0.1742  0.0011
 5613SOL    HW128472   0.634   3.873  15.563  0.5105 -0.1537  0.8578
 5613SOL    HW228473   0.764   3.881  15.502  0.7795 -0.0346  0.3370
 5614SOL     OW28474   3.797   3.674   7.367  0.4651  0.5047 -0.1638
 5614SOL    HW128475   3.809   3.618   7.290  0.0124 -3.4728  2.6272
 5614SOL    HW228476   3.777   3.611   7.436 -0.1410 -0.7137 -1.4424
 5615SOL     OW28477   3.024   2.951   3.992 -0.6438  0.0347  0.2045
 5615SOL    HW128478   2.929   2.956   3.978 -0.6056 -0.1423 -0.1165
 5615SOL    HW228479   3.037   3.021   4.056 -0.8989 -0.4070  0.7417
 5616SOL     OW28480   1.555   3.352   3.104 -0.3277 -0.8276  0.2188
 5616SOL    HW128481   1.487   3.285   3.114 -1.3474  0.2620  0.5946
 5616SOL    HW228482   1.561   3.355   3.008  1.0562  0.6492  0.3688
 5617SOL     OW28483   2.373   1.044   5.044 -0.4134 -0.0434  0.0735
 5617SOL    HW128484   2.422   1.025   5.123 -1.0534 -0.6213  0.3302
 5617SOL    HW228485   2.381   1.138   5.025  0.9278  0.1859  1.8693
 5618SOL     OW28486   1.349   2.901   5.401  0.0681  0.1973 -0.3691
 5618SOL    HW128487   1.301   2.953   5.337 -1.6426 -0.6774  0.2157
 5618SOL    HW228488   1.394   2.961   5.461 -2.0999 -0.7058  2.1421
 5619SOL     OW28489   1.508   2.583   7.926 -0.3383  0.2872 -0.1160
 5619SOL    HW128490   1.570   2.532   7.977  1.6669  1.1951 -1.6304
 5619SOL    HW228491   1.440   2.515   7.922  1.5276 -1.7639  3.6332
 5620SOL     OW28492   2.639   4.190   1.360 -0.7001  0.2996  0.0228
 5620SOL    HW128493   2.730   4.213   1.379 -0.7247  0.9238 -0.5971
 5620SOL    HW228494   2.597   4.175   1.445 -2.0058  0.3923 -0.6101
 5621SOL     OW28495   3.776   2.339   6.701 -0.1801 -0.4552 -0.3281
 5621SOL    HW128496   3.733   2.287   6.632 -0.2365  1.3242 -1.6377
 5621SOL    HW228497   3.708   2.405   6.716  0.5719  0.6410 -1.7297
 5622SOL     OW28498   0.996   0.275   1.628 -0.4811  0.0031 -0.2423
 5622SOL    HW128499   1.063   0.230   1.577 -1.0956 -2.2496  0.9144
 5622SOL    HW228500   1.025   0.366   1.622  0.7692 -0.2824  1.3231
 5623SOL     OW28501   3.629   0.512   1.896  0.1861  0.0418 -0.4538
 5623SOL    HW128502   3.683   0.455   1.841 -1.0927 -1.4520 -0.1532
 5623SOL    HW228503   3.657   0.594   1.856  0.0317 -0.3622 -1.3977
 5624SOL     OW28504   2.608   2.302  17.106  0.1218  0.1494 -0.1858
 5624SOL    HW128505   2.533   2.358  17.128 -1.1190 -1.6991  0.3194
 5624SOL    HW228506   2.663   2.372  17.071  1.3637 -0.7736 -0.0604
 5625SOL     OW28507   0.470   2.268   0.680 -0.3029 -0.0280 -0.3242
 5625SOL    HW128508   0.379   2.280   0.707 -0.1235  0.8154 -0.0723
 5625SOL    HW228509   0.501   2.198   0.736 -1.6279  1.5039  2.3231
 5626SOL     OW28510   0.232   2.917   6.322 -0.0009  0.5874 -0.3620
 5626SOL    HW128511   0.201   2.864   6.395  2.9436 -0.4129  0.1505
 5626SOL    HW228512   0.175   2.898   6.248  0.4787  1.1703 -0.8806
 5627SOL     OW28513   1.301   4.067  10.699 -0.3605  0.4488 -0.2891
 5627SOL    HW128514   1.280   4.014  10.775  1.1251 -1.6629 -1.3550
 5627SOL    HW228515   1.390   4.046  10.670 -0.5060  1.2645 -1.3372
 5628SOL     OW28516   3.517   4.421   3.728  0.4775 -0.4928  0.1816
 5628SOL    HW128517   3.513   4.470   3.646 -0.1604 -0.0355  0.4792
 5628SOL    HW228518   3.604   4.439   3.763  0.0868  0.5271  0.6429
 5629SOL     OW28519   0.070   2.072  12.057  0.1701  0.2048  0.8518
 5629SOL    HW128520   0.086   1.992  12.108 -0.2351 -1.9961 -2.4698
 5629SOL    HW228521   0.045   2.143  12.116 -1.3084  0.9220 -0.6421
 5630SOL     OW28522   4.740   1.540   6.680  0.1458 -0.6286  0.4115
 5630SOL    HW128523   0.028   1.541   6.772 -0.8861 -2.0412  0.7472
 5630SOL    HW228524   0.055   1.613   6.653 -2.2064  1.6757  1.7376
 5631SOL     OW28525   0.191   3.442  12.605 -0.3634 -0.3311 -0.2979
 5631SOL    HW128526   0.212   3.533  12.584 -0.1990 -0.0948  0.8964
 5631SOL    HW228527   0.211   3.398  12.523  0.2847 -0.3552 -0.1298
 5632SOL     OW28528   3.307   3.537  12.630 -0.6329  0.0795  0.1446
 5632SOL    HW128529   3.247   3.607  12.606 -2.9537 -1.9075  0.0973
 5632SOL    HW228530   3.355   3.532  12.548 -0.9583  1.2585 -0.1188
 5633SOL     OW28531   2.983   4.182   5.222  0.7598  0.2881  0.4879
 5633SOL    HW128532   2.948   4.134   5.147 -0.5412  0.8583  0.7218
 5633SOL    HW228533   3.061   4.128   5.228  0.0752 -0.8077 -0.6015
 5634SOL     OW28534   3.122   3.020  14.778  0.2023  0.3353 -0.0142
 5634SOL    HW128535   3.104   2.976  14.862 -1.1719  1.6248  0.3701
 5634SOL    HW228536   3.154   3.106  14.802 -2.0892  1.4908 -1.1042
 5635SOL     OW28537   4.412   1.084   5.139  0.0111  0.1883  0.3340
 5635SOL    HW128538   4.390   0.999   5.102  0.0262  1.3166 -2.2524
 5635SOL    HW228539   4.393   1.069   5.232  0.0284 -0.7788  0.1817
 5636SOL     OW28540   0.294   2.090   0.023 -0.1589 -0.0730 -0.2455
 5636SOL    HW128541   0.374   2.127  17.746 -1.3660  0.0622 -2.7514
 5636SOL    HW228542   0.252   2.064  17.700 -0.3758 -1.3932  0.2672
 5637SOL     OW28543   4.439   0.542   9.299 -0.3812  0.1934 -0.6982
 5637SOL    HW128544   4.458   0.615   9.359 -3.3174  0.0641  0.3905
 5637SOL    HW228545   4.503   0.475   9.322 -1.0340  0.6312  2.3973
 5638SOL     OW28546   2.478   4.441   1.347  0.5761 -0.2663  0.3441
 5638SOL    HW128547   2.563   4.396   1.344  1.7328  1.8547  1.0057
 5638SOL    HW228548   2.417   4.368   1.349 -0.3262  0.3191 -4.8248
 5639SOL     OW28549   1.761   3.850   3.247 -0.4587  0.1293 -0.3081
 5639SOL    HW128550   1.736   3.776   3.302 -1.3255  1.6473  1.3121
 5639SOL    HW228551   1.788   3.810   3.164  0.0200 -0.0993 -0.0382
 5640SOL     OW28552   1.219   2.208   9.889 -0.5788  0.2445  0.3267
 5640SOL    HW128553   1.272   2.217   9.968  0.3612  0.0075 -0.2825
 5640SOL    HW228554   1.128   2.207   9.920 -0.9528 -0.1252 -0.7723
 5641SOL     OW28555   2.627   4.091  13.154 -0.0382 -0.6953  0.4332
 5641SOL    HW128556   2.566   4.079  13.227 -2.1773 -0.2548 -1.3009
 5641SOL    HW228557   2.684   4.161  13.188  0.5950 -0.8213 -0.3707
 5642SOL     OW28558   2.165   2.074   5.160  0.4606  0.4810 -0.9492
 5642SOL    HW128559   2.090   2.088   5.101  0.2318 -1.8175 -1.1867
 5642SOL    HW228560   2.217   2.018   5.103  1.0191 -0.1189  0.1583
 5643SOL     OW28561   2.787   0.501   6.332 -0.2571 -0.0263  0.3225
 5643SOL    HW128562   2.819   0.523   6.420  0.7501  2.2184 -0.6034
 5643SOL    HW228563   2.819   0.414   6.309 -0.4970 -0.1534  0.4779
 5644SOL     OW28564   3.673   1.791  16.917  0.1522 -0.3066  0.4849
 5644SOL    HW128565   3.767   1.781  16.932  0.1780 -0.0982  0.4713
 5644SOL    HW228566   3.640   1.853  16.982  3.0974  1.0355  0.7399
 5645SOL     OW28567   2.645   2.895   7.232 -0.0061  0.8342  0.1334
 5645SOL    HW128568   2.619   2.838   7.304  2.6281 -0.6136 -0.0521
 5645SOL    HW228569   2.691   2.825   7.185 -0.5847 -0.3520  1.3337
 5646SOL     OW28570   3.788   3.780  14.356 -0.6883  0.0515 -0.1873
 5646SOL    HW128571   3.825   3.703  14.399  0.9442  0.7538 -0.3379
 5646SOL    HW228572   3.759   3.738  14.275  1.9702  2.3489 -2.2915
 5647SOL     OW28573   3.818   0.577   6.452 -0.6265 -0.0635  0.5764
 5647SOL    HW128574   3.817   0.482   6.443 -1.4100  0.0741 -0.8674
 5647SOL    HW228575   3.739   0.610   6.408 -1.3464 -1.1356  1.0455
 5648SOL     OW28576   0.350   2.892  11.942  0.4168 -0.4379 -0.8066
 5648SOL    HW128577   0.364   2.951  12.016  0.4689  0.0122 -1.1710
 5648SOL    HW228578   0.296   2.940  11.879  0.3006  0.4657 -0.0099
 5649SOL     OW28579   3.719   0.085  12.026 -0.7599 -0.0498 -0.0546
 5649SOL    HW128580   3.651   0.020  12.042  1.4136 -1.7742  2.1608
 5649SOL    HW228581   3.793   0.025  12.025 -0.7464  0.0115 -1.5929
 5650SOL     OW28582   2.245   3.054  15.435 -0.1157  0.2123 -0.7392
 5650SOL    HW128583   2.210   2.989  15.373 -0.5418 -0.3196  0.0498
 5650SOL    HW228584   2.282   2.995  15.500  1.1949  3.0775  1.0684
 5651SOL     OW28585   3.978   3.240  11.626 -0.3998  0.0083  0.3665
 5651SOL    HW128586   4.025   3.311  11.669 -0.3327  1.7148 -2.5266
 5651SOL    HW228587   3.974   3.268  11.534  3.4799  1.2103  0.5432
 5652SOL     OW28588   0.029   3.912   6.840  0.3182 -0.3863 -0.0557
 5652SOL    HW128589   4.680   3.916   6.874  0.9270  2.1071  1.2225
 5652SOL    HW228590   0.058   3.848   6.905  1.6531 -0.3678 -0.6280
 5653SOL     OW28591   4.675   0.364   4.832 -0.3183  0.5033  0.2128
 5653SOL    HW128592   4.729   0.440   4.810  2.9099 -1.4905  1.2463
 5653SOL    HW228593   4.591   0.399   4.803 -0.6804 -0.3140  0.2908
 5654SOL     OW28594   3.891   0.650  10.003 -0.5558 -0.3515 -0.0821
 5654SOL    HW128595   3.937   0.593  10.065  0.2831 -0.9420 -1.2419
 5654SOL    HW228596   3.856   0.723  10.052  0.1898 -1.5369  2.2269
 5655SOL     OW28597   0.387   1.484  10.034 -0.1822 -0.2492  0.7814
 5655SOL    HW128598   0.482   1.477  10.047 -0.1886  0.3142  1.1307
 5655SOL    HW228599   0.361   1.527  10.115 -1.8535 -0.9867  0.6204
 5656SOL     OW28600   2.494   2.282   2.530 -0.1915 -0.4386  0.1226
 5656SOL    HW128601   2.484   2.187   2.544  2.3037 -0.7438 -0.1508
 5656SOL    HW228602   2.588   2.284   2.511  0.0655 -1.1440  1.3343
 5657SOL     OW28603   1.458   2.206  16.092 -0.1898 -0.0650 -0.2137
 5657SOL    HW128604   1.484   2.271  16.027 -0.1751 -0.3005 -0.4405
 5657SOL    HW228605   1.402   2.266  16.142  1.3301  0.4437  0.8581
 5658SOL     OW28606   1.804   0.265  16.698  0.8576 -0.2356  0.1774
 5658SOL    HW128607   1.862   0.330  16.737 -1.4785  1.3537  1.0710
 5658SOL    HW228608   1.857   0.242  16.622  0.6339 -2.6109  0.7573
 5659SOL     OW28609   1.415   2.592  13.150 -0.2469 -0.2672  0.6401
 5659SOL    HW128610   1.481   2.551  13.205 -0.4315 -1.9180 -0.3584
 5659SOL    HW228611   1.348   2.525  13.136 -0.4386  0.0009  0.2773
 5660SOL     OW28612   0.035   4.443   2.125 -0.3592 -0.3228  0.1777
 5660SOL    HW128613   4.714   4.386   2.170 -0.9153 -0.2871 -0.5507
 5660SOL    HW228614   0.020   4.530   2.163 -3.6740 -0.4050 -0.9956
 5661SOL     OW28615   4.490   2.929   0.751 -0.2480  0.4144 -0.5256
 5661SOL    HW128616   4.578   2.968   0.749  0.0699 -0.3870 -2.2645
 5661SOL    HW228617   4.501   2.853   0.694 -1.0427 -0.1154  0.0412
 5662SOL     OW28618   4.429   0.107  16.637 -0.5684 -0.0707  0.1476
 5662SOL    HW128619   4.401   0.049  16.566 -3.1306  1.2421  0.0909
 5662SOL    HW228620   4.412   0.194  16.601  0.6143 -0.5564 -1.6489
 5663SOL     OW28621   0.846   2.881  10.471  0.1228 -0.4750  0.0826
 5663SOL    HW128622   0.842   2.786  10.477 -0.0071 -0.4388  0.5824
 5663SOL    HW228623   0.936   2.884  10.438  0.6806 -1.2243  1.5324
 5664SOL     OW28624   4.249   2.214   2.572 -0.4415  0.2428  0.2419
 5664SOL    HW128625   4.338   2.236   2.600 -0.4992 -0.5990  1.0952
 5664SOL    HW228626   4.225   2.301   2.541 -0.6202 -0.5041 -1.6791
 5665SOL     OW28627   2.788   1.021  17.320 -0.2797  0.6591 -0.6374
 5665SOL    HW128628   2.798   1.094  17.259  0.5986 -1.5285 -3.1195
 5665SOL    HW228629   2.849   1.045  17.390 -1.5040 -1.7900  1.2574
 5666SOL     OW28630   3.525   1.207   4.678  0.3362 -0.3221 -0.1567
 5666SOL    HW128631   3.521   1.302   4.676 -1.0848 -0.3812 -0.0919
 5666SOL    HW228632   3.453   1.197   4.616 -0.3675 -1.0504  0.7748
 5667SOL     OW28633   0.029   0.322   9.909 -0.0375 -1.1434 -0.3941
 5667SOL    HW128634   0.112   0.365   9.928 -0.5339 -0.4599  0.2121
 5667SOL    HW228635   0.026   0.261   9.983 -0.9497 -1.4330 -0.6693
 5668SOL     OW28636   2.759   3.222   8.282 -0.1573 -0.1707  0.3344
 5668SOL    HW128637   2.740   3.144   8.230  1.0170 -0.0569 -0.2748
 5668SOL    HW228638   2.842   3.189   8.315  2.0112  3.2415 -1.7088
 5669SOL     OW28639   3.109   4.698   5.309  0.0451  0.3945 -0.1533
 5669SOL    HW128640   3.098   4.607   5.279 -0.1702  0.3689  0.0050
 5669SOL    HW228641   3.172   4.734   5.246  1.3013 -0.3119  0.7127
 5670SOL     OW28642   3.024   2.096   4.506 -0.4110  0.3023  0.2749
 5670SOL    HW128643   3.074   2.104   4.587  0.8193  1.1885 -0.5699
 5670SOL    HW228644   3.070   2.166   4.459 -1.2681  1.0600  0.5568
 5671SOL     OW28645   2.454   1.598  16.260  0.1856 -0.0034 -0.3328
 5671SOL    HW128646   2.448   1.693  16.247  0.5105  0.1813  0.8788
 5671SOL    HW228647   2.474   1.575  16.170 -2.9186  0.8440 -1.2648
 5672SOL     OW28648   3.692   1.876   9.466  0.0332 -0.0692 -0.1261
 5672SOL    HW128649   3.740   1.798   9.439  3.1169  0.7873  2.8346
 5672SOL    HW228650   3.602   1.854   9.445 -0.5970 -1.3509  3.8584
 5673SOL     OW28651   2.680   4.612   1.933  0.0179 -0.5602  0.0278
 5673SOL    HW128652   2.744   4.609   2.004 -0.9760 -2.0686  0.8596
 5673SOL    HW228653   2.736   4.585   1.861  0.6922 -0.5461  0.5469
 5674SOL     OW28654   0.070   2.083   6.960 -0.2164 -0.0555 -0.2383
 5674SOL    HW128655   0.113   2.005   6.996 -1.7676 -0.3714  0.9161
 5674SOL    HW228656   0.125   2.122   6.892 -1.3662 -0.0660 -1.1604
 5675SOL     OW28657   0.885   0.470   5.206 -0.4690 -0.1345 -0.0728
 5675SOL    HW128658   0.894   0.470   5.110 -1.5305  0.4826 -0.1693
 5675SOL    HW228659   0.897   0.376   5.218 -1.6983 -0.3682 -0.7349
 5676SOL     OW28660   3.463   0.933   8.895 -0.1181 -0.0108  0.2423
 5676SOL    HW128661   3.431   0.851   8.933  0.7525 -0.7832 -0.6920
 5676SOL    HW228662   3.387   0.955   8.841  0.2726  0.5360 -0.0813
 5677SOL     OW28663   3.529   0.903   3.571  0.9759  0.4968 -0.7462
 5677SOL    HW128664   3.527   0.829   3.511 -0.5299 -2.3075  2.7513
 5677SOL    HW228665   3.503   0.972   3.509  1.5333  0.1690 -1.3337
 5678SOL     OW28666   2.026   3.674  13.031  0.2246  0.3305  0.4213
 5678SOL    HW128667   2.109   3.626  13.029  1.0803  1.7533  2.6415
 5678SOL    HW228668   1.965   3.602  13.013 -0.0453  0.4495  0.8538
 5679SOL     OW28669   1.011   1.223   1.629 -0.7632  0.0505 -0.0856
 5679SOL    HW128670   1.030   1.139   1.671 -0.6230 -0.1632 -0.5743
 5679SOL    HW228671   0.942   1.206   1.565 -0.8849 -1.4598  0.4373
 5680SOL     OW28672   0.590   3.902   4.990  0.1443  0.0184 -0.1611
 5680SOL    HW128673   0.555   3.970   4.934 -2.6899 -0.7882  0.6398
 5680SOL    HW228674   0.608   3.953   5.069 -0.1030 -0.2562  0.0728
 5681SOL     OW28675   4.280   2.015   0.636 -0.1097  0.5308 -0.0644
 5681SOL    HW128676   4.363   2.021   0.589  0.9618  0.0926  1.7786
 5681SOL    HW228677   4.274   1.929   0.677 -0.5611 -0.1850 -1.6180
 5682SOL     OW28678   1.717   1.512   8.278  0.5284  0.0947 -0.3135
 5682SOL    HW128679   1.752   1.593   8.241 -2.6867  1.0228 -1.3181
 5682SOL    HW228680   1.624   1.526   8.260  0.6844  0.1468 -1.0805
 5683SOL     OW28681   3.860   1.741   3.542 -0.1727  0.2189  0.2900
 5683SOL    HW128682   3.773   1.708   3.523 -0.0625 -0.9844  1.8146
 5683SOL    HW228683   3.865   1.810   3.476  0.7767  0.0708  0.2003
 5684SOL     OW28684   3.634   0.382   3.011  0.0529  0.3452  0.0274
 5684SOL    HW128685   3.588   0.406   3.091 -1.9767 -0.0792 -1.0140
 5684SOL    HW228686   3.703   0.446   3.027  0.8165 -0.2466 -0.8903
 5685SOL     OW28687   3.085   1.025   9.773  0.0729 -0.5159 -0.3560
 5685SOL    HW128688   3.049   0.959   9.832  2.8726 -1.1000  0.6808
 5685SOL    HW228689   3.163   1.050   9.823  0.9131  1.2013 -2.5196
 5686SOL     OW28690   4.297   0.058   1.698 -0.2404 -0.6000  0.7924
 5686SOL    HW128691   4.389   0.060   1.721 -0.0320  2.6974 -0.3486
 5686SOL    HW228692   4.265   4.715   1.733 -0.5309 -0.3785  1.0563
 5687SOL     OW28693   4.596   1.953   2.841  0.3689  0.3211 -0.3746
 5687SOL    HW128694   4.576   1.879   2.785 -2.0479 -0.1468  1.1079
 5687SOL    HW228695   4.511   1.973   2.882  1.4690  1.3867  1.4008
 5688SOL     OW28696   4.596   0.984   4.624  0.0810  0.4155  0.1661
 5688SOL    HW128697   4.641   0.954   4.545  0.3862 -0.5832  0.7227
 5688SOL    HW228698   4.598   1.075   4.592  0.9158  1.2012  2.4390
 5689SOL     OW28699   0.501   0.347  12.597 -0.1317 -0.0488  0.4635
 5689SOL    HW128700   0.490   0.364  12.503 -1.0710 -2.3159  0.1589
 5689SOL    HW228701   0.423   0.298  12.626  0.1845 -1.0442 -0.3745
 5690SOL     OW28702   0.312   0.620   3.393 -0.1945 -0.2368  0.3039
 5690SOL    HW128703   0.313   0.561   3.468  1.1322 -0.3078  0.2337
 5690SOL    HW228704   0.405   0.641   3.386 -0.6870  2.0049  0.4972
 5691SOL     OW28705   4.654   1.471  16.973 -0.8083  0.8028 -0.1565
 5691SOL    HW128706   4.678   1.465  16.880  1.6354 -1.6680  0.6392
 5691SOL    HW228707   4.718   1.421  17.023  1.2931  3.0618 -0.5674
 5692SOL     OW28708   0.327   0.460   5.495  0.4321 -0.3280  0.2897
 5692SOL    HW128709   0.270   0.444   5.570  1.0532  3.5941  1.6522
 5692SOL    HW228710   0.279   0.442   5.414  0.0213  1.3305  0.1601
 5693SOL     OW28711   0.696   4.110   8.427  0.0770  0.0863  0.9903
 5693SOL    HW128712   0.629   4.084   8.491  0.5996  3.1041  2.7759
 5693SOL    HW228713   0.672   4.201   8.412 -0.4261 -0.3728 -1.0124
 5694SOL     OW28714   3.616   4.707   9.665 -0.4979 -0.2198 -0.5662
 5694SOL    HW128715   3.604   4.734   9.574 -2.1460 -0.5410 -0.4348
 5694SOL    HW228716   3.573   4.622   9.668  1.4455 -1.3144 -3.4579
 5695SOL     OW28717   2.012   2.506   5.703  0.4827  0.2408 -0.6314
 5695SOL    HW128718   1.963   2.478   5.626  1.1793  1.0501 -1.3718
 5695SOL    HW228719   1.945   2.566   5.734 -1.6571 -1.9702 -1.0205
 5696SOL     OW28720   0.919   0.305   7.224  0.2083 -0.5370  0.1037
 5696SOL    HW128721   1.006   0.316   7.184  0.6685 -2.6805  0.5297
 5696SOL    HW228722   0.941   0.347   7.307 -1.2238  1.5274 -0.5659
 5697SOL     OW28723   0.475   4.370   9.293  0.0441 -0.2220  0.0419
 5697SOL    HW128724   0.473   4.423   9.372 -1.1596  0.1992 -0.2596
 5697SOL    HW228725   0.564   4.380   9.261 -0.1139  0.6860 -0.1087
 5698SOL     OW28726   2.744   1.773   7.580 -0.0655 -0.1785 -0.1148
 5698SOL    HW128727   2.823   1.800   7.533  1.9586  0.0024  3.3691
 5698SOL    HW228728   2.749   1.678   7.568  1.4866  0.2290 -2.6363
 5699SOL     OW28729   1.925   3.951   3.576 -0.4333  0.6175  0.2383
 5699SOL    HW128730   1.861   3.947   3.647 -0.9301 -1.5548 -0.3132
 5699SOL    HW228731   1.997   4.006   3.607  0.5312 -0.1395 -0.6403
 5700SOL     OW28732   2.035   3.632   6.137  0.1841 -0.0083 -0.7599
 5700SOL    HW128733   2.106   3.568   6.134 -0.4241 -0.8358  1.9021
 5700SOL    HW228734   2.065   3.703   6.194  0.7837  0.4358 -1.6464
 5701SOL     OW28735   1.323   3.002   1.413  0.2876 -0.0022 -0.4666
 5701SOL    HW128736   1.349   2.929   1.356 -0.3995 -1.6717  1.3654
 5701SOL    HW228737   1.231   3.013   1.389  0.4128  1.1132 -0.4320
 5702SOL     OW28738   0.380   3.208   5.813  0.0557 -0.2465  0.1784
 5702SOL    HW128739   0.414   3.120   5.800  1.1176  0.4010 -1.3797
 5702SOL    HW228740   0.462   3.242   5.851  0.6609 -1.4780 -0.0478
 5703SOL     OW28741   3.315   1.653   9.090 -0.0129 -0.3749 -0.9436
 5703SOL    HW128742   3.278   1.735   9.122 -0.7335 -1.4428  0.9785
 5703SOL    HW228743   3.357   1.626   9.172  1.5256 -1.2579 -2.0358
 5704SOL     OW28744   0.181   1.024   8.968 -0.9066  0.5329 -0.0721
 5704SOL    HW128745   0.165   1.107   8.922 -2.0012  1.2780  1.6626
 5704SOL    HW228746   0.107   0.971   8.940  0.8503 -1.3637 -1.1220
 5705SOL     OW28747   0.198   0.243   9.038 -0.0325 -0.0157 -0.5121
 5705SOL    HW128748   0.210   0.320   9.094  0.1799  0.2598 -0.9344
 5705SOL    HW228749   0.185   0.298   8.960 -0.0533 -1.9032 -1.8280
 5706SOL     OW28750   0.778   4.185   9.839  0.2474  0.2975 -0.9750
 5706SOL    HW128751   0.726   4.241   9.781  1.0185  0.6969 -1.2764
 5706SOL    HW228752   0.759   4.094   9.818  0.1722  0.4732 -1.6864
 5707SOL     OW28753   1.080   2.381  14.251 -0.5494  0.1717  0.1344
 5707SOL    HW128754   1.035   2.413  14.329 -0.2316 -1.5470  1.0023
 5707SOL    HW228755   1.046   2.293  14.239  0.6319 -0.3299  0.5215
 5708SOL     OW28756   4.278   4.525   7.831  0.6300 -0.4681 -0.1495
 5708SOL    HW128757   4.183   4.527   7.817 -0.0125 -0.5964  4.2622
 5708SOL    HW228758   4.291   4.509   7.924 -0.7035 -0.5757  0.0120
 5709SOL     OW28759   3.425   3.965   5.473 -0.1643  0.2976 -0.6784
 5709SOL    HW128760   3.379   3.892   5.433  0.3834 -0.4899  0.1393
 5709SOL    HW228761   3.359   4.001   5.532 -1.3303 -0.5976 -1.4673
 5710SOL     OW28762   2.165   2.591   3.287  0.3447  0.3047 -0.0315
 5710SOL    HW128763   2.169   2.673   3.237  0.2274  0.4973  0.2771
 5710SOL    HW228764   2.251   2.552   3.268 -0.2933 -1.5408  0.8643
 5711SOL     OW28765   1.253   1.990   7.466 -0.3659 -0.0309  0.8229
 5711SOL    HW128766   1.234   1.967   7.375  0.2107 -2.2573  1.2648
 5711SOL    HW228767   1.349   1.992   7.472 -0.4781  2.8526  1.4105
 5712SOL     OW28768   0.856   3.198   9.394  0.4680 -0.0286  0.2027
 5712SOL    HW128769   0.834   3.225   9.304 -0.6035  0.8979  0.7398
 5712SOL    HW228770   0.775   3.152   9.417  0.2350 -0.0366 -0.6120
 5713SOL     OW28771   1.916   4.232   2.851 -0.2628 -0.2073 -0.5209
 5713SOL    HW128772   1.975   4.169   2.808  0.1231 -0.1074 -0.1406
 5713SOL    HW228773   1.890   4.183   2.929  0.4282  0.1249 -0.0789
 5714SOL     OW28774   3.866   1.739  11.299 -0.0157 -0.2895 -0.5302
 5714SOL    HW128775   3.784   1.788  11.294 -0.5642 -1.0291  1.3650
 5714SOL    HW228776   3.921   1.791  11.240  0.2295  0.6013  0.4915
 5715SOL     OW28777   2.268   0.221   8.468 -0.0260  0.0234 -0.0546
 5715SOL    HW128778   2.212   0.297   8.449 -0.0329 -0.5105 -2.1960
 5715SOL    HW228779   2.341   0.227   8.405  0.6616 -3.8834  0.3683
 5716SOL     OW28780   1.991   2.566   7.336 -0.2159  0.2169 -0.4233
 5716SOL    HW128781   2.043   2.486   7.342 -0.4351  0.1116  0.0730
 5716SOL    HW228782   2.047   2.630   7.381 -2.2547  1.8869 -0.2286
 5717SOL     OW28783   2.521   2.080  16.911  0.2627  0.8208 -0.4332
 5717SOL    HW128784   2.549   2.145  16.976 -2.2179  0.0521  1.3991
 5717SOL    HW228785   2.578   2.011  16.946 -1.3240 -0.1860  0.1349
 5718SOL     OW28786   2.583   1.237   6.394 -0.2930  0.1396 -0.3908
 5718SOL    HW128787   2.588   1.313   6.453  0.3135 -0.6770  0.6088
 5718SOL    HW228788   2.604   1.163   6.452  0.5172  1.1905  0.6580
 5719SOL     OW28789   4.170   0.951   8.587  0.4326  0.1620 -0.2130
 5719SOL    HW128790   4.195   0.890   8.657  0.2911 -0.5325 -0.7724
 5719SOL    HW228791   4.189   0.895   8.512  1.2429 -1.1525  0.9784
 5720SOL     OW28792   1.773   4.533   5.982  0.3438  0.3492  0.1241
 5720SOL    HW128793   1.794   4.465   6.046  0.6609  2.0431  1.7815
 5720SOL    HW228794   1.679   4.518   5.966  0.1697  1.4109  0.1646
 5721SOL     OW28795   4.393   0.914   9.478 -0.5323  0.3105  0.0633
 5721SOL    HW128796   4.452   0.877   9.413  0.0390  1.3158  0.0186
 5721SOL    HW228797   4.439   0.996   9.495 -0.0552  0.5653 -2.4661
 5722SOL     OW28798   0.090   3.501  15.010  0.3151  0.1428  0.2504
 5722SOL    HW128799   0.102   3.421  15.062 -2.1771 -1.1514 -1.1596
 5722SOL    HW228800   0.129   3.472  14.928 -2.3192  0.5872 -1.1507
 5723SOL     OW28801   2.971   2.485   7.081 -0.4943  0.2710 -0.3610
 5723SOL    HW128802   3.038   2.550   7.059  0.5112 -0.3100  0.9955
 5723SOL    HW228803   3.015   2.430   7.146 -1.0587 -1.1270 -1.1564
 5724SOL     OW28804   3.718   1.011  13.403  0.5020  0.4696  0.0976
 5724SOL    HW128805   3.714   0.991  13.496 -0.0891  0.3974  0.0538
 5724SOL    HW228806   3.813   1.018  13.395  0.2766  0.5555 -2.6903
 5725SOL     OW28807   1.576   2.417   7.669 -0.5053  0.2304 -0.4314
 5725SOL    HW128808   1.633   2.471   7.723  1.0766  0.9909 -2.8935
 5725SOL    HW228809   1.581   2.335   7.719  1.5142 -1.1610 -2.9194
 5726SOL     OW28810   3.542   1.205   8.956  0.2837 -0.0666  0.0504
 5726SOL    HW128811   3.468   1.160   8.999 -0.9871  1.5780 -0.4160
 5726SOL    HW228812   3.490   1.264   8.901 -2.4695 -0.8733  1.7758
 5727SOL     OW28813   2.916   2.097   7.726  0.4910  0.2683  0.4702
 5727SOL    HW128814   2.956   2.174   7.684  1.4814  0.0949  1.0973
 5727SOL    HW228815   2.838   2.070   7.677  1.3715 -1.6300  0.0822
 5728SOL     OW28816   2.104   0.485   5.793 -0.5537  0.3771  0.4438
 5728SOL    HW128817   2.069   0.567   5.759  0.6143  0.6829 -0.0300
 5728SOL    HW228818   2.191   0.479   5.754 -0.3430  2.4186  0.6269
 5729SOL     OW28819   3.488   3.857   4.206  0.2655 -0.1661  0.1222
 5729SOL    HW128820   3.545   3.906   4.146  0.1020  1.6096  1.4200
 5729SOL    HW228821   3.552   3.804   4.252  2.4830  2.7595  0.3954
 5730SOL     OW28822   4.581   2.448   6.470 -0.2880  0.4711 -0.8478
 5730SOL    HW128823   4.492   2.486   6.469 -2.1179 -3.9465 -3.6561
 5730SOL    HW228824   4.612   2.495   6.393 -0.9515 -0.8410 -1.9046
 5731SOL     OW28825   3.853   4.174   1.560 -0.2762  0.2927  0.0927
 5731SOL    HW128826   3.917   4.179   1.488  0.3210  1.9323  0.7209
 5731SOL    HW228827   3.877   4.087   1.591  0.3349  0.7814  1.0048
 5732SOL     OW28828   4.527   1.367   9.751 -0.1834  0.4749  0.4903
 5732SOL    HW128829   4.499   1.288   9.797  1.0103  0.4940  1.2664
 5732SOL    HW228830   4.617   1.335   9.744 -0.7295 -0.7910 -0.7270
 5733SOL     OW28831   4.451   2.141   2.052 -0.2441 -0.0797 -0.2192
 5733SOL    HW128832   4.396   2.085   2.108 -0.9218  0.9852  0.1657
 5733SOL    HW228833   4.384   2.159   1.987  1.6079  1.2035 -1.7717
 5734SOL     OW28834   4.375   3.312   1.842 -0.3096  0.2239  0.4997
 5734SOL    HW128835   4.315   3.291   1.913  0.5398 -2.8300  0.3175
 5734SOL    HW228836   4.343   3.245   1.781 -2.1781  0.5247  1.1605
 5735SOL     OW28837   0.752   2.358  13.861 -0.6119  0.0173 -0.4543
 5735SOL    HW128838   0.746   2.264  13.881  2.0923  0.0587  0.5977
 5735SOL    HW228839   0.768   2.379  13.953 -2.0262  1.5893 -0.5904
 5736SOL     OW28840   1.832   4.365   5.269 -0.3010  0.0146 -0.0258
 5736SOL    HW128841   1.816   4.271   5.282 -1.1326  0.2042  0.3126
 5736SOL    HW228842   1.862   4.366   5.178  0.8859 -2.1787  0.3308
 5737SOL     OW28843   2.988   2.015   8.815  0.1618  0.0328 -0.2007
 5737SOL    HW128844   3.076   2.053   8.807 -0.6237  2.4474  2.8024
 5737SOL    HW228845   2.971   2.009   8.909 -1.6700  0.0644 -0.5380
 5738SOL     OW28846   1.195   4.561   5.644 -0.1183  0.1247 -0.5519
 5738SOL    HW128847   1.151   4.478   5.658 -0.2246  0.4299  0.9482
 5738SOL    HW228848   1.271   4.537   5.591  0.4811  0.3867  0.1789
 5739SOL     OW28849   2.804   0.889   8.618 -0.1644  0.2018  0.5762
 5739SOL    HW128850   2.825   0.862   8.528 -1.3170  0.2240  0.3048
 5739SOL    HW228851   2.787   0.804   8.657  1.5764 -1.2199 -1.7080
 5740SOL     OW28852   3.747   0.779   1.817  0.4233 -0.4494  0.6325
 5740SOL    HW128853   3.776   0.869   1.803  0.9722 -0.5261  1.2587
 5740SOL    HW228854   3.742   0.750   1.726 -0.4294  0.0091  0.5367
 5741SOL     OW28855   1.423   0.187   2.851 -0.4512 -0.3260  0.5037
 5741SOL    HW128856   1.480   0.259   2.879 -0.7796 -1.2466  3.5368
 5741SOL    HW228857   1.459   0.119   2.908  0.6194 -0.2569 -0.0957
 5742SOL     OW28858   0.437   0.726   7.596 -0.4208  0.5180  0.5520
 5742SOL    HW128859   0.514   0.778   7.571 -0.8619  0.6232 -0.6109
 5742SOL    HW228860   0.371   0.743   7.528 -0.5927 -0.6729  0.4214
 5743SOL     OW28861   1.077   4.053   3.304  0.2998  0.2560 -0.0837
 5743SOL    HW128862   1.076   4.146   3.284  0.6568  0.4948  0.9966
 5743SOL    HW228863   0.986   4.023   3.305  0.0407  0.9775 -3.2338
 5744SOL     OW28864   0.846   3.133   6.491 -0.3363  0.1458 -0.1568
 5744SOL    HW128865   0.820   3.069   6.557 -1.8833  1.2618  0.3147
 5744SOL    HW228866   0.761   3.172   6.470 -1.4572 -1.6239  1.0960
 5745SOL     OW28867   3.596   3.471   2.297  0.1220 -0.8686  0.3409
 5745SOL    HW128868   3.674   3.522   2.272  0.8900 -1.6717  1.0804
 5745SOL    HW228869   3.538   3.547   2.294  1.2554  0.0122  0.5803
 5746SOL     OW28870   1.080   0.824  11.759  0.1789 -0.2554 -0.2404
 5746SOL    HW128871   1.157   0.881  11.765  0.2449 -0.1852 -1.6363
 5746SOL    HW228872   1.112   0.748  11.711  0.3661  1.4727 -2.8561
 5747SOL     OW28873   4.057   3.602   0.895 -0.5348  0.1620  0.7237
 5747SOL    HW128874   4.122   3.631   0.960  1.3002 -0.2548 -0.9371
 5747SOL    HW228875   4.047   3.514   0.931 -0.5231 -1.1352 -2.4336
 5748SOL     OW28876   0.486   4.225  15.402  0.5226  0.2608  0.2206
 5748SOL    HW128877   0.568   4.180  15.423 -0.2419 -1.7146 -0.9904
 5748SOL    HW228878   0.511   4.317  15.415  1.0471  0.2762 -0.8469
 5749SOL     OW28879   2.823   3.835   4.825  0.2792  0.1183  0.1914
 5749SOL    HW128880   2.734   3.804   4.844  0.4083 -0.3792 -0.0046
 5749SOL    HW228881   2.852   3.787   4.747 -2.2472  0.8692 -1.2224
 5750SOL     OW28882   0.922   3.258   9.635 -0.1782 -0.4161  0.1665
 5750SOL    HW128883   0.896   3.230   9.547  1.0708 -0.3430 -0.2196
 5750SOL    HW228884   0.855   3.219   9.691  0.3654 -1.9760 -0.2864
 5751SOL     OW28885   2.693   1.479   5.966  0.4092 -0.3413 -0.1966
 5751SOL    HW128886   2.612   1.475   6.016  1.2580 -0.5741  1.1703
 5751SOL    HW228887   2.734   1.402   6.006 -1.5914 -0.9308  0.7194
 5752SOL     OW28888   3.969   4.644  16.324  1.2279  0.3613 -0.4208
 5752SOL    HW128889   3.958   4.727  16.371 -1.3307 -0.3118  0.1417
 5752SOL    HW228890   3.933   4.583  16.388  1.1642 -0.9994 -1.7406
 5753SOL     OW28891   3.763   0.189   8.721  0.2931  0.4378 -0.5562
 5753SOL    HW128892   3.842   0.139   8.741 -0.0258  1.4751  3.3530
 5753SOL    HW228893   3.773   0.212   8.629  2.4091  1.8265  0.0079
 5754SOL     OW28894   1.100   2.885   2.477  0.1823 -0.0145 -0.0518
 5754SOL    HW128895   1.033   2.817   2.473  0.4969 -0.3119 -0.2434
 5754SOL    HW228896   1.171   2.841   2.430  0.1478  0.0752 -0.1893
 5755SOL     OW28897   2.561   3.482   2.758 -0.1636 -0.3626  0.1866
 5755SOL    HW128898   2.525   3.394   2.764 -1.8859  0.1038 -3.2160
 5755SOL    HW228899   2.577   3.491   2.664  1.5846  1.5282  0.6690
 5756SOL     OW28900   4.093   3.674  14.946  0.4825  0.3078 -0.2885
 5756SOL    HW128901   4.128   3.731  14.878  0.5009  0.5004 -0.1188
 5756SOL    HW228902   4.171   3.648  14.994  0.4046  0.6162  0.0045
 5757SOL     OW28903   3.958   1.212   7.074  0.1160 -0.0477  0.1327
 5757SOL    HW128904   3.938   1.125   7.040 -1.6079  0.6332 -0.5910
 5757SOL    HW228905   3.914   1.265   7.007  1.4759  0.3858 -0.4121
 5758SOL     OW28906   2.266   0.830  17.443  0.0064  0.1250 -0.6860
 5758SOL    HW128907   2.181   0.874  17.442  1.5923  3.1967 -0.0314
 5758SOL    HW228908   2.324   0.903  17.463 -2.9282  2.3405 -0.2397
 5759SOL     OW28909   2.662   3.408   8.722 -0.1467  0.3132 -0.3894
 5759SOL    HW128910   2.588   3.353   8.747 -1.7796  2.3676 -0.6634
 5759SOL    HW228911   2.709   3.347   8.665  0.4031 -0.8080  1.2835
 5760SOL     OW28912   3.209   2.707  16.515  0.3923 -0.2361  0.0817
 5760SOL    HW128913   3.259   2.747  16.443  2.0857  0.1832  1.4944
 5760SOL    HW228914   3.246   2.619  16.503 -0.0771 -0.1787 -1.7731
 5761SOL     OW28915   3.809   0.662   9.405  0.1709 -0.2737 -0.0954
 5761SOL    HW128916   3.782   0.570   9.408  2.2954 -0.8578  1.1057
 5761SOL    HW228917   3.893   0.651   9.449 -0.2855  0.5220  0.9662
 5762SOL     OW28918   0.554   3.078   1.535  0.0823 -0.2154 -0.1703
 5762SOL    HW128919   0.579   3.158   1.490 -2.1979  1.2382  1.1319
 5762SOL    HW228920   0.627   3.020   1.513  0.1437 -0.5688  0.9729
 5763SOL     OW28921   4.576   4.330   6.575  0.3707 -0.1920  0.0160
 5763SOL    HW128922   4.489   4.290   6.565 -0.3351  1.4267 -0.2601
 5763SOL    HW228923   4.610   4.342   6.487  1.7145 -1.0600  0.4162
 5764SOL     OW28924   4.371   3.741   1.352 -0.6184 -0.0187 -0.6030
 5764SOL    HW128925   4.320   3.802   1.405  1.1524 -0.2801  1.3733
 5764SOL    HW228926   4.428   3.802   1.305 -0.4988  0.3516  0.0345
 5765SOL     OW28927   3.865   3.839   8.592 -0.5073  0.9606 -0.3822
 5765SOL    HW128928   3.837   3.892   8.667 -0.0917  0.7728 -0.0956
 5765SOL    HW228929   3.942   3.793   8.625 -1.7026 -0.5924  0.2891
 5766SOL     OW28930   0.065   3.286  17.316 -0.3478  0.0164  0.6416
 5766SOL    HW128931   0.010   3.291  17.238  0.8180 -0.0250 -0.1971
 5766SOL    HW228932   0.138   3.239  17.276 -0.0815  2.1893 -1.4226
 5767SOL     OW28933   3.083   1.019   7.500 -0.0160  0.7774  0.3545
 5767SOL    HW128934   3.071   1.056   7.413  0.1053  0.2751  0.1296
 5767SOL    HW228935   3.171   0.984   7.493 -0.2970 -0.1303  1.3739
 5768SOL     OW28936   3.398   4.556   9.330 -0.3079  0.1812 -0.2401
 5768SOL    HW128937   3.340   4.511   9.269 -1.0283  0.8840 -0.0668
 5768SOL    HW228938   3.486   4.538   9.296 -0.3872  0.0890 -0.3951
 5769SOL     OW28939   1.853   0.280   7.839  0.2612 -0.2091 -0.1834
 5769SOL    HW128940   1.799   0.267   7.761  1.0994  2.5692 -1.2364
 5769SOL    HW228941   1.789   0.281   7.911 -0.4783 -1.7277 -0.8196
 5770SOL     OW28942   1.407   0.130   3.707  0.1656 -0.0154  0.4141
 5770SOL    HW128943   1.371   0.075   3.637  3.1536  1.5144 -2.3520
 5770SOL    HW228944   1.494   0.137   3.666  0.1162  1.3109  0.5504
 5771SOL     OW28945   0.177   1.986  16.603  0.2334 -0.4544 -0.1442
 5771SOL    HW128946   0.192   1.946  16.518  1.6091 -0.3229  0.0345
 5771SOL    HW228947   0.253   2.044  16.601 -1.7968  2.2052 -0.4963
 5772SOL     OW28948   4.161   2.443   9.950 -0.0033 -0.4444  0.0472
 5772SOL    HW128949   4.214   2.426  10.028 -0.2055 -0.5827  0.1530
 5772SOL    HW228950   4.074   2.440   9.990 -0.9252  0.4398 -1.8430
 5773SOL     OW28951   1.147   3.678   1.776  0.0181  0.2593 -0.5678
 5773SOL    HW128952   1.184   3.756   1.734  0.7366  1.2566  1.8735
 5773SOL    HW228953   1.070   3.658   1.723  0.6028 -2.3892 -0.4070
 5774SOL     OW28954   1.267   2.130   6.802 -0.2378  0.1047 -0.1679
 5774SOL    HW128955   1.175   2.119   6.778 -0.0322  3.0766 -2.3985
 5774SOL    HW228956   1.308   2.147   6.717 -0.2713  2.8888  0.3655
 5775SOL     OW28957   0.317   2.445  15.469 -0.3133  0.1421  0.1320
 5775SOL    HW128958   0.308   2.376  15.535  0.7101 -0.2133 -0.0941
 5775SOL    HW228959   0.237   2.496  15.479 -0.7641 -0.5063 -0.1726
 5776SOL     OW28960   0.758   0.563   8.127 -0.0573  0.3322 -0.4153
 5776SOL    HW128961   0.780   0.653   8.105 -1.3851  0.9955  0.9886
 5776SOL    HW228962   0.684   0.566   8.066  0.5328  0.4989 -1.1154
 5777SOL     OW28963   3.275   0.945  13.265  0.1547  0.0777 -0.3987
 5777SOL    HW128964   3.261   0.999  13.187 -0.1717  2.6445  1.4261
 5777SOL    HW228965   3.330   1.010  13.309 -1.1758  0.6484  0.4496
 5778SOL     OW28966   3.177   3.842  10.985 -0.6471 -0.7069  0.0067
 5778SOL    HW128967   3.117   3.828  11.059  0.1647 -0.7981  0.6571
 5778SOL    HW228968   3.218   3.756  10.975  0.9288  0.0301  0.2006
 5779SOL     OW28969   1.301   2.248   4.316 -0.2060  0.2505 -0.1689
 5779SOL    HW128970   1.321   2.305   4.241 -0.1143 -0.2840 -0.5527
 5779SOL    HW228971   1.382   2.222   4.359 -0.5236  0.4183  0.5195
 5780SOL     OW28972   2.025   0.624   2.782 -0.1645 -0.7215 -0.8225
 5780SOL    HW128973   1.973   0.548   2.757 -1.0137 -0.0245 -1.1685
 5780SOL    HW228974   2.088   0.623   2.710  0.8058 -0.5563  0.0196
 5781SOL     OW28975   3.821   0.128  10.057  0.1347 -0.1246  0.1611
 5781SOL    HW128976   3.771   0.066  10.003  1.0515 -2.3626  1.8841
 5781SOL    HW228977   3.769   0.135  10.138  0.9398 -2.4784  0.8821
 5782SOL     OW28978   0.550   2.333   4.939  0.2095  0.5132  0.0287
 5782SOL    HW128979   0.590   2.386   4.870 -1.0209 -1.5759 -2.2876
 5782SOL    HW228980   0.477   2.303   4.885  1.6287  0.2940 -1.7836
 5783SOL     OW28981   1.902   0.352  17.559  0.5799  0.2232  0.1695
 5783SOL    HW128982   1.983   0.301  17.551  0.5778 -0.0554  1.7920
 5783SOL    HW228983   1.845   0.286  17.599  1.4919 -1.0420 -0.6306
 5784SOL     OW28984   0.203   3.588   5.604  0.3176  0.3798 -0.3060
 5784SOL    HW128985   0.256   3.658   5.565  1.9032 -0.4528  0.3532
 5784SOL    HW228986   0.121   3.618   5.565 -0.0732  2.3091  1.9772
 5785SOL     OW28987   0.930   0.910   5.896 -0.2270 -0.2276 -0.2408
 5785SOL    HW128988   1.017   0.925   5.932  0.2438 -3.2804 -0.0958
 5785SOL    HW228989   0.908   0.838   5.956 -0.4396 -0.3038 -0.4094
 5786SOL     OW28990   3.067   2.498  13.761 -0.4020  0.2301  0.2637
 5786SOL    HW128991   3.100   2.567  13.818  0.9371 -2.0774  2.2915
 5786SOL    HW228992   3.104   2.538  13.682 -0.9040  1.7133  0.7771
 5787SOL     OW28993   4.435   2.748   4.296  0.3356  0.3772 -0.0128
 5787SOL    HW128994   4.438   2.829   4.246 -0.4435  0.1047 -0.5134
 5787SOL    HW228995   4.462   2.689   4.226 -0.2964  2.4900 -2.0427
 5788SOL     OW28996   0.309   0.081   5.261 -0.2735  0.0593 -0.5514
 5788SOL    HW128997   0.390   0.127   5.238  0.8626 -2.1930 -1.0914
 5788SOL    HW228998   0.301   0.023   5.185  1.2610 -0.2869 -0.4500
 5789SOL     OW28999   0.112   0.339  10.676 -0.3878 -0.0845  0.4294
 5789SOL    HW129000   0.129   0.433  10.677 -1.1849  0.0780 -2.2301
 5789SOL    HW229001   0.200   0.310  10.654 -0.4316  0.0834  0.0335
 5790SOL     OW29002   1.561   4.283   5.981 -0.1622 -0.1617 -0.2266
 5790SOL    HW129003   1.527   4.241   6.060 -0.5598  0.6346  0.0180
 5790SOL    HW229004   1.638   4.226   5.970 -0.5468 -0.7911  0.3343
 5791SOL     OW29005   1.948   0.014   2.596  0.1899  0.7192  0.2161
 5791SOL    HW129006   1.992   0.079   2.542  0.4561  0.2559 -0.1201
 5791SOL    HW229007   1.948   4.674   2.545 -1.2895  0.4565  0.6229
 5792SOL     OW29008   2.991   1.288  16.812  0.5102  0.0965  0.3336
 5792SOL    HW129009   2.980   1.360  16.873  0.3936 -0.1812  0.6375
 5792SOL    HW229010   2.936   1.326  16.743  2.3640 -1.3716 -1.9797
 5793SOL     OW29011   2.321   2.188   7.475  0.1835 -0.6773  0.1809
 5793SOL    HW129012   2.350   2.132   7.403 -0.0900  0.8691 -1.1454
 5793SOL    HW229013   2.402   2.237   7.487  1.8084 -2.7144 -2.4920
 5794SOL     OW29014   3.543   0.489   5.521  0.0044 -0.4878 -0.0713
 5794SOL    HW129015   3.510   0.450   5.439 -0.7073  1.0830 -0.5241
 5794SOL    HW229016   3.582   0.570   5.488 -0.6210 -0.0564  0.2624
 5795SOL     OW29017   2.974   2.971  12.543 -0.6453  0.7975  0.4064
 5795SOL    HW129018   2.913   3.012  12.604  0.5363  1.6261  1.0401
 5795SOL    HW229019   3.001   3.046  12.491  2.3044 -0.2063  0.4866
 5796SOL     OW29020   2.471   3.759   7.142  0.4253 -0.1168 -0.6848
 5796SOL    HW129021   2.397   3.806   7.104  0.8628 -0.5414 -2.0466
 5796SOL    HW229022   2.465   3.669   7.110  0.2111  0.1321 -1.3390
 5797SOL     OW29023   3.706   1.056   8.775 -0.0436 -0.0145 -0.2566
 5797SOL    HW129024   3.668   1.128   8.825 -0.3699 -1.2897  1.3394
 5797SOL    HW229025   3.655   0.985   8.813  0.8910  1.4541  3.6973
 5798SOL     OW29026   3.438   2.485  14.511  0.0368  0.5519 -0.2955
 5798SOL    HW129027   3.514   2.515  14.561  0.5716  1.6651 -1.7766
 5798SOL    HW229028   3.478   2.404  14.478  0.3968  1.8089 -2.9574
 5799SOL     OW29029   4.630   2.796   3.183  0.0792 -0.1198 -0.1587
 5799SOL    HW129030   4.601   2.874   3.136 -0.4525  2.0374  3.6778
 5799SOL    HW229031   4.698   2.759   3.127 -0.0546  1.3405 -1.2816
 5800SOL     OW29032   0.314   2.336   2.855  0.4145  0.2976  0.4846
 5800SOL    HW129033   0.396   2.377   2.883 -0.2277  2.1353 -0.2865
 5800SOL    HW229034   0.283   2.286   2.930  1.0731  1.7845  1.7520
 5801SOL     OW29035   0.305   4.638   4.585  0.4196  0.0718 -0.0892
 5801SOL    HW129036   0.249   4.581   4.534  0.4924 -0.4269  0.3925
 5801SOL    HW229037   0.344   4.586   4.655 -0.4086 -1.4042 -0.7363
 5802SOL     OW29038   2.663   3.588   1.941 -0.1136  0.2150  0.5695
 5802SOL    HW129039   2.624   3.581   1.854 -1.5038  1.3017  1.1206
 5802SOL    HW229040   2.753   3.575   1.910  0.9506  2.2441  2.8466
 5803SOL     OW29041   4.385   3.848  10.232  0.1872 -0.1218 -0.0008
 5803SOL    HW129042   4.435   3.767  10.239  4.2843  2.5898  2.1371
 5803SOL    HW229043   4.295   3.817  10.229 -0.9228  2.9131  1.2587
 5804SOL     OW29044   2.305   0.874   4.178  0.3007 -0.0501 -0.6290
 5804SOL    HW129045   2.222   0.850   4.138  1.0842  0.5628 -2.6106
 5804SOL    HW229046   2.358   0.888   4.100  2.4202 -1.6144  0.5232
 5805SOL     OW29047   0.492   2.230  11.595  0.1760  0.1338  0.0918
 5805SOL    HW129048   0.575   2.265  11.627 -1.1789  1.8209  1.7588
 5805SOL    HW229049   0.504   2.251  11.503 -1.0116 -0.9970 -0.3335
 5806SOL     OW29050   4.037   0.575   8.972 -0.3339  0.4787 -0.4571
 5806SOL    HW129051   4.128   0.573   9.003 -0.8686 -4.2929  0.7441
 5806SOL    HW229052   4.016   0.502   9.030 -1.4797  2.3269  1.4426
 5807SOL     OW29053   0.140   1.988  12.560 -0.3659 -0.0871 -0.0131
 5807SOL    HW129054   0.104   2.054  12.501 -2.0706  0.9294  2.1546
 5807SOL    HW229055   0.216   2.043  12.582  0.6155 -0.5245 -2.2622
 5808SOL     OW29056   2.905   0.016   5.140 -0.1642  0.0967  0.0523
 5808SOL    HW129057   2.973   4.740   5.075 -0.2258  0.6047 -0.1401
 5808SOL    HW229058   2.940   4.681   5.188  0.5583  0.6205  0.3468
 5809SOL     OW29059   0.929   4.449   9.916  0.3691  0.5447  0.4010
 5809SOL    HW129060   1.013   4.417   9.883 -0.7978 -1.7466 -0.3366
 5809SOL    HW229061   0.884   4.365   9.906 -0.0664  0.6586  1.4547
 5810SOL     OW29062   1.081   3.983   5.978 -0.3814  0.4557  0.0151
 5810SOL    HW129063   1.165   4.028   5.964 -0.1782 -0.1232 -0.6854
 5810SOL    HW229064   1.114   3.929   6.049 -0.1888 -0.0650 -0.4691
 5811SOL     OW29065   2.826   2.746   2.296  0.5273  0.0397 -0.1509
 5811SOL    HW129066   2.900   2.695   2.262 -0.2254 -1.2422  0.1206
 5811SOL    HW229067   2.880   2.801   2.353 -0.5799  0.2828  0.6546
 5812SOL     OW29068   2.391   3.266   3.142 -0.3254  0.3567  0.5047
 5812SOL    HW129069   2.330   3.335   3.168 -1.9688 -0.6861 -0.5986
 5812SOL    HW229070   2.399   3.227   3.230  0.5011  0.2572  0.3924
 5813SOL     OW29071   0.378   4.037   9.397  0.1537  0.7024 -0.0988
 5813SOL    HW129072   0.380   4.129   9.372 -0.9632  1.0602  1.1291
 5813SOL    HW229073   0.293   4.013   9.359 -0.7473  3.3891  0.2599
 5814SOL     OW29074   3.581   3.614   4.023  0.0392 -0.4517 -0.0361
 5814SOL    HW129075   3.527   3.673   4.074  1.2915  0.3874  0.3094
 5814SOL    HW229076   3.515   3.581   3.961  0.9356 -0.2678 -1.0950
 5815SOL     OW29077   3.895   1.710   8.399 -0.0742  0.4801  0.4757
 5815SOL    HW129078   3.802   1.690   8.386 -0.7017  2.7164  1.5998
 5815SOL    HW229079   3.923   1.695   8.308  0.3434 -1.4289  0.9133
 5816SOL     OW29080   1.531   2.137   0.238 -0.1380 -0.2559  0.2215
 5816SOL    HW129081   1.582   2.218   0.234 -3.1509  1.7147  2.0522
 5816SOL    HW229082   1.601   2.074   0.253 -1.6568 -2.3845 -1.6096
 5817SOL     OW29083   1.624   1.139   4.625  0.1418  0.0046 -0.2248
 5817SOL    HW129084   1.558   1.205   4.644 -2.2599 -2.3904 -0.1499
 5817SOL    HW229085   1.627   1.097   4.711 -0.1219  0.3030 -0.0742
 5818SOL     OW29086   4.263   2.183   7.447 -0.1981  0.1993 -0.7302
 5818SOL    HW129087   4.316   2.125   7.392  0.5728  1.1840 -1.0267
 5818SOL    HW229088   4.312   2.174   7.529 -0.1423  0.9395 -0.6787
 5819SOL     OW29089   3.940   2.894  10.384 -0.2606  0.1069 -0.1485
 5819SOL    HW129090   3.953   2.989  10.384 -0.1536  0.0894 -2.1562
 5819SOL    HW229091   3.849   2.896  10.412  0.1741  0.4231  1.2176
 5820SOL     OW29092   1.497   2.349   8.292  0.4353 -0.3322  0.0423
 5820SOL    HW129093   1.414   2.394   8.308  0.1735  0.1043 -2.4702
 5820SOL    HW229094   1.533   2.359   8.380  0.0808  1.0689  0.0234
 5821SOL     OW29095   2.631   0.051   0.939  0.3817 -0.0156 -0.1870
 5821SOL    HW129096   2.719   0.064   0.975  0.7616 -0.7207 -0.8506
 5821SOL    HW229097   2.619   0.138   0.902  1.6174  0.0203 -0.4886
 5822SOL     OW29098   1.597   4.230  10.074  0.1034 -0.2497 -0.2172
 5822SOL    HW129099   1.681   4.275  10.069  0.0057 -0.0167  0.2256
 5822SOL    HW229100   1.571   4.237  10.166 -0.8853  3.0323 -0.7469
 5823SOL     OW29101   1.113   1.686  10.323  0.3835 -0.0598  0.2470
 5823SOL    HW129102   1.115   1.682  10.228  1.9077  2.8650  0.1473
 5823SOL    HW229103   1.022   1.659  10.332 -0.0122  0.9798 -0.6344
 5824SOL     OW29104   3.717   0.750   9.720 -0.2374  0.2673  0.4312
 5824SOL    HW129105   3.797   0.801   9.718  1.4777 -2.3383  1.8611
 5824SOL    HW229106   3.750   0.669   9.760 -0.3377  1.2204  2.4197
 5825SOL     OW29107   1.517   0.915   0.582  0.2476 -0.1439  0.3304
 5825SOL    HW129108   1.443   0.861   0.556  0.0353  0.2476  0.1221
 5825SOL    HW229109   1.530   0.955   0.496  1.4775 -0.2113  0.4858
 5826SOL     OW29110   2.506   1.654   8.213  0.4649  0.3076 -0.4289
 5826SOL    HW129111   2.424   1.684   8.175 -0.5815  0.3086  1.8643
 5826SOL    HW229112   2.475   1.580   8.264  1.0373  0.7731  0.6034
 5827SOL     OW29113   1.395   0.693   4.838 -0.5205  0.0360 -0.2669
 5827SOL    HW129114   1.420   0.601   4.831 -1.9073 -0.3331 -0.4484
 5827SOL    HW229115   1.474   0.734   4.804  0.6725 -2.1381 -0.0954
 5828SOL     OW29116   2.602   3.331   9.120 -0.6684 -0.5018  0.8334
 5828SOL    HW129117   2.528   3.273   9.100  0.9039 -1.8220 -1.1590
 5828SOL    HW229118   2.565   3.417   9.099 -2.2894 -1.2466  0.5925
 5829SOL     OW29119   0.718   3.117   7.000 -0.3759 -0.1330 -0.3503
 5829SOL    HW129120   0.729   3.143   6.909  1.6276 -0.1830 -0.1119
 5829SOL    HW229121   0.812   3.103   7.013  0.1171  1.3559 -2.4434
 5830SOL     OW29122   3.025   2.596  15.424  0.0668 -0.4761 -0.8038
 5830SOL    HW129123   3.016   2.587  15.519 -0.1035  1.2284 -0.6647
 5830SOL    HW229124   3.116   2.563  15.425  0.1588 -0.2181 -0.7056
 5831SOL     OW29125   3.371   3.216   8.052  0.1806 -0.1981 -0.5939
 5831SOL    HW129126   3.395   3.263   8.132  0.4440 -0.4222 -0.5417
 5831SOL    HW229127   3.376   3.124   8.076 -2.0072  0.4083  2.1725
 5832SOL     OW29128   0.779   0.018   8.505  0.0022 -0.3184 -0.2635
 5832SOL    HW129129   0.793   4.736   8.413  1.1180 -0.3701 -0.0815
 5832SOL    HW229130   0.717   4.687   8.517 -2.1770  1.2301 -2.2746
 5833SOL     OW29131   4.654   0.995   9.402  0.0723  0.0164 -0.3548
 5833SOL    HW129132   4.708   0.924   9.365 -1.9366 -0.6866 -1.9511
 5833SOL    HW229133   4.695   1.005   9.488 -0.5948 -0.1026 -0.0283
 5834SOL     OW29134   2.764   0.652   2.472 -0.3522  0.3339 -0.0182
 5834SOL    HW129135   2.742   0.574   2.523  0.1544 -0.6215 -1.2485
 5834SOL    HW229136   2.801   0.610   2.394 -0.4474 -1.1487  0.7347
 5835SOL     OW29137   1.407   1.304  14.121  0.0584  0.1823 -0.7823
 5835SOL    HW129138   1.426   1.332  14.032  0.6324  0.9601 -0.4148
 5835SOL    HW229139   1.346   1.234  14.099 -0.4136  0.5605 -0.6740
 5836SOL     OW29140   1.769   4.209   8.409  0.3677  0.3061 -0.2488
 5836SOL    HW129141   1.779   4.202   8.504 -3.6124  3.9366  0.4260
 5836SOL    HW229142   1.748   4.118   8.387  0.9402  0.3161 -0.8376
 5837SOL     OW29143   0.898   2.954  15.423  0.7986  0.0836  0.2702
 5837SOL    HW129144   0.877   2.895  15.350 -0.6134  0.7679  0.1317
 5837SOL    HW229145   0.815   2.952  15.471  0.1108 -1.4149 -0.9425
 5838SOL     OW29146   1.043   2.963  16.634  0.5339 -0.1487 -0.3956
 5838SOL    HW129147   0.967   2.981  16.579  1.7110 -1.6098 -2.5104
 5838SOL    HW229148   1.060   2.885  16.581  0.7467  0.8781 -1.8524
 5839SOL     OW29149   2.781   0.341   9.731 -0.5151  0.5238  0.0984
 5839SOL    HW129150   2.711   0.405   9.740 -0.0398  0.9893  0.5092
 5839SOL    HW229151   2.861   0.392   9.746 -0.6835  0.3420  1.6223
 5840SOL     OW29152   3.145   0.960   8.412  0.5109 -0.3391  0.2975
 5840SOL    HW129153   3.183   0.920   8.491  0.8467  0.4125  0.5162
 5840SOL    HW229154   3.219   1.013   8.382  1.5950 -2.9699 -1.6155
 5841SOL     OW29155   0.424   1.581  17.295  0.4642  0.0165  0.6647
 5841SOL    HW129156   0.329   1.590  17.289  0.2316 -2.5788  0.2533
 5841SOL    HW229157   0.443   1.663  17.340 -1.2048  0.8856 -0.2079
 5842SOL     OW29158   1.073   2.396  12.002 -0.5424  0.5394 -0.5715
 5842SOL    HW129159   1.116   2.378  12.085  1.9848  0.6153 -1.8711
 5842SOL    HW229160   1.062   2.491  11.998 -0.6762  0.5729  0.4882
 5843SOL     OW29161   2.665   0.581   5.405 -0.0667  0.0933 -0.0367
 5843SOL    HW129162   2.737   0.559   5.346 -0.2991  1.1587 -0.7120
 5843SOL    HW229163   2.661   0.513   5.473 -0.4150  0.4679  0.3144
 5844SOL     OW29164   0.236   4.285   9.308  0.2529 -0.1338 -0.5421
 5844SOL    HW129165   0.313   4.340   9.301 -0.2156  0.5025 -0.7521
 5844SOL    HW229166   0.170   4.355   9.301 -1.4223 -1.5898  0.6956
 5845SOL     OW29167   4.118   0.931  10.037  0.2531  0.1418 -0.0722
 5845SOL    HW129168   4.094   0.891  10.120 -3.5057  0.5827 -0.9536
 5845SOL    HW229169   4.161   1.008  10.075 -2.2054  2.5027 -2.0541
 5846SOL     OW29170   3.307   4.740   2.527  0.1721 -0.5516 -0.4117
 5846SOL    HW129171   3.304   0.066   2.459 -1.1310  2.6523  2.8122
 5846SOL    HW229172   3.391   4.695   2.515  0.9068  1.4562 -2.7239
 5847SOL     OW29173   0.925   0.569  14.701 -0.0154  0.3563  0.3151
 5847SOL    HW129174   0.948   0.563  14.609 -1.1832  2.1501 -0.1016
 5847SOL    HW229175   0.970   0.491  14.734  0.9689  0.5251 -0.6284
 5848SOL     OW29176   3.997   0.140   5.870  0.7126 -0.4577 -0.1638
 5848SOL    HW129177   3.950   0.061   5.844 -1.1711  0.7865 -0.5763
 5848SOL    HW229178   3.939   0.208   5.835  1.2062 -0.1418 -0.3648
 5849SOL     OW29179   3.667   4.136   6.506 -0.0661 -0.4983 -0.1969
 5849SOL    HW129180   3.606   4.188   6.455  0.0026 -1.2152 -1.0185
 5849SOL    HW229181   3.681   4.063   6.445  0.0515  0.4236 -1.2624
 5850SOL     OW29182   3.697   4.378   7.490  0.0307 -0.4734  0.6705
 5850SOL    HW129183   3.782   4.411   7.520  0.5526  0.7616 -2.0779
 5850SOL    HW229184   3.646   4.407   7.565 -0.8820 -1.7353  0.5281
 5851SOL     OW29185   3.416   3.092  10.360  0.1855 -0.9650  0.0797
 5851SOL    HW129186   3.423   3.071  10.267 -2.3777 -4.1123  0.5790
 5851SOL    HW229187   3.476   3.024  10.390  1.4545  0.4287  0.6993
 5852SOL     OW29188   3.165   0.275   4.899  0.6666 -0.1035  0.1490
 5852SOL    HW129189   3.095   0.287   4.835  1.0281 -0.4118 -0.3124
 5852SOL    HW229190   3.205   0.195   4.864  3.3185  1.2288  0.1046
 5853SOL     OW29191   2.684   3.550   5.655 -0.6362  0.4177  0.3904
 5853SOL    HW129192   2.713   3.637   5.684  2.1153 -0.8360  1.3785
 5853SOL    HW229193   2.594   3.583   5.645  0.0425  1.4887 -2.2767
 5854SOL     OW29194   3.879   3.912  14.739  0.1070  0.4834  0.0175
 5854SOL    HW129195   3.855   3.992  14.692 -2.7498 -1.3158 -1.6116
 5854SOL    HW229196   3.816   3.855  14.694 -2.8359  2.1625  2.0387
 5855SOL     OW29197   1.391   0.278  13.071 -0.1000  0.0236  0.0953
 5855SOL    HW129198   1.408   0.299  13.162  2.1179  2.1010 -0.7980
 5855SOL    HW229199   1.365   0.186  13.060  1.8888 -0.4205 -0.9399
 5856SOL     OW29200   0.460   4.228   1.784 -0.3983 -0.3595  0.5634
 5856SOL    HW129201   0.367   4.247   1.797 -0.5712 -0.1714 -0.9504
 5856SOL    HW229202   0.499   4.279   1.855 -1.0636 -0.5999  1.0986
 5857SOL     OW29203   3.398   1.818   4.225 -0.1813 -0.5588 -0.4695
 5857SOL    HW129204   3.326   1.757   4.210 -1.4210  0.6554  0.5478
 5857SOL    HW229205   3.481   1.773   4.206  1.2777  0.6270  2.9364
 5858SOL     OW29206   1.385   0.442   6.279 -0.2997 -0.3176  0.4471
 5858SOL    HW129207   1.380   0.469   6.187  1.8043 -1.3535  0.0242
 5858SOL    HW229208   1.427   0.357   6.269  0.9678  0.5479 -1.6722
 5859SOL     OW29209   0.942   3.371   3.789  0.3035  0.1543 -0.2351
 5859SOL    HW129210   0.922   3.278   3.796  1.4343 -0.0197  0.5314
 5859SOL    HW229211   1.000   3.361   3.864 -0.7338  1.7446  0.8016
 5860SOL     OW29212   2.647   3.838   3.679  0.7334 -0.4069 -0.4705
 5860SOL    HW129213   2.561   3.851   3.637  1.0584 -0.6382 -1.2038
 5860SOL    HW229214   2.697   3.906   3.635  1.0668  0.2165  0.8729
 5861SOL     OW29215   1.031   3.649   2.458  0.3132 -0.8931 -0.4244
 5861SOL    HW129216   0.954   3.603   2.493  0.6048  0.2658  1.7589
 5861SOL    HW229217   1.084   3.573   2.434  1.1191 -0.9300  1.5052
 5862SOL     OW29218   3.913   3.756   5.119  0.1969  0.7133 -0.2281
 5862SOL    HW129219   3.867   3.820   5.173  1.2746  0.0591  1.4808
 5862SOL    HW229220   3.866   3.760   5.036  0.8910 -1.1184 -0.7131
 5863SOL     OW29221   2.915   0.256   3.569 -0.0511 -0.1201  1.2282
 5863SOL    HW129222   2.915   0.228   3.478  1.9180  1.4051  0.7606
 5863SOL    HW229223   2.930   0.350   3.558  1.1360 -0.4685 -0.0510
 5864SOL     OW29224   0.607   1.626   3.372 -0.1840 -0.3954  0.3342
 5864SOL    HW129225   0.599   1.574   3.292  0.9732 -0.8031  0.4758
 5864SOL    HW229226   0.594   1.715   3.340  2.5987  0.2622  1.0331
 5865SOL     OW29227   0.084   1.903   4.933 -0.4048 -0.0473  0.0666
 5865SOL    HW129228   0.105   1.846   5.008 -0.0885  0.2852  0.2326
 5865SOL    HW229229   0.171   1.936   4.910 -0.3376 -0.9348 -0.9734
 5866SOL     OW29230   1.722   3.497   0.376  0.2053 -0.4410 -0.0513
 5866SOL    HW129231   1.694   3.584   0.405 -2.6653 -1.2553 -0.3737
 5866SOL    HW229232   1.637   3.455   0.358  0.6686 -1.4175  0.0437
 5867SOL     OW29233   0.649   0.106   4.171 -0.0558 -0.5449 -0.3679
 5867SOL    HW129234   0.642   0.015   4.140 -0.2918 -0.8244  0.4944
 5867SOL    HW229235   0.595   0.093   4.249 -1.6967 -2.2522 -1.7785
 5868SOL     OW29236   4.111   3.433   1.786 -0.1196 -0.0070  0.0314
 5868SOL    HW129237   4.159   3.463   1.708 -1.7225 -0.0415 -0.9593
 5868SOL    HW229238   4.035   3.385   1.753 -0.4392  0.2980  0.3273
 5869SOL     OW29239   2.706   1.130  14.299 -0.1355 -0.3135  0.3787
 5869SOL    HW129240   2.761   1.193  14.253 -2.2100  1.3966  0.2419
 5869SOL    HW229241   2.625   1.157  14.256  0.0656 -1.4498 -0.7485
 5870SOL     OW29242   4.660   0.384   7.389  0.1245 -0.0745 -0.0202
 5870SOL    HW129243   4.630   0.300   7.354 -1.2388  0.6869 -0.6661
 5870SOL    HW229244   4.737   0.361   7.441  0.4637 -1.3488 -1.0786
 5871SOL     OW29245   4.246   2.465   6.214  0.4067 -0.2547  0.0088
 5871SOL    HW129246   4.301   2.526   6.166 -0.2787 -0.6427 -1.2700
 5871SOL    HW229247   4.226   2.522   6.289  1.5766 -3.0617  2.4582
 5872SOL     OW29248   3.059   3.930   5.405 -0.8643  0.0299 -0.7773
 5872SOL    HW129249   3.112   3.933   5.325  1.8679  1.2081  1.0796
 5872SOL    HW229250   2.988   3.872   5.380 -0.1715 -0.7509 -0.9145
 5873SOL     OW29251   3.624   2.527  12.742 -0.1570 -0.1758 -0.2237
 5873SOL    HW129252   3.584   2.497  12.661  1.2832 -1.5291 -0.4360
 5873SOL    HW229253   3.634   2.439  12.778 -1.4796  1.0991  3.3046
 5874SOL     OW29254   0.989   4.483   6.994 -0.0936 -0.1631 -0.4029
 5874SOL    HW129255   1.025   4.483   6.905  1.4735 -0.6340  0.2396
 5874SOL    HW229256   0.999   4.579   6.992  0.0195 -0.1704 -0.1147
 5875SOL     OW29257   1.270   1.600  15.238  0.0188  0.6540 -0.1718
 5875SOL    HW129258   1.361   1.600  15.210  1.1410  1.5338  3.3921
 5875SOL    HW229259   1.277   1.559  15.324 -0.4954  0.4677 -0.2225
 5876SOL     OW29260   2.465   3.547  13.000 -0.0406 -0.1989  0.2424
 5876SOL    HW129261   2.442   3.617  13.061 -1.4085 -0.1853 -0.2948
 5876SOL    HW229262   2.561   3.552  13.005 -0.0734  0.4464  0.2667
 5877SOL     OW29263   1.376   2.364  14.882  0.1231 -0.1783  0.2299
 5877SOL    HW129264   1.330   2.412  14.951  1.9866  0.0854  1.2932
 5877SOL    HW229265   1.307   2.325  14.828  2.3236 -1.0828 -1.9455
 5878SOL     OW29266   0.079   1.042   6.443 -0.0991  0.3442  0.1532
 5878SOL    HW129267   0.083   1.115   6.505  1.4646  1.2289 -0.9899
 5878SOL    HW229268   0.001   1.006   6.484 -1.3858  1.8220 -0.9881
 5879SOL     OW29269   2.570   4.179  14.523 -0.2170  0.6580 -0.2427
 5879SOL    HW129270   2.505   4.132  14.575  0.6718  0.3669  0.5939
 5879SOL    HW229271   2.585   4.114  14.454  4.1372  1.6900 -0.2477
 5880SOL     OW29272   3.750   3.283   2.003 -0.1605 -0.2496 -0.0972
 5880SOL    HW129273   3.800   3.258   1.925  1.6586 -0.6298  1.2037
 5880SOL    HW229274   3.694   3.352   1.967  1.8932  1.4088 -0.1017
 5881SOL     OW29275   0.217   2.240   7.347 -0.1447  0.1015 -0.5585
 5881SOL    HW129276   0.209   2.298   7.423 -2.3285 -0.5372 -0.2840
 5881SOL    HW229277   0.125   2.225   7.325  0.3073 -3.1273 -0.2681
 5882SOL     OW29278   1.774   2.739   4.893  0.0609 -0.2754 -0.0590
 5882SOL    HW129279   1.844   2.740   4.827 -0.5904  0.6119 -0.7323
 5882SOL    HW229280   1.713   2.673   4.861  0.2486  0.2746 -1.5570
 5883SOL     OW29281   0.163   2.014   6.630 -0.4228  0.6737 -1.1709
 5883SOL    HW129282   0.242   2.049   6.671 -1.5829 -0.2644  1.8518
 5883SOL    HW229283   0.142   2.068   6.554 -1.1808 -0.0664 -1.4903
 5884SOL     OW29284   0.989   2.850  11.059  0.1056  0.0573  0.0401
 5884SOL    HW129285   0.977   2.869  11.152 -0.7294 -1.1135  0.1557
 5884SOL    HW229286   1.027   2.927  11.015  0.4752 -1.4844 -2.3211
 5885SOL     OW29287   3.169   2.242  14.649 -0.0983 -0.3746 -0.1434
 5885SOL    HW129288   3.131   2.166  14.606 -1.2183 -0.0147  0.2021
 5885SOL    HW229289   3.155   2.217  14.740 -3.3821  2.9181  0.2620
 5886SOL     OW29290   2.340   4.694   8.980  0.3774  0.1948  0.1884
 5886SOL    HW129291   2.387   4.649   8.910 -1.4804 -1.8250  0.2472
 5886SOL    HW229292   2.252   4.700   8.942 -0.2779  0.0895  1.6655
 5887SOL     OW29293   1.651   0.358   5.114  0.4438 -0.1104  0.0183
 5887SOL    HW129294   1.676   0.287   5.173 -3.3205 -1.7493 -0.3791
 5887SOL    HW229295   1.656   0.316   5.029 -1.4607 -3.2218  1.4323
 5888SOL     OW29296   0.804   3.452   2.313  0.1895  0.7334 -0.7530
 5888SOL    HW129297   0.807   3.403   2.231 -1.8567 -1.8268  0.7301
 5888SOL    HW229298   0.822   3.377   2.369 -0.8384  0.8251 -0.3131
 5889SOL     OW29299   4.240   1.890  15.690  0.6020 -0.6428 -0.3331
 5889SOL    HW129300   4.186   1.968  15.674  0.0583 -1.1779 -1.0883
 5889SOL    HW229301   4.316   1.927  15.733  0.4257 -2.0533  1.1693
 5890SOL     OW29302   4.409   3.485   1.266 -0.1044 -0.4366 -0.2862
 5890SOL    HW129303   4.414   3.577   1.291  0.8894 -0.6781  0.3734
 5890SOL    HW229304   4.388   3.503   1.174 -1.7134 -1.4832 -0.1273
 5891SOL     OW29305   1.090   3.287   1.085 -0.6649 -0.3382  0.0260
 5891SOL    HW129306   1.179   3.306   1.056 -0.6870  1.8199  1.4380
 5891SOL    HW229307   1.054   3.372   1.108  1.0078  0.6910 -1.1153
 5892SOL     OW29308   1.387   4.107   6.922  0.5908  0.3506 -0.0967
 5892SOL    HW129309   1.445   4.143   6.990 -2.2314 -2.0024  3.5015
 5892SOL    HW229310   1.444   4.045   6.877  0.7747  0.5849 -0.1903
 5893SOL     OW29311   1.300   0.690   8.306 -0.5184  0.0549 -0.2051
 5893SOL    HW129312   1.380   0.740   8.318 -0.6277  0.4703 -1.1548
 5893SOL    HW229313   1.279   0.683   8.399 -0.0052 -2.4160 -0.2778
 5894SOL     OW29314   0.922   0.754   6.571 -0.1552  0.3411  0.1435
 5894SOL    HW129315   0.893   0.827   6.516  0.6014  1.7441  1.6025
 5894SOL    HW229316   0.921   0.682   6.507  2.7947  0.6393 -0.2413
 5895SOL     OW29317   0.670   3.952   1.806 -0.4074 -0.4193  0.4671
 5895SOL    HW129318   0.704   3.937   1.894  0.6781  0.1642  0.1439
 5895SOL    HW229319   0.636   4.040   1.821  1.1619  0.4792 -1.2621
 5896SOL     OW29320   0.001   2.183   7.594  0.0718 -0.7510  0.3771
 5896SOL    HW129321   0.074   2.241   7.615 -0.7296 -0.3503  2.1166
 5896SOL    HW229322   0.011   2.118   7.665 -2.7485 -3.3555 -1.5882
 5897SOL     OW29323   2.002   3.212   1.680  0.3062 -0.0603  0.2144
 5897SOL    HW129324   2.013   3.238   1.772 -0.4081 -2.0429  0.8592
 5897SOL    HW229325   1.926   3.258   1.647 -0.7907 -1.1088  1.2835
 5898SOL     OW29326   3.581   1.921   3.873  1.1852 -0.1056  0.0347
 5898SOL    HW129327   3.502   1.884   3.835  1.6477  0.0721 -1.0799
 5898SOL    HW229328   3.633   1.842   3.888  0.0421 -0.8171  0.2407
 5899SOL     OW29329   3.500   3.825  11.101  0.4943 -0.5296 -0.0754
 5899SOL    HW129330   3.474   3.823  11.193 -0.9680  1.4609 -0.4444
 5899SOL    HW229331   3.417   3.798  11.063 -0.0104  1.7036 -0.6031
 5900SOL     OW29332   4.216   2.912   4.554 -0.1474 -0.2263  0.5718
 5900SOL    HW129333   4.153   2.882   4.619 -1.2568  0.0478 -0.3714
 5900SOL    HW229334   4.221   2.840   4.491  0.9166  1.7498 -1.5846
 5901SOL     OW29335   1.142   3.728   8.054 -0.2687  0.1268 -0.4522
 5901SOL    HW129336   1.138   3.816   8.017 -3.2523 -0.7474 -2.1997
 5901SOL    HW229337   1.149   3.751   8.147  1.5805  0.8138 -0.7527
 5902SOL     OW29338   1.608   1.401   1.356 -0.0178  0.1455  0.8998
 5902SOL    HW129339   1.603   1.481   1.408  2.3154  0.9391 -0.1065
 5902SOL    HW229340   1.591   1.344   1.432  0.5021  2.5569  2.7998
 5903SOL     OW29341   0.845   1.108  13.086  0.3202  0.0881 -0.3070
 5903SOL    HW129342   0.902   1.144  13.154 -1.2529  1.2108  0.4247
 5903SOL    HW229343   0.904   1.104  13.011 -2.0016  2.0510 -2.2415
 5904SOL     OW29344   3.904   0.696   8.689  0.3893 -0.0428 -0.0636
 5904SOL    HW129345   3.933   0.647   8.612 -3.5164 -3.3509  0.5481
 5904SOL    HW229346   3.810   0.683   8.675  0.0667  2.7240 -0.3298
 5905SOL     OW29347   2.004   1.816   5.101 -0.3723  0.2707  0.1708
 5905SOL    HW129348   2.070   1.835   5.034 -2.4499  0.0270 -1.9252
 5905SOL    HW229349   2.025   1.723   5.111 -1.2299 -0.0364 -0.9114
 5906SOL     OW29350   3.411   3.553   2.550  0.3248 -0.0107 -0.2571
 5906SOL    HW129351   3.485   3.573   2.608 -1.8496 -0.8697  2.8222
 5906SOL    HW229352   3.398   3.460   2.570 -2.5733  0.1948 -1.1858
 5907SOL     OW29353   0.121   1.267  12.010  0.3877  0.7871  0.3485
 5907SOL    HW129354   0.146   1.175  12.007 -0.5818  0.7317 -5.0090
 5907SOL    HW229355   0.034   1.261  12.049 -1.0225  1.1589 -2.7379
 5908SOL     OW29356   3.057   2.439   1.931  0.4259 -0.0589  0.3398
 5908SOL    HW129357   3.118   2.497   1.886  0.2359  0.6942  1.0636
 5908SOL    HW229358   3.017   2.391   1.857 -0.5831  0.8212  0.3124
 5909SOL     OW29359   2.832   1.976  13.796 -0.8973 -0.2457  0.2475
 5909SOL    HW129360   2.800   2.065  13.784 -0.4903 -0.3178 -1.3323
 5909SOL    HW229361   2.803   1.954  13.885  0.8242  2.2597  1.4213
 5910SOL     OW29362   0.176   2.336   8.253  0.2853  0.1667 -0.1033
 5910SOL    HW129363   0.126   2.293   8.184 -2.4485  1.7063  0.9081
 5910SOL    HW229364   0.167   2.424   8.219  0.5851  0.0604 -0.4481
 5911SOL     OW29365   1.214   2.167  14.726  0.5723  0.4538  0.1577
 5911SOL    HW129366   1.168   2.101  14.779 -1.0504 -0.0264 -1.8339
 5911SOL    HW229367   1.271   2.108  14.677 -0.9866 -0.9369  0.0019
 5912SOL     OW29368   4.397   4.527   9.448 -0.4025  0.0516  0.4721
 5912SOL    HW129369   4.319   4.478   9.422 -0.8593  0.2065  1.5443
 5912SOL    HW229370   4.369   4.613   9.479  0.5304  0.8717 -0.9944
 5913SOL     OW29371   1.921   3.867  12.277 -0.0054 -0.6628 -0.5545
 5913SOL    HW129372   1.927   3.791  12.334  2.9056  0.3058  0.4203
 5913SOL    HW229373   1.976   3.928  12.327  1.3825 -0.9234 -1.7964
 5914SOL     OW29374   3.169   3.139   7.381 -0.1298  0.3330 -0.4815
 5914SOL    HW129375   3.118   3.074   7.429 -0.9622  1.2222 -0.1586
 5914SOL    HW229376   3.139   3.218   7.427  0.5986 -0.2553  0.9883
 5915SOL     OW29377   4.501   2.838   0.053  0.0250 -0.2736  0.3064
 5915SOL    HW129378   4.516   2.752   0.014 -0.2493 -1.4567  2.7997
 5915SOL    HW229379   4.561   2.897   0.007  0.3932  0.2728  1.4993
 5916SOL     OW29380   1.610   0.865   8.601  0.6182  0.3578  0.1915
 5916SOL    HW129381   1.655   0.900   8.524  0.6701 -1.5566 -0.6523
 5916SOL    HW229382   1.629   0.928   8.670  4.0657  1.5503 -1.8341
 5917SOL     OW29383   3.987   4.507   5.272 -0.4167  0.4135 -0.4786
 5917SOL    HW129384   3.994   4.591   5.317  1.7967  1.2305 -2.3557
 5917SOL    HW229385   4.017   4.446   5.340 -1.4881 -0.4660 -0.7962
 5918SOL     OW29386   2.532   4.187   4.094 -0.1375 -0.5312 -0.2341
 5918SOL    HW129387   2.452   4.234   4.074 -0.3847 -1.7840 -2.2256
 5918SOL    HW229388   2.505   4.116   4.152 -3.7324  0.0918 -1.1949
 5919SOL     OW29389   3.077   0.562  11.916 -0.5429 -0.6291  0.4067
 5919SOL    HW129390   3.028   0.545  11.836 -1.5765 -0.5239  1.0252
 5919SOL    HW229391   3.168   0.569  11.886 -0.4269  2.4203  1.4589
 5920SOL     OW29392   4.288   4.096   4.624 -0.4978  0.3774  0.0288
 5920SOL    HW129393   4.200   4.089   4.587 -0.4625 -0.8644  0.1892
 5920SOL    HW229394   4.287   4.182   4.667  0.2089  0.9022 -1.0003
 5921SOL     OW29395   1.286   0.378  10.439 -0.0294 -0.6686 -1.1951
 5921SOL    HW129396   1.197   0.414  10.434  0.6800  1.3573  0.6575
 5921SOL    HW229397   1.274   0.286  10.417 -0.3131 -1.0311  0.4562
 5922SOL     OW29398   1.042   4.327   7.838  0.4229  0.4299 -0.3265
 5922SOL    HW129399   0.948   4.309   7.842  0.9080 -2.2950 -0.9871
 5922SOL    HW229400   1.051   4.388   7.764 -0.7944 -0.3784 -1.1352
 5923SOL     OW29401   3.324   1.265   5.990  0.0716  0.6363 -0.0806
 5923SOL    HW129402   3.338   1.350   5.948  1.1353 -0.1470 -1.2887
 5923SOL    HW229403   3.411   1.227   5.977  0.1174  1.2106 -1.4512
 5924SOL     OW29404   0.245   1.844   7.685 -0.4421 -0.4687 -0.2217
 5924SOL    HW129405   0.313   1.776   7.685  0.1763  0.1774  4.5536
 5924SOL    HW229406   0.268   1.908   7.618  3.4675 -1.1617  0.4407
 5925SOL     OW29407   1.106   0.040   4.990  0.1895 -0.1494  0.4528
 5925SOL    HW129408   1.096   0.053   5.085  0.5605 -1.2262  0.6281
 5925SOL    HW229409   1.043   0.104   4.957  0.9201  0.4724  0.2600
 5926SOL     OW29410   1.610   1.997  13.090 -0.6983  0.5496 -0.6759
 5926SOL    HW129411   1.605   2.073  13.032 -2.0983  0.9038 -0.1036
 5926SOL    HW229412   1.705   1.993  13.099 -0.7897  1.5213  0.8779
 5927SOL     OW29413   3.530   2.939   5.566  0.0783  0.1980 -0.7338
 5927SOL    HW129414   3.597   2.954   5.499 -1.3081  0.2773 -2.1029
 5927SOL    HW229415   3.461   2.912   5.506 -0.4054 -3.8366  1.6589
 5928SOL     OW29416   1.595   1.571   7.749  0.0422 -0.6985  0.6293
 5928SOL    HW129417   1.663   1.637   7.763  0.9576 -1.3577 -0.6939
 5928SOL    HW229418   1.539   1.625   7.694 -0.9889 -2.3382  0.0813
 5929SOL     OW29419   1.166   1.896   0.197  0.0521  0.3907 -0.0586
 5929SOL    HW129420   1.116   1.816   0.215  0.5053 -0.1315 -1.1753
 5929SOL    HW229421   1.099   1.949   0.153  0.8325  0.4525 -1.1643
 5930SOL     OW29422   3.036   0.474   7.115 -0.5527  0.2956 -0.2380
 5930SOL    HW129423   3.125   0.482   7.148  0.1842  3.0085 -2.9072
 5930SOL    HW229424   3.036   0.387   7.075  3.2811  0.3125 -0.3051
 5931SOL     OW29425   0.285   1.603   5.538 -0.0750  0.3552 -0.8567
 5931SOL    HW129426   0.255   1.673   5.479 -0.6387  1.7132  1.0382
 5931SOL    HW229427   0.201   1.591   5.582  0.4683  1.1056  0.3770
 5932SOL     OW29428   4.635   1.437  13.417  0.3091 -0.6591 -0.0629
 5932SOL    HW129429   4.553   1.430  13.466 -1.2650 -1.7475 -2.8928
 5932SOL    HW229430   4.623   1.369  13.351  2.2267  0.4923 -1.5718
 5933SOL     OW29431   4.246   2.589   5.552 -0.0141  0.2271 -0.3563
 5933SOL    HW129432   4.222   2.496   5.555  0.1311  0.1706 -0.8369
 5933SOL    HW229433   4.162   2.628   5.573  0.8845  0.8697  2.0750
 5934SOL     OW29434   3.186   4.326   3.168 -0.3509  0.0523  0.1252
 5934SOL    HW129435   3.111   4.334   3.227  0.2954 -0.2551  0.9954
 5934SOL    HW229436   3.145   4.317   3.083  3.3526 -0.4680 -1.6196
 5935SOL     OW29437   2.551   0.857   2.431  0.6489 -0.0268 -0.2895
 5935SOL    HW129438   2.539   0.948   2.406 -1.8092 -0.2470  0.0101
 5935SOL    HW229439   2.644   0.839   2.441  1.2574  2.8882 -1.0007
 5936SOL     OW29440   2.622   2.468  12.437  0.3472 -0.0350  0.2444
 5936SOL    HW129441   2.562   2.537  12.407  1.1618  0.7190  0.3501
 5936SOL    HW229442   2.568   2.404  12.484 -1.8403  1.9114  0.4324
 5937SOL     OW29443   3.687   1.315  15.983 -0.1836  0.1876 -0.7714
 5937SOL    HW129444   3.734   1.235  15.960 -1.7357 -0.7399 -0.6679
 5937SOL    HW229445   3.599   1.281  15.999  0.6370 -1.3167  0.5239
 5938SOL     OW29446   1.208   1.712  14.751  0.0207  0.2041 -0.2081
 5938SOL    HW129447   1.146   1.777  14.783  0.0140  0.7176 -1.2724
 5938SOL    HW229448   1.213   1.653  14.826  2.5594  0.2408 -0.3400
 5939SOL     OW29449   0.252   1.077  16.088  0.4075  0.0662 -0.0411
 5939SOL    HW129450   0.191   1.151  16.083  0.1515 -0.0406  1.5691
 5939SOL    HW229451   0.320   1.105  16.027 -0.2318 -0.5262 -1.0244
 5940SOL     OW29452   2.918   0.189   8.655  0.1743  0.1992  0.3708
 5940SOL    HW129453   2.989   0.225   8.708  0.0162 -0.7421  1.2200
 5940SOL    HW229454   2.883   0.148   8.734  0.1813  0.5863  0.5746
 5941SOL     OW29455   3.463   2.357   0.465  0.6184  0.3935  0.1064
 5941SOL    HW129456   3.439   2.419   0.397  2.8945  0.0690 -0.9916
 5941SOL    HW229457   3.460   2.407   0.547  0.7269  0.7964 -0.1391
 5942SOL     OW29458   0.375   4.515  14.013 -0.2433 -0.4323  0.9300
 5942SOL    HW129459   0.286   4.515  14.050  0.6188 -1.7950  3.0032
 5942SOL    HW229460   0.425   4.477  14.085  0.0511 -1.6012  0.1138
 5943SOL     OW29461   2.473   2.766   5.130  0.1998  0.2978 -0.0681
 5943SOL    HW129462   2.536   2.697   5.154  0.3015  0.8272  1.2080
 5943SOL    HW229463   2.421   2.760   5.210  1.9513 -0.7121  0.9976
 5944SOL     OW29464   1.478   4.033   6.585  0.0681  0.0755 -1.1544
 5944SOL    HW129465   1.527   4.011   6.664 -3.4443 -2.2162  0.3744
 5944SOL    HW229466   1.410   3.966   6.577  0.3390 -0.3822  0.4273
 5945SOL     OW29467   0.041   0.071   9.286  0.9076 -0.3960 -0.2247
 5945SOL    HW129468   4.699   0.032   9.313 -0.2999  2.2111 -0.1960
 5945SOL    HW229469   0.033   0.159   9.322  0.6787 -1.1392  1.4908
 5946SOL     OW29470   4.697   0.696   9.609 -0.3394 -0.1874  0.0958
 5946SOL    HW129471   4.697   0.735   9.697  0.9182  1.6884 -0.7385
 5946SOL    HW229472   4.738   0.769   9.564  0.0915 -0.2732  0.3511
 5947SOL     OW29473   4.715   1.544   2.749  0.0801  0.3976 -0.0408
 5947SOL    HW129474   4.638   1.599   2.761 -0.0130  0.1224  0.6530
 5947SOL    HW229475   0.048   1.605   2.743 -0.9653  2.0316  3.5961
 5948SOL     OW29476   0.242   2.611  15.820 -0.2447 -0.3943 -1.1073
 5948SOL    HW129477   0.296   2.535  15.799  0.3697 -0.5516  1.0106
 5948SOL    HW229478   0.298   2.645  15.890 -1.5430  1.1022 -0.8129
 5949SOL     OW29479   4.030   4.369   1.717  0.3101  0.1549  0.8089
 5949SOL    HW129480   3.961   4.313   1.681  1.3514  0.1087 -1.1031
 5949SOL    HW229481   4.025   4.446   1.661 -1.9175  1.6493  3.0813
 5950SOL     OW29482   2.261   3.784   2.465 -0.0512 -0.0392 -0.2861
 5950SOL    HW129483   2.320   3.746   2.530  0.4198  3.9076  1.5633
 5950SOL    HW229484   2.238   3.709   2.410  1.7925 -0.1398 -0.9312
 5951SOL     OW29485   3.855   0.924   8.111  0.0751 -0.1830  0.3289
 5951SOL    HW129486   3.761   0.919   8.093  0.0077 -1.1332  0.9779
 5951SOL    HW229487   3.882   0.996   8.054  0.0403  1.6274  2.5982
 5952SOL     OW29488   1.433   0.940   6.325 -0.0971 -0.0769 -0.1801
 5952SOL    HW129489   1.511   0.988   6.353 -0.6106  0.5523  0.1502
 5952SOL    HW229490   1.469   0.852   6.343 -1.5849 -0.2408  1.9780
 5953SOL     OW29491   2.887   2.515   6.225  0.3390  0.4887  0.3551
 5953SOL    HW129492   2.844   2.581   6.280 -0.4632 -0.4408  0.8329
 5953SOL    HW229493   2.836   2.443   6.261  2.0833 -0.1040  1.6547
 5954SOL     OW29494   0.947   2.905  13.127 -0.2073  0.6446  0.7663
 5954SOL    HW129495   0.945   2.817  13.164  0.6135 -0.2312 -1.2373
 5954SOL    HW229496   0.954   2.874  13.037 -0.6340  2.1186  0.2279
 5955SOL     OW29497   4.335   2.968  11.028  0.1975 -1.0587  0.5699
 5955SOL    HW129498   4.253   2.930  10.997  0.2782  1.2647 -2.4633
 5955SOL    HW229499   4.384   2.889  11.052  2.3426  0.4276  1.1370
 5956SOL     OW29500   2.406   2.181   6.473 -0.3052 -0.3415 -0.3948
 5956SOL    HW129501   2.453   2.239   6.533  0.0755 -0.9039 -0.1360
 5956SOL    HW229502   2.470   2.109   6.479  2.2223  1.9724  0.3651
 5957SOL     OW29503   4.495   0.411  10.628 -0.8096 -0.8207  0.0031
 5957SOL    HW129504   4.471   0.502  10.613 -1.1860 -1.3643 -2.8496
 5957SOL    HW229505   4.512   0.399  10.721 -0.8962  1.5714  0.3207
 5958SOL     OW29506   2.205   2.791   9.050 -0.1262  0.0224 -0.9785
 5958SOL    HW129507   2.205   2.855   9.121 -1.1059 -0.1005 -0.8630
 5958SOL    HW229508   2.123   2.816   9.007 -1.4589 -0.2020  1.4560
 5959SOL     OW29509   3.514   1.931   2.728  0.0278 -0.0450 -0.0195
 5959SOL    HW129510   3.518   1.874   2.806  1.0308  0.1313  0.0575
 5959SOL    HW229511   3.488   2.014   2.768 -3.7049 -0.7777 -1.0146
 5960SOL     OW29512   0.562   0.555   0.224  0.1334 -0.0535 -0.3002
 5960SOL    HW129513   0.611   0.514   0.295  0.9914 -1.4377 -1.7065
 5960SOL    HW229514   0.614   0.532   0.147 -0.7922 -1.1449 -0.5940
 5961SOL     OW29515   2.300   0.973   2.030  0.0146  0.0582 -0.0206
 5961SOL    HW129516   2.342   0.973   2.116 -0.1082  0.1158  0.0399
 5961SOL    HW229517   2.219   1.022   2.046 -0.3555 -1.3248  2.3382
 5962SOL     OW29518   3.733   4.009   5.646  0.3016  0.6684  0.1254
 5962SOL    HW129519   3.693   4.064   5.713  0.1977 -1.0559  1.4557
 5962SOL    HW229520   3.655   3.981   5.598  0.4654 -0.2103  0.3768
 5963SOL     OW29521   0.369   2.959   0.692  0.3434 -0.4808 -1.2154
 5963SOL    HW129522   0.340   2.869   0.678  0.2015 -0.4850 -0.8674
 5963SOL    HW229523   0.390   2.976   0.600  1.4431  0.5967 -0.7567
 5964SOL     OW29524   4.209   3.588   5.627  0.1055  0.2162  0.2210
 5964SOL    HW129525   4.145   3.518   5.639  0.7082 -0.6757 -1.9653
 5964SOL    HW229526   4.243   3.567   5.541  1.6997 -3.0506  1.6732
 5965SOL     OW29527   3.855   4.311   5.142 -0.1402  0.4590 -0.0835
 5965SOL    HW129528   3.903   4.256   5.205 -1.3245 -2.2930 -1.5956
 5965SOL    HW229529   3.893   4.396   5.166 -0.8894  1.2145 -1.6484
 5966SOL     OW29530   4.252   1.542   9.332 -0.1766  0.0531 -0.0662
 5966SOL    HW129531   4.225   1.618   9.383 -0.7643 -0.3763  0.2501
 5966SOL    HW229532   4.296   1.495   9.402  0.0951  2.3863  1.3366
 5967SOL     OW29533   0.535   1.849   7.597  0.3770  0.3508 -0.3532
 5967SOL    HW129534   0.624   1.882   7.588  1.7964 -3.1457  1.0942
 5967SOL    HW229535   0.485   1.908   7.541 -2.1102 -1.1095  0.3118
 5968SOL     OW29536   1.898   2.839   8.119  0.1487  0.3427 -0.8612
 5968SOL    HW129537   1.877   2.910   8.059 -1.1616 -1.3584 -2.3939
 5968SOL    HW229538   1.994   2.839   8.121  0.1565 -2.3525 -2.1543
 5969SOL     OW29539   1.502   4.222  14.630  0.1313  0.2787 -0.1832
 5969SOL    HW129540   1.458   4.232  14.715  0.1011  1.6802 -0.3672
 5969SOL    HW229541   1.592   4.218  14.663  0.3762  1.7946 -0.6762
 5970SOL     OW29542   3.956   2.027   0.389  0.3064  0.1412 -0.7579
 5970SOL    HW129543   4.029   2.064   0.340 -0.0937  3.2846  0.9970
 5970SOL    HW229544   3.908   1.993   0.313  0.3019 -1.8257  0.1246
 5971SOL     OW29545   3.980   2.557   8.788 -0.2474  0.2071  0.0389
 5971SOL    HW129546   4.057   2.553   8.731 -0.8926 -3.0930 -0.6093
 5971SOL    HW229547   4.005   2.646   8.813 -2.1386  0.2266  1.8440
 5972SOL     OW29548   2.799   3.920   1.890 -0.0033 -0.2858 -0.1483
 5972SOL    HW129549   2.780   3.913   1.796  0.3419  0.0087 -0.2407
 5972SOL    HW229550   2.768   4.007   1.913  0.5761 -0.0902 -0.1028
 5973SOL     OW29551   3.244   2.276   6.376 -0.3130 -0.0182  0.1912
 5973SOL    HW129552   3.215   2.342   6.314  0.2799 -0.2647 -0.3535
 5973SOL    HW229553   3.166   2.222   6.387  0.6050 -0.8943  2.3720
 5974SOL     OW29554   1.910   3.839   9.777  0.1417  0.1413 -0.2277
 5974SOL    HW129555   1.894   3.883   9.860  1.0209  2.6591 -1.3702
 5974SOL    HW229556   1.823   3.854   9.738  0.2978 -1.4109 -1.1603
 5975SOL     OW29557   0.378   3.410   0.169  0.4061 -0.1048  0.1659
 5975SOL    HW129558   0.298   3.404   0.221 -0.4375  2.6950 -0.8163
 5975SOL    HW229559   0.351   3.476   0.106 -1.6969  0.8653  2.0993
 5976SOL     OW29560   1.306   4.537   6.015  0.4319 -0.6484  0.3757
 5976SOL    HW129561   1.218   4.505   5.998  0.9487 -1.0199 -1.5825
 5976SOL    HW229562   1.332   4.470   6.078  0.0007 -0.1381  1.1024
 5977SOL     OW29563   2.249   1.903   9.262  0.6010  0.1769 -0.4107
 5977SOL    HW129564   2.187   1.855   9.317 -0.1658  0.1690 -1.2912
 5977SOL    HW229565   2.323   1.843   9.272  2.3618  2.6981  1.7392
 5978SOL     OW29566   2.007   3.707   5.854 -0.2763  0.1481  0.1494
 5978SOL    HW129567   2.034   3.624   5.814 -2.0765 -0.6290  0.5554
 5978SOL    HW229568   2.036   3.701   5.945 -0.4493  3.0826  0.3732
 5979SOL     OW29569   2.329   3.485   1.240 -0.2608 -0.3159 -0.4702
 5979SOL    HW129570   2.387   3.497   1.165  1.0636 -0.8623  0.4621
 5979SOL    HW229571   2.258   3.431   1.206 -1.7164 -0.1497  2.3224
 5980SOL     OW29572   4.521   4.201   4.181 -0.4226 -0.7583  1.0576
 5980SOL    HW129573   4.589   4.137   4.158 -0.6488 -0.9843  1.0211
 5980SOL    HW229574   4.556   4.278   4.135 -1.3034 -0.4864  0.8513
 5981SOL     OW29575   3.677   4.493   4.042 -0.1114 -0.0134  0.2937
 5981SOL    HW129576   3.611   4.438   4.085  0.6785  0.5299  2.1987
 5981SOL    HW229577   3.621   4.529   3.974  0.0973  0.6309  0.4645
 5982SOL     OW29578   4.639   2.423  11.310 -0.1462  0.0942 -0.0751
 5982SOL    HW129579   4.712   2.369  11.341  0.5578  0.8456 -0.4591
 5982SOL    HW229580   4.666   2.515  11.309 -3.2818  1.0010 -0.4093
 5983SOL     OW29581   0.378   1.866   9.091 -0.4112 -0.1865 -0.5006
 5983SOL    HW129582   0.298   1.895   9.135  0.3945  0.7246  0.3357
 5983SOL    HW229583   0.422   1.845   9.173 -1.6919 -0.9969 -0.0146
 5984SOL     OW29584   1.346   4.275  10.238 -0.1948 -0.6675 -0.5118
 5984SOL    HW129585   1.341   4.189  10.281  2.7464  0.0894  1.3267
 5984SOL    HW229586   1.251   4.287  10.246 -0.3404 -2.1616  0.0692
 5985SOL     OW29587   1.006   3.402  12.313 -0.1563  0.5072  0.3384
 5985SOL    HW129588   0.961   3.422  12.396 -1.5777 -0.0354 -0.3070
 5985SOL    HW229589   1.065   3.478  12.305  0.2700  0.0115 -1.1234
 5986SOL     OW29590   1.672   1.302   7.271  0.5839  0.0895  0.0952
 5986SOL    HW129591   1.669   1.369   7.339  0.6466 -0.1882  0.3677
 5986SOL    HW229592   1.672   1.365   7.198 -2.1669 -2.4297 -2.0606
 5987SOL     OW29593   4.325   2.054   6.767  0.4306 -0.2922 -0.1207
 5987SOL    HW129594   4.363   2.017   6.687 -0.6659 -3.5562  0.8718
 5987SOL    HW229595   4.298   2.144   6.749 -0.5851 -0.4892  0.4201
 5988SOL     OW29596   0.219   0.574   9.611 -0.1450 -0.2311  0.1310
 5988SOL    HW129597   0.246   0.659   9.646 -1.7225  1.2597 -2.2723
 5988SOL    HW229598   0.127   0.595   9.597 -0.2887 -1.6969 -1.1572
 5989SOL     OW29599   0.930   3.077   3.800  0.4210  0.1893 -0.2169
 5989SOL    HW129600   0.842   3.043   3.787  0.2229  1.0529 -1.1231
 5989SOL    HW229601   0.974   2.998   3.832 -0.3162  0.0996  0.5685
 5990SOL     OW29602   0.509   2.772   1.823 -0.5308  0.1032  0.0226
 5990SOL    HW129603   0.447   2.845   1.815 -1.7410 -1.1875 -2.7573
 5990SOL    HW229604   0.452   2.695   1.822 -0.1008 -0.2021 -1.4423
 5991SOL     OW29605   4.272   4.370   4.679  0.4514 -0.1540 -0.3264
 5991SOL    HW129606   4.182   4.402   4.688  1.2207  1.4432  1.6572
 5991SOL    HW229607   4.296   4.433   4.611  0.5054  1.2883  1.0194
 5992SOL     OW29608   3.509   2.156   5.593 -0.1103  0.8692 -0.6192
 5992SOL    HW129609   3.459   2.152   5.511 -0.8801 -2.6445  0.0092
 5992SOL    HW229610   3.589   2.107   5.572  0.2420  1.6033 -0.9797
 5993SOL     OW29611   1.691   2.449  15.938 -0.4002  0.7638  0.4160
 5993SOL    HW129612   1.604   2.428  15.902 -0.7899  0.8462  1.3042
 5993SOL    HW229613   1.708   2.527  15.884 -1.7760 -0.4416 -1.7768
 5994SOL     OW29614   2.119   3.264   8.084 -0.4402 -0.4260  0.1286
 5994SOL    HW129615   2.108   3.342   8.029 -1.3573  0.9597  2.2486
 5994SOL    HW229616   2.035   3.226   8.060 -2.1778  3.3658  0.1377
 5995SOL     OW29617   0.510   1.147   9.900 -0.7020  0.4984 -0.0493
 5995SOL    HW129618   0.548   1.231   9.927 -2.5114  1.7089 -1.3013
 5995SOL    HW229619   0.579   1.084   9.917 -1.9820 -1.2721 -1.4493
 5996SOL     OW29620   2.932   1.787   4.920  0.1430 -0.4492 -0.1252
 5996SOL    HW129621   2.913   1.761   4.831 -0.8509 -1.9198  0.5185
 5996SOL    HW229622   3.028   1.795   4.921 -0.0708  2.2545 -1.8208
 5997SOL     OW29623   3.647   4.313   5.330 -0.7731  0.2688  0.3678
 5997SOL    HW129624   3.603   4.266   5.259  1.4688 -1.0803 -0.1152
 5997SOL    HW229625   3.734   4.320   5.291  0.3546 -2.2874  2.3411
 5998SOL     OW29626   0.205   2.375   0.754  0.0862 -0.7079  0.3413
 5998SOL    HW129627   0.149   2.405   0.683  1.0734  1.7388  0.6074
 5998SOL    HW229628   0.140   2.336   0.813  1.0035  0.3093  2.0360
 5999SOL     OW29629   0.520   3.408  14.712  0.3429 -0.5137 -0.2106
 5999SOL    HW129630   0.613   3.392  14.723  0.0752 -1.2783  0.9619
 5999SOL    HW229631   0.488   3.329  14.669  0.6495 -0.3669 -0.7109
 6000SOL     OW29632   0.738   2.356   3.804  0.2036  0.2101  0.8480
 6000SOL    HW129633   0.722   2.445   3.771 -0.6812 -0.6249 -0.9895
 6000SOL    HW229634   0.646   2.335   3.823 -0.3227 -0.3415 -2.3371
 6001SOL     OW29635   1.811   0.242   6.575 -0.4268 -0.0283  0.8872
 6001SOL    HW129636   1.791   0.312   6.637 -1.2648  0.7913 -0.3247
 6001SOL    HW229637   1.725   0.238   6.533 -1.2722 -1.3283  2.7244
 6002SOL     OW29638   3.487   1.840   7.128 -0.4364 -0.7398 -0.0086
 6002SOL    HW129639   3.432   1.852   7.051 -0.3850 -0.4540  0.0002
 6002SOL    HW229640   3.497   1.744   7.130  0.2951 -0.7012 -1.4805
 6003SOL     OW29641   1.710   4.674   6.243 -0.6567  0.4145  0.7252
 6003SOL    HW129642   1.760   4.720   6.175  1.7048  0.3533  2.4283
 6003SOL    HW229643   1.743   4.588   6.217 -0.5363  0.2112  1.5543
 6004SOL     OW29644   3.066   0.830   1.127  0.2848  0.1592  0.2081
 6004SOL    HW129645   3.131   0.866   1.066  1.8529 -0.8425  1.3134
 6004SOL    HW229646   3.053   0.739   1.101  1.1272  0.6308 -1.9109
 6005SOL     OW29647   4.117   3.261   5.835 -0.5713  0.3753  0.3375
 6005SOL    HW129648   4.176   3.209   5.782  0.3615 -0.3784  2.1100
 6005SOL    HW229649   4.079   3.321   5.771  0.6877 -0.3685 -1.0885
 6006SOL     OW29650   1.992   2.375  14.784 -0.3535  0.1526  0.0409
 6006SOL    HW129651   2.005   2.432  14.859 -1.1121  0.5912 -0.1565
 6006SOL    HW229652   1.946   2.297  14.815 -0.0325 -0.1272 -0.1841
 6007SOL     OW29653   0.230   2.177   3.085  0.2238 -0.0315 -0.4904
 6007SOL    HW129654   0.144   2.210   3.111  1.0663  0.5021  1.5831
 6007SOL    HW229655   0.202   2.118   3.014 -0.4768 -0.2002 -0.0789
 6008SOL     OW29656   3.921   0.169  16.398  0.2473  0.5087  0.6081
 6008SOL    HW129657   3.850   0.146  16.457 -0.0071 -0.0381  0.0801
 6008SOL    HW229658   3.887   0.202  16.315 -1.9384 -1.8391  0.5977
 6009SOL     OW29659   3.530   2.072   0.508 -0.3050 -0.4311 -0.0763
 6009SOL    HW129660   3.491   2.159   0.509  1.2285  0.2605 -3.4916
 6009SOL    HW229661   3.608   2.076   0.564 -1.2647 -0.0216  1.2436
 6010SOL     OW29662   0.135   0.939   3.769  0.4599  0.2140 -0.3573
 6010SOL    HW129663   0.148   0.997   3.693  0.2328  1.0165  0.2139
 6010SOL    HW229664   0.214   0.970   3.813  0.1774  0.9316 -0.3540
 6011SOL     OW29665   3.016   1.131  12.395 -0.7725  0.1912 -0.3713
 6011SOL    HW129666   3.047   1.054  12.347  0.3902  0.6408 -0.3244
 6011SOL    HW229667   3.055   1.205  12.349  0.3741 -0.3672 -0.2827
 6012SOL     OW29668   3.929   0.305   7.440  0.0105 -0.4319  0.2772
 6012SOL    HW129669   3.852   0.328   7.492 -0.4586  0.2444 -0.7373
 6012SOL    HW229670   3.991   0.292   7.512  0.1312 -1.0835  0.0555
 6013SOL     OW29671   0.749   1.515  17.227  0.1329  0.3344  0.2595
 6013SOL    HW129672   0.679   1.536  17.164 -0.4185  1.9760  1.4016
 6013SOL    HW229673   0.781   1.434  17.188  1.1293  0.6048  0.5186
 6014SOL     OW29674   2.561   1.400  12.161  0.4692 -0.3284  0.5184
 6014SOL    HW129675   2.609   1.318  12.144  1.7859  0.4258  0.5964
 6014SOL    HW229676   2.569   1.445  12.077 -1.0437  1.7207  1.4776
 6015SOL     OW29677   3.329   3.373   5.776  0.1740 -0.4284  0.2379
 6015SOL    HW129678   3.248   3.366   5.827 -0.6536 -0.1386 -1.0527
 6015SOL    HW229679   3.398   3.365   5.842  1.0244  1.6119 -0.3758
 6016SOL     OW29680   2.800   0.188   3.810  0.5587  0.7562  0.0595
 6016SOL    HW129681   2.817   0.234   3.728 -2.9018 -2.6567 -2.5837
 6016SOL    HW229682   2.885   0.204   3.852  0.3055  1.7681  0.1848
 6017SOL     OW29683   2.110   4.389   7.652 -0.3657 -0.2946  0.1801
 6017SOL    HW129684   2.088   4.365   7.743  0.1161  1.1047  0.6590
 6017SOL    HW229685   2.070   4.476   7.654 -2.8276 -1.3959 -0.7201
 6018SOL     OW29686   3.055   1.383   8.596  0.2994 -0.5135 -0.1727
 6018SOL    HW129687   3.054   1.302   8.647  0.5198 -0.1427  0.4228
 6018SOL    HW229688   2.987   1.367   8.532  0.5561  0.6606 -0.7303
 6019SOL     OW29689   0.587   1.185  13.983 -0.0118 -0.6830 -0.0143
 6019SOL    HW129690   0.540   1.221  14.059  1.9010  1.2491  0.2418
 6019SOL    HW229691   0.525   1.116  13.960  0.7533 -0.4270 -2.7180
 6020SOL     OW29692   1.441   4.506  10.144 -0.3119  0.8253 -0.6808
 6020SOL    HW129693   1.458   4.477  10.054  0.8383 -1.0867  0.1678
 6020SOL    HW229694   1.425   4.421  10.183 -3.3342  1.1711 -1.1826
 6021SOL     OW29695   1.295   3.073   1.697 -0.2586 -0.3281 -0.0906
 6021SOL    HW129696   1.368   3.044   1.750  0.8492  1.8322 -0.4088
 6021SOL    HW229697   1.310   3.034   1.611 -0.0994  0.7636 -0.5711
 6022SOL     OW29698   4.579   3.740   5.659 -0.6354  0.4201  0.2321
 6022SOL    HW129699   4.575   3.654   5.701 -1.9716  0.5759  0.4275
 6022SOL    HW229700   4.542   3.719   5.573 -0.2818  2.2751 -0.3646
 6023SOL     OW29701   0.295   4.346   0.215 -0.0975 -0.5674 -0.2451
 6023SOL    HW129702   0.343   4.299   0.282  1.6939 -0.4420 -1.4432
 6023SOL    HW229703   0.210   4.359   0.258 -0.2086 -1.0998 -0.3002
 6024SOL     OW29704   1.220   3.680   6.764 -0.1101 -0.7894  0.3838
 6024SOL    HW129705   1.229   3.702   6.856  2.7652  0.4610 -0.2249
 6024SOL    HW229706   1.124   3.676   6.758 -0.1475  1.2060 -0.3785
 6025SOL     OW29707   0.603   3.743   2.906 -0.3843  0.1607 -0.7395
 6025SOL    HW129708   0.528   3.796   2.877 -0.4499  0.4069 -0.1129
 6025SOL    HW229709   0.669   3.809   2.929  1.3884 -2.1517  0.6981
 6026SOL     OW29710   4.288   2.501   3.801 -0.4697 -0.8646  0.1832
 6026SOL    HW129711   4.228   2.430   3.821  2.6082 -3.0499  1.6785
 6026SOL    HW229712   4.364   2.443   3.792  0.2555  0.2769 -1.1599
 6027SOL     OW29713   1.425   0.328   7.633 -0.0727 -0.5209 -0.4177
 6027SOL    HW129714   1.436   0.350   7.541 -1.4049  2.4361  0.1530
 6027SOL    HW229715   1.351   0.386   7.645  0.7443  0.4501 -0.0503
 6028SOL     OW29716   3.597   0.379   6.466  0.1030 -0.3119  0.3281
 6028SOL    HW129717   3.568   0.293   6.436 -0.1165 -0.3905  0.7711
 6028SOL    HW229718   3.587   0.433   6.387 -2.6028 -1.7416 -0.3015
 6029SOL     OW29719   2.091   2.802   6.774 -0.0433  0.3610 -0.5406
 6029SOL    HW129720   2.061   2.877   6.723  2.2425 -0.7489 -3.5326
 6029SOL    HW229721   2.130   2.753   6.702  0.3972 -0.2774  0.1304
 6030SOL     OW29722   4.684   1.203   1.588  0.3394 -0.0593  0.1540
 6030SOL    HW129723   4.736   1.151   1.649  0.5845 -1.2303 -1.0632
 6030SOL    HW229724   0.007   1.274   1.587 -0.0683  0.2961 -0.8720
 6031SOL     OW29725   2.345   1.722   7.450  0.2359  0.7242  0.3411
 6031SOL    HW129726   2.280   1.660   7.481  0.0202  0.6624 -0.2310
 6031SOL    HW229727   2.300   1.752   7.371 -0.3478 -0.2357  0.3153
 6032SOL     OW29728   4.157   1.447  17.675 -0.6263 -0.5448 -0.6141
 6032SOL    HW129729   4.200   1.379  17.623 -2.1426 -1.6129 -0.4862
 6032SOL    HW229730   4.169   1.401  17.758  2.1112 -1.4338 -1.5112
 6033SOL     OW29731   0.936   4.729  12.087  0.2797  0.3837 -0.0454
 6033SOL    HW129732   0.921   0.070  12.135 -0.5649 -0.7947  1.6845
 6033SOL    HW229733   0.923   4.675  12.165 -0.2565 -0.2568 -0.5754
 6034SOL     OW29734   4.655   0.249  16.505  0.2652 -0.0051  0.1059
 6034SOL    HW129735   4.723   0.243  16.437  0.1071 -1.1862  0.0605
 6034SOL    HW229736   4.622   0.161  16.522  0.6798 -0.1902 -0.0560
 6035SOL     OW29737   1.057   2.670   2.775 -0.3135 -0.4749  0.0602
 6035SOL    HW129738   1.110   2.605   2.822  1.4489  1.3359  0.5791
 6035SOL    HW229739   0.995   2.611   2.731 -0.0255 -0.7295 -0.0073
 6036SOL     OW29740   4.179   2.550   8.614 -0.0925 -0.2448 -0.2627
 6036SOL    HW129741   4.128   2.576   8.538 -0.2748 -0.1222 -0.0973
 6036SOL    HW229742   4.235   2.492   8.563 -0.4431 -0.4261 -0.4425
 6037SOL     OW29743   1.165   3.950   6.356  0.2457  0.5080  0.2540
 6037SOL    HW129744   1.204   3.910   6.279  1.8087  3.0583 -0.2780
 6037SOL    HW229745   1.216   3.907   6.425 -1.9223 -0.3190  1.3493
 6038SOL     OW29746   2.458   2.797   9.214 -0.5993 -0.3514 -0.0256
 6038SOL    HW129747   2.379   2.842   9.246 -0.4846 -0.5668  0.5596
 6038SOL    HW229748   2.422   2.708   9.214 -1.4478 -0.0122  0.0484
 6039SOL     OW29749   2.279   0.265   7.494 -0.3872 -0.2650  0.6489
 6039SOL    HW129750   2.265   0.359   7.503  1.7975 -0.1228  2.4445
 6039SOL    HW229751   2.209   0.247   7.556 -0.2153  1.6228  1.3949
 6040SOL     OW29752   0.818   0.628   7.694  0.4303 -0.0510  0.2551
 6040SOL    HW129753   0.802   0.673   7.610  0.4644 -2.6895 -1.1648
 6040SOL    HW229754   0.744   0.641   7.753 -0.8328  0.9407 -1.5357
 6041SOL     OW29755   3.566   4.418   7.733 -0.2404 -0.1582  0.0396
 6041SOL    HW129756   3.614   4.489   7.777 -1.5126  0.2881  0.7205
 6041SOL    HW229757   3.504   4.394   7.802  0.1006 -1.9727 -0.3040
 6042SOL     OW29758   2.044   3.074   5.304  0.1611  0.0395  0.0147
 6042SOL    HW129759   1.988   3.080   5.382  1.1122  1.4714  0.5732
 6042SOL    HW229760   1.983   3.074   5.230  1.6546 -0.8099 -1.2204
 6043SOL     OW29761   4.395   1.144   2.113  0.2420  0.2757 -0.1080
 6043SOL    HW129762   4.440   1.226   2.094 -1.5358  1.0622 -0.9615
 6043SOL    HW229763   4.310   1.184   2.136 -1.0735 -2.3450 -0.4403
 6044SOL     OW29764   1.032   3.058  15.925  0.3574 -0.1694  0.1811
 6044SOL    HW129765   1.002   3.113  15.998 -2.0654 -1.3627  0.0927
 6044SOL    HW229766   1.096   3.119  15.887  0.2688 -1.4209 -2.0122
 6045SOL     OW29767   0.879   1.980   3.872 -0.0704  0.0020 -0.3387
 6045SOL    HW129768   0.879   2.006   3.964  0.8332  1.3042 -0.6942
 6045SOL    HW229769   0.801   1.926   3.871 -0.9547  1.2473  1.3131
 6046SOL     OW29770   4.491   0.210   4.643  0.4038 -0.2795 -0.4259
 6046SOL    HW129771   4.570   0.262   4.630  0.8338 -0.5473  1.1538
 6046SOL    HW229772   4.517   0.145   4.708  0.8618 -0.9346 -1.2482
 6047SOL     OW29773   1.601   0.801   5.951  0.0147  0.1788  0.5354
 6047SOL    HW129774   1.553   0.724   5.980 -1.2334  1.2767  1.3579
 6047SOL    HW229775   1.539   0.856   5.904 -0.6424 -0.2586  0.9032
 6048SOL     OW29776   1.840   2.931  12.210  0.0018  0.3221  0.2533
 6048SOL    HW129777   1.807   2.841  12.206  2.6266 -0.5394 -2.6601
 6048SOL    HW229778   1.822   2.951  12.301  1.9131  0.9331  0.5009
 6049SOL     OW29779   1.601   3.760   5.298 -0.0240 -0.0216  0.0100
 6049SOL    HW129780   1.601   3.788   5.206  0.9311 -1.5278 -0.4356
 6049SOL    HW229781   1.636   3.841   5.334  0.3832 -0.0778 -0.2633
 6050SOL     OW29782   2.674   1.593   3.447 -0.2922  0.9250 -0.4687
 6050SOL    HW129783   2.615   1.526   3.482 -0.3168 -0.1191 -2.5229
 6050SOL    HW229784   2.611   1.661   3.425 -1.0597  0.0610 -0.9626
 6051SOL     OW29785   2.130   4.692   3.578  0.0016 -0.5620  0.0100
 6051SOL    HW129786   2.193   4.692   3.505  1.4646  2.0859  1.2802
 6051SOL    HW229787   2.069   0.008   3.531 -1.4989 -1.0939  1.3148
 6052SOL     OW29788   1.036   1.672   8.556 -0.2382  0.4323 -0.0994
 6052SOL    HW129789   0.981   1.621   8.496  0.0747 -0.1042  0.0691
 6052SOL    HW229790   1.113   1.668   8.499 -1.1748 -1.9489 -1.2229
 6053SOL     OW29791   1.638   2.143   6.427  0.8509 -0.5397 -0.0103
 6053SOL    HW129792   1.595   2.201   6.363  1.0147 -1.2962 -0.7996
 6053SOL    HW229793   1.727   2.172   6.409  0.8857  0.8095  2.2879
 6054SOL     OW29794   2.813   2.213   5.658 -0.3884 -0.5743 -0.0385
 6054SOL    HW129795   2.876   2.271   5.700  1.3139 -1.1685 -1.7712
 6054SOL    HW229796   2.809   2.145   5.726 -2.3401 -0.7119 -0.2975
 6055SOL     OW29797   4.090   3.008   0.647  0.0171  0.0573 -0.0228
 6055SOL    HW129798   4.142   2.941   0.603  0.2311  0.3915 -0.2880
 6055SOL    HW229799   4.013   3.009   0.591  0.5896  1.5890 -0.7929
 6056SOL     OW29800   3.196   1.163   7.260  0.0583  0.4499 -0.0310
 6056SOL    HW129801   3.119   1.132   7.212  0.7314 -1.8139  0.3490
 6056SOL    HW229802   3.248   1.088   7.231 -1.9566 -1.1995  0.6133
 6057SOL     OW29803   2.155   0.164  12.890 -0.3694 -0.2879  0.4155
 6057SOL    HW129804   2.151   0.074  12.858  1.2009 -0.9555  2.0876
 6057SOL    HW229805   2.083   0.166  12.953 -0.9129  2.1404 -0.2908
 6058SOL     OW29806   0.801   0.077   9.627 -0.0465 -0.2958 -0.3406
 6058SOL    HW129807   0.850   0.136   9.570  0.0645  1.1590  1.2628
 6058SOL    HW229808   0.751   0.134   9.685  1.6644 -0.0349  0.8745
 6059SOL     OW29809   3.767   0.427   5.279  0.8009 -0.1423  0.0859
 6059SOL    HW129810   3.824   0.486   5.327 -0.9927  0.9846  0.8254
 6059SOL    HW229811   3.836   0.377   5.235  1.0033  0.7083 -0.5537
 6060SOL     OW29812   1.125   4.027  14.510 -0.2498  0.5075  0.3468
 6060SOL    HW129813   1.170   3.996  14.589  1.5599 -0.3482 -1.0110
 6060SOL    HW229814   1.180   4.102  14.485 -0.0612  0.6608  1.2036
 6061SOL     OW29815   3.069   3.178  12.888  0.1259 -0.1793 -0.3545
 6061SOL    HW129816   3.008   3.141  12.952  0.5613  0.4223  0.4217
 6061SOL    HW229817   3.129   3.218  12.951 -0.5106  0.6589 -0.2806
 6062SOL     OW29818   1.833   3.189  17.362  0.1217 -0.1448  0.1449
 6062SOL    HW129819   1.824   3.264  17.303  2.3718 -1.1468 -1.4160
 6062SOL    HW229820   1.927   3.186  17.375  0.6439  1.5819 -3.1843
 6063SOL     OW29821   1.591   2.756   9.236 -0.2484  0.5562 -0.0342
 6063SOL    HW129822   1.565   2.773   9.326  0.4474  2.1167 -0.1181
 6063SOL    HW229823   1.535   2.680   9.221 -0.7431  0.7695  0.7311
 6064SOL     OW29824   4.105   3.211   3.840  0.3723  0.0297  0.2992
 6064SOL    HW129825   4.028   3.232   3.787  0.1711 -1.8290 -0.1555
 6064SOL    HW229826   4.072   3.157   3.911 -2.6587 -0.2656 -1.3102
 6065SOL     OW29827   0.714   3.840  16.184  0.2293 -0.4525  0.5741
 6065SOL    HW129828   0.665   3.865  16.262 -0.2235 -2.9875  1.1164
 6065SOL    HW229829   0.657   3.792  16.124  1.0751  0.2750 -0.8263
 6066SOL     OW29830   1.197   0.964   4.628 -0.0017  0.0663  0.7210
 6066SOL    HW129831   1.246   1.039   4.595  0.3698 -0.5377 -0.0925
 6066SOL    HW229832   1.228   0.965   4.719  2.0132  1.0827  0.0231
 6067SOL     OW29833   1.084   3.041   7.538  0.2550  0.4928 -0.0293
 6067SOL    HW129834   1.107   2.964   7.590 -1.4091  0.1452  0.2061
 6067SOL    HW229835   1.002   3.012   7.497  0.9366 -0.5904 -0.6048
 6068SOL     OW29836   0.171   3.773   9.129 -0.4167  0.1232 -0.4602
 6068SOL    HW129837   0.209   3.851   9.089  2.2755  0.2234  2.3587
 6068SOL    HW229838   0.181   3.809   9.217  1.4981 -2.1384  0.2535
 6069SOL     OW29839   2.909   3.372   4.228  0.1030  0.3851  0.2046
 6069SOL    HW129840   2.985   3.412   4.186 -1.1306  0.7698 -1.6862
 6069SOL    HW229841   2.950   3.293   4.262 -1.6423 -0.9568 -0.7854
 6070SOL     OW29842   1.621   4.557   5.368 -0.2025  0.4937  0.2580
 6070SOL    HW129843   1.598   4.578   5.277 -0.7627  0.7012  0.4468
 6070SOL    HW229844   1.688   4.490   5.357  0.9764  1.8292 -0.7767
 6071SOL     OW29845   4.477   0.603  16.350  0.2181  0.2285  0.1709
 6071SOL    HW129846   4.500   0.626  16.260  1.1310 -0.8951  0.1060
 6071SOL    HW229847   4.383   0.614  16.341  0.2581  0.5051  0.1051
 6072SOL     OW29848   0.780   2.223   7.035 -0.0398  0.1466 -0.2082
 6072SOL    HW129849   0.771   2.228   7.130  0.8044  0.5369 -0.1575
 6072SOL    HW229850   0.737   2.138   7.030  1.2195 -0.3298 -2.4452
 6073SOL     OW29851   3.052   0.384  15.162 -0.2438  0.1748  0.2253
 6073SOL    HW129852   3.078   0.313  15.104  1.0169  1.1988 -0.4508
 6073SOL    HW229853   3.134   0.406  15.205  0.9162 -0.5151 -1.6273
 6074SOL     OW29854   2.118   0.416   4.973  0.3479  0.9186  0.2491
 6074SOL    HW129855   2.061   0.396   4.899  1.5510 -0.3814 -0.3419
 6074SOL    HW229856   2.172   0.481   4.930  2.2365  0.4405  1.8850
 6075SOL     OW29857   2.361   1.340   8.825  0.0854 -0.5726 -0.3037
 6075SOL    HW129858   2.412   1.304   8.753  1.5390 -1.6774  1.2606
 6075SOL    HW229859   2.416   1.416   8.844 -0.5068 -0.0579 -0.6598
 6076SOL     OW29860   1.550   1.618   1.994  0.1437  0.5139  0.2824
 6076SOL    HW129861   1.562   1.523   1.990 -1.0201  0.3953 -0.2555
 6076SOL    HW229862   1.585   1.645   1.909  1.6690 -0.0780  0.7195
 6077SOL     OW29863   4.127   1.847   2.969  0.5231  0.2983  0.7449
 6077SOL    HW129864   4.050   1.854   2.912  0.0824  2.2525  1.5721
 6077SOL    HW229865   4.096   1.905   3.038 -3.0044  2.2420 -2.4343
 6078SOL     OW29866   2.075   3.422  14.284 -0.0471  0.0102 -0.0749
 6078SOL    HW129867   2.046   3.334  14.308 -2.4159  0.7406 -0.2339
 6078SOL    HW229868   2.054   3.426  14.191 -2.0735  0.9875  0.4272
 6079SOL     OW29869   1.183   0.122  16.627  0.3794 -0.0030  0.1491
 6079SOL    HW129870   1.264   0.165  16.655  0.5230  0.0777 -0.3862
 6079SOL    HW229871   1.128   0.136  16.704  0.0335 -0.4541 -0.0186
 6080SOL     OW29872   4.717   0.847   5.892 -0.0580 -0.0896 -0.4451
 6080SOL    HW129873   4.703   0.811   5.805  1.4107 -2.4989  0.3189
 6080SOL    HW229874   0.015   0.930   5.864 -0.4837 -0.5080 -2.2489
 6081SOL     OW29875   1.652   2.019   3.550  0.1279  0.2624  0.4495
 6081SOL    HW129876   1.699   1.945   3.514  0.2302 -0.0222  1.1684
 6081SOL    HW229877   1.591   2.025   3.476 -0.9659  0.8264  1.3909
 6082SOL     OW29878   4.564   4.316  11.564  0.4655  0.0070 -0.7533
 6082SOL    HW129879   4.577   4.322  11.469  2.5107  0.6796 -0.4409
 6082SOL    HW229880   4.583   4.224  11.582  2.1730  0.4774 -0.1160
 6083SOL     OW29881   3.226   3.521   7.306 -0.4606 -0.4379  0.1219
 6083SOL    HW129882   3.312   3.486   7.280 -0.1236 -0.0753  0.7263
 6083SOL    HW229883   3.241   3.515   7.401  3.1145 -0.7424 -0.4446
 6084SOL     OW29884   3.359   2.024  12.879 -0.9496 -0.0498 -0.4183
 6084SOL    HW129885   3.434   2.071  12.916 -2.1782  1.2105  0.4728
 6084SOL    HW229886   3.357   1.945  12.932  0.5845  0.6521  0.6786
 6085SOL     OW29887   3.989   1.570   9.438 -0.0108  0.0990  0.2434
 6085SOL    HW129888   4.028   1.548   9.353  2.3297 -0.0525  1.3840
 6085SOL    HW229889   3.949   1.483   9.444 -2.9286  1.2783 -1.7946
 6086SOL     OW29890   4.053   1.185   5.524  0.1203  0.0732 -0.4535
 6086SOL    HW129891   4.131   1.176   5.579 -0.1363  1.6894  0.1765
 6086SOL    HW229892   4.008   1.254   5.573 -0.1072 -0.6783  0.3977
 6087SOL     OW29893   0.364   0.423   2.269 -0.4015 -0.6118 -0.2419
 6087SOL    HW129894   0.403   0.510   2.261  1.0028 -1.0664  1.6953
 6087SOL    HW229895   0.290   0.447   2.324  0.6667  1.9420  0.0958
 6088SOL     OW29896   3.446   4.466  17.547 -0.0992  0.1981  0.5026
 6088SOL    HW129897   3.364   4.446  17.593 -0.7487  0.3404 -0.6054
 6088SOL    HW229898   3.431   4.555  17.514  1.3280 -0.0151 -0.7294
 6089SOL     OW29899   4.080   2.569   3.300  0.1281  0.2007 -0.0338
 6089SOL    HW129900   4.102   2.567   3.393  1.6807  0.5520 -0.3966
 6089SOL    HW229901   4.130   2.499   3.260  0.0198  1.7170 -2.8341
 6090SOL     OW29902   1.829   2.709   6.588  0.9578  0.2757  0.1324
 6090SOL    HW129903   1.780   2.784   6.623 -0.3547  0.1347 -1.4118
 6090SOL    HW229904   1.918   2.742   6.596  0.5906  0.5262  3.2824
 6091SOL     OW29905   4.666   0.685  13.879 -0.3586  0.1053  0.4465
 6091SOL    HW129906   4.726   0.631  13.829 -0.3234 -0.9961  1.7058
 6091SOL    HW229907   4.605   0.630  13.928  2.1273 -1.1293  2.1471
 6092SOL     OW29908   0.564   3.709  12.202  0.1564  0.2742 -0.0070
 6092SOL    HW129909   0.519   3.644  12.255 -0.9644 -0.4444 -1.8333
 6092SOL    HW229910   0.611   3.637  12.159 -1.0149 -0.2918 -0.3491
 6093SOL     OW29911   0.188   0.774   8.400 -0.5287 -0.1272  0.3203
 6093SOL    HW129912   0.137   0.733   8.330  0.1099  1.9547 -1.3551
 6093SOL    HW229913   0.254   0.834   8.364  1.1616 -1.4591  1.1769
 6094SOL     OW29914   0.588   2.129   4.145  0.3139 -0.3525  0.2135
 6094SOL    HW129915   0.640   2.207   4.165 -0.5724  0.3446 -0.2052
 6094SOL    HW229916   0.654   2.067   4.116 -1.5794 -3.2556  2.1470
 6095SOL     OW29917   1.897   0.685   8.349 -0.4459 -0.1033  0.1904
 6095SOL    HW129918   1.827   0.621   8.365  0.0568  0.0318  2.9866
 6095SOL    HW229919   1.890   0.682   8.254 -0.3933  1.9276  0.1290
 6096SOL     OW29920   4.050   0.041   9.350  0.3796 -0.1041  0.1085
 6096SOL    HW129921   4.090   0.066   9.267 -2.0737  0.7318 -0.8137
 6096SOL    HW229922   4.107   0.098   9.402 -0.7498  1.6759 -0.6218
 6097SOL     OW29923   3.384   1.778   3.742  0.2733 -0.1483 -0.5098
 6097SOL    HW129924   3.321   1.716   3.778 -0.0067  0.0419 -0.6725
 6097SOL    HW229925   3.327   1.824   3.680  0.3827 -1.6949 -1.7567
 6098SOL     OW29926   2.380   2.584   3.696  0.4775 -0.6797 -0.5866
 6098SOL    HW129927   2.368   2.516   3.763 -0.3626  0.6007  0.5580
 6098SOL    HW229928   2.465   2.570   3.654  0.2178  1.6078 -1.8793
 6099SOL     OW29929   1.193   2.944  14.901  0.5647  0.2314  0.4208
 6099SOL    HW129930   1.224   2.859  14.871  2.0793  0.1460  2.1847
 6099SOL    HW229931   1.212   2.996  14.823 -1.0587 -1.1129 -0.8655
 6100SOL     OW29932   0.834   1.373   5.086 -0.0157 -0.3597 -0.3530
 6100SOL    HW129933   0.738   1.369   5.089  0.0935 -2.1729  0.3225
 6100SOL    HW229934   0.854   1.297   5.032 -0.5841  0.8554 -2.3057
 6101SOL     OW29935   3.412   4.378   1.743  0.0906 -0.4026  0.8439
 6101SOL    HW129936   3.504   4.358   1.761  0.2430  0.2748  0.8041
 6101SOL    HW229937   3.408   4.326   1.663  0.9630  0.9864 -0.1077
 6102SOL     OW29938   1.140   0.105   6.641 -0.0437 -0.0367 -0.2763
 6102SOL    HW129939   1.078   0.157   6.693 -0.9490 -1.5128  0.1086
 6102SOL    HW229940   1.115   0.130   6.552  0.7814 -0.6739 -0.6807
 6103SOL     OW29941   1.461   4.119  14.397  0.2859  0.0115  0.3786
 6103SOL    HW129942   1.483   4.176  14.471  0.4896  1.3352 -0.7142
 6103SOL    HW229943   1.373   4.150  14.374  0.5231  1.9294  2.0236
 6104SOL     OW29944   0.330   0.259   2.546 -0.3556 -0.3515 -0.1126
 6104SOL    HW129945   0.270   0.185   2.547 -1.8870  0.9009  0.5471
 6104SOL    HW229946   0.362   0.253   2.456  0.5413 -2.5012  0.3474
 6105SOL     OW29947   3.337   0.494   7.166 -0.4036 -0.2115  0.5501
 6105SOL    HW129948   3.340   0.423   7.102  1.1812  1.5987 -1.3919
 6105SOL    HW229949   3.382   0.450   7.239  2.2318  3.1210  0.9153
 6106SOL     OW29950   4.461   4.054  10.659 -0.4355 -0.6170 -0.1547
 6106SOL    HW129951   4.480   3.962  10.678  3.8927  0.4521  0.7033
 6106SOL    HW229952   4.483   4.074  10.568 -0.6556  2.6607  0.5235
 6107SOL     OW29953   1.645   1.349   1.971  0.0703 -0.1926  0.6481
 6107SOL    HW129954   1.733   1.317   1.956 -0.4771 -0.9439 -0.8884
 6107SOL    HW229955   1.597   1.297   1.907  0.1667 -0.1626  0.5518
 6108SOL     OW29956   0.110   2.017   0.607  0.3628 -0.7628 -0.2651
 6108SOL    HW129957   0.058   1.981   0.536  1.2315 -0.4394 -1.0643
 6108SOL    HW229958   0.190   2.054   0.571 -0.2856  0.1549 -0.7505
 6109SOL     OW29959   3.962   0.751   6.255  0.3022 -0.1386 -0.1758
 6109SOL    HW129960   4.015   0.809   6.310  0.4994 -1.2622  0.8315
 6109SOL    HW229961   3.941   0.681   6.316  2.6914 -3.2321 -2.9068
 6110SOL     OW29962   3.848   3.591   4.099  0.0591 -0.4985 -0.5347
 6110SOL    HW129963   3.757   3.584   4.070  0.0946 -2.2715 -0.1976
 6110SOL    HW229964   3.896   3.594   4.017 -0.3770 -2.9571 -0.8543
 6111SOL     OW29965   0.533   3.215   1.099  0.7621 -0.7157 -0.2332
 6111SOL    HW129966   0.507   3.148   1.163  2.0352 -0.5377  0.4628
 6111SOL    HW229967   0.626   3.226   1.115  0.3908 -0.8068  1.9852
 6112SOL     OW29968   3.837   4.354   4.869  0.5634 -0.7990  1.0908
 6112SOL    HW129969   3.812   4.341   4.961 -0.6742  0.0469  0.8717
 6112SOL    HW229970   3.753   4.340   4.826  0.3791  1.8647  0.5759
 6113SOL     OW29971   4.018   1.467   6.269  0.4380 -0.5056 -0.3291
 6113SOL    HW129972   3.988   1.493   6.182 -0.4713 -2.3546 -0.5796
 6113SOL    HW229973   3.936   1.427   6.299  0.9574 -1.4364 -0.1444
 6114SOL     OW29974   2.728   4.312   6.289 -0.0401  0.3005  0.2236
 6114SOL    HW129975   2.793   4.382   6.283 -0.7580  0.8908 -0.7337
 6114SOL    HW229976   2.716   4.294   6.196  0.7328  0.1226  0.1574
 6115SOL     OW29977   4.111   2.251   5.924  0.0994  0.0890  0.1765
 6115SOL    HW129978   4.153   2.239   6.009  0.4054 -1.3637 -0.1827
 6115SOL    HW229979   4.179   2.297   5.875 -0.4622 -0.8827 -1.5127
 6116SOL     OW29980   4.533   0.122   7.626  0.4313 -0.2465  0.3802
 6116SOL    HW129981   4.454   0.071   7.645 -0.1288  1.9646  3.9202
 6116SOL    HW229982   4.580   0.066   7.564 -0.7407 -0.3051 -0.4625
 6117SOL     OW29983   1.994   0.823   2.300  0.0283 -0.1047  0.3643
 6117SOL    HW129984   2.086   0.813   2.275  0.1609  1.9912 -0.0205
 6117SOL    HW229985   1.940   0.785   2.231  0.1505  0.2864  0.0490
 6118SOL     OW29986   3.783   1.363   7.347  0.0500 -0.2939  0.1450
 6118SOL    HW129987   3.761   1.307   7.421  1.7874  0.2652  1.0649
 6118SOL    HW229988   3.835   1.303   7.293 -0.7218 -0.3130 -0.5922
 6119SOL     OW29989   4.500   0.103   2.273 -0.2596 -0.7209  0.2760
 6119SOL    HW129990   4.532   0.188   2.302 -2.9847  1.0341 -1.8352
 6119SOL    HW229991   4.428   0.097   2.336 -0.5889  0.2657 -0.0146
 6120SOL     OW29992   4.254   4.363   3.151  0.7529 -0.7550 -0.4378
 6120SOL    HW129993   4.261   4.319   3.235 -0.6258 -0.4947 -0.1932
 6120SOL    HW229994   4.163   4.352   3.123 -0.3955  0.9117  2.6494
 6121SOL     OW29995   2.532   3.687   5.954 -0.1548  0.5132  0.1523
 6121SOL    HW129996   2.481   3.734   5.888  0.6998  0.7401 -0.3467
 6121SOL    HW229997   2.478   3.609   5.964 -0.5356  0.8989  1.1173
 6122SOL     OW29998   0.741   4.488   9.216 -0.1439  1.0497 -0.2755
 6122SOL    HW129999   0.708   4.576   9.203 -0.5739  0.8506 -0.5112
 6122SOL    HW230000   0.822   4.499   9.267  0.5961  2.4970 -1.7678
 6123SOL     OW30001   4.407   1.706   8.866  0.6060 -0.1471  0.3007
 6123SOL    HW130002   4.398   1.761   8.789 -0.3648  0.2089  0.6623
 6123SOL    HW230003   4.405   1.774   8.934  1.1905 -0.8697  1.0509
 6124SOL     OW30004   4.058   3.257   8.685 -0.4177 -0.1131 -0.1382
 6124SOL    HW130005   4.007   3.329   8.721  1.6488  1.4653 -0.3834
 6124SOL    HW230006   4.021   3.240   8.599 -0.7194 -1.7262  0.3112
 6125SOL     OW30007   2.533   1.964   6.787  0.6441 -0.1421  0.2023
 6125SOL    HW130008   2.542   1.895   6.852 -0.1488 -1.6978 -1.3331
 6125SOL    HW230009   2.452   2.005   6.816 -0.1405 -0.4628 -1.4848
 6126SOL     OW30010   1.710   2.876   6.749  0.1275  0.4182 -0.3328
 6126SOL    HW130011   1.701   2.827   6.831  0.5314 -0.8962 -1.0894
 6126SOL    HW230012   1.696   2.964   6.787 -1.1141 -0.0127  0.2149
 6127SOL     OW30013   0.382   0.446   5.875  0.4025 -0.1370 -0.5415
 6127SOL    HW130014   0.431   0.512   5.826  0.0301 -0.2838 -1.1120
 6127SOL    HW230015   0.439   0.374   5.902  0.4894  1.3311  3.2347
 6128SOL     OW30016   3.836   2.857   3.272  0.0194  0.4557  0.0058
 6128SOL    HW130017   3.811   2.791   3.207  0.3690 -0.3138  0.6400
 6128SOL    HW230018   3.791   2.826   3.351 -0.4204  0.2389 -0.3317
 6129SOL     OW30019   2.263   0.242  16.864  0.4609 -0.3341 -0.6433
 6129SOL    HW130020   2.222   0.271  16.782  1.4433  1.1025 -0.6081
 6129SOL    HW230021   2.340   0.297  16.876 -0.1871  0.0996  1.4031
 6130SOL     OW30022   2.872   2.396   7.469  0.5642 -0.6584  0.1809
 6130SOL    HW130023   2.923   2.462   7.515 -1.4423 -0.3079  1.8948
 6130SOL    HW230024   2.940   2.366   7.408  1.9761  1.1189  0.8764
 6131SOL     OW30025   0.552   2.267   9.226 -0.8844  0.2190 -0.5129
 6131SOL    HW130026   0.490   2.293   9.158 -1.0060 -0.7188 -0.7599
 6131SOL    HW230027   0.584   2.188   9.182  0.2426 -0.1387  0.9475
 6132SOL     OW30028   4.213   2.873   1.459 -0.2288  0.3527  0.6862
 6132SOL    HW130029   4.288   2.864   1.517  0.4426 -3.1300 -0.6921
 6132SOL    HW230030   4.244   2.935   1.394 -2.3209 -0.5043 -1.1530
 6133SOL     OW30031   2.186   1.519  11.674 -0.8612  0.0488 -0.1384
 6133SOL    HW130032   2.129   1.545  11.746  0.6316  0.3427  0.9523
 6133SOL    HW230033   2.146   1.433  11.656 -1.2275 -0.0473  1.1114
 6134SOL     OW30034   0.507   2.093  16.652 -0.1780 -0.2841 -0.1389
 6134SOL    HW130035   0.582   2.032  16.657  2.0891  2.5507  0.3274
 6134SOL    HW230036   0.495   2.125  16.741 -0.0122  1.5942 -0.8031
 6135SOL     OW30037   3.430   3.424   9.255 -0.0470  0.6215  0.1136
 6135SOL    HW130038   3.517   3.450   9.223  0.5175  0.3663  1.4474
 6135SOL    HW230039   3.367   3.456   9.190 -1.6044 -1.6902  0.4766
 6136SOL     OW30040   2.099   4.307   3.248 -0.4895 -0.0420 -0.1423
 6136SOL    HW130041   2.153   4.255   3.307 -0.7906 -1.4004 -1.0777
 6136SOL    HW230042   2.121   4.264   3.165  2.1766  2.3748 -0.6921
 6137SOL     OW30043   0.525   1.926  13.704 -0.0308  0.2169 -0.0834
 6137SOL    HW130044   0.477   1.851  13.669  0.5048 -0.0304 -0.2917
 6137SOL    HW230045   0.456   1.966  13.757  1.7395  3.9905 -0.6777
 6138SOL     OW30046   3.861   2.477  13.643 -0.7726 -0.0055 -0.0192
 6138SOL    HW130047   3.880   2.571  13.639 -1.3563  0.0508 -1.3611
 6138SOL    HW230048   3.767   2.474  13.624 -0.7901  1.0180 -0.0775
 6139SOL     OW30049   0.378   4.228   9.695  0.3007  0.4859 -0.1172
 6139SOL    HW130050   0.384   4.311   9.647 -0.2337  0.4764 -0.1996
 6139SOL    HW230051   0.471   4.215   9.714  0.6130  1.2135 -1.1181
 6140SOL     OW30052   3.536   4.632  13.879 -0.0254  0.2941  0.1050
 6140SOL    HW130053   3.476   4.565  13.910  0.1736 -1.0661 -2.4309
 6140SOL    HW230054   3.479   4.709  13.872  1.1426  1.0046 -1.8393
 6141SOL     OW30055   0.419   3.005  13.438  0.0395 -0.3097 -0.4481
 6141SOL    HW130056   0.405   2.976  13.528  1.3148 -0.7156 -0.3790
 6141SOL    HW230057   0.511   3.032  13.430 -0.2201  1.0122  1.0570
 6142SOL     OW30058   4.004   3.452   7.856 -0.3430  0.4181  0.1924
 6142SOL    HW130059   3.918   3.437   7.895 -1.1467 -1.5363 -2.3045
 6142SOL    HW230060   4.052   3.512   7.914  0.3476 -0.2207  0.2802
 6143SOL     OW30061   3.047   1.970  11.135  0.0532 -0.0843 -0.4474
 6143SOL    HW130062   3.028   2.005  11.222 -1.3448  1.8218 -1.5169
 6143SOL    HW230063   2.989   1.893  11.135  0.1411 -0.1582  0.3679
 6144SOL     OW30064   3.571   3.895   3.612 -0.3706 -0.1394  0.7155
 6144SOL    HW130065   3.604   3.847   3.688 -0.9668  0.9500  1.6597
 6144SOL    HW230066   3.569   3.988   3.633 -0.2876 -0.3719  1.7473
 6145SOL     OW30067   2.828   2.431  15.208 -0.0566 -0.2463 -0.0573
 6145SOL    HW130068   2.878   2.407  15.286 -0.6715  0.0734  0.4358
 6145SOL    HW230069   2.893   2.481  15.159  2.3942 -1.8548  1.5484
 6146SOL     OW30070   2.034   1.725   4.752  0.1112  0.2036  0.0340
 6146SOL    HW130071   2.034   1.723   4.656 -0.3749 -1.0263  0.0613
 6146SOL    HW230072   2.115   1.771   4.774  2.0616 -2.5920 -1.3010
 6147SOL     OW30073   2.818   0.651   9.335 -0.4150  0.5429  0.0900
 6147SOL    HW130074   2.815   0.667   9.429 -1.3736 -1.2894  0.3695
 6147SOL    HW230075   2.892   0.708   9.315 -1.4124  1.1392 -1.8751
 6148SOL     OW30076   2.446   2.004  11.897  0.5068  0.6500 -0.3201
 6148SOL    HW130077   2.417   1.948  11.825  2.2705  0.0371 -0.5478
 6148SOL    HW230078   2.522   1.955  11.929 -2.2900 -2.3173  1.7148
 6149SOL     OW30079   2.438   4.724   4.376 -0.0237 -0.0429 -0.1896
 6149SOL    HW130080   2.465   0.072   4.397  0.5034  0.0727 -1.3384
 6149SOL    HW230081   2.511   4.673   4.412  0.2919  0.4094 -0.1892
 6150SOL     OW30082   2.147   1.365   7.097 -0.0254  0.4523  0.2872
 6150SOL    HW130083   2.074   1.320   7.139 -0.3431 -0.0205 -0.7883
 6150SOL    HW230084   2.090   1.425   7.049 -0.0346 -0.6012 -1.0077
 6151SOL     OW30085   2.573   1.866   7.035  0.2625 -0.1671 -0.4025
 6151SOL    HW130086   2.630   1.908   7.099 -0.5953  1.3689 -0.6590
 6151SOL    HW230087   2.623   1.785   7.020  0.1582  0.0320 -1.8268
 6152SOL     OW30088   2.836   4.663   7.418 -0.2800 -0.2552  0.2454
 6152SOL    HW130089   2.928   4.663   7.390 -0.1974 -1.4248  0.5428
 6152SOL    HW230090   2.791   4.607   7.356  2.1690 -0.1905 -1.5985
 6153SOL     OW30091   2.172   3.236   5.688  0.6918  0.1916 -0.0938
 6153SOL    HW130092   2.234   3.256   5.617  0.1231  2.0990 -0.0517
 6153SOL    HW230093   2.093   3.215   5.638  0.9067  2.2611 -1.3417
 6154SOL     OW30094   4.228   1.034   8.156 -0.5654  0.0547  0.2101
 6154SOL    HW130095   4.308   1.035   8.209 -1.9606 -1.4652  2.3241
 6154SOL    HW230096   4.200   0.946   8.180 -1.9111  0.6447  0.8092
 6155SOL     OW30097   1.098   4.180  13.553 -0.0071  0.9282 -0.1131
 6155SOL    HW130098   1.019   4.130  13.533 -0.5379  0.3352  3.6122
 6155SOL    HW230099   1.164   4.112  13.539  0.1645  0.8414  1.1417
 6156SOL     OW30100   4.646   1.457  12.779 -0.3044  0.3582 -0.5565
 6156SOL    HW130101   4.561   1.470  12.820 -0.8367 -0.1398 -1.5097
 6156SOL    HW230102   4.702   1.412  12.842  0.9180 -0.0510 -1.9313
 6157SOL     OW30103   1.037   3.356  16.452 -0.0975 -0.4076 -0.2487
 6157SOL    HW130104   1.016   3.388  16.365  0.5513  2.1206  0.5204
 6157SOL    HW230105   1.015   3.435  16.502 -0.9452 -0.3052 -0.7922
 6158SOL     OW30106   4.663   0.544   5.079 -0.3677 -0.2363  0.5646
 6158SOL    HW130107   4.693   0.506   5.161 -0.3478  0.6083  0.9425
 6158SOL    HW230108   4.652   0.465   5.025  3.1454 -0.0054 -0.5017
 6159SOL     OW30109   3.126   4.620   4.614 -0.1493  0.1501 -0.0589
 6159SOL    HW130110   3.053   4.680   4.627 -0.0531  0.0356  0.9825
 6159SOL    HW230111   3.150   4.623   4.521  1.7290 -0.0709  0.4209
 6160SOL     OW30112   4.546   1.876   4.590  0.7612  0.2004  0.0385
 6160SOL    HW130113   4.492   1.938   4.638 -1.1709 -1.5812  0.1450
 6160SOL    HW230114   4.498   1.890   4.509  2.6662 -0.5803 -1.2359
 6161SOL     OW30115   1.799   4.082   4.478 -0.1715  0.2271  0.2226
 6161SOL    HW130116   1.802   4.044   4.391  3.1684 -0.2146  0.5369
 6161SOL    HW230117   1.763   4.009   4.529  0.2617  0.9162  1.5176
 6162SOL     OW30118   0.429   3.162   7.074 -0.2770  0.4483  0.3876
 6162SOL    HW130119   0.451   3.110   7.152  0.3533  0.6424  0.3360
 6162SOL    HW230120   0.513   3.200   7.051 -0.0421 -1.2264 -1.5639
 6163SOL     OW30121   3.608   4.157   3.722  0.1344 -0.3763 -0.9244
 6163SOL    HW130122   3.612   4.139   3.816 -0.9986 -1.7816 -1.1334
 6163SOL    HW230123   3.539   4.222   3.730  0.9971  0.5627 -1.1126
 6164SOL     OW30124   1.732   1.558  11.570 -0.4931  0.5236  0.0607
 6164SOL    HW130125   1.693   1.572  11.484  1.4845  0.3930 -0.8445
 6164SOL    HW230126   1.802   1.623  11.566 -0.6313  0.6426 -0.4042
 6165SOL     OW30127   3.525   2.951   7.327  0.2146  0.4414  0.1421
 6165SOL    HW130128   3.476   3.011   7.384 -1.5830 -1.5389  0.6771
 6165SOL    HW230129   3.512   2.861   7.356  0.6927 -0.3513 -2.0746
 6166SOL     OW30130   0.804   0.263   3.146  0.3834  0.2813  0.6262
 6166SOL    HW130131   0.746   0.194   3.115 -0.5166  0.7636  1.2254
 6166SOL    HW230132   0.889   0.238   3.111 -0.5026  0.6603 -1.7751
 6167SOL     OW30133   0.438   4.282   5.670 -0.7138  0.4825  0.1569
 6167SOL    HW130134   0.474   4.324   5.592  0.9198 -1.2802 -0.0274
 6167SOL    HW230135   0.492   4.324   5.737 -1.9177  0.7700  0.9433
 6168SOL     OW30136   0.017   2.113   1.626  0.5107 -0.1121 -0.7900
 6168SOL    HW130137   4.705   2.037   1.649 -1.1760  1.6426  1.1785
 6168SOL    HW230138   4.720   2.128   1.539 -1.3002 -1.6815 -0.2713
 6169SOL     OW30139   1.604   1.784  10.449 -0.4621 -0.0844  0.2499
 6169SOL    HW130140   1.522   1.740  10.427 -0.7226  0.9083 -0.7565
 6169SOL    HW230141   1.574   1.866  10.488  1.0478  0.7931 -0.4514
 6170SOL     OW30142   3.922   1.081  10.707 -0.6517 -0.5522 -0.6549
 6170SOL    HW130143   3.990   1.146  10.722  0.0267 -0.7719 -2.7946
 6170SOL    HW230144   3.923   1.084  10.612 -2.1546 -0.9905 -0.6788
 6171SOL     OW30145   4.256   0.313   3.469 -0.7222 -0.0527 -0.0494
 6171SOL    HW130146   4.182   0.259   3.495 -1.3764 -0.1104 -2.0195
 6171SOL    HW230147   4.326   0.253   3.443 -0.5298 -0.6346  1.8163
 6172SOL     OW30148   0.768   2.375   1.342  0.2341 -0.4859  0.2056
 6172SOL    HW130149   0.848   2.372   1.290  0.7532  1.6811  0.8808
 6172SOL    HW230150   0.718   2.437   1.288 -2.2250  0.2203  3.2674
 6173SOL     OW30151   0.303   1.291   0.988 -0.2246  0.3026  0.1751
 6173SOL    HW130152   0.322   1.199   0.967  0.9401  0.5319  0.1939
 6173SOL    HW230153   0.360   1.300   1.064 -2.5412  0.3945  1.8904
 6174SOL     OW30154   0.023   0.467   3.537 -0.3351 -0.1656 -0.0013
 6174SOL    HW130155   0.017   0.561   3.557  3.1494  0.7464 -3.2279
 6174SOL    HW230156   0.037   0.431   3.625 -2.0308  0.6969  0.6216
 6175SOL     OW30157   0.417   2.298   5.222 -0.3154 -0.3624 -0.3087
 6175SOL    HW130158   0.481   2.305   5.152 -0.3233  0.8500 -0.1810
 6175SOL    HW230159   0.430   2.212   5.262  3.7301  1.1613  1.6112
 6176SOL     OW30160   2.231   2.351   6.048  0.4495 -0.4698 -0.0678
 6176SOL    HW130161   2.249   2.396   5.966  1.3258 -1.3253 -0.3375
 6176SOL    HW230162   2.136   2.365   6.053  0.6373  0.8887 -0.2748
 6177SOL     OW30163   0.608   2.491   0.787  0.4146  0.2100 -0.5295
 6177SOL    HW130164   0.652   2.507   0.703  2.9641 -0.5683  0.6652
 6177SOL    HW230165   0.557   2.416   0.756  2.5148 -1.2014 -0.5286
 6178SOL     OW30166   2.747   1.852   6.129  1.0037 -0.2731 -0.0806
 6178SOL    HW130167   2.687   1.856   6.055 -2.5254 -1.5667  2.7113
 6178SOL    HW230168   2.710   1.778   6.177  2.8775  0.5586  2.6097
 6179SOL     OW30169   3.561   0.124   2.153  0.1001 -0.2156 -0.3743
 6179SOL    HW130170   3.579   0.206   2.200  2.5368 -0.9897  0.0340
 6179SOL    HW230171   3.477   0.137   2.109 -0.8177  0.0761  1.4775
 6180SOL     OW30172   1.327   4.238  11.516  0.1560 -0.5565  0.3784
 6180SOL    HW130173   1.417   4.204  11.508  0.6815  1.0688 -0.5459
 6180SOL    HW230174   1.323   4.297  11.441 -0.0766 -0.8872  0.1314
 6181SOL     OW30175   2.156   1.168   5.951 -0.1626 -0.3806 -0.1009
 6181SOL    HW130176   2.251   1.159   5.936  0.0585  1.8481  0.0307
 6181SOL    HW230177   2.122   1.089   5.993  1.4931 -2.2326 -2.2083
 6182SOL     OW30178   2.883   0.728   1.993  0.2726  0.0489 -0.5062
 6182SOL    HW130179   2.838   0.776   2.062 -0.9000  0.0365 -1.2719
 6182SOL    HW230180   2.810   0.711   1.934 -1.3112 -2.5892  2.2268
 6183SOL     OW30181   1.666   0.881   6.599  0.4633  0.8356 -0.5731
 6183SOL    HW130182   1.633   0.959   6.555  0.6197  0.7488 -0.8395
 6183SOL    HW230183   1.615   0.806   6.570 -0.9761  1.7920 -0.5220
 6184SOL     OW30184   0.512   3.986   3.749 -0.0016  0.1413 -0.1979
 6184SOL    HW130185   0.574   4.035   3.803  1.7175 -1.1053 -1.0235
 6184SOL    HW230186   0.534   3.894   3.756 -0.0744  0.0266 -1.4845
 6185SOL     OW30187   3.165   2.482   9.499  0.0426 -0.0205  0.1890
 6185SOL    HW130188   3.144   2.392   9.522  3.0859  0.0112  3.1476
 6185SOL    HW230189   3.074   2.513   9.494  0.9638  2.8455  1.6184
 6186SOL     OW30190   3.877   4.641   5.778  0.2495  0.0076  0.2866
 6186SOL    HW130191   3.912   4.600   5.698  1.6336 -1.2487  1.5346
 6186SOL    HW230192   3.844   4.561   5.819 -2.2541  1.3950  0.9911
 6187SOL     OW30193   0.911   1.262   6.894 -0.5833 -0.5552 -0.1300
 6187SOL    HW130194   0.894   1.298   6.806  3.2063  0.7634 -0.2951
 6187SOL    HW230195   0.989   1.210   6.879 -1.2322 -1.5985  0.1183
 6188SOL     OW30196   0.513   1.528   0.871 -0.1638  0.0196 -0.0295
 6188SOL    HW130197   0.527   1.458   0.935 -1.4322  1.2133  1.5589
 6188SOL    HW230198   0.583   1.506   0.810  1.4472 -2.0810  2.5396
 6189SOL     OW30199   0.148   1.929  16.330 -0.0866  0.3671  0.5122
 6189SOL    HW130200   0.126   1.987  16.258  2.2339  1.5715  0.7537
 6189SOL    HW230201   0.212   1.872  16.286  0.5764  0.6541  1.1024
 6190SOL     OW30202   1.480   2.021  10.538 -0.4829 -0.3112  0.3355
 6190SOL    HW130203   1.466   2.091  10.602 -0.6557 -0.7885  0.8199
 6190SOL    HW230204   1.404   2.027  10.480 -0.9279  1.1331  1.0794
 6191SOL     OW30205   4.708   2.171   5.157  0.1557 -0.7584 -0.3513
 6191SOL    HW130206   0.020   2.245   5.126 -0.7482 -0.8050 -1.9966
 6191SOL    HW230207   4.740   2.161   5.247  1.6878  1.7459 -0.6116
 6192SOL     OW30208   4.506   4.359   7.362 -0.2699  0.0910  0.2779
 6192SOL    HW130209   4.464   4.445   7.370 -0.2023  0.3032 -1.7172
 6192SOL    HW230210   4.522   4.337   7.454 -2.1881 -1.4535  0.2387
 6193SOL     OW30211   2.591   0.317  11.869 -0.0280  0.2254 -0.4918
 6193SOL    HW130212   2.585   0.259  11.944 -0.3292  0.6383 -0.1960
 6193SOL    HW230213   2.529   0.263  11.819 -1.3583  0.9404  0.3645
 6194SOL     OW30214   0.981   3.254  13.722  0.2010  0.7025  0.2625
 6194SOL    HW130215   1.027   3.193  13.665  1.7235  1.7173  0.3957
 6194SOL    HW230216   0.986   3.207  13.805  2.6632  0.2494 -0.1440
 6195SOL     OW30217   0.962   3.623   7.532 -0.1044  0.1432 -0.2086
 6195SOL    HW130218   0.989   3.538   7.496  2.1518  1.2699 -1.1650
 6195SOL    HW230219   1.046   3.670   7.527 -0.1087  0.4641  3.1659
 6196SOL     OW30220   2.621   3.084   7.743 -0.0649 -0.2353 -0.1712
 6196SOL    HW130221   2.618   3.142   7.667  0.5889  0.3736  0.2731
 6196SOL    HW230222   2.633   3.146   7.816  3.5644  0.4239 -1.3375
 6197SOL     OW30223   2.812   0.751   4.314  0.4642 -0.5794 -0.1456
 6197SOL    HW130224   2.796   0.669   4.268  0.3516 -0.4475 -0.3442
 6197SOL    HW230225   2.722   0.785   4.316  1.6747  2.5585  0.8828
 6198SOL     OW30226   3.272   4.047   9.983  0.2637 -0.7167 -0.0446
 6198SOL    HW130227   3.186   4.009  10.003  0.9459 -2.7505 -0.9498
 6198SOL    HW230228   3.301   4.067  10.071 -1.6293  0.4390  0.3021
 6199SOL     OW30229   1.950   3.628  12.442 -0.0278  0.3391  0.1810
 6199SOL    HW130230   1.936   3.548  12.391  1.1610 -0.4088  1.0115
 6199SOL    HW230231   2.034   3.618  12.488  1.8479 -0.8324 -3.4925
 6200SOL     OW30232   2.851   4.444   9.313  0.3870  0.1724 -0.2364
 6200SOL    HW130233   2.798   4.450   9.233  0.6185 -2.1243 -0.5657
 6200SOL    HW230234   2.805   4.503   9.372  0.7524  2.3290 -2.1297
 6201SOL     OW30235   2.098   3.869  17.447  0.0201 -0.2512 -0.0487
 6201SOL    HW130236   2.188   3.886  17.474  0.9215  0.4825 -3.5108
 6201SOL    HW230237   2.102   3.775  17.467  0.0213  0.1887  2.0125
 6202SOL     OW30238   3.241   1.792   5.873  0.1090 -0.3529  0.3458
 6202SOL    HW130239   3.263   1.800   5.966  0.3021  0.0522  0.2684
 6202SOL    HW230240   3.157   1.747   5.876 -1.0575  1.5740 -3.1515
 6203SOL     OW30241   1.000   2.715  11.431 -0.2261 -0.0909 -0.6637
 6203SOL    HW130242   0.965   2.675  11.352 -0.4282  0.4392 -0.8417
 6203SOL    HW230243   1.069   2.657  11.465  0.2295  1.0839  0.4010
 6204SOL     OW30244   4.399   1.342  11.647 -0.2662  0.1094 -0.2342
 6204SOL    HW130245   4.392   1.435  11.629  0.3047  0.2872  0.4851
 6204SOL    HW230246   4.396   1.331  11.742  0.5138 -1.7616 -0.4202
 6205SOL     OW30247   2.553   3.391   3.413 -0.4456 -0.1986 -0.2497
 6205SOL    HW130248   2.497   3.461   3.378  2.5639  0.9617 -2.6538
 6205SOL    HW230249   2.633   3.433   3.382 -0.0524  0.8669  2.1692
 6206SOL     OW30250   4.159   2.339   5.536 -0.4091  0.4809  0.3943
 6206SOL    HW130251   4.203   2.260   5.503 -0.9195  0.6404 -0.6594
 6206SOL    HW230252   4.114   2.319   5.618 -0.5690  0.2236  0.2423
 6207SOL     OW30253   1.882   0.065   6.086  0.2936  0.5928  0.4997
 6207SOL    HW130254   1.857   0.155   6.066  0.7110  0.7402  0.6423
 6207SOL    HW230255   1.942   0.038   6.016 -1.4032 -0.0327 -0.7356
 6208SOL     OW30256   4.084   0.137   3.194  0.8620 -0.0756  0.1886
 6208SOL    HW130257   4.045   0.151   3.108  0.1550  1.3465  0.7374
 6208SOL    HW230258   4.102   0.043   3.198  1.5711 -0.0611 -3.1192
 6209SOL     OW30259   3.325   1.408  13.069 -0.0752  0.0338 -0.4833
 6209SOL    HW130260   3.330   1.324  13.023  0.5316  0.3954 -1.0828
 6209SOL    HW230261   3.326   1.460  12.988  1.2014 -0.5422 -0.8396
 6210SOL     OW30262   1.007   0.141   3.013 -0.0680  0.0936 -0.6057
 6210SOL    HW130263   0.976   0.056   3.047  4.4795 -1.6648 -0.9402
 6210SOL    HW230264   1.030   0.123   2.922 -0.5687 -0.8529 -0.5487
 6211SOL     OW30265   2.181   0.361   3.581 -0.8189 -0.5999 -0.6358
 6211SOL    HW130266   2.109   0.347   3.642 -1.0678 -0.5599 -0.9239
 6211SOL    HW230267   2.229   0.286   3.618 -2.1999 -0.9997  0.3201
 6212SOL     OW30268   3.728   2.792  10.161  0.4423 -0.4242  0.2344
 6212SOL    HW130269   3.820   2.816  10.148  0.9891 -2.8729 -0.3907
 6212SOL    HW230270   3.682   2.876  10.162  1.2642  0.0432 -1.4718
 6213SOL     OW30271   1.344   1.159   3.934  0.3815  0.5816 -0.1193
 6213SOL    HW130272   1.302   1.243   3.915  0.7870  0.8526  0.1902
 6213SOL    HW230273   1.431   1.195   3.951  0.7770  0.5441 -2.0037
 6214SOL     OW30274   2.149   0.968  13.078 -0.3888  0.3168 -0.2664
 6214SOL    HW130275   2.084   0.978  13.009 -1.8452 -2.1344  0.7111
 6214SOL    HW230276   2.224   1.017  13.044 -0.2653  0.6788  0.5231
 6215SOL     OW30277   2.317   1.784  15.170 -0.3819  0.4101 -0.7090
 6215SOL    HW130278   2.257   1.809  15.100 -0.2902 -0.3687 -1.0686
 6215SOL    HW230279   2.263   1.775  15.248  1.0716  0.8724  0.3551
 6216SOL     OW30280   1.507   2.873   0.780  0.3156  0.1888  0.4619
 6216SOL    HW130281   1.491   2.795   0.728 -1.6385  0.3991  0.7522
 6216SOL    HW230282   1.576   2.921   0.733 -0.1783 -0.1923 -0.6377
 6217SOL     OW30283   2.638   1.718   9.102 -0.1823  0.0433  0.2169
 6217SOL    HW130284   2.631   1.803   9.145 -0.7600  0.9366 -1.6545
 6217SOL    HW230285   2.563   1.680   9.148 -0.3133  2.3199  1.9124
 6218SOL     OW30286   0.307   4.329   9.936 -0.3599 -0.0752 -0.6049
 6218SOL    HW130287   0.223   4.366   9.909 -0.4412 -0.4006 -0.8059
 6218SOL    HW230288   0.330   4.283   9.855 -0.8746 -0.3860 -0.5775
 6219SOL     OW30289   2.154   2.564   7.082 -0.2068  0.3982 -0.0412
 6219SOL    HW130290   2.184   2.474   7.069 -0.9474  0.1728 -0.1900
 6219SOL    HW230291   2.083   2.537   7.142  1.1559 -0.3528  1.2354
 6220SOL     OW30292   2.442   3.641   8.343  0.0160 -0.4206 -0.1537
 6220SOL    HW130293   2.501   3.566   8.341  0.2782 -0.2222  0.1701
 6220SOL    HW230294   2.367   3.602   8.387 -0.3370  0.4859  0.0534
 6221SOL     OW30295   2.640   4.475   3.888  0.4243 -0.0318 -0.3725
 6221SOL    HW130296   2.610   4.475   3.797 -0.7228 -1.2285  0.0020
 6221SOL    HW230297   2.587   4.545   3.926  2.3540  1.9129 -1.2479
 6222SOL     OW30298   3.025   0.711  10.957 -0.2490  0.0863  0.8184
 6222SOL    HW130299   3.009   0.617  10.950  0.8527 -0.2733  2.9364
 6222SOL    HW230300   2.964   0.736  11.026  1.2140  2.0642  1.4156
 6223SOL     OW30301   3.725   3.465   8.618  0.3260  0.6251  0.7825
 6223SOL    HW130302   3.671   3.526   8.566  1.3170 -0.4629 -1.5313
 6223SOL    HW230303   3.742   3.394   8.556 -1.0177  0.7986  0.1954
 6224SOL     OW30304   2.267   0.359  11.594  0.3849  0.1129  0.2445
 6224SOL    HW130305   2.281   0.281  11.648 -0.5538  0.2194  0.6371
 6224SOL    HW230306   2.264   0.420  11.668 -1.6207  1.2627 -0.7751
 6225SOL     OW30307   3.077   3.728   2.554 -0.2040  0.1066 -0.0810
 6225SOL    HW130308   3.107   3.812   2.588 -1.4184 -0.1196  1.5489
 6225SOL    HW230309   3.099   3.673   2.630 -1.3229 -0.0624  0.1131
 6226SOL     OW30310   1.669   2.055   0.591 -0.5449  0.1012  0.3905
 6226SOL    HW130311   1.646   1.962   0.593 -0.3150  0.0621  0.9971
 6226SOL    HW230312   1.585   2.090   0.621 -0.1869  1.3862 -0.0859
 6227SOL     OW30313   4.506   3.375   9.579  0.2428 -0.0202 -0.4655
 6227SOL    HW130314   4.454   3.401   9.503 -0.7664  0.5249  0.4080
 6227SOL    HW230315   4.448   3.370   9.654  0.9105  1.5594  0.1612
 6228SOL     OW30316   2.456   2.070   1.979  0.2040  0.2438  0.2294
 6228SOL    HW130317   2.414   2.112   1.903 -1.7534  0.2612  1.3048
 6228SOL    HW230318   2.536   2.039   1.938 -0.5354 -1.1608 -0.1399
 6229SOL     OW30319   2.887   0.529   3.199 -0.2072 -0.3339  0.0680
 6229SOL    HW130320   2.838   0.453   3.167  1.8062 -1.3579 -0.5959
 6229SOL    HW230321   2.977   0.511   3.173  0.2159 -0.9407  1.9571
 6230SOL     OW30322   0.771   4.254  12.265 -0.3353  0.0536  0.4068
 6230SOL    HW130323   0.852   4.305  12.269 -0.4745  0.1703  1.6693
 6230SOL    HW230324   0.732   4.264  12.178 -0.2010  1.7463  0.5376
 6231SOL     OW30325   1.453   1.338   4.971 -0.3476 -0.0739 -0.2548
 6231SOL    HW130326   1.545   1.348   4.996 -0.3910 -0.8473  0.2519
 6231SOL    HW230327   1.408   1.381   5.044  0.4631  1.1975 -0.5105
 6232SOL     OW30328   3.944   0.655   6.000 -0.3876  0.2530  0.1200
 6232SOL    HW130329   3.965   0.693   6.085 -2.3117  1.4527  0.0680
 6232SOL    HW230330   4.024   0.659   5.947 -0.2775 -2.0380  0.1201
 6233SOL     OW30331   0.507   1.466  10.470  0.1659 -0.3034 -0.0511
 6233SOL    HW130332   0.538   1.437  10.555  0.7520 -0.4664 -0.3228
 6233SOL    HW230333   0.520   1.385  10.420  0.5894 -0.7583  0.7974
 6234SOL     OW30334   3.013   4.174   8.717  0.3238 -0.7545  0.1510
 6234SOL    HW130335   3.080   4.228   8.758  1.6264 -0.6967 -2.0529
 6234SOL    HW230336   2.938   4.233   8.723  0.7698  0.1512 -3.0855
 6235SOL     OW30337   3.599   0.663   8.043  0.7655 -0.1312  0.6859
 6235SOL    HW130338   3.607   0.743   7.991 -1.5843 -0.9695 -0.9719
 6235SOL    HW230339   3.564   0.606   7.975  0.4225  1.4205 -0.4313
 6236SOL     OW30340   1.019   1.750   4.195 -0.0834  0.1001  0.2666
 6236SOL    HW130341   1.004   1.680   4.132  0.3145  0.5148 -0.2833
 6236SOL    HW230342   1.030   1.701   4.277 -1.3445  2.3937  1.7862
 6237SOL     OW30343   0.881   1.611   1.957  0.5716 -0.0975  0.3191
 6237SOL    HW130344   0.952   1.676   1.962  1.5869 -1.3362  2.1519
 6237SOL    HW230345   0.801   1.662   1.944  0.8554  0.3051  0.1648
 6238SOL     OW30346   1.969   0.942   8.815 -0.4656  0.4449 -0.0889
 6238SOL    HW130347   1.954   0.848   8.818 -2.0037  0.7380  1.1187
 6238SOL    HW230348   2.062   0.935   8.791 -1.1977 -1.4879 -2.2517
 6239SOL     OW30349   2.844   1.498  15.549  0.4867  0.1539 -0.3825
 6239SOL    HW130350   2.927   1.452  15.538  0.1706 -0.1635 -1.4472
 6239SOL    HW230351   2.841   1.524  15.641  0.2031  1.6487 -0.8093
 6240SOL     OW30352   4.290   1.042   7.232  0.0466  0.0677  0.1879
 6240SOL    HW130353   4.342   0.964   7.212  1.0455  0.6256  0.5754
 6240SOL    HW230354   4.328   1.111   7.178  0.1591  2.9391  3.9406
 6241SOL     OW30355   2.176   3.628   1.727 -0.6726 -0.2472 -0.0239
 6241SOL    HW130356   2.170   3.540   1.690  0.5495 -0.9281  1.4147
 6241SOL    HW230357   2.157   3.684   1.651 -1.8397 -1.2458 -0.4670
 6242SOL     OW30358   1.029   4.430   3.001  0.1345  0.0400  0.3689
 6242SOL    HW130359   0.966   4.501   2.995  0.0686 -0.1505 -1.4163
 6242SOL    HW230360   1.087   4.454   2.928  1.8569  2.1237  2.3937
 6243SOL     OW30361   3.536   2.702   2.477 -0.3192  0.3076  0.5254
 6243SOL    HW130362   3.507   2.647   2.404  0.0388  0.7908  0.0170
 6243SOL    HW230363   3.471   2.773   2.482  0.7525  1.3479 -0.2914
 6244SOL     OW30364   4.479   1.512   6.403  0.4701  0.8516  0.0744
 6244SOL    HW130365   4.554   1.455   6.421  1.1416  1.4270 -0.8477
 6244SOL    HW230366   4.423   1.463   6.344  0.2985  0.1521  0.8204
 6245SOL     OW30367   3.238   4.013   2.387 -0.1702  0.4474 -0.1293
 6245SOL    HW130368   3.235   4.055   2.473  1.6387 -1.1130  0.7083
 6245SOL    HW230369   3.280   3.931   2.412 -0.9655 -0.1621 -0.8125
 6246SOL     OW30370   3.063   3.801   3.433 -0.2265 -0.1158  0.1787
 6246SOL    HW130371   3.092   3.727   3.380 -0.6471  0.8279 -1.3485
 6246SOL    HW230372   3.145   3.819   3.479  0.9854  0.1841 -2.0957
 6247SOL     OW30373   0.060   2.413   2.525 -0.1841 -0.1902  0.1606
 6247SOL    HW130374   0.014   2.496   2.510 -0.9315 -0.7770 -0.7888
 6247SOL    HW230375   0.108   2.434   2.605  0.6449 -2.4081  0.2470
 6248SOL     OW30376   1.525   0.309   7.886 -0.4475  0.9763  0.0488
 6248SOL    HW130377   1.531   0.214   7.886 -0.4752  0.9734 -0.8870
 6248SOL    HW230378   1.466   0.323   7.811 -2.0282  0.7863  1.2517
 6249SOL     OW30379   3.699   4.038   3.241  0.1227 -0.0073  0.3983
 6249SOL    HW130380   3.604   4.055   3.239  0.4139  1.3918 -1.2641
 6249SOL    HW230381   3.707   3.953   3.285 -1.6628 -0.4328 -0.0774
 6250SOL     OW30382   0.316   2.789  15.344 -0.2247 -0.3315 -0.1022
 6250SOL    HW130383   0.404   2.824  15.327 -0.9947  1.2913 -0.7957
 6250SOL    HW230384   0.297   2.716  15.285  0.1626 -0.2133 -0.3769
 6251SOL     OW30385   0.116   4.126   7.223 -0.0162 -0.2157  0.1117
 6251SOL    HW130386   0.210   4.106   7.230 -0.7066 -3.2018  0.9421
 6251SOL    HW230387   0.119   4.136   7.128 -1.1910  0.2995  0.1286
 6252SOL     OW30388   3.286   2.506   3.333  0.2414 -0.2080  0.2455
 6252SOL    HW130389   3.303   2.582   3.388  0.6313  1.3321 -2.0008
 6252SOL    HW230390   3.346   2.516   3.259 -1.0734  1.7938 -0.5451
 6253SOL     OW30391   2.512   4.145   1.631  0.4089 -0.2934  0.1951
 6253SOL    HW130392   2.459   4.077   1.673  2.0280 -1.4858  0.3503
 6253SOL    HW230393   2.562   4.181   1.704  1.5374 -1.7289  0.1322
 6254SOL     OW30394   4.328   2.121   6.469  0.3869 -0.7477  0.1443
 6254SOL    HW130395   4.319   2.057   6.399  3.0070 -0.6917 -0.2299
 6254SOL    HW230396   4.411   2.164   6.452  0.4897 -0.1701  2.0310
 6255SOL     OW30397   3.842   2.136   9.476 -0.0709  0.1501 -0.3189
 6255SOL    HW130398   3.923   2.095   9.505 -0.3758 -0.3575 -0.1714
 6255SOL    HW230399   3.781   2.063   9.462 -1.5106  1.1582  0.6806
 6256SOL     OW30400   1.043   0.174  16.850 -0.2431 -0.2403  0.0993
 6256SOL    HW130401   0.957   0.181  16.891  1.3583 -0.6709  3.4926
 6256SOL    HW230402   1.098   0.136  16.919 -1.6229 -1.8098  0.3569
 6257SOL     OW30403   4.694   2.731  17.230 -0.4519  0.0482  0.0005
 6257SOL    HW130404   4.601   2.731  17.207 -0.3201 -0.7861 -0.4897
 6257SOL    HW230405   4.728   2.660  17.175 -0.3625  0.0612  0.0386
 6258SOL     OW30406   2.866   3.710   2.993  0.0192  0.3322 -0.4550
 6258SOL    HW130407   2.876   3.735   3.085  0.9575 -1.4016 -0.0738
 6258SOL    HW230408   2.895   3.793   2.954  2.7758 -0.1912  0.4523
 6259SOL     OW30409   2.410   3.604   5.637  0.4195 -0.1238  0.1766
 6259SOL    HW130410   2.422   3.612   5.543 -1.2082  0.6283  0.0491
 6259SOL    HW230411   2.412   3.698   5.657  0.6941  0.0739 -0.8088
 6260SOL     OW30412   2.335   0.822   8.433  0.1419 -0.2741 -0.0830
 6260SOL    HW130413   2.268   0.809   8.500  0.2851 -0.9172 -0.0603
 6260SOL    HW230414   2.335   0.735   8.392  2.0597  0.4017 -1.5232
 6261SOL     OW30415   0.949   0.033  10.884  0.8058  0.5655 -0.3864
 6261SOL    HW130416   0.945   4.684  10.918  1.2353 -0.2400 -2.4259
 6261SOL    HW230417   0.999   0.086  10.946  0.9479 -1.4818  1.2388
 6262SOL     OW30418   0.353   4.543   9.733  0.4338 -0.2287  0.0797
 6262SOL    HW130419   0.390   4.554   9.821 -0.5472  1.9863  0.2111
 6262SOL    HW230420   0.268   4.503   9.755  1.1995 -1.9163 -0.0228
 6263SOL     OW30421   3.636   2.579   1.675  0.5136 -0.3184  0.2059
 6263SOL    HW130422   3.698   2.533   1.732  0.8320  1.3958  1.2362
 6263SOL    HW230423   3.688   2.578   1.594  0.3766  2.4784  0.0960
 6264SOL     OW30424   0.856   2.438   8.901 -0.1139 -0.1413 -0.0787
 6264SOL    HW130425   0.888   2.349   8.915  1.4720  0.4170 -0.1540
 6264SOL    HW230426   0.771   2.418   8.862 -0.3623  0.6289  0.0547
 6265SOL     OW30427   4.606   3.700   4.706 -0.3187  0.1994 -0.1541
 6265SOL    HW130428   4.538   3.667   4.765 -1.5138 -0.1303 -1.7258
 6265SOL    HW230429   4.679   3.652   4.747  0.3485  0.7845 -0.6595
 6266SOL     OW30430   4.160   3.230  15.955 -0.5517  0.4233 -0.2299
 6266SOL    HW130431   4.070   3.205  15.975 -0.7926  0.2916 -1.4658
 6266SOL    HW230432   4.170   3.224  15.860  0.1086  3.7280 -0.3612
 6267SOL     OW30433   3.549   0.973   5.638  0.6185 -0.0892  0.0564
 6267SOL    HW130434   3.499   0.892   5.651 -0.3770  0.6154  0.6006
 6267SOL    HW230435   3.631   0.947   5.680  0.0540 -0.2791  1.0243
 6268SOL     OW30436   3.254   2.248   2.050  0.2255 -0.0435  0.0557
 6268SOL    HW130437   3.183   2.269   1.989 -1.1821 -2.5057  0.8572
 6268SOL    HW230438   3.196   2.219   2.121 -1.1977  1.1215 -0.6134
 6269SOL     OW30439   2.446   0.275  14.663  0.6450  0.0607 -0.2629
 6269SOL    HW130440   2.433   0.353  14.609  0.1630  0.1732  0.0222
 6269SOL    HW230441   2.363   0.261  14.708  0.9480 -1.9351 -0.2910
 6270SOL     OW30442   0.111   2.486   7.880 -0.8339  0.0111 -0.2647
 6270SOL    HW130443   0.129   2.555   7.944 -3.1740  0.5814 -0.2059
 6270SOL    HW230444   0.016   2.495   7.879 -0.8488 -0.2445 -0.9667
 6271SOL     OW30445   0.740   2.736  14.176 -0.4179 -0.0971  0.5199
 6271SOL    HW130446   0.658   2.695  14.147  1.6141 -2.7859 -1.4882
 6271SOL    HW230447   0.720   2.746  14.269  0.6659 -0.1995  0.7580
 6272SOL     OW30448   0.762   3.999   5.634  0.2404  0.1265  0.4233
 6272SOL    HW130449   0.771   4.055   5.712 -3.1307  0.7471  0.3513
 6272SOL    HW230450   0.749   4.068   5.569 -0.5643  2.2383  2.8035
 6273SOL     OW30451   0.613   0.067   3.469 -0.1506 -0.4549  0.6328
 6273SOL    HW130452   0.601   0.154   3.430 -1.5205 -0.4769  1.0001
 6273SOL    HW230453   0.676   0.082   3.539  2.4369  2.0453 -2.2509
 6274SOL     OW30454   3.809   1.013   5.836 -0.1141  0.3305  0.4918
 6274SOL    HW130455   3.765   0.949   5.891 -1.5028  0.5741 -0.3389
 6274SOL    HW230456   3.897   0.975   5.839 -1.0220 -1.7763  0.3431
 6275SOL     OW30457   0.578   2.142   2.932  0.3327  0.4421 -0.4248
 6275SOL    HW130458   0.525   2.076   2.886 -0.2566  0.8854 -0.3813
 6275SOL    HW230459   0.579   2.098   3.017  0.8329 -0.8433 -1.0833
 6276SOL     OW30460   0.587   0.865   7.268 -0.1666 -0.2799  0.2442
 6276SOL    HW130461   0.527   0.937   7.287 -0.3898 -0.5768  0.6482
 6276SOL    HW230462   0.596   0.882   7.174 -0.3557  0.4706  0.3573
 6277SOL     OW30463   0.889   3.475  12.538  0.3749 -0.2308  0.1625
 6277SOL    HW130464   0.961   3.532  12.566  0.5451 -1.5734  2.4768
 6277SOL    HW230465   0.824   3.472  12.609  0.2469 -3.2594 -0.0887
 6278SOL     OW30466   3.957   0.256   7.992  0.5015 -0.0676  0.2740
 6278SOL    HW130467   3.913   0.272   8.076 -1.1443  1.4268 -0.8968
 6278SOL    HW230468   3.952   0.161   8.002  1.8310  0.0967  2.6238
 6279SOL     OW30469   2.429   1.093  13.948 -0.3701 -0.2775  0.5222
 6279SOL    HW130470   2.377   1.027  13.903 -0.9881  1.1839 -0.9230
 6279SOL    HW230471   2.467   1.127  13.867 -1.2451  0.2845  0.3453
 6280SOL     OW30472   2.602   0.697   6.356  0.0880 -0.1078 -0.3579
 6280SOL    HW130473   2.679   0.640   6.355  0.1023 -0.1376  2.0541
 6280SOL    HW230474   2.601   0.748   6.275  0.8641 -0.4190 -0.5614
 6281SOL     OW30475   2.667   2.461   7.880  0.5843  0.1689  0.5851
 6281SOL    HW130476   2.697   2.552   7.891  1.0969 -0.1499  1.8193
 6281SOL    HW230477   2.751   2.415   7.874  1.3187  1.6351 -0.4184
 6282SOL     OW30478   3.060   4.183   6.533 -0.3233  0.0499  0.3535
 6282SOL    HW130479   3.118   4.238   6.585 -0.8605 -0.1208  1.1218
 6282SOL    HW230480   3.119   4.134   6.475 -0.5979 -0.9091  0.8806
 6283SOL     OW30481   1.864   0.594   2.482 -0.3160 -0.5738  0.3023
 6283SOL    HW130482   1.806   0.603   2.557 -0.4186  3.1821 -0.2126
 6283SOL    HW230483   1.901   0.682   2.488 -2.3623  0.3913 -1.4014
 6284SOL     OW30484   1.827   3.639  12.804 -0.5813  0.3353  0.0061
 6284SOL    HW130485   1.844   3.694  12.881 -0.8083 -1.6825  1.5222
 6284SOL    HW230486   1.917   3.612  12.783 -0.2838  0.5715  0.9739
 6285SOL     OW30487   1.678   2.126  15.551 -0.1594 -0.4310  0.3930
 6285SOL    HW130488   1.610   2.161  15.608 -0.4182  0.6364 -0.5802
 6285SOL    HW230489   1.718   2.072  15.620 -1.0698 -0.5204  0.8432
 6286SOL     OW30490   0.062   3.253   1.575 -0.6100  0.2018 -0.2074
 6286SOL    HW130491   4.712   3.264   1.544 -1.0152  1.3561  1.3451
 6286SOL    HW230492   0.111   3.201   1.512 -1.2874 -1.2842  0.4797
 6287SOL     OW30493   2.720   3.307   9.765  0.3121  0.1882 -0.4200
 6287SOL    HW130494   2.632   3.280   9.790  0.6110 -0.3720  0.0289
 6287SOL    HW230495   2.692   3.395   9.739 -0.8051 -0.2993 -0.8315
 6288SOL     OW30496   0.447   2.704   6.308  0.0331 -0.0563 -0.3838
 6288SOL    HW130497   0.366   2.731   6.351 -1.2822 -3.5133 -0.6544
 6288SOL    HW230498   0.409   2.633   6.256 -0.6787 -0.4934  0.7263
 6289SOL     OW30499   3.283   0.018  10.203  0.6293 -0.6317  0.3746
 6289SOL    HW130500   3.248   0.025  10.115  1.1935 -0.9842  0.1208
 6289SOL    HW230501   3.261   4.668  10.225  1.5434 -1.0790 -0.5717
 6290SOL     OW30502   1.551   0.377  10.278 -0.0251  0.3844 -0.7252
 6290SOL    HW130503   1.482   0.382  10.344  0.0346 -0.8778 -0.5613
 6290SOL    HW230504   1.602   0.297  10.293  1.4797  1.8187  1.8682
 6291SOL     OW30505   2.199   0.050  16.412  0.4191  0.4290  0.4800
 6291SOL    HW130506   2.252   0.125  16.386  0.4034 -0.7727 -3.0237
 6291SOL    HW230507   2.124   0.083  16.362  1.5209 -0.1781 -1.5589
 6292SOL     OW30508   3.193   4.283   5.837  0.0419 -0.1034 -0.4490
 6292SOL    HW130509   3.150   4.365   5.858 -3.1708 -1.2407 -2.5922
 6292SOL    HW230510   3.254   4.318   5.772  1.9067  1.9669  2.4222
 6293SOL     OW30511   2.481   2.136   8.549 -0.3530 -0.0446  0.1493
 6293SOL    HW130512   2.413   2.087   8.502  0.2640  1.2436 -2.1002
 6293SOL    HW230513   2.508   2.062   8.604  3.1318  0.0716 -1.3836
 6294SOL     OW30514   4.319   3.557   7.718 -0.1352 -0.2372  0.0637
 6294SOL    HW130515   4.361   3.627   7.767 -0.2266  1.0735 -1.7095
 6294SOL    HW230516   4.381   3.532   7.650 -1.4349  2.3385 -2.1111
 6295SOL     OW30517   3.301   3.526   9.062 -0.9225  0.4834 -0.6539
 6295SOL    HW130518   3.227   3.539   9.003 -1.4295  0.2492 -0.0687
 6295SOL    HW230519   3.374   3.541   9.001  1.4592 -1.4523  1.7244
 6296SOL     OW30520   3.193   1.068   6.109 -0.0812 -0.1445  0.9174
 6296SOL    HW130521   3.172   1.135   6.173  1.2912  2.0513 -0.9407
 6296SOL    HW230522   3.247   1.120   6.050  2.6421 -3.1121  0.7966
 6297SOL     OW30523   1.093   2.759  17.015  0.5341  0.0303  0.3870
 6297SOL    HW130524   1.148   2.720  16.947  0.1963  0.5386 -0.1873
 6297SOL    HW230525   1.145   2.750  17.094  0.7770 -2.5112 -0.0818
 6298SOL     OW30526   1.070   3.499   7.879 -0.1478  0.1467  0.0107
 6298SOL    HW130527   1.103   3.413   7.903  0.0588  0.2828  0.2137
 6298SOL    HW230528   1.100   3.556   7.950 -1.8079 -1.1792  1.7988
 6299SOL     OW30529   2.356   2.750   5.755  0.2764  0.0910  0.0791
 6299SOL    HW130530   2.288   2.812   5.785  0.1237 -0.3788  0.7144
 6299SOL    HW230531   2.379   2.788   5.671  0.5958  1.6792  0.8776
 6300SOL     OW30532   2.681   4.587   9.755  0.0187  0.9522 -0.5704
 6300SOL    HW130533   2.767   4.622   9.780  0.7207  0.5658 -2.4986
 6300SOL    HW230534   2.619   4.636   9.809 -1.6978 -0.2978 -1.4438
 6301SOL     OW30535   2.009   2.081   2.728  0.0838 -0.0651 -0.4861
 6301SOL    HW130536   1.937   2.054   2.672  1.0737 -0.4784 -1.5573
 6301SOL    HW230537   2.024   2.173   2.709  0.0960  0.0411  0.0348
 6302SOL     OW30538   1.348   0.690   9.345 -0.6259 -0.1763 -0.2694
 6302SOL    HW130539   1.439   0.682   9.374  0.1829 -0.0041 -2.7733
 6302SOL    HW230540   1.325   0.600   9.368 -1.1039 -0.4278 -1.7159
 6303SOL     OW30541   4.604   0.334  16.191  0.0856  0.7996  0.6596
 6303SOL    HW130542   4.514   0.302  16.198 -0.0292  1.0967  0.5403
 6303SOL    HW230543   4.588   0.428  16.189  0.7094  0.8276 -2.0906
 6304SOL     OW30544   0.008   2.345   9.223  0.2975 -0.0699  0.8214
 6304SOL    HW130545   0.032   2.414   9.285  3.0795  1.1758 -1.6695
 6304SOL    HW230546   0.000   2.277   9.291  1.6296 -0.2924  0.7560
 6305SOL     OW30547   4.119   3.424  10.451 -0.4973 -0.0113  0.0179
 6305SOL    HW130548   4.158   3.444  10.536 -2.0627  0.0291  0.7278
 6305SOL    HW230549   4.095   3.511  10.418  0.4843 -0.3139 -1.5283
 6306SOL     OW30550   0.083   2.886   0.515 -0.5249  0.2335  0.3464
 6306SOL    HW130551   0.129   2.818   0.467 -0.5319  0.4225  0.0659
 6306SOL    HW230552   0.046   2.942   0.446 -0.4254  0.2336  0.2942
 6307SOL     OW30553   1.529   3.726   1.516 -0.9898  0.6642  0.6132
 6307SOL    HW130554   1.504   3.729   1.424  1.0429  0.7315  0.0707
 6307SOL    HW230555   1.503   3.637   1.542  2.5677 -0.6065 -0.1439
 6308SOL     OW30556   2.661   0.369   1.387 -0.1788  0.0983 -0.2450
 6308SOL    HW130557   2.685   0.372   1.294 -0.4051  2.2977 -0.2497
 6308SOL    HW230558   2.579   0.320   1.378 -0.1096  0.1669 -1.3169
 6309SOL     OW30559   0.928   2.445   1.131 -0.1732 -0.3949  0.5538
 6309SOL    HW130560   0.909   2.528   1.086  1.0683 -0.7200 -0.5629
 6309SOL    HW230561   1.013   2.459   1.172  1.4882 -1.1047 -2.5868
 6310SOL     OW30562   3.372   1.299   2.808  0.4358 -0.5645  0.1300
 6310SOL    HW130563   3.296   1.320   2.755 -0.1310 -2.7056  0.0610
 6310SOL    HW230564   3.344   1.331   2.894  1.4154  2.4994 -0.6986
 6311SOL     OW30565   0.468   3.177  14.552 -0.0780 -0.0341 -0.4565
 6311SOL    HW130566   0.434   3.236  14.485 -0.3949 -0.4858 -0.6931
 6311SOL    HW230567   0.484   3.100  14.497 -1.5672 -0.4802 -0.2556
 6312SOL     OW30568   0.214   1.962   2.690  0.1106  0.2874  0.2893
 6312SOL    HW130569   0.190   1.939   2.600 -0.6662 -1.1750  0.8755
 6312SOL    HW230570   0.157   2.039   2.698  2.7017  2.2327  0.0575
 6313SOL     OW30571   2.915   2.430   9.110  0.3623  0.1109 -0.4165
 6313SOL    HW130572   2.836   2.390   9.075  2.0940 -2.0843 -1.7726
 6313SOL    HW230573   2.976   2.357   9.100  1.5857  1.1292 -0.4364
 6314SOL     OW30574   2.020   2.449   0.985 -0.0103  0.2190  0.6424
 6314SOL    HW130575   2.050   2.470   1.073  0.6893 -1.2169  0.7506
 6314SOL    HW230576   1.935   2.493   0.994 -0.1156  0.2068 -0.3271
 6315SOL     OW30577   3.713   2.544   7.494  0.3857 -0.2209 -0.1293
 6315SOL    HW130578   3.778   2.474   7.489 -1.3469 -1.8307  0.0638
 6315SOL    HW230579   3.728   2.577   7.583 -1.9284  2.4256 -0.7146
 6316SOL     OW30580   1.273   2.393   8.467 -0.0722  0.4946 -0.0680
 6316SOL    HW130581   1.263   2.315   8.520  0.4798  0.6279  0.2299
 6316SOL    HW230582   1.344   2.432   8.518  0.0115  0.0301  0.1637
 6317SOL     OW30583   1.911   2.896   1.834  0.2958 -0.0683  0.0865
 6317SOL    HW130584   1.951   2.921   1.917 -0.6696  0.8176  0.2758
 6317SOL    HW230585   1.981   2.907   1.770 -1.6236 -0.0815 -2.0052
 6318SOL     OW30586   4.730   1.210   7.878 -0.5106 -0.3777 -0.1384
 6318SOL    HW130587   0.004   1.164   7.961  0.3338  0.1575  0.0087
 6318SOL    HW230588   4.730   1.140   7.814  0.2266 -0.0292 -0.5157
 6319SOL     OW30589   3.727   4.495   8.888  0.5330  0.1442 -0.1905
 6319SOL    HW130590   3.736   4.582   8.924  1.1663 -0.1899  0.4576
 6319SOL    HW230591   3.746   4.514   8.796 -0.2741 -2.0234 -0.8204
 6320SOL     OW30592   4.030   4.157  14.726 -0.4900  0.0921 -0.0530
 6320SOL    HW130593   4.084   4.139  14.804  1.4064  0.3059 -1.3229
 6320SOL    HW230594   4.041   4.079  14.671 -0.1139  1.2007 -1.5388
 6321SOL     OW30595   2.945   3.687   6.472  0.0799  0.0317 -0.1262
 6321SOL    HW130596   3.002   3.731   6.409  0.1794  0.2903  0.1469
 6321SOL    HW230597   2.872   3.746   6.454  1.8599  1.6483 -2.0243
 6322SOL     OW30598   0.031   4.681   7.514  0.3541  0.5017  0.1903
 6322SOL    HW130599   0.040   4.628   7.435 -1.7937  0.0873  0.2198
 6322SOL    HW230600   0.111   4.653   7.559  1.4945 -0.3091 -2.4033
 6323SOL     OW30601   3.992   3.478  16.264 -0.3864 -0.0443  0.5559
 6323SOL    HW130602   4.055   3.478  16.337 -1.6930 -2.9681  1.6930
 6323SOL    HW230603   3.912   3.494  16.315 -0.5677 -0.3722  0.3747
 6324SOL     OW30604   3.281   0.803  12.536 -0.0087  0.3428  0.1707
 6324SOL    HW130605   3.272   0.814  12.630  1.3920  0.4297  0.2962
 6324SOL    HW230606   3.311   0.712  12.537 -0.7302  0.1046  0.3837
 6325SOL     OW30607   1.795   0.450   0.986 -0.0213  0.3171  0.1122
 6325SOL    HW130608   1.832   0.418   1.068 -3.4646 -0.5812  1.3154
 6325SOL    HW230609   1.804   0.545   0.999 -0.6643  0.2548  0.9857
 6326SOL     OW30610   2.170   2.492   8.362  0.1974 -0.0227  0.3957
 6326SOL    HW130611   2.228   2.442   8.419 -1.0090 -0.6189  1.0913
 6326SOL    HW230612   2.113   2.521   8.433  0.9068  3.0448 -0.2769
 6327SOL     OW30613   2.728   4.207   3.897 -0.0385 -0.1370 -0.0559
 6327SOL    HW130614   2.688   4.294   3.901 -0.7386 -0.4303 -0.6469
 6327SOL    HW230615   2.656   4.164   3.943  1.1717 -1.1093  0.9359
 6328SOL     OW30616   3.387   2.360   6.995 -0.0869  0.4710 -0.3677
 6328SOL    HW130617   3.332   2.437   6.981 -1.0245  0.1815  1.5677
 6328SOL    HW230618   3.441   2.363   6.917 -1.6784  1.9601 -1.4078
 6329SOL     OW30619   0.905   4.690   6.248 -1.0299  0.5611 -0.2317
 6329SOL    HW130620   0.958   4.740   6.310  2.8379 -1.5189 -1.9149
 6329SOL    HW230621   0.876   4.611   6.293  0.1346  0.8891  1.1029
 6330SOL     OW30622   0.881   3.071  14.352  0.1986  0.1264 -0.6727
 6330SOL    HW130623   0.934   3.120  14.289  0.0519  0.7702 -0.2949
 6330SOL    HW230624   0.798   3.061  14.307  0.4438 -1.6265 -0.7419
 6331SOL     OW30625   2.429   2.645  12.318 -0.7113 -0.0604  0.4490
 6331SOL    HW130626   2.425   2.732  12.280  0.2689 -0.0938  0.2464
 6331SOL    HW230627   2.376   2.660  12.395 -1.4175  2.0327 -0.4536
 6332SOL     OW30628   0.818   4.239   3.037  0.0987 -0.1053  0.0899
 6332SOL    HW130629   0.763   4.300   3.086  0.6334  0.6536 -0.2614
 6332SOL    HW230630   0.907   4.268   3.055 -0.4134 -0.5143  3.2272
 6333SOL     OW30631   2.502   0.249   9.003  0.0028  0.0597  0.0688
 6333SOL    HW130632   2.539   0.317   9.059  0.1427  0.5828 -0.6637
 6333SOL    HW230633   2.438   0.206   9.059  2.0337  0.2497  2.5599
 6334SOL     OW30634   0.823   0.282   9.411  0.2382  0.2558 -0.9788
 6334SOL    HW130635   0.732   0.300   9.434  0.3922  0.7660 -0.7664
 6334SOL    HW230636   0.858   0.346   9.349  0.8161  2.5199  1.7056
 6335SOL     OW30637   4.693   3.527  13.377  0.1480 -0.6504  0.5638
 6335SOL    HW130638   4.720   3.437  13.360  2.0999 -0.0183  0.3489
 6335SOL    HW230639   0.014   3.546  13.447  2.6327  1.8317 -2.3005
 6336SOL     OW30640   0.772   0.505  12.159  0.5520 -0.7404 -0.3732
 6336SOL    HW130641   0.723   0.572  12.111 -1.1746 -0.4197  1.8787
 6336SOL    HW230642   0.758   0.527  12.251  0.4323 -0.6625 -0.4104
 6337SOL     OW30643   4.087   0.969   5.854  0.1475 -0.4009 -0.1872
 6337SOL    HW130644   4.080   0.959   5.949 -1.2633  0.0286 -0.2411
 6337SOL    HW230645   4.177   0.936   5.844  0.3098  0.1565 -0.5934
 6338SOL     OW30646   3.767   2.895   2.558  0.0825  0.3238  0.1973
 6338SOL    HW130647   3.817   2.880   2.478  0.1017 -0.3477  0.3336
 6338SOL    HW230648   3.710   2.972   2.557  0.5393  0.6995  1.7596
 6339SOL     OW30649   4.534   2.084   5.926 -0.2673 -0.3659  0.3218
 6339SOL    HW130650   4.485   2.116   5.850  0.0818  0.8055  0.5923
 6339SOL    HW230651   4.461   2.072   5.987 -1.8335  0.2100 -1.4665
 6340SOL     OW30652   1.647   2.197  13.402  0.1664  0.2757 -0.4273
 6340SOL    HW130653   1.583   2.196  13.330 -2.2609  0.3971  1.7248
 6340SOL    HW230654   1.734   2.207  13.363  0.8041  0.9220  1.1682
 6341SOL     OW30655   4.001   2.691   5.240 -0.0760  0.0702 -0.2499
 6341SOL    HW130656   4.036   2.604   5.259 -1.6910 -1.0159 -2.2021
 6341SOL    HW230657   4.069   2.738   5.192 -0.1691 -0.6535 -1.0913
 6342SOL     OW30658   1.466   4.192   8.461 -0.4250 -0.3495 -0.0587
 6342SOL    HW130659   1.395   4.164   8.403 -0.6417 -0.6882  0.3679
 6342SOL    HW230660   1.457   4.136   8.538 -0.7074  0.5092  0.5381
 6343SOL     OW30661   2.698   4.301   9.750 -0.3251 -0.2173 -0.2902
 6343SOL    HW130662   2.705   4.395   9.735  1.0101 -0.1440  0.7816
 6343SOL    HW230663   2.620   4.301   9.806  0.5899  2.2610  0.9959
 6344SOL     OW30664   1.073   1.170   8.758  0.0008 -0.1879  0.2988
 6344SOL    HW130665   1.121   1.178   8.841 -1.7542  0.8460  1.2443
 6344SOL    HW230666   1.101   1.080   8.745  1.0926  0.1980 -0.0193
 6345SOL     OW30667   1.149   1.162   3.621  0.0142  0.3142  0.1872
 6345SOL    HW130668   1.148   1.178   3.715  0.6991 -2.5593  0.6707
 6345SOL    HW230669   1.243   1.169   3.607  0.2205  2.4586  2.6542
 6346SOL     OW30670   0.373   2.147   1.989  0.2097  0.8065 -0.4836
 6346SOL    HW130671   0.345   2.168   1.899 -0.7498 -1.2606 -0.6756
 6346SOL    HW230672   0.427   2.223   2.009  1.1043 -0.0641  0.3626
 6347SOL     OW30673   3.685   3.930   4.042  0.3402 -0.0887 -0.2498
 6347SOL    HW130674   3.685   3.878   3.962 -1.3485  1.1884 -1.0793
 6347SOL    HW230675   3.779   3.920   4.059 -0.2328 -2.0861  1.7826
 6348SOL     OW30676   1.119   1.640   6.558  0.2423 -0.4865  0.2311
 6348SOL    HW130677   1.032   1.681   6.558  0.0522 -0.9042 -1.0134
 6348SOL    HW230678   1.174   1.718   6.553  1.3788 -1.1955  1.5727
 6349SOL     OW30679   2.199   0.025   4.043 -0.1607  0.1430  0.5300
 6349SOL    HW130680   2.292   0.005   4.054 -0.6913 -1.8386  1.4122
 6349SOL    HW230681   2.171   4.732   4.129 -0.5253 -0.1733  0.2886
 6350SOL     OW30682   1.435   1.629   4.652  0.1709  0.5221  0.2981
 6350SOL    HW130683   1.386   1.686   4.711 -1.0767  0.5128 -0.7331
 6350SOL    HW230684   1.374   1.607   4.582 -0.0764  2.0028  0.0405
 6351SOL     OW30685   3.757   1.398   8.833  0.4307 -0.2213 -0.2274
 6351SOL    HW130686   3.842   1.371   8.867  1.1124  0.2561 -1.5552
 6351SOL    HW230687   3.698   1.371   8.903 -1.4055  1.1865 -1.2273
 6352SOL     OW30688   3.081   1.164  11.485 -0.3120 -0.4063  0.6740
 6352SOL    HW130689   3.106   1.239  11.432 -0.4905 -1.3335 -0.7269
 6352SOL    HW230690   3.055   1.203  11.569  1.8730  1.6302  0.3776
 6353SOL     OW30691   2.767   4.144   6.482  0.1101 -0.5219 -0.3814
 6353SOL    HW130692   2.764   4.204   6.408 -1.4980  0.7528  0.7169
 6353SOL    HW230693   2.854   4.172   6.512 -0.3595  0.2494  0.2808
 6354SOL     OW30694   2.249   3.453   1.984 -0.4951 -0.2473 -0.3387
 6354SOL    HW130695   2.323   3.454   1.924 -0.2946  0.3280 -0.0851
 6354SOL    HW230696   2.243   3.372   2.034 -1.2237 -0.4150 -0.7037
 6355SOL     OW30697   0.958   3.195  17.582 -0.2529  0.5110  0.1548
 6355SOL    HW130698   0.964   3.275  17.634  2.2382  1.5169 -1.6532
 6355SOL    HW230699   0.946   3.234  17.495 -0.3258  0.4131  0.1220
 6356SOL     OW30700   3.643   4.104   6.116  0.4022 -0.2970  0.3266
 6356SOL    HW130701   3.572   4.142   6.064 -1.3587 -1.1067  2.1590
 6356SOL    HW230702   3.598   4.059   6.187 -0.3953  0.2216  0.1426
 6357SOL     OW30703   3.687   3.709   4.302 -0.3967 -0.2964 -0.1103
 6357SOL    HW130704   3.721   3.658   4.375 -1.1515 -1.3421 -0.4900
 6357SOL    HW230705   3.751   3.685   4.234  0.3045 -0.4248  0.5947
 6358SOL     OW30706   1.187   0.261   8.751  0.2157 -0.0432 -0.7529
 6358SOL    HW130707   1.107   0.222   8.717 -0.9434  1.7184 -0.0412
 6358SOL    HW230708   1.163   0.352   8.739 -1.8247 -0.5470 -0.4376
 6359SOL     OW30709   0.288   1.888   5.852 -0.2064 -0.0505  0.4405
 6359SOL    HW130710   0.294   1.899   5.947  0.2021 -0.9993  0.5341
 6359SOL    HW230711   0.197   1.914   5.843 -0.1285  0.6170  1.6075
 6360SOL     OW30712   2.944   4.547   6.633  0.1953  0.1999  0.5094
 6360SOL    HW130713   2.911   4.605   6.701 -0.2071 -0.5700  0.9788
 6360SOL    HW230714   2.881   4.475   6.630  0.2518  0.1669  0.1336
 6361SOL     OW30715   4.144   1.317   8.481  0.1112 -0.2826  0.0471
 6361SOL    HW130716   4.103   1.252   8.538 -2.6280 -0.3426 -1.9887
 6361SOL    HW230717   4.136   1.279   8.393 -1.2734 -2.2898  1.0248
 6362SOL     OW30718   4.482   1.187   4.030  0.2993 -0.3309 -0.5705
 6362SOL    HW130719   4.570   1.168   4.061  1.0654 -0.6811 -2.9743
 6362SOL    HW230720   4.439   1.102   4.043  0.8945 -0.8813 -2.1958
 6363SOL     OW30721   1.735   4.545   8.566  0.0773 -0.3734  0.3661
 6363SOL    HW130722   1.720   4.526   8.473 -1.1149 -0.1036  0.5007
 6363SOL    HW230723   1.683   4.475   8.604  2.0574 -2.3319 -0.5230
 6364SOL     OW30724   3.496   0.486  16.746  0.2420  0.7460  0.0374
 6364SOL    HW130725   3.468   0.396  16.761  0.8921  0.5651  0.1863
 6364SOL    HW230726   3.478   0.536  16.825 -1.1552 -2.0601  1.4743
 6365SOL     OW30727   0.693   2.787  15.974  0.0179 -0.0720 -0.2793
 6365SOL    HW130728   0.767   2.775  15.915 -0.2089 -3.8243  0.2073
 6365SOL    HW230729   0.732   2.750  16.053 -4.4205 -1.4893  1.2441
 6366SOL     OW30730   1.687   1.005   0.321 -0.1906  0.4937  0.0820
 6366SOL    HW130731   1.772   1.049   0.321 -0.4435  0.9909  1.1556
 6366SOL    HW230732   1.646   1.046   0.245 -1.6794 -3.0065 -1.0365
 6367SOL     OW30733   1.407   0.487   5.244  0.4888 -0.0671  0.7011
 6367SOL    HW130734   1.438   0.535   5.321  0.3522  0.0892  0.6590
 6367SOL    HW230735   1.474   0.423   5.220  1.3476  0.4825  1.6171
 6368SOL     OW30736   4.227   4.605  15.643 -0.3589  0.1282 -0.2869
 6368SOL    HW130737   4.221   4.638  15.732 -3.1226 -0.1314 -0.3730
 6368SOL    HW230738   4.186   4.676  15.593 -0.1246  2.4764  2.8491
 6369SOL     OW30739   4.426   1.479   7.260  0.3177  0.1216  0.2793
 6369SOL    HW130740   4.331   1.464   7.263  0.5815 -1.5848  0.2727
 6369SOL    HW230741   4.452   1.529   7.337  0.9251  1.8960 -1.0798
 6370SOL     OW30742   1.103   2.343   5.276 -0.1483 -0.1997 -0.6075
 6370SOL    HW130743   1.189   2.374   5.302 -1.4216 -0.3219  3.7914
 6370SOL    HW230744   1.110   2.255   5.314  2.6748  0.3123  0.0667
 6371SOL     OW30745   4.492   3.947   1.198  0.6779 -0.1955 -0.1522
 6371SOL    HW130746   4.580   3.918   1.172 -0.3411  0.4080 -4.3409
 6371SOL    HW230747   4.520   4.012   1.262 -3.5122  0.6592  0.8157
 6372SOL     OW30748   0.099   2.260   1.227 -0.5872  0.3234  0.2889
 6372SOL    HW130749   0.036   2.203   1.271 -2.3822  1.1057 -1.2849
 6372SOL    HW230750   0.173   2.272   1.288  1.2430 -2.2660 -1.3962
 6373SOL     OW30751   0.348   1.587   5.827  0.0575  0.0239  0.0768
 6373SOL    HW130752   0.350   1.682   5.816 -0.0676 -0.2123 -1.9587
 6373SOL    HW230753   0.275   1.565   5.769  1.3060 -2.1793 -0.6779
 6374SOL     OW30754   4.355   4.211   7.173  0.2207  0.3447 -0.0053
 6374SOL    HW130755   4.376   4.272   7.245  0.1127 -0.5269  0.7635
 6374SOL    HW230756   4.288   4.263   7.128 -0.0146  0.7054  0.7460
 6375SOL     OW30757   3.132   4.272  16.943 -0.4264 -0.1632  0.4205
 6375SOL    HW130758   3.058   4.325  16.972 -0.2168  0.6297 -0.4834
 6375SOL    HW230759   3.197   4.284  17.012 -0.0014 -0.3584  0.0564
 6376SOL     OW30760   1.508   1.653   2.977 -0.0933  0.5961 -0.4816
 6376SOL    HW130761   1.495   1.590   2.906  2.8015 -1.9396  1.2447
 6376SOL    HW230762   1.421   1.694   2.984  0.8217  2.2214  1.3093
 6377SOL     OW30763   0.119   1.211   1.295  0.1850  0.3213  0.3920
 6377SOL    HW130764   0.210   1.212   1.266  0.2589 -1.2548  0.5395
 6377SOL    HW230765   0.089   1.292   1.255  1.3004 -0.3772 -1.8248
 6378SOL     OW30766   0.352   1.664   2.113  0.2705 -0.1315 -0.1804
 6378SOL    HW130767   0.368   1.727   2.042 -0.7732  1.1497  0.7205
 6378SOL    HW230768   0.357   1.578   2.073  2.1112 -0.0667 -0.1124
 6379SOL     OW30769   2.001   0.226   8.060  0.5057  0.0363  0.2673
 6379SOL    HW130770   1.945   0.198   7.987 -0.8571  1.5521  0.7377
 6379SOL    HW230771   1.994   0.321   8.051 -0.0730 -0.0329 -0.0259
 6380SOL     OW30772   3.878   3.936   6.019 -0.2704 -0.1591 -0.1562
 6380SOL    HW130773   3.905   3.912   6.108 -0.4190  0.2522 -0.0017
 6380SOL    HW230774   3.787   3.963   6.022 -0.0579  0.5542 -0.0652
 6381SOL     OW30775   1.128   1.006  10.082 -0.3391  0.3027  0.4429
 6381SOL    HW130776   1.202   1.025  10.140 -0.4940  0.8314  0.4714
 6381SOL    HW230777   1.076   0.955  10.145  0.5368 -0.2089  0.7652
 6382SOL     OW30778   2.528   3.476   4.952 -0.1362  0.0236  0.6197
 6382SOL    HW130779   2.434   3.490   4.963  0.0698  0.2688  2.0596
 6382SOL    HW230780   2.561   3.450   5.038 -0.0703 -0.1955  0.5292
 6383SOL     OW30781   1.750   3.506   9.592 -0.4818 -0.4344  0.0601
 6383SOL    HW130782   1.746   3.437   9.525  0.3920  0.2659 -0.7188
 6383SOL    HW230783   1.763   3.581   9.533  0.4946  0.6957  1.7195
 6384SOL     OW30784   0.644   2.749   2.217 -0.1399 -0.4540  0.4234
 6384SOL    HW130785   0.625   2.773   2.308  0.7070 -0.0778  0.4929
 6384SOL    HW230786   0.680   2.662   2.235  0.0699 -0.2180  1.1504
 6385SOL     OW30787   4.025   4.296   1.975 -0.0461 -0.2094 -0.6775
 6385SOL    HW130788   4.014   4.323   1.884 -1.3125  1.1323 -0.1194
 6385SOL    HW230789   3.962   4.223   1.972 -0.6157  0.1906  1.3211
 6386SOL     OW30790   1.246   2.131   7.725 -0.1915 -0.1812 -0.9105
 6386SOL    HW130791   1.170   2.091   7.767  1.6813 -1.1432  1.5694
 6386SOL    HW230792   1.305   2.057   7.711 -1.7370 -1.7589  0.8539
 6387SOL     OW30793   0.471   3.493   4.530  0.1212  0.4665 -0.1880
 6387SOL    HW130794   0.541   3.445   4.575 -0.2151 -0.0764 -0.2447
 6387SOL    HW230795   0.451   3.551   4.603  1.5116 -0.8134  1.2077
 6388SOL     OW30796   2.980   1.449   3.834  0.3438  0.4014 -1.0756
 6388SOL    HW130797   2.923   1.383   3.796 -1.0363  0.1842  1.3381
 6388SOL    HW230798   2.922   1.519   3.867 -0.7442 -1.1159  0.2382
 6389SOL     OW30799   3.112   3.564   4.264 -0.4386  0.4194  0.6383
 6389SOL    HW130800   3.200   3.528   4.255 -0.4846  0.4534  0.0221
 6389SOL    HW230801   3.091   3.552   4.356  2.0040  0.0944  1.1528
 6390SOL     OW30802   3.183   2.148  16.668 -0.2056 -0.0503  0.4503
 6390SOL    HW130803   3.143   2.159  16.581 -0.8498  0.0704  0.7616
 6390SOL    HW230804   3.100   2.123  16.709 -0.7476 -0.2732 -0.7664
 6391SOL     OW30805   4.646   3.898   5.274  0.7972 -0.2776  0.2685
 6391SOL    HW130806   4.660   3.992   5.286 -1.1163  0.0962 -0.4247
 6391SOL    HW230807   4.658   3.884   5.180  0.1392 -0.6616  0.2431
 6392SOL     OW30808   1.102   2.166  11.234 -0.7708  0.4224  0.5282
 6392SOL    HW130809   1.186   2.206  11.212 -1.9851  2.7460  0.1124
 6392SOL    HW230810   1.097   2.135  11.324 -0.2167 -1.0923  0.0350
 6393SOL     OW30811   3.474   4.733   7.628 -0.1792 -0.0275 -0.3312
 6393SOL    HW130812   3.452   4.652   7.582  3.0469 -0.3058 -1.3663
 6393SOL    HW230813   3.386   0.025   7.645 -0.9605 -1.3941 -1.8096
 6394SOL     OW30814   0.382   1.456   6.575 -0.3785  0.3453  0.9203
 6394SOL    HW130815   0.454   1.457   6.512 -0.6965 -2.4248  0.5482
 6394SOL    HW230816   0.352   1.547   6.570  0.1076  0.4829  0.4934
 6395SOL     OW30817   3.499   3.099   3.283 -0.0184 -0.4726 -0.0239
 6395SOL    HW130818   3.504   3.006   3.260  3.1687 -0.7014  1.7415
 6395SOL    HW230819   3.476   3.077   3.373  1.1209 -0.5347  0.2433
 6396SOL     OW30820   0.961   0.855   4.145  0.0850  0.2760 -0.5074
 6396SOL    HW130821   1.000   0.929   4.099  0.7697  1.8100  2.6103
 6396SOL    HW230822   1.008   0.865   4.227  0.4373  0.3840 -0.7240
 6397SOL     OW30823   4.450   2.183   4.025 -0.5521 -0.2956  0.2156
 6397SOL    HW130824   4.385   2.128   4.069 -0.9503  0.2364  0.2900
 6397SOL    HW230825   4.418   2.270   4.049  1.0549 -0.3866  2.6092
 6398SOL     OW30826   4.528   1.181   2.535 -0.9024  0.0424  0.4956
 6398SOL    HW130827   4.439   1.210   2.553 -1.4987 -0.4892 -1.5022
 6398SOL    HW230828   4.514   1.118   2.463 -2.2620  1.1043 -0.1811
 6399SOL     OW30829   1.600   0.523   5.762 -0.5713  0.1365  0.2268
 6399SOL    HW130830   1.579   0.509   5.854 -1.5333  2.3330  0.3303
 6399SOL    HW230831   1.599   0.433   5.727  1.0337 -0.8586  2.7596
 6400SOL     OW30832   2.244   0.071   7.859  0.1953 -0.0474 -0.0018
 6400SOL    HW130833   2.331   0.069   7.818 -0.3043  1.3859 -1.1172
 6400SOL    HW230834   2.210   0.146   7.809  0.0810  0.6072  1.0598
 6401SOL     OW30835   2.964   1.894   7.450 -0.0661  0.3616 -0.3364
 6401SOL    HW130836   3.008   1.898   7.365  1.7664  1.2579  0.6511
 6401SOL    HW230837   3.017   1.957   7.499  1.5990 -2.3705  1.3539
 6402SOL     OW30838   1.153   0.218   2.460  0.1572 -0.1577 -0.4013
 6402SOL    HW130839   1.246   0.196   2.472  0.0191 -1.4495 -1.7594
 6402SOL    HW230840   1.155   0.301   2.412 -1.0613 -1.3920 -2.5385
 6403SOL     OW30841   1.638   3.406  12.887  0.7380 -0.0689 -0.3503
 6403SOL    HW130842   1.633   3.338  12.820 -0.9820 -1.6852  1.4471
 6403SOL    HW230843   1.619   3.485  12.836 -1.6693 -1.3858 -1.4598
 6404SOL     OW30844   2.531   3.827   8.180  0.2535  0.2755 -0.2009
 6404SOL    HW130845   2.521   3.769   8.256 -1.3776 -1.5595 -1.8198
 6404SOL    HW230846   2.457   3.798   8.127 -0.7542 -1.1750  1.9763
 6405SOL     OW30847   0.318   0.314  17.274 -0.4638  0.2676  0.1175
 6405SOL    HW130848   0.224   0.335  17.271 -0.2495  1.0613 -1.2907
 6405SOL    HW230849   0.352   0.401  17.293 -0.4808  0.0764  1.0083
 6406SOL     OW30850   3.549   0.618   2.118 -0.3696 -0.0218  0.0346
 6406SOL    HW130851   3.567   0.572   2.035  1.2190  2.4831 -1.0134
 6406SOL    HW230852   3.624   0.677   2.119 -0.6962  0.3981 -0.2636
 6407SOL     OW30853   0.752   4.510   4.194 -0.4184 -0.2315 -0.3548
 6407SOL    HW130854   0.797   4.517   4.278 -1.4514  0.2469  0.1610
 6407SOL    HW230855   0.815   4.448   4.158 -1.1065 -1.9527  1.3970
 6408SOL     OW30856   1.447   0.050   3.971 -0.2571 -0.2450  0.7551
 6408SOL    HW130857   1.421   0.089   3.887  1.4827 -0.8205 -0.0739
 6408SOL    HW230858   1.397   4.709   3.963  2.4140 -2.0658  2.6963
 6409SOL     OW30859   3.878   0.407   5.870 -0.0664  0.0866  0.0491
 6409SOL    HW130860   3.863   0.445   5.784  0.9303 -0.9778 -0.6055
 6409SOL    HW230861   3.906   0.486   5.916  3.3042 -0.6871 -0.6515
 6410SOL     OW30862   3.129   0.159   1.698  0.2091 -0.2290  0.5935
 6410SOL    HW130863   3.096   0.186   1.783 -0.7672 -1.0765  0.4875
 6410SOL    HW230864   3.102   0.067   1.695 -0.3028 -0.0327 -0.6707
 6411SOL     OW30865   4.091   0.972   4.962 -0.4569 -0.2527  0.1397
 6411SOL    HW130866   4.112   0.970   4.869  1.8165 -0.7804  0.6667
 6411SOL    HW230867   4.177   0.965   5.003 -0.0030 -0.6536 -0.9057
 6412SOL     OW30868   3.755   3.065   3.667 -0.1778 -0.1818 -0.4515
 6412SOL    HW130869   3.845   3.057   3.636  0.3548 -0.4736  1.1498
 6412SOL    HW230870   3.738   2.990   3.724 -1.2271  1.4808  1.4788
 6413SOL     OW30871   0.120   3.526   6.642 -0.3787 -0.5162  0.3208
 6413SOL    HW130872   0.036   3.558   6.608  0.1807  0.2916 -0.2877
 6413SOL    HW230873   0.094   3.434   6.654 -1.1273 -0.4627 -0.8492
 6414SOL     OW30874   3.826   1.734   0.900 -0.2154  0.6284 -0.2675
 6414SOL    HW130875   3.751   1.771   0.854  0.5908  2.4683 -0.0867
 6414SOL    HW230876   3.822   1.768   0.989 -1.0625 -1.1164  0.3658
 6415SOL     OW30877   2.717   1.818   3.018  0.1366 -0.2063 -0.4176
 6415SOL    HW130878   2.650   1.869   3.065  1.1264 -0.3240  1.0967
 6415SOL    HW230879   2.712   1.867   2.936  0.8882  2.2737  1.0009
 6416SOL     OW30880   4.345   3.626  15.055 -0.4149 -0.3173 -0.4395
 6416SOL    HW130881   4.361   3.713  15.090  1.3957 -0.9270  0.2529
 6416SOL    HW230882   4.429   3.585  15.076 -0.4931 -0.2538 -0.0007
 6417SOL     OW30883   0.975   1.340   5.328 -0.4517 -0.6852  0.0383
 6417SOL    HW130884   0.926   1.334   5.246  1.5906  2.6785 -1.4563
 6417SOL    HW230885   0.915   1.397   5.376 -0.7723  0.1410 -1.3604
 6418SOL     OW30886   4.108   2.003   1.940  0.8737  0.0309  0.0786
 6418SOL    HW130887   4.169   1.932   1.963  0.6385  0.0995  0.9053
 6418SOL    HW230888   4.032   1.966   1.983  0.4467 -0.6935 -1.2986
 6419SOL     OW30889   4.020   4.163   8.783  0.3110  0.3647 -0.0218
 6419SOL    HW130890   4.023   4.190   8.875 -0.8908 -1.6735  0.6091
 6419SOL    HW230891   4.108   4.133   8.761 -0.2782 -2.1680  1.0955
 6420SOL     OW30892   3.518   4.134   3.959 -0.0823 -0.2962 -0.6680
 6420SOL    HW130893   3.589   4.079   3.992 -0.5811 -0.4701  0.1030
 6420SOL    HW230894   3.514   4.212   4.014  1.6678  0.0879 -1.0815
 6421SOL     OW30895   4.000   3.898   5.762  0.0235  0.6962  0.5602
 6421SOL    HW130896   3.947   3.916   5.840  1.5823 -0.8143  1.9561
 6421SOL    HW230897   3.948   3.836   5.712  2.1150 -1.6123  1.2676
 6422SOL     OW30898   1.148   1.980   4.203 -0.6275  0.6623 -0.1894
 6422SOL    HW130899   1.083   2.000   4.269  1.0940 -0.5073  1.8812
 6422SOL    HW230900   1.109   1.901   4.164  1.7984 -0.5851 -0.1107
 6423SOL     OW30901   4.653   2.475   5.210  0.3474  0.1443 -0.1570
 6423SOL    HW130902   4.604   2.517   5.281  1.7748 -2.8691  2.6458
 6423SOL    HW230903   0.002   2.496   5.234 -0.1343 -0.2551  1.9881
 6424SOL     OW30904   1.305   4.515  15.601 -0.1651  0.4356 -0.0367
 6424SOL    HW130905   1.360   4.568  15.543 -0.8493  1.4520  0.2432
 6424SOL    HW230906   1.220   4.555  15.585 -0.6063 -0.2204  0.6730
 6425SOL     OW30907   3.713   4.315   9.760  0.5460 -0.4620 -0.1625
 6425SOL    HW130908   3.741   4.224   9.749  2.2618 -0.0570  0.9291
 6425SOL    HW230909   3.692   4.327   9.852  0.2518 -0.4789 -0.2277
 6426SOL     OW30910   3.980   3.402   2.502  0.4319  0.1594  0.3542
 6426SOL    HW130911   3.896   3.397   2.548  0.7308  0.4694  0.9452
 6426SOL    HW230912   3.959   3.385   2.411  1.1144 -0.1043  0.2534
 6427SOL     OW30913   0.361   2.202   7.117  0.5415  0.4904 -0.4583
 6427SOL    HW130914   0.297   2.192   7.187  1.0545 -1.1146 -0.2252
 6427SOL    HW230915   0.416   2.125   7.129  1.2788  1.3806  1.8982
 6428SOL     OW30916   1.608   2.304   7.440 -0.0692 -0.3789 -0.5696
 6428SOL    HW130917   1.612   2.323   7.533 -1.5250 -3.2318  0.0608
 6428SOL    HW230918   1.558   2.381   7.413 -0.0833 -0.5480 -1.0351
 6429SOL     OW30919   0.735   4.438   6.069 -0.2996 -0.1090  0.4028
 6429SOL    HW130920   0.744   4.515   6.124  1.7241 -0.8036  1.0328
 6429SOL    HW230921   0.783   4.374   6.121  0.3651  1.0105  1.1444
 6430SOL     OW30922   1.245   3.220  14.388  0.8501  0.1805  0.1122
 6430SOL    HW130923   1.274   3.130  14.372 -0.1010 -0.2918  0.9992
 6430SOL    HW230924   1.178   3.229  14.321  0.3322 -1.2671  0.4301
 6431SOL     OW30925   0.772   3.529   2.586 -0.3789  0.1797  0.4161
 6431SOL    HW130926   0.771   3.462   2.655 -0.0638 -2.3258 -1.9868
 6431SOL    HW230927   0.711   3.490   2.523  0.8824 -0.3334 -0.5108
 6432SOL     OW30928   4.560   0.329   9.398 -0.1459 -0.3439  0.1246
 6432SOL    HW130929   4.549   0.246   9.352  1.4892 -1.5549  1.9066
 6432SOL    HW230930   4.633   0.313   9.458  0.0933  0.8703  0.1714
 6433SOL     OW30931   2.964   0.546   3.464  0.4095 -0.2331  0.0185
 6433SOL    HW130932   3.058   0.532   3.455  0.7694  0.7539  2.2510
 6433SOL    HW230933   2.944   0.552   3.370 -0.7897 -0.5554  0.2437
 6434SOL     OW30934   3.181   2.155   6.047  0.1711 -0.8496  0.1564
 6434SOL    HW130935   3.209   2.239   6.011 -1.7999  0.5498  1.8554
 6434SOL    HW230936   3.259   2.120   6.089  1.0981  0.3232 -0.5904
 6435SOL     OW30937   1.423   0.916   3.481  0.4212  0.0603 -0.4373
 6435SOL    HW130938   1.484   0.859   3.433 -0.3938 -1.4676  0.3428
 6435SOL    HW230939   1.454   0.926   3.571 -1.6162  0.5962  0.1918
 6436SOL     OW30940   3.444   4.548   5.153 -0.5881  0.2043 -0.3839
 6436SOL    HW130941   3.377   4.616   5.156 -0.8347 -0.1128  1.5363
 6436SOL    HW230942   3.526   4.597   5.154 -0.9703  0.8240  0.1603
 6437SOL     OW30943   4.625   1.398   4.721  0.2437 -0.3194 -0.1478
 6437SOL    HW130944   4.588   1.487   4.724  1.6078  0.3064 -1.3890
 6437SOL    HW230945   4.594   1.367   4.806 -0.7057 -0.7893 -0.6684
 6438SOL     OW30946   3.864   2.498   5.688  0.2669  0.1055  0.2613
 6438SOL    HW130947   3.780   2.509   5.734 -0.0490 -0.2595 -0.2393
 6438SOL    HW230948   3.843   2.428   5.627  0.4057  0.6069 -0.3641
 6439SOL     OW30949   4.654   0.290   8.539  0.4859 -0.6711 -0.0081
 6439SOL    HW130950   4.576   0.279   8.594  0.4307 -1.5291 -0.2683
 6439SOL    HW230951   4.647   0.206   8.495  2.8484 -1.5883  1.3545
 6440SOL     OW30952   2.584   0.779   2.019  0.2711  0.6814 -0.0058
 6440SOL    HW130953   2.581   0.715   2.090  1.3393 -0.3934 -0.9420
 6440SOL    HW230954   2.603   0.725   1.943 -2.6397  0.3678 -0.5319
 6441SOL     OW30955   4.227   3.011   1.876  0.5562 -0.0462 -0.3715
 6441SOL    HW130956   4.220   2.934   1.932  0.7834  1.7539  2.1588
 6441SOL    HW230957   4.221   3.083   1.939 -0.8524 -0.1416 -0.3859
 6442SOL     OW30958   2.968   4.210   5.707 -0.0127 -0.3806 -0.0153
 6442SOL    HW130959   2.924   4.291   5.678  2.4149 -0.0956 -2.9804
 6442SOL    HW230960   3.049   4.243   5.745  0.5582  0.5413 -1.9827
 6443SOL     OW30961   0.546   2.558   0.036 -0.2324 -0.1055  0.0162
 6443SOL    HW130962   0.613   2.626   0.038  1.8110 -2.0812 -1.6896
 6443SOL    HW230963   0.575   2.500   0.106  0.9148  0.4688  0.0074
 6444SOL     OW30964   0.149   1.658  17.318 -0.3081  0.5249 -0.4965
 6444SOL    HW130965   0.085   1.679  17.250 -0.7717 -1.6819 -0.7283
 6444SOL    HW230966   0.097   1.636  17.395 -0.0942  0.9644 -0.2225
 6445SOL     OW30967   0.991   2.551   5.982 -0.7595 -0.6923 -0.4075
 6445SOL    HW130968   0.978   2.631   5.931  1.4785 -1.6880 -2.5767
 6445SOL    HW230969   0.980   2.484   5.914 -2.4527  0.3763 -1.1988
 6446SOL     OW30970   0.602   1.517   5.753  0.3805 -0.4562 -0.3438
 6446SOL    HW130971   0.598   1.525   5.658 -0.1432 -3.0647 -0.5443
 6446SOL    HW230972   0.512   1.535   5.780  0.2571 -0.7143 -0.5728
 6447SOL     OW30973   3.942   3.962   6.928  0.6655  0.2450 -0.0603
 6447SOL    HW130974   4.027   3.978   6.887  0.3613  1.5456 -0.1950
 6447SOL    HW230975   3.970   3.897   6.992  2.4090  1.8026  0.7682
 6448SOL     OW30976   3.756   0.986   6.311  0.3099  0.3814  0.2890
 6448SOL    HW130977   3.801   0.915   6.265 -1.0291 -0.7537  0.7599
 6448SOL    HW230978   3.682   0.938   6.349 -0.9005  1.6121 -0.5393
 6449SOL     OW30979   2.121   0.073  10.378 -0.2114  0.3262 -0.1635
 6449SOL    HW130980   2.190   0.099  10.439 -1.9942  1.2015  1.4871
 6449SOL    HW230981   2.064   0.015  10.430  0.1689  0.3433  0.2729
 6450SOL     OW30982   4.630   4.333  10.204  0.1348 -0.4782  0.0090
 6450SOL    HW130983   4.661   4.274  10.134 -2.9394  0.5946 -2.2468
 6450SOL    HW230984   4.701   4.333  10.268 -0.2578  2.8124  0.4045
 6451SOL     OW30985   2.204   0.356   6.694 -0.8789  0.0569  1.0086
 6451SOL    HW130986   2.244   0.305   6.623 -0.1877 -0.8242  2.0381
 6451SOL    HW230987   2.179   0.287   6.756  2.7426 -2.5743 -0.4438
 6452SOL     OW30988   2.438   3.289  13.647  0.2792 -0.1382  0.2744
 6452SOL    HW130989   2.431   3.311  13.739  0.9548  0.4184  0.1969
 6452SOL    HW230990   2.367   3.345  13.616 -0.6714 -1.2854  0.3868
 6453SOL     OW30991   2.959   1.988  16.314 -0.2666  0.6501  0.0580
 6453SOL    HW130992   2.974   1.901  16.276 -0.2167  1.5724 -2.0354
 6453SOL    HW230993   2.882   2.004  16.259 -0.5667  0.4563  0.4291
 6454SOL     OW30994   4.236   4.087   3.885 -0.1501 -0.1046 -0.1110
 6454SOL    HW130995   4.284   4.009   3.856 -0.4395  0.3964 -1.9434
 6454SOL    HW230996   4.145   4.062   3.902 -0.9026  1.4443 -1.9754
 6455SOL     OW30997   2.537   1.940   8.762 -0.2891 -0.1452 -0.2364
 6455SOL    HW130998   2.520   1.993   8.840  2.2724  0.4697 -0.1024
 6455SOL    HW230999   2.620   1.973   8.729  0.1260 -0.9772 -0.0272
 6456SOL     OW31000   0.999   0.780   9.027 -0.0221  0.4065 -0.5553
 6456SOL    HW131001   0.971   0.689   9.037 -1.7281  0.8104 -1.5731
 6456SOL    HW231002   1.017   0.801   9.118 -1.0941  2.7950 -0.8986
 6457SOL     OW31003   3.842   1.798   4.002  0.5414 -0.5826  0.4518
 6457SOL    HW131004   3.836   1.887   3.967 -2.4780 -0.2312  1.8150
 6457SOL    HW231005   3.885   1.750   3.932  1.7871  1.0741  0.0750
 6458SOL     OW31006   2.131   4.231  11.996  0.0718 -0.6826  0.1062
 6458SOL    HW131007   2.113   4.137  11.993  1.4069 -0.9410 -0.0440
 6458SOL    HW231008   2.131   4.244  12.091  0.3187 -1.3470  0.1963
 6459SOL     OW31009   0.178   1.731   6.655 -0.0155  0.0634 -0.4321
 6459SOL    HW131010   0.242   1.733   6.584 -1.2484  1.0800 -1.5077
 6459SOL    HW231011   0.147   1.821   6.661  2.8478  0.9840  0.5388
 6460SOL     OW31012   3.709   2.032   9.820  0.2975  0.1697  0.0465
 6460SOL    HW131013   3.649   2.070   9.756 -1.4176 -1.0963  0.8896
 6460SOL    HW231014   3.719   2.102   9.884  2.7343  2.1090 -2.4227
 6461SOL     OW31015   3.645   4.423   9.517  0.3603  0.0559  0.2762
 6461SOL    HW131016   3.691   4.397   9.596 -0.6119  1.0938  1.1712
 6461SOL    HW231017   3.562   4.433   9.564  1.2973 -0.9995  2.1423
 6462SOL     OW31018   2.382   2.721   6.378 -0.1529  0.2309 -0.1642
 6462SOL    HW131019   2.443   2.648   6.389 -1.3556 -0.7322  0.1945
 6462SOL    HW231020   2.343   2.704   6.292  1.4612 -0.7682 -0.6957
 6463SOL     OW31021   1.254   3.888  10.916  0.3828 -0.0135  0.0223
 6463SOL    HW131022   1.233   3.800  10.888 -2.6479  0.8392 -0.3218
 6463SOL    HW231023   1.261   3.870  11.010  0.5264 -3.5371 -0.6956
 6464SOL     OW31024   2.721   1.674   2.535 -0.2795  0.3983  0.3869
 6464SOL    HW131025   2.788   1.689   2.469 -0.3301  1.4005  0.5560
 6464SOL    HW231026   2.776   1.641   2.606  0.6868 -0.5024 -0.8096
 6465SOL     OW31027   1.788   4.616  12.542  0.1872  0.0156 -0.1501
 6465SOL    HW131028   1.722   4.600  12.475  0.6820 -0.4173 -0.5375
 6465SOL    HW231029   1.747   4.673  12.606  2.0706 -1.2609  2.1956
 6466SOL     OW31030   0.726   3.593   6.006  0.4742 -0.3054 -0.0851
 6466SOL    HW131031   0.775   3.647   5.943 -0.6138  1.1068  0.2759
 6466SOL    HW231032   0.791   3.525   6.024 -0.0589 -1.2172 -1.6022
 6467SOL     OW31033   3.762   1.646   7.310 -0.2446 -0.3465 -0.0778
 6467SOL    HW131034   3.834   1.646   7.247 -0.4764 -0.2620 -0.3447
 6467SOL    HW231035   3.754   1.552   7.328  1.2547  0.0547  2.5592
 6468SOL     OW31036   0.822   2.566   0.122  0.0949 -0.1408  0.0933
 6468SOL    HW131037   0.838   2.527   0.036 -1.0741  2.5430 -1.3276
 6468SOL    HW231038   0.871   2.502   0.175 -1.0925 -0.6603  0.5593
 6469SOL     OW31039   2.815   2.099   3.827  0.5308  0.0241 -0.2748
 6469SOL    HW131040   2.888   2.037   3.828 -1.0006 -1.7509  0.6006
 6469SOL    HW231041   2.850   2.168   3.770  3.4261  0.9478  2.6096
 6470SOL     OW31042   2.456   2.778  17.564  0.3115  0.0982  0.4374
 6470SOL    HW131043   2.383   2.770  17.624 -0.6230 -2.6674 -1.1035
 6470SOL    HW231044   2.411   2.789  17.480  1.8730  0.5624 -0.3456
 6471SOL     OW31045   4.077   3.435   7.612  0.4242  0.2275  0.2077
 6471SOL    HW131046   4.047   3.446   7.702 -1.1960 -0.3698 -0.2576
 6471SOL    HW231047   4.167   3.464   7.625  1.3523 -1.8738 -1.5999
 6472SOL     OW31048   0.512   3.263   6.220  0.8640 -0.6415  0.7445
 6472SOL    HW131049   0.556   3.248   6.304 -0.6650 -0.3841  1.5851
 6472SOL    HW231050   0.426   3.223   6.237  0.4226 -0.0229 -0.0334
 6473SOL     OW31051   1.298   1.112   1.560 -0.3591 -0.0658  0.4327
 6473SOL    HW131052   1.231   1.178   1.541  0.5623 -0.0865 -2.8610
 6473SOL    HW231053   1.288   1.124   1.655 -0.6148  1.7140  0.1917
 6474SOL     OW31054   1.405   1.197   7.774  0.2779 -0.1760 -0.9112
 6474SOL    HW131055   1.359   1.141   7.836  0.3884  0.5119 -0.2009
 6474SOL    HW231056   1.400   1.282   7.818  1.2967 -0.1794 -0.7719
 6475SOL     OW31057   3.123   2.256   3.165  0.1402  0.0375 -0.3866
 6475SOL    HW131058   3.171   2.261   3.247 -0.6416 -0.1860  0.0758
 6475SOL    HW231059   3.118   2.349   3.143 -1.1813  0.0158 -0.1723
 6476SOL     OW31060   3.273   4.408   7.503  0.2132  0.2463 -0.4711
 6476SOL    HW131061   3.259   4.365   7.587 -0.9477  0.1289 -0.7210
 6476SOL    HW231062   3.304   4.333   7.452  1.2157 -0.1139  0.6658
 6477SOL     OW31063   3.822   4.495  15.808  0.5184  0.0430 -0.3523
 6477SOL    HW131064   3.805   4.424  15.747 -1.0242  1.9274 -2.1072
 6477SOL    HW231065   3.845   4.448  15.888  0.4127  0.4465 -0.0809
 6478SOL     OW31066   4.560   2.820   5.431  0.0060 -0.4529  0.4068
 6478SOL    HW131067   4.477   2.839   5.387  0.8536  2.4717  0.1023
 6478SOL    HW231068   4.545   2.726   5.441  1.3214 -0.5788  1.0842
 6479SOL     OW31069   0.130   2.905   1.968 -0.0018 -0.3405 -0.2996
 6479SOL    HW131070   0.188   2.902   1.891  0.3375 -0.9142 -0.0229
 6479SOL    HW231071   0.181   2.969   2.018 -0.8116  1.7084 -2.0915
 6480SOL     OW31072   0.652   4.078   7.036  0.1704  0.4189 -0.2279
 6480SOL    HW131073   0.577   4.116   6.991  0.9642  0.9324 -1.1006
 6480SOL    HW231074   0.616   4.061   7.123  2.6168 -0.5847  0.6078
 6481SOL     OW31075   2.253   4.311  16.015 -0.0337  0.1136 -0.4377
 6481SOL    HW131076   2.184   4.368  16.048 -0.0244  1.4753 -2.7876
 6481SOL    HW231077   2.313   4.375  15.977  0.7043 -1.6320 -2.2215
 6482SOL     OW31078   0.956   2.696   4.739  0.1433 -0.4199  0.6636
 6482SOL    HW131079   0.954   2.601   4.734  1.7633 -0.2560 -2.8838
 6482SOL    HW231080   0.909   2.706   4.822  0.7886  1.3357  0.8186
 6483SOL     OW31081   3.471   0.362   5.273 -0.0670 -0.3607 -0.5541
 6483SOL    HW131082   3.544   0.299   5.271  1.0146  0.8870 -0.3695
 6483SOL    HW231083   3.453   0.366   5.179 -0.1489 -2.9201 -0.6548
 6484SOL     OW31084   1.974   0.565   6.842 -0.7208 -0.4238 -0.1592
 6484SOL    HW131085   1.909   0.495   6.835  0.6131 -1.8471  1.7309
 6484SOL    HW231086   1.922   0.644   6.860 -3.0717 -2.0387  0.1663
 6485SOL     OW31087   2.644   0.639   7.837  0.0100  0.2191  0.2476
 6485SOL    HW131088   2.732   0.618   7.868  0.9582  2.5249 -0.8967
 6485SOL    HW231089   2.621   0.574   7.771  1.4249  0.0606 -0.0840
 6486SOL     OW31090   0.836   0.414  12.749 -0.1265  0.1516  0.2816
 6486SOL    HW131091   0.890   0.340  12.719  0.6961  1.8370 -2.4461
 6486SOL    HW231092   0.862   0.414  12.841 -0.0761 -0.0844  0.2668
 6487SOL     OW31093   0.825   3.701   3.288 -0.3178  0.0536  0.2769
 6487SOL    HW131094   0.867   3.700   3.374 -0.3013 -1.0759  0.2627
 6487SOL    HW231095   0.904   3.685   3.236 -0.4127 -3.1516  1.1383
 6488SOL     OW31096   4.513   2.485   6.802  0.2479  0.2854  0.3889
 6488SOL    HW131097   4.448   2.477   6.732 -1.3920  1.4258  1.8013
 6488SOL    HW231098   4.581   2.423   6.775 -0.5621 -0.8771  1.0737
 6489SOL     OW31099   4.437   3.250   6.232  0.0071 -0.7206  0.4819
 6489SOL    HW131100   4.394   3.167   6.216  1.1304 -1.1899 -0.1339
 6489SOL    HW231101   4.420   3.284   6.144  0.9258 -0.1653  0.5106
 6490SOL     OW31102   2.042   0.979  13.381  0.2565  0.2172  0.2767
 6490SOL    HW131103   1.947   0.984  13.385  0.2138 -0.7174  0.4931
 6490SOL    HW231104   2.059   0.965  13.288 -1.1593 -1.3299  0.2497
 6491SOL     OW31105   4.468   0.291   3.905 -0.4383 -0.1662  0.2573
 6491SOL    HW131106   4.494   0.200   3.914  1.3541  0.5399  2.2321
 6491SOL    HW231107   4.378   0.285   3.938 -1.3235  0.7115 -1.9876
 6492SOL     OW31108   3.292   3.567   8.556  0.1590  0.1449  0.1886
 6492SOL    HW131109   3.201   3.588   8.535 -0.1099 -0.5578  0.6738
 6492SOL    HW231110   3.342   3.649   8.551 -0.2168  0.3187 -0.8512
 6493SOL     OW31111   2.035   3.220   3.292 -0.7936  0.2394  0.2445
 6493SOL    HW131112   2.081   3.303   3.304 -1.0812  0.2715  1.1259
 6493SOL    HW231113   1.963   3.250   3.237 -0.7767  0.0579  0.1240
 6494SOL     OW31114   1.720   3.320   1.600 -0.2817  0.1032 -0.8112
 6494SOL    HW131115   1.668   3.248   1.563 -0.2097 -0.8037  0.8670
 6494SOL    HW231116   1.665   3.336   1.676  2.7901  3.8900  0.5986
 6495SOL     OW31117   1.661   2.040   5.074  0.1244 -0.0954  0.0489
 6495SOL    HW131118   1.583   1.990   5.049  0.0273  0.0566  0.0436
 6495SOL    HW231119   1.708   1.995   5.144 -0.4638 -2.6376 -1.1951
 6496SOL     OW31120   2.268   4.218   4.028  0.0634  0.4068  0.6039
 6496SOL    HW131121   2.229   4.284   3.971  3.4495  1.9136  0.0458
 6496SOL    HW231122   2.201   4.151   4.016  1.1171 -0.6776  0.7880
 6497SOL     OW31123   4.023   2.411  10.490  0.1525 -0.3197  0.6799
 6497SOL    HW131124   4.028   2.328  10.537  0.9275 -0.9670 -0.5573
 6497SOL    HW231125   3.930   2.409  10.469 -0.1466  0.0741  1.9803
 6498SOL     OW31126   1.931   1.948   4.379  0.6238 -0.4758 -0.4682
 6498SOL    HW131127   1.844   1.983   4.361  0.0036 -0.8872  1.6845
 6498SOL    HW231128   1.924   1.965   4.473  0.4567 -0.8688 -0.4073
 6499SOL     OW31129   1.977   1.115   9.029 -0.1496  0.2847  0.0246
 6499SOL    HW131130   1.981   1.057   8.952 -1.0231 -2.6693  2.1917
 6499SOL    HW231131   1.951   1.198   8.990 -1.9152  0.2525  1.1301
 6500SOL     OW31132   1.103   4.687   2.539  0.5632  0.6631  0.6762
 6500SOL    HW131133   1.162   4.663   2.468 -0.2125 -0.0938  0.2854
 6500SOL    HW231134   1.101   0.042   2.538 -0.7087  0.6431  1.3918
 6501SOL     OW31135   4.378   0.240   0.753  0.1492  0.1865 -0.4788
 6501SOL    HW131136   4.454   0.274   0.799 -0.2177  0.2759  0.0562
 6501SOL    HW231137   4.346   0.170   0.809  2.4772  0.0125  0.6247
 6502SOL     OW31138   0.864   1.915   7.255  0.3836  0.0286  0.1535
 6502SOL    HW131139   0.929   1.850   7.228 -1.3704 -0.3707 -3.1383
 6502SOL    HW231140   0.916   1.995   7.241 -0.5002  0.7858  1.2662
 6503SOL     OW31141   4.536   2.436   1.313 -0.1508 -0.1324  0.5539
 6503SOL    HW131142   4.612   2.494   1.315 -1.5333  1.7235 -1.4453
 6503SOL    HW231143   4.504   2.453   1.224 -2.3958 -0.5180  1.2765
 6504SOL     OW31144   2.522   4.136   7.357 -0.6144 -0.0830  0.1333
 6504SOL    HW131145   2.500   4.207   7.296 -1.8417 -0.7068 -0.1596
 6504SOL    HW231146   2.614   4.125   7.335 -0.3642 -0.0219  1.1434
 6505SOL     OW31147   4.302   0.812   4.417 -0.3560  0.4703 -0.8315
 6505SOL    HW131148   4.290   0.734   4.471  2.7742 -0.0653 -0.9442
 6505SOL    HW231149   4.234   0.790   4.353  0.4919  1.0139 -1.9152
 6506SOL     OW31150   2.690   2.658   9.304  0.9835  0.2267  0.3568
 6506SOL    HW131151   2.598   2.686   9.300  0.2891 -2.1707 -0.4586
 6506SOL    HW231152   2.735   2.729   9.258  0.6235  1.0014  1.1873
 6507SOL     OW31153   2.303   1.143   9.959  0.1504 -0.3573 -0.5375
 6507SOL    HW131154   2.309   1.061  10.008  1.2482  0.6973  1.1072
 6507SOL    HW231155   2.382   1.140   9.905 -0.7724 -1.3226 -1.8264
 6508SOL     OW31156   4.696   3.334   4.940  0.1526 -0.7447  0.0986
 6508SOL    HW131157   4.739   3.385   4.872 -1.4746  0.7092  0.1438
 6508SOL    HW231158   4.611   3.313   4.901  0.5969  0.5604 -1.5680
 6509SOL     OW31159   1.499   4.023   3.443 -0.3235 -0.5440 -0.4291
 6509SOL    HW131160   1.591   4.046   3.430 -0.0946 -1.1877  0.0541
 6509SOL    HW231161   1.485   3.974   3.362  1.8573 -1.5042 -0.2204
 6510SOL     OW31162   3.099   2.320   7.647 -0.0737 -0.0032 -0.0603
 6510SOL    HW131163   3.092   2.414   7.631 -0.8904 -0.1284 -0.4618
 6510SOL    HW231164   3.127   2.317   7.738  0.0314  1.8385 -0.0360
 6511SOL     OW31165   3.436   3.000   8.211  0.0841 -0.1309 -0.4585
 6511SOL    HW131166   3.436   2.913   8.252 -0.7661 -0.2011 -0.6074
 6511SOL    HW231167   3.471   3.055   8.281  0.6316 -1.8531  0.6414
 6512SOL     OW31168   1.334   0.761   8.589  0.4539  0.2807 -0.1921
 6512SOL    HW131169   1.420   0.800   8.603  0.5775  0.1206 -0.4993
 6512SOL    HW231170   1.336   0.688   8.651  0.0925 -0.8539 -1.5082
 6513SOL     OW31171   1.950   2.600   2.760 -0.2111 -0.7997 -0.7395
 6513SOL    HW131172   2.024   2.658   2.779  1.7109 -3.0185 -1.4409
 6513SOL    HW231173   1.925   2.594   2.852 -0.8769 -0.7506 -0.9206
 6514SOL     OW31174   1.750   3.647   6.725 -0.2945 -0.1741  0.6991
 6514SOL    HW131175   1.742   3.599   6.642 -0.7787 -0.0111  0.6529
 6514SOL    HW231176   1.662   3.638   6.760 -1.6291  1.4655 -2.1604
 6515SOL     OW31177   0.597   2.362   4.341 -0.7512 -0.2103  0.3227
 6515SOL    HW131178   0.516   2.359   4.289 -0.2909 -0.8510 -0.3529
 6515SOL    HW231179   0.556   2.398   4.420 -0.7061 -2.0920  1.1976
 6516SOL     OW31180   3.539   1.115   2.356  0.1627  0.4101 -0.1806
 6516SOL    HW131181   3.590   1.079   2.283  1.2792 -0.1351  0.8694
 6516SOL    HW231182   3.482   1.182   2.316 -0.2972  0.3056  0.3062
 6517SOL     OW31183   1.910   1.873  15.194  0.7227 -0.5532 -0.3634
 6517SOL    HW131184   1.951   1.848  15.111  0.9511  1.2912 -0.8013
 6517SOL    HW231185   1.846   1.938  15.167  1.4345 -0.1115 -0.9748
 6518SOL     OW31186   0.330   4.632  13.160 -0.4296  0.6251  0.1832
 6518SOL    HW131187   0.310   4.721  13.187  0.7172  0.2651  2.2446
 6518SOL    HW231188   0.426   4.626  13.151 -0.1178  3.0216  2.2063
 6519SOL     OW31189   1.714   3.834   4.576 -0.0554  0.2434 -0.9737
 6519SOL    HW131190   1.775   3.761   4.586  1.2123  1.3679 -0.4028
 6519SOL    HW231191   1.628   3.792   4.570 -1.2030  2.6494 -1.2809
 6520SOL     OW31192   3.538   0.166   7.073  0.4248  0.1597  0.3017
 6520SOL    HW131193   3.470   0.213   7.025 -0.7407 -2.0183 -0.1898
 6520SOL    HW231194   3.552   0.095   7.011 -1.7970 -0.9797  1.0818
 6521SOL     OW31195   2.750   3.852   6.433 -0.4079 -0.3651  0.1442
 6521SOL    HW131196   2.729   3.939   6.467  0.4900 -0.0427 -0.1268
 6521SOL    HW231197   2.715   3.860   6.344 -1.3817  0.8754  0.6389
 6522SOL     OW31198   2.897   4.102  12.596 -0.1941 -0.0760  0.0937
 6522SOL    HW131199   2.877   4.181  12.647  2.4930 -0.1463  1.2612
 6522SOL    HW231200   2.841   4.123  12.521 -1.0044  0.9076  0.9760
 6523SOL     OW31201   3.362   3.491   6.488 -0.3140  0.5148  0.3062
 6523SOL    HW131202   3.415   3.426   6.534  0.8171  1.8089  0.8583
 6523SOL    HW231203   3.277   3.449   6.503  0.3928 -0.9882  0.0941
 6524SOL     OW31204   1.316   0.410   6.550  0.4731  0.6130 -0.1697
 6524SOL    HW131205   1.226   0.408   6.582  1.6678 -3.1827  3.0081
 6524SOL    HW231206   1.297   0.431   6.459 -0.1510  0.3634 -0.1013
 6525SOL     OW31207   3.340   2.417   8.708 -0.3140  0.4213  0.0110
 6525SOL    HW131208   3.401   2.358   8.664 -1.0999 -0.5563  0.2650
 6525SOL    HW231209   3.269   2.361   8.737 -0.0661  0.6245  1.0286
 6526SOL     OW31210   4.245   3.216   1.072 -0.5303 -0.2566 -0.1334
 6526SOL    HW131211   4.334   3.239   1.045 -0.9060  0.5227 -0.7566
 6526SOL    HW231212   4.217   3.156   1.003  2.6450  0.8708 -2.4231
 6527SOL     OW31213   3.641   1.581   6.531  0.0128  0.5385 -0.7659
 6527SOL    HW131214   3.728   1.618   6.516 -0.3654  0.6342 -2.6615
 6527SOL    HW231215   3.629   1.576   6.626  0.8757  3.6961 -0.4871
 6528SOL     OW31216   0.216   3.366   2.948  0.1624 -0.1424  0.1923
 6528SOL    HW131217   0.215   3.313   2.868 -2.3636  0.4456 -0.1692
 6528SOL    HW231218   0.160   3.320   3.009  0.5513  1.0752  1.4724
 6529SOL     OW31219   3.385   1.969   7.812  0.1525 -0.7064  0.0470
 6529SOL    HW131220   3.338   1.921   7.879 -2.8715  1.1584 -0.7440
 6529SOL    HW231221   3.332   1.941   7.737  1.6735  1.3594 -1.8187
 6530SOL     OW31222   0.810   1.664   3.583 -0.1673  0.6053 -0.2094
 6530SOL    HW131223   0.786   1.650   3.491  0.4708  2.3932 -0.6401
 6530SOL    HW231224   0.723   1.638   3.614 -0.7718  2.0528 -0.6828
 6531SOL     OW31225   0.919   0.725   4.843  0.2947 -0.6777  0.1555
 6531SOL    HW131226   0.876   0.810   4.853  0.6202 -0.6335  1.2626
 6531SOL    HW231227   0.952   0.726   4.753  1.1836 -1.7917  0.4703
 6532SOL     OW31228   1.850   4.400  10.937  0.5958 -0.2785  0.5252
 6532SOL    HW131229   1.757   4.419  10.950  0.6711  2.6339 -3.0311
 6532SOL    HW231230   1.877   4.359  11.019  2.0396  2.8501  1.6337
 6533SOL     OW31231   4.535   2.675  12.160  0.3065 -0.2525  0.1128
 6533SOL    HW131232   4.586   2.686  12.080  0.0537 -0.0068 -0.0172
 6533SOL    HW231233   4.520   2.765  12.188  1.1275 -0.4525  1.1603
 6534SOL     OW31234   1.681   1.341   4.303  0.8690  0.5155 -0.0666
 6534SOL    HW131235   1.622   1.367   4.374  0.0842 -0.5147 -0.3394
 6534SOL    HW231236   1.718   1.264   4.346  0.0963  0.8152  1.1443
 6535SOL     OW31237   1.220   0.457   5.538  0.1368 -0.2111  0.1011
 6535SOL    HW131238   1.274   0.380   5.551  0.2531 -0.1116  0.2047
 6535SOL    HW231239   1.280   0.525   5.507  0.3422  0.8367  2.8084
 6536SOL     OW31240   1.796   1.237   5.240 -0.2079 -0.2512  0.4156
 6536SOL    HW131241   1.765   1.262   5.152  1.3278  0.1683 -0.0045
 6536SOL    HW231242   1.890   1.247   5.226 -0.0953  2.0315  2.8078
 6537SOL     OW31243   4.152   3.006   5.125  0.0571 -0.1327 -0.4229
 6537SOL    HW131244   4.118   2.966   5.045 -1.4048 -2.5569  1.4187
 6537SOL    HW231245   4.198   3.086   5.101  2.1336 -0.9914  0.7100
 6538SOL     OW31246   1.271   0.076   6.099 -0.1187  0.3667  0.8214
 6538SOL    HW131247   1.297   4.735   6.058 -0.0153 -0.4521  2.5445
 6538SOL    HW231248   1.354   0.091   6.143  0.1168  2.1207 -0.2101
 6539SOL     OW31249   3.244   3.723   6.125 -0.2167  0.4543  0.1919
 6539SOL    HW131250   3.291   3.647   6.158  0.7321  1.1184  0.3717
 6539SOL    HW231251   3.294   3.746   6.047 -1.7318 -2.2170 -1.5559
 6540SOL     OW31252   1.912   2.244   5.251 -0.0730 -0.1149  0.4686
 6540SOL    HW131253   2.003   2.255   5.280  0.3730 -2.0057 -0.2181
 6540SOL    HW231254   1.857   2.272   5.325 -1.7403 -1.2434 -0.3415
 6541SOL     OW31255   3.894   1.441   5.072 -0.3630 -0.0359  0.3468
 6541SOL    HW131256   3.878   1.346   5.079 -2.2063  0.3817  1.7800
 6541SOL    HW231257   3.907   1.475   5.161 -1.1333  1.4901 -0.1285
 6542SOL     OW31258   1.970   3.518   2.444 -0.0630  1.2712 -0.1320
 6542SOL    HW131259   1.955   3.583   2.375 -0.0972 -0.8862 -2.1529
 6542SOL    HW231260   2.063   3.506   2.430 -0.2767  0.3734 -0.7933
 6543SOL     OW31261   1.075   3.733  16.784  0.2191 -0.0690 -0.5227
 6543SOL    HW131262   1.107   3.783  16.709  1.9604 -0.3986 -0.0036
 6543SOL    HW231263   1.155   3.703  16.827 -0.6793 -1.5155  0.1271
 6544SOL     OW31264   1.555   0.862   7.476 -0.0027  0.1861 -0.9166
 6544SOL    HW131265   1.556   0.911   7.393  0.5048 -0.9063 -1.5577
 6544SOL    HW231266   1.564   0.936   7.536  0.8813 -1.2384  0.6974
 6545SOL     OW31267   0.698   3.972   6.553  0.3974 -0.1759 -0.3564
 6545SOL    HW131268   0.729   3.924   6.630 -0.0936 -2.0780 -1.3502
 6545SOL    HW231269   0.719   3.906   6.487  1.8996 -0.8597  0.8208
 6546SOL     OW31270   1.010   1.964  10.091 -0.0307  0.3651 -0.5196
 6546SOL    HW131271   0.955   1.977  10.169  0.2202 -0.9933 -0.1130
 6546SOL    HW231272   1.012   2.055  10.062  0.8163  0.6189  0.3178
 6547SOL     OW31273   0.706   2.627  13.781 -0.0061  0.5003  0.6680
 6547SOL    HW131274   0.713   2.608  13.687 -1.7703 -2.2601  1.1007
 6547SOL    HW231275   0.742   2.545  13.816 -0.6307 -0.8577 -1.8217
 6548SOL     OW31276   0.358   1.080  12.192 -0.8878 -0.6861  0.1516
 6548SOL    HW131277   0.267   1.088  12.221 -0.6575  1.0021  0.4092
 6548SOL    HW231278   0.391   1.164  12.222  1.2302 -1.5365  0.2211
 6549SOL     OW31279   0.867   1.694  14.344  0.1277 -0.2852  0.0195
 6549SOL    HW131280   0.878   1.599  14.347  0.7427 -0.2131  0.0585
 6549SOL    HW231281   0.883   1.719  14.435  0.0285 -0.2844  0.0372
 6550SOL     OW31282   1.660   1.268   5.549  0.0858  0.0605  0.3058
 6550SOL    HW131283   1.650   1.359   5.575 -1.8398  0.1902 -0.9061
 6550SOL    HW231284   1.754   1.251   5.539  0.3099  1.2669  0.4620
 6551SOL     OW31285   4.265   1.390   3.398 -0.7601 -0.7062 -0.2351
 6551SOL    HW131286   4.257   1.300   3.429 -0.0445 -1.7038 -2.9798
 6551SOL    HW231287   4.176   1.425   3.392  0.3787  1.9181 -1.7304
 6552SOL     OW31288   2.952   1.699   2.403 -0.6632  0.5918  0.5101
 6552SOL    HW131289   2.909   1.657   2.329  1.4246  0.2349 -0.4703
 6552SOL    HW231290   3.046   1.694   2.388 -0.9798  0.3580 -1.2905
 6553SOL     OW31291   1.380   0.794   7.735  0.3016  0.3049 -0.1714
 6553SOL    HW131292   1.349   0.819   7.647  0.8684  0.3737 -0.3534
 6553SOL    HW231293   1.384   0.699   7.727 -2.8337  0.0679  1.1631
 6554SOL     OW31294   3.637   3.550   2.722 -0.2045  0.0919 -0.1507
 6554SOL    HW131295   3.580   3.589   2.788 -2.6864 -0.7571 -1.7947
 6554SOL    HW231296   3.715   3.605   2.731  0.5060 -0.8909 -0.2081
 6555SOL     OW31297   1.602   3.029   2.330 -0.0707 -1.0354 -0.2135
 6555SOL    HW131298   1.592   2.980   2.411 -2.3526 -2.6075 -1.4401
 6555SOL    HW231299   1.618   3.120   2.358  0.1371 -0.8645 -0.8729
 6556SOL     OW31300   2.372   2.609   2.994 -0.3406  0.1232 -0.5924
 6556SOL    HW131301   2.433   2.674   3.028  0.7896 -0.3274 -1.7279
 6556SOL    HW231302   2.394   2.530   3.043  0.8293  2.1605  2.1542
 6557SOL     OW31303   2.489   4.397   8.382 -0.2273  0.0088 -0.9898
 6557SOL    HW131304   2.443   4.479   8.401 -0.2365 -0.1054 -0.4980
 6557SOL    HW231305   2.579   4.414   8.409 -1.2469  2.4796  0.8014
 6558SOL     OW31306   4.388   4.215  10.190  0.7215  0.3151 -0.6286
 6558SOL    HW131307   4.359   4.207  10.281  0.2518  1.4020 -0.6860
 6558SOL    HW231308   4.475   4.254  10.199  0.3664  1.4836 -2.2082
 6559SOL     OW31309   0.073   1.140   4.947 -0.6435  0.3501  0.5718
 6559SOL    HW131310   0.042   1.209   5.007  1.6085  1.6281  0.2613
 6559SOL    HW231311   0.165   1.159   4.966  0.1095 -1.1406 -1.6058
 6560SOL     OW31312   3.062   4.037   8.449 -0.2506  0.1129 -0.1351
 6560SOL    HW131313   3.011   4.085   8.515 -0.4288 -0.9571  0.5156
 6560SOL    HW231314   3.000   4.035   8.377 -0.4327  0.3607  0.0137
 6561SOL     OW31315   4.635   4.335   6.310 -0.3131  0.6395 -0.1417
 6561SOL    HW131316   4.703   4.268   6.308 -2.6568 -1.7782  0.4406
 6561SOL    HW231317   4.667   4.400   6.248  1.1267  0.7068  0.6646
 6562SOL     OW31318   3.901   2.038  12.589 -0.5425  0.0895  0.1482
 6562SOL    HW131319   3.892   2.133  12.592 -1.0273  0.1300 -2.8452
 6562SOL    HW231320   3.959   2.022  12.664 -1.3981  1.0170  1.0025
 6563SOL     OW31321   1.828   2.631   3.017 -0.1942 -0.0914 -0.6396
 6563SOL    HW131322   1.733   2.636   3.006 -0.2787  1.2953  0.6464
 6563SOL    HW231323   1.831   2.549   3.067  0.0646  0.2120 -0.1505
 6564SOL     OW31324   3.834   0.156   9.478  0.4043 -0.3010  0.0473
 6564SOL    HW131325   3.753   0.105   9.470  0.6188 -0.8212  1.1997
 6564SOL    HW231326   3.896   0.108   9.424  1.1579  1.2788 -0.5137
 6565SOL     OW31327   3.178   0.844   2.371  0.3251 -0.6472 -0.2287
 6565SOL    HW131328   3.247   0.868   2.433  0.4771  1.5429 -1.2235
 6565SOL    HW231329   3.098   0.848   2.424  0.6402  1.9582  0.0650
 6566SOL     OW31330   2.390   2.635   0.193 -0.1363 -0.3723 -0.2139
 6566SOL    HW131331   2.448   2.693   0.143  0.0661 -1.0764 -0.7873
 6566SOL    HW231332   2.308   2.684   0.205  1.0403  1.2011  1.4757
 6567SOL     OW31333   4.421   1.904  13.007  0.2992  0.1009  0.2642
 6567SOL    HW131334   4.478   1.877  13.079  1.0168  0.6529 -0.0999
 6567SOL    HW231335   4.398   1.821  12.966 -0.6068  0.3591  0.2437
 6568SOL     OW31336   2.091   4.691  11.415 -0.3335  0.6589 -0.0555
 6568SOL    HW131337   2.127   4.655  11.496 -0.2482  3.9803  1.3817
 6568SOL    HW231338   2.007   4.722  11.446 -0.7375  0.4301 -0.9156
 6569SOL     OW31339   3.863   4.627   8.273 -0.2377 -0.4561  0.2577
 6569SOL    HW131340   3.768   4.629   8.279 -0.1878  0.3625  0.8599
 6569SOL    HW231341   3.886   4.534   8.279  1.6087  0.0533  1.2680
 6570SOL     OW31342   2.680   3.308   3.651 -0.5156  0.0694 -0.0811
 6570SOL    HW131343   2.641   3.354   3.578  0.2158  1.8491  0.6601
 6570SOL    HW231344   2.604   3.304   3.710 -0.7614  1.0475 -0.3477
 6571SOL     OW31345   1.905   1.323   6.180  0.4044  0.7510 -0.8284
 6571SOL    HW131346   1.965   1.354   6.248  0.9564 -1.4435 -0.3318
 6571SOL    HW231347   1.894   1.410   6.141  0.9095  1.5911  0.9129
 6572SOL     OW31348   0.561   0.618   2.735  0.1734 -0.0789  0.2265
 6572SOL    HW131349   0.614   0.561   2.790  0.1538 -0.9605 -0.6657
 6572SOL    HW231350   0.557   0.699   2.786 -1.9824 -0.3252  0.4622
 6573SOL     OW31351   2.570   4.348   5.791 -0.3488 -0.8274  0.1370
 6573SOL    HW131352   2.604   4.431   5.757  2.2143 -2.5224 -1.3999
 6573SOL    HW231353   2.479   4.356   5.764 -0.7886 -1.0602  1.5953
 6574SOL     OW31354   1.745   3.469   7.235  0.4532 -0.1068 -0.2493
 6574SOL    HW131355   1.804   3.492   7.163  0.2189  0.0283 -0.4010
 6574SOL    HW231356   1.767   3.538   7.297 -1.1314 -0.3023  0.5227
 6575SOL     OW31357   3.977   0.482  13.428 -0.3177  0.3814  0.4355
 6575SOL    HW131358   3.945   0.392  13.442 -0.7196  0.1331 -1.9759
 6575SOL    HW231359   3.910   0.537  13.468 -0.2595  0.1610  0.8357
 6576SOL     OW31360   1.579   1.106   5.897 -0.4154  0.0132  0.5726
 6576SOL    HW131361   1.527   1.053   5.836 -1.9272  0.9914  1.0083
 6576SOL    HW231362   1.670   1.081   5.884 -0.9963 -2.0863  0.4363
 6577SOL     OW31363   0.567   0.586   5.193 -0.0154 -0.0400  0.3883
 6577SOL    HW131364   0.564   0.502   5.239  0.5974 -0.6541 -0.6864
 6577SOL    HW231365   0.586   0.639   5.271  2.1182 -2.1511  1.3150
 6578SOL     OW31366   0.129   3.350   7.621  0.2315  0.2238 -0.2404
 6578SOL    HW131367   0.189   3.318   7.688 -0.4276 -0.5333 -0.0114
 6578SOL    HW231368   0.148   3.291   7.548 -1.1072  1.3983 -1.5661
 6579SOL     OW31369   0.032   4.438   4.277 -0.7355  0.0368  0.1211
 6579SOL    HW131370   0.093   4.383   4.229  0.1101  0.2086  0.9944
 6579SOL    HW231371   0.080   4.451   4.359 -0.1797 -1.5660  0.0378
 6580SOL     OW31372   0.198   2.554  11.164  0.6001  0.6507 -0.0480
 6580SOL    HW131373   0.280   2.602  11.169  1.2236 -0.4889  0.5604
 6580SOL    HW231374   0.225   2.462  11.163 -0.5788  0.3492 -2.8620
 6581SOL     OW31375   1.643   1.392   6.440  0.0252 -0.5705  0.0627
 6581SOL    HW131376   1.642   1.410   6.534  2.6983  0.4237 -0.1080
 6581SOL    HW231377   1.712   1.451   6.409  0.0155 -0.6730 -0.1532
 6582SOL     OW31378   2.352   2.541   7.812 -0.1985  0.1881 -0.8392
 6582SOL    HW131379   2.409   2.537   7.735  0.6979 -1.2924 -0.0962
 6582SOL    HW231380   2.261   2.556   7.787 -0.2267 -1.9207 -1.9308
 6583SOL     OW31381   2.580   4.180   8.976  0.8445  0.0170  0.4271
 6583SOL    HW131382   2.665   4.175   9.019  0.4776 -2.1284  0.8706
 6583SOL    HW231383   2.548   4.091   8.966 -0.6772  0.5759  0.2885
 6584SOL     OW31384   0.426   2.425   1.221  0.1192  0.2741  0.3584
 6584SOL    HW131385   0.399   2.454   1.308 -0.4383  0.5535  0.0956
 6584SOL    HW231386   0.431   2.331   1.237  0.3605  0.2422  0.1019
 6585SOL     OW31387   0.424   4.695   2.142  0.4795 -0.5202 -0.5224
 6585SOL    HW131388   0.331   4.702   2.122 -0.2510  0.4790  3.1723
 6585SOL    HW231389   0.450   4.607   2.114 -2.2973 -0.6486 -2.7096
 6586SOL     OW31390   2.198   1.823   8.514 -0.6083  0.3613  0.3439
 6586SOL    HW131391   2.236   1.807   8.601 -2.7602  1.8103  1.5603
 6586SOL    HW231392   2.174   1.733   8.490 -0.1463  0.3587 -0.0996
 6587SOL     OW31393   4.727   1.299   2.880  0.1631  0.2291  0.3929
 6587SOL    HW131394   4.642   1.330   2.912 -0.1483 -1.7977  1.5170
 6587SOL    HW231395   4.734   1.381   2.830  0.9780  0.1031  0.3024
 6588SOL     OW31396   4.635   2.806  10.381  0.6582 -0.3810  0.1678
 6588SOL    HW131397   4.657   2.879  10.324 -2.0438  0.7247  0.5207
 6588SOL    HW231398   4.541   2.806  10.364  1.0579  0.0294 -2.0071
 6589SOL     OW31399   4.130   0.275   1.790 -1.1097  0.3455  0.3050
 6589SOL    HW131400   4.127   0.311   1.702 -0.1214  0.0476  0.1444
 6589SOL    HW231401   4.213   0.228   1.779 -1.5416 -0.2481 -0.3827
 6590SOL     OW31402   1.152   0.070   7.001 -0.1893 -0.5065  0.0250
 6590SOL    HW131403   1.114   0.151   6.967  0.4027  0.3908  1.5146
 6590SOL    HW231404   1.234   0.060   6.954  0.6336  0.8728  1.1794
 6591SOL     OW31405   1.503   0.300   1.825  0.3558  0.3068 -0.7945
 6591SOL    HW131406   1.506   0.242   1.749  3.2510 -0.8623  0.1974
 6591SOL    HW231407   1.431   0.359   1.804 -0.5324 -0.8319 -0.9400
 6592SOL     OW31408   2.615   1.104   8.963  0.6252 -0.6141  0.0908
 6592SOL    HW131409   2.640   1.119   8.872 -1.7750  0.4911 -0.3738
 6592SOL    HW231410   2.667   1.174   9.004 -0.9478 -0.6153  2.0781
 6593SOL     OW31411   1.400   1.520   6.028 -0.1842 -0.6966 -0.5215
 6593SOL    HW131412   1.385   1.529   6.122 -2.6371  2.0906 -1.1960
 6593SOL    HW231413   1.381   1.426   6.021 -4.2678  0.1653 -0.8342
 6594SOL     OW31414   3.156   4.045   1.742  0.1354 -0.6851 -0.1203
 6594SOL    HW131415   3.170   4.121   1.799  2.6453 -2.4223  1.5974
 6594SOL    HW231416   3.230   3.992   1.771  0.5455 -0.6952 -1.1967
 6595SOL     OW31417   4.474   3.524   6.000 -0.0041  0.2444  0.5959
 6595SOL    HW131418   4.504   3.496   5.913 -0.1365  1.7594  0.0592
 6595SOL    HW231419   4.555   3.554   6.040  1.2231  0.1044 -1.7491
 6596SOL     OW31420   1.840   1.075  15.344  0.1359 -0.0382  0.1535
 6596SOL    HW131421   1.851   1.082  15.439 -1.8983 -1.0104  0.4616
 6596SOL    HW231422   1.911   1.017  15.317 -0.1194 -0.3087  0.0665
 6597SOL     OW31423   3.018   3.763   7.142  0.2100 -0.0045 -0.2550
 6597SOL    HW131424   3.102   3.810   7.142  0.6523 -0.8043 -1.9781
 6597SOL    HW231425   3.012   3.744   7.049 -1.5099 -0.6177 -0.0157
 6598SOL     OW31426   0.558   0.364   5.348  0.0119 -0.2389 -0.1846
 6598SOL    HW131427   0.618   0.293   5.372 -1.9696 -1.6405  0.5836
 6598SOL    HW231428   0.500   0.376   5.423  1.4720 -1.0244  1.0918
 6599SOL     OW31429   3.873   2.960  13.196  0.6225 -0.6455  0.2380
 6599SOL    HW131430   3.849   2.912  13.275 -2.0246 -0.4144 -0.4319
 6599SOL    HW231431   3.792   3.005  13.173  0.0214 -2.2305 -0.7565
 6600SOL     OW31432   0.073   4.234  17.068  0.6313  0.2083  0.0501
 6600SOL    HW131433   0.123   4.308  17.034  0.2888  0.2895 -0.2772
 6600SOL    HW231434   0.036   4.275  17.146 -0.8111  0.4948 -0.7882
 6601SOL     OW31435   1.504   3.327   6.830 -0.5763  0.4717  0.1796
 6601SOL    HW131436   1.574   3.271   6.796 -0.2832  0.8217  0.1950
 6601SOL    HW231437   1.513   3.319   6.925  2.2295  2.0255  0.0553
 6602SOL     OW31438   2.290   4.682   7.026  0.1996  0.0799  0.4910
 6602SOL    HW131439   2.328   0.029   7.018 -0.3279  0.0629 -2.1044
 6602SOL    HW231440   2.316   4.671   7.117  1.1448  2.0393  0.4665
 6603SOL     OW31441   1.121   3.473   2.834  0.1394  0.3630 -0.4030
 6603SOL    HW131442   1.112   3.534   2.761 -0.9111  0.0327 -0.5452
 6603SOL    HW231443   1.185   3.517   2.890  1.0684 -2.8275  1.0236
 6604SOL     OW31444   2.693   4.444   6.574  0.3944 -0.4176  0.1122
 6604SOL    HW131445   2.679   4.535   6.547 -4.4650 -1.3309 -0.4865
 6604SOL    HW231446   2.735   4.407   6.496  1.4195  0.6010  0.1780
 6605SOL     OW31447   1.916   3.544  16.055  0.0367 -0.2770 -0.0989
 6605SOL    HW131448   1.926   3.511  15.965  0.1048 -3.3698  1.0266
 6605SOL    HW231449   1.864   3.623  16.042  1.3167  0.5515 -0.2078
 6606SOL     OW31450   3.699   2.860  13.909 -0.3970 -0.7509  0.8691
 6606SOL    HW131451   3.628   2.833  13.852 -0.5276  0.3297  0.5156
 6606SOL    HW231452   3.697   2.805  13.988 -0.1796 -1.8232  0.1241
 6607SOL     OW31453   4.684   3.588   1.407  0.2590 -0.6101  0.1067
 6607SOL    HW131454   4.654   3.608   1.319  1.1735 -0.1300 -0.1000
 6607SOL    HW231455   4.711   3.674   1.440 -1.2237  0.4061 -1.3458
 6608SOL     OW31456   0.671   2.936   0.755  0.1435 -0.5192  0.0710
 6608SOL    HW131457   0.704   2.978   0.676 -1.9441  2.5127  0.8084
 6608SOL    HW231458   0.578   2.932   0.733  0.8733  0.0591 -3.1718
 6609SOL     OW31459   3.652   3.483   8.333  0.3045  0.3313  0.4365
 6609SOL    HW131460   3.637   3.572   8.367 -1.2122  0.5793 -0.9086
 6609SOL    HW231461   3.737   3.486   8.289 -0.2972 -0.4235 -0.7812
 6610SOL     OW31462   0.067   1.820  10.956 -0.0037 -0.0774  0.1549
 6610SOL    HW131463   0.088   1.913  10.961  2.8431 -0.8092  1.8648
 6610SOL    HW231464   4.718   1.829  10.925 -0.8871 -0.2874  2.6695
 6611SOL     OW31465   3.070   2.351   6.743  0.2755 -0.2463  0.6272
 6611SOL    HW131466   3.094   2.427   6.690 -0.2008  0.1700  1.0014
 6611SOL    HW231467   3.024   2.395   6.815  1.8628 -0.2966  1.6565
 6612SOL     OW31468   1.467   0.485   3.418 -0.2974 -0.4461  0.7727
 6612SOL    HW131469   1.388   0.501   3.470 -1.5885 -0.2608 -1.2392
 6612SOL    HW231470   1.459   0.392   3.395 -0.4231 -0.6761  1.7324
 6613SOL     OW31471   3.230   0.619  10.616 -0.1411  1.1412  0.1421
 6613SOL    HW131472   3.309   0.636  10.668 -0.4230  2.3345  0.1849
 6613SOL    HW231473   3.228   0.524  10.611  0.9826  1.1430 -0.5259
 6614SOL     OW31474   2.411   4.443   4.898 -0.0733 -0.0063 -0.5415
 6614SOL    HW131475   2.406   4.430   4.803  1.1673 -2.1823 -0.3115
 6614SOL    HW231476   2.501   4.474   4.895  0.7139 -2.1258  1.0143
 6615SOL     OW31477   1.176   2.963   6.882  0.3026 -0.6189 -0.0785
 6615SOL    HW131478   1.244   3.022   6.916 -0.9922 -0.4532  2.2397
 6615SOL    HW231479   1.235   2.892   6.858  2.0639  0.5276  0.8163
 6616SOL     OW31480   0.047   4.494   6.151  0.4532  0.1638 -0.4718
 6616SOL    HW131481   0.039   4.584   6.120  3.9564  2.0773  4.2560
 6616SOL    HW231482   0.136   4.497   6.186  0.3333  1.8697 -0.3334
 6617SOL     OW31483   4.428   0.383   7.686 -0.2741 -0.4275  0.3808
 6617SOL    HW131484   4.358   0.360   7.748  0.1976 -0.3629  0.9350
 6617SOL    HW231485   4.445   0.304   7.635 -0.8849 -0.1996 -0.1704
 6618SOL     OW31486   3.805   2.231   9.199  0.1755 -0.3638 -0.0445
 6618SOL    HW131487   3.864   2.160   9.174 -1.1174 -1.5222  0.2020
 6618SOL    HW231488   3.821   2.232   9.293 -0.9902  0.1681  0.1435
 6619SOL     OW31489   1.547   3.549   5.755  0.3319 -0.2789 -0.4729
 6619SOL    HW131490   1.553   3.541   5.851  2.1857 -0.0343 -0.5554
 6619SOL    HW231491   1.454   3.543   5.733 -0.1896 -0.2605  1.7031
 6620SOL     OW31492   4.238   4.612   1.051 -0.1306  0.0471  0.2426
 6620SOL    HW131493   4.287   4.531   1.069 -1.4733 -0.7877  0.1546
 6620SOL    HW231494   4.181   4.614   1.127  0.9349 -0.1484  1.0581
 6621SOL     OW31495   3.705   2.258   1.432  0.0035  0.7741  0.0252
 6621SOL    HW131496   3.645   2.281   1.503 -0.6949 -0.3426 -0.2141
 6621SOL    HW231497   3.688   2.321   1.362 -2.1047 -1.7072 -1.6615
 6622SOL     OW31498   3.964   4.636   4.929 -0.1155  0.4526 -0.1889
 6622SOL    HW131499   3.925   4.656   4.844 -1.0348  1.0020  0.3628
 6622SOL    HW231500   4.024   4.711   4.938  0.4341 -0.1724  1.2645
 6623SOL     OW31501   0.354   0.746   2.275  0.3782 -0.1945  0.1381
 6623SOL    HW131502   0.343   0.707   2.362 -1.4962  2.6217  1.1307
 6623SOL    HW231503   0.352   0.840   2.292 -1.4387 -0.0923 -0.6960
 6624SOL     OW31504   1.480   3.965   1.875  0.4767 -0.3716 -0.1400
 6624SOL    HW131505   1.446   3.881   1.906 -0.3198 -0.4013 -1.1231
 6624SOL    HW231506   1.407   4.023   1.897 -1.4968 -2.7596 -0.4433
 6625SOL     OW31507   0.500   1.820   2.523 -0.0363  0.0425  0.5178
 6625SOL    HW131508   0.417   1.780   2.499  0.4791 -0.2992 -0.7377
 6625SOL    HW231509   0.534   1.828   2.433  1.1766  0.7367  1.0318
 6626SOL     OW31510   2.254   0.828   3.205  0.2212  0.1350  0.1701
 6626SOL    HW131511   2.222   0.855   3.120  2.2337 -1.3412 -1.0564
 6626SOL    HW231512   2.184   0.837   3.269 -0.1519 -0.6443 -0.1281
 6627SOL     OW31513   1.674   4.467   5.028 -0.3307 -0.3640 -0.4220
 6627SOL    HW131514   1.590   4.424   5.042 -1.3786  0.4113 -4.1997
 6627SOL    HW231515   1.651   4.558   5.009  1.8072  0.1331 -0.6363
 6628SOL     OW31516   3.685   3.334   3.924 -0.2181 -0.7494  0.0995
 6628SOL    HW131517   3.647   3.281   3.854  0.4788 -0.3320 -0.5973
 6628SOL    HW231518   3.606   3.385   3.941 -0.0973 -0.2403 -0.8529
 6629SOL     OW31519   4.118   1.266   3.739  0.2411  0.4548 -0.3030
 6629SOL    HW131520   4.135   1.340   3.797  0.8461  0.5089 -0.5591
 6629SOL    HW231521   4.141   1.195   3.799 -2.4217  0.5861  0.9068
 6630SOL     OW31522   2.137   0.806   7.280 -0.2162 -0.1986 -0.7504
 6630SOL    HW131523   2.114   0.786   7.371 -0.9353  0.5266 -0.7839
 6630SOL    HW231524   2.052   0.783   7.243 -0.7299 -1.0211  0.9286
 6631SOL     OW31525   4.193   2.935   2.591 -0.8230  0.5991  0.4507
 6631SOL    HW131526   4.190   2.910   2.499  1.5641  1.2163  0.1886
 6631SOL    HW231527   4.278   2.981   2.586 -0.4144 -0.1913  0.1748
 6632SOL     OW31528   4.222   2.879   7.195  0.2734  1.1859  0.1386
 6632SOL    HW131529   4.307   2.838   7.207 -0.5714 -0.4532  0.4710
 6632SOL    HW231530   4.170   2.817   7.245  1.9085  0.4280  0.9011
 6633SOL     OW31531   0.386   1.620   7.452  0.0185  0.2615 -0.4795
 6633SOL    HW131532   0.440   1.688   7.494 -0.0627  0.0076  0.0337
 6633SOL    HW231533   0.342   1.571   7.521  1.0487 -0.1149 -0.0886
 6634SOL     OW31534   1.731   4.079   7.299 -0.1261 -0.0832 -0.2773
 6634SOL    HW131535   1.683   4.093   7.217 -0.8651 -0.8722  0.0206
 6634SOL    HW231536   1.688   4.005   7.342 -0.7885 -0.2368 -1.1975
 6635SOL     OW31537   1.482   3.336   0.386  0.8610  0.0425  0.1425
 6635SOL    HW131538   1.450   3.333   0.296 -1.4289 -1.1169  0.9940
 6635SOL    HW231539   1.520   3.248   0.393 -0.7587 -0.4304  2.8121
 6636SOL     OW31540   2.320   3.099   9.713 -0.2644 -0.0751 -0.1729
 6636SOL    HW131541   2.401   3.076   9.668 -0.4089  2.1305 -1.5233
 6636SOL    HW231542   2.261   3.023   9.708  1.4887 -1.6139  2.5911
 6637SOL     OW31543   0.540   2.829   2.454 -0.4179 -0.6352 -0.0084
 6637SOL    HW131544   0.542   2.849   2.548 -1.2806  0.6701 -0.2695
 6637SOL    HW231545   0.507   2.912   2.419  0.3442  0.2086  1.2427
 6638SOL     OW31546   3.788   0.794  12.854  0.3136 -0.6318  0.5371
 6638SOL    HW131547   3.735   0.872  12.865  0.6506 -0.5458  1.5411
 6638SOL    HW231548   3.742   0.729  12.908  0.2579 -1.1097 -0.0915
 6639SOL     OW31549   1.146   1.541   1.461  0.1866  0.3802 -0.1135
 6639SOL    HW131550   1.063   1.498   1.440  0.4324  0.4014 -1.1387
 6639SOL    HW231551   1.203   1.526   1.385 -1.9519  0.3610 -1.7202
 6640SOL     OW31552   1.319   1.134   3.347 -0.1302  0.2448 -0.5424
 6640SOL    HW131553   1.395   1.176   3.388  1.0460 -0.9917 -1.4469
 6640SOL    HW231554   1.327   1.051   3.394 -0.8669 -0.3153 -1.4165
 6641SOL     OW31555   2.357   3.290   2.747 -0.0785 -0.1120  0.4707
 6641SOL    HW131556   2.353   3.205   2.703 -0.7020 -0.5610  1.3864
 6641SOL    HW231557   2.325   3.344   2.675 -1.9807 -2.7006 -0.6273
 6642SOL     OW31558   0.546   3.580   4.996  0.1946  0.2510 -0.0422
 6642SOL    HW131559   0.584   3.668   4.994 -3.8169  2.0133 -0.1977
 6642SOL    HW231560   0.519   3.579   5.088  0.4021 -1.3355 -0.0025
 6643SOL     OW31561   2.298   0.099  17.373  0.2977 -0.0171  0.3633
 6643SOL    HW131562   2.365   0.159  17.406  0.1983 -0.1248  0.7636
 6643SOL    HW231563   2.341   0.014  17.390  0.4573 -0.1165 -0.5774
 6644SOL     OW31564   0.827   3.493   4.109  0.1109 -0.2171 -0.0636
 6644SOL    HW131565   0.784   3.484   4.194 -1.3999 -1.6576 -0.9953
 6644SOL    HW231566   0.872   3.578   4.112 -1.6153  0.7437 -1.5933
 6645SOL     OW31567   2.500   4.657   7.492 -0.0612 -0.1607 -0.1427
 6645SOL    HW131568   2.487   4.571   7.532 -0.7058  0.1152  0.2385
 6645SOL    HW231569   2.568   4.637   7.428 -1.0712 -2.8721 -0.3680
 6646SOL     OW31570   1.879   2.656   3.871 -0.2245 -0.6533  0.2893
 6646SOL    HW131571   1.893   2.696   3.785 -0.2177  0.4631  0.8003
 6646SOL    HW231572   1.887   2.737   3.922  3.7599 -0.2961 -0.9354
 6647SOL     OW31573   1.985   2.513   6.333  0.4106 -0.5320 -0.1112
 6647SOL    HW131574   1.975   2.608   6.323 -0.7357 -0.8032 -1.5469
 6647SOL    HW231575   2.067   2.517   6.382  0.0969 -0.0436  0.3784
 6648SOL     OW31576   1.868   4.585   3.185 -0.4890  0.6200  0.0997
 6648SOL    HW131577   1.857   4.606   3.278  1.6066  1.1772  0.2012
 6648SOL    HW231578   1.895   4.672   3.155  0.3248  0.2857 -0.1413
 6649SOL     OW31579   1.207   3.911   6.941 -0.1764  0.0015 -0.1685
 6649SOL    HW131580   1.276   3.976   6.953  0.0740 -0.0744 -1.2282
 6649SOL    HW231581   1.143   3.952   6.883 -0.3583  0.6648  0.4986
 6650SOL     OW31582   2.407   0.186   7.045 -0.1169  0.8279 -0.4265
 6650SOL    HW131583   2.435   0.259   6.990 -0.9878  0.7767 -0.9443
 6650SOL    HW231584   2.351   0.235   7.105 -1.6934 -2.5762  0.9418
 6651SOL     OW31585   0.192   4.084   8.904  0.3182 -0.0298 -0.3495
 6651SOL    HW131586   0.128   4.092   8.975 -1.3089  1.1589 -1.9462
 6651SOL    HW231587   0.252   4.020   8.941 -0.7341 -1.0127 -0.3625
 6652SOL     OW31588   2.936   0.053   0.701  0.0766  0.4260 -0.1463
 6652SOL    HW131589   2.911   0.028   0.612  0.2381 -1.4246  0.3173
 6652SOL    HW231590   2.955   4.712   0.748 -0.3784  1.8855  2.5785
 6653SOL     OW31591   0.045   2.093   5.426  0.1212 -0.1567 -0.0613
 6653SOL    HW131592   4.697   2.057   5.418  0.1803 -0.3568  0.1800
 6653SOL    HW231593   0.039   2.123   5.517 -2.1735 -1.9893  0.3818
 6654SOL     OW31594   3.953   3.635  11.685 -0.1455  0.4694 -0.2620
 6654SOL    HW131595   3.994   3.646  11.600  0.7267 -0.1624  0.0805
 6654SOL    HW231596   3.966   3.724  11.717 -1.0600  0.1132  1.0929
 6655SOL     OW31597   0.148   1.063   0.209 -0.0293 -0.4584 -0.2400
 6655SOL    HW131598   0.226   1.102   0.248 -1.3401  0.0600  1.9014
 6655SOL    HW231599   0.161   1.097   0.121 -0.5496  2.3501  0.7625
 6656SOL     OW31600   1.505   0.747   5.133 -0.3916 -0.0813 -0.3563
 6656SOL    HW131601   1.477   0.666   5.175  0.1066  0.0618  0.2428
 6656SOL    HW231602   1.491   0.726   5.041 -0.8273 -4.2765  0.6767
 6657SOL     OW31603   3.635   1.579   0.593  0.5149  0.5068  0.5568
 6657SOL    HW131604   3.659   1.641   0.662 -2.6320  2.1222  0.2061
 6657SOL    HW231605   3.576   1.632   0.539  0.3211  0.2456  0.5116
 6658SOL     OW31606   2.299   2.860  11.858 -0.0980 -0.0273  0.4759
 6658SOL    HW131607   2.283   2.768  11.836 -1.6714  0.6340 -1.1109
 6658SOL    HW231608   2.351   2.851  11.938 -0.0169 -1.5520  0.2511
 6659SOL     OW31609   3.782   1.940   4.772 -0.4023  0.2106 -0.0623
 6659SOL    HW131610   3.825   1.882   4.835 -1.5144 -0.1232  0.3914
 6659SOL    HW231611   3.816   2.021   4.810  0.6677  0.0413 -0.6501
 6660SOL     OW31612   0.490   4.073   1.529 -0.4586 -0.5068 -0.2773
 6660SOL    HW131613   0.475   4.107   1.617 -0.1220 -0.0524 -0.3982
 6660SOL    HW231614   0.422   4.120   1.481 -0.7059  1.2527  1.8260
 6661SOL     OW31615   2.452   0.252   8.260 -0.1729  0.5907  0.4406
 6661SOL    HW131616   2.391   0.206   8.203  1.9608 -0.3827 -1.0398
 6661SOL    HW231617   2.428   0.341   8.231 -0.3416  0.2221 -0.5569
 6662SOL     OW31618   0.967   2.099   6.380  0.0104  0.1103  0.1331
 6662SOL    HW131619   1.008   2.143   6.306  4.5775 -0.6152  2.2856
 6662SOL    HW231620   0.959   2.007   6.357  2.5070  0.2493 -1.2569
 6663SOL     OW31621   0.478   4.123  12.614  0.2130  0.1858  0.5884
 6663SOL    HW131622   0.470   4.174  12.695  3.1988 -0.9822  1.6055
 6663SOL    HW231623   0.393   4.153  12.583  0.7074  1.0975  0.1311
 6664SOL     OW31624   1.919   1.270   4.136 -0.7142  0.4836 -0.1108
 6664SOL    HW131625   1.880   1.317   4.063 -0.8564  0.9051  0.2391
 6664SOL    HW231626   1.861   1.289   4.209 -1.3663 -0.8458 -0.2827
 6665SOL     OW31627   2.046   4.380   9.308  0.6677  0.5008  0.2326
 6665SOL    HW131628   2.085   4.322   9.243 -1.1736 -2.1479  1.5289
 6665SOL    HW231629   2.049   4.323   9.384  0.2990  0.3343  0.1208
 6666SOL     OW31630   4.136   2.570   6.427 -0.1800 -0.8102 -0.1056
 6666SOL    HW131631   4.063   2.571   6.365  0.0107 -0.4921 -0.3236
 6666SOL    HW231632   4.104   2.510   6.494  3.3957 -2.5218  0.0549
 6667SOL     OW31633   2.885   2.347  14.164 -0.0546  0.0696  0.4474
 6667SOL    HW131634   2.957   2.303  14.119 -0.1075  0.9965 -0.5538
 6667SOL    HW231635   2.861   2.411  14.098  1.7969  0.1363 -0.1694
 6668SOL     OW31636   1.197   4.174   8.635 -0.2949  0.4007  0.0683
 6668SOL    HW131637   1.277   4.152   8.682 -0.5411 -2.0469 -0.6556
 6668SOL    HW231638   1.226   4.224   8.558  0.3221 -0.9558 -0.5857
 6669SOL     OW31639   1.082   0.542   9.935  0.5358 -0.8752 -0.2773
 6669SOL    HW131640   1.129   0.513  10.013 -1.1488  0.4232  1.2093
 6669SOL    HW231641   1.027   0.466   9.918  0.0041 -1.0159  2.1532
 6670SOL     OW31642   4.515   2.788   9.157 -0.1867  0.1180 -0.0720
 6670SOL    HW131643   4.535   2.874   9.194 -1.2790  0.6032 -0.5917
 6670SOL    HW231644   4.464   2.747   9.227 -0.3733  1.4770  0.5706
 6671SOL     OW31645   1.251   1.067   7.937  0.3832 -0.1372  0.1421
 6671SOL    HW131646   1.235   0.985   7.983  0.3409 -0.3571 -0.2615
 6671SOL    HW231647   1.169   1.111   7.960  0.0681  0.4150 -2.0369
 6672SOL     OW31648   0.607   3.025   8.229  0.2351 -0.4603  0.4386
 6672SOL    HW131649   0.609   2.940   8.273  0.4852 -0.6129  0.1278
 6672SOL    HW231650   0.679   3.019   8.166  0.1612  2.0613  0.0968
 6673SOL     OW31651   1.158   0.620   6.980  0.3172  0.1773 -0.3672
 6673SOL    HW131652   1.070   0.658   6.989  0.6476  0.7566  0.3711
 6673SOL    HW231653   1.179   0.665   6.899 -1.8952  2.2224  0.1817
 6674SOL     OW31654   3.627   1.853   0.766  0.5071  0.3678 -0.1353
 6674SOL    HW131655   3.533   1.874   0.772  0.4434 -0.7940  2.9972
 6674SOL    HW231656   3.640   1.913   0.692 -2.8190  0.0660 -0.9784
 6675SOL     OW31657   4.124   0.046   9.072 -0.0947  0.4997  0.3301
 6675SOL    HW131658   4.122   0.034   8.977 -2.8397 -0.2701  0.4786
 6675SOL    HW231659   4.074   4.712   9.104 -1.1584  1.3772  0.7433
 6676SOL     OW31660   2.223   0.110  14.481 -0.5839  0.1655  0.0560
 6676SOL    HW131661   2.170   0.035  14.453 -0.5782  0.4073 -0.6033
 6676SOL    HW231662   2.176   0.186  14.446  0.7076  0.8557 -0.1848
 6677SOL     OW31663   1.157   2.590   6.666  0.5162 -0.1264 -0.1340
 6677SOL    HW131664   1.219   2.595   6.593  0.1172 -2.9113 -0.6421
 6677SOL    HW231665   1.083   2.582   6.606  0.4545  1.9418 -0.3508
 6678SOL     OW31666   1.260   3.131  15.113 -0.1765  0.5259 -0.1633
 6678SOL    HW131667   1.203   3.067  15.158 -0.0038 -0.0483 -0.7695
 6678SOL    HW231668   1.265   3.089  15.027  0.5600  0.7734 -0.2365
 6679SOL     OW31669   4.017   1.554   3.395 -0.4009  0.5423 -0.0404
 6679SOL    HW131670   3.985   1.569   3.306 -0.7175 -0.1868 -0.0535
 6679SOL    HW231671   3.958   1.605   3.450 -0.9850  1.7405 -1.7659
 6680SOL     OW31672   0.609   1.388   4.268 -0.4608 -0.4534 -0.0075
 6680SOL    HW131673   0.677   1.369   4.203  2.0229 -1.1479  2.7846
 6680SOL    HW231674   0.625   1.312   4.324 -1.0275  0.3626  1.2638
 6681SOL     OW31675   2.675   2.405  15.914 -0.0404 -0.0188 -0.1760
 6681SOL    HW131676   2.598   2.449  15.949  0.4846  1.2272 -0.5808
 6681SOL    HW231677   2.701   2.470  15.848  1.6128 -0.2766  0.2079
 6682SOL     OW31678   2.278   4.368   4.252  1.2021 -1.4981  0.1135
 6682SOL    HW131679   2.268   4.306   4.180  0.6665 -1.3132  0.0236
 6682SOL    HW231680   2.314   4.311   4.319  0.2440 -1.8066  0.3683
 6683SOL     OW31681   1.057   1.362   5.758 -0.3151  0.1650  0.4138
 6683SOL    HW131682   0.981   1.419   5.742 -0.2385  0.2129  0.2154
 6683SOL    HW231683   1.030   1.292   5.817  1.8739 -1.5544 -0.6432
 6684SOL     OW31684   2.079   4.139   4.579 -0.4275  0.2938  0.5783
 6684SOL    HW131685   1.992   4.138   4.538  0.9006  0.2216 -2.2004
 6684SOL    HW231686   2.060   4.195   4.655 -0.2654 -0.5744  1.2484
 6685SOL     OW31687   3.435   3.010   9.444  0.1518 -0.8301 -0.3589
 6685SOL    HW131688   3.476   2.925   9.426  0.4695 -0.8378  0.4163
 6685SOL    HW231689   3.485   3.073   9.392 -0.2399 -0.6634 -0.5377
 6686SOL     OW31690   4.367   3.127   6.626  0.4764 -0.0371  0.2025
 6686SOL    HW131691   4.335   3.053   6.575  0.2841 -0.0206  0.2987
 6686SOL    HW231692   4.383   3.084   6.709 -0.7722  0.1668  0.5525
 6687SOL     OW31693   3.324   2.807   2.029  0.5289  0.2943  0.3271
 6687SOL    HW131694   3.282   2.823   2.113 -2.7927 -0.9935 -1.0548
 6687SOL    HW231695   3.398   2.867   2.027 -0.1371  1.1333  1.4465
 6688SOL     OW31696   3.462   0.498  14.567 -0.2955  0.0147  0.3951
 6688SOL    HW131697   3.440   0.405  14.570  1.2158 -0.3258  1.0351
 6688SOL    HW231698   3.469   0.517  14.661  0.0556  1.4349  0.0809
 6689SOL     OW31699   3.693   4.718   3.244 -0.4053  0.6352 -0.4003
 6689SOL    HW131700   3.691   0.022   3.160 -0.8176  1.8144  0.2327
 6689SOL    HW231701   3.601   4.709   3.271  0.0668  0.9813  1.3667
 6690SOL     OW31702   3.134   4.327  16.093 -0.0986  0.4487  0.7191
 6690SOL    HW131703   3.176   4.359  16.172  0.2695  0.4288  0.5311
 6690SOL    HW231704   3.073   4.263  16.131  0.2651 -0.1025  0.3630
 6691SOL     OW31705   3.188   2.937   3.388  0.2016  0.2630 -0.9343
 6691SOL    HW131706   3.131   2.997   3.436 -0.4298 -0.6606 -0.5323
 6691SOL    HW231707   3.175   2.963   3.296  1.0200  0.7177 -0.9241
 6692SOL     OW31708   3.640   1.672   4.398  0.3617 -0.2593 -0.2078
 6692SOL    HW131709   3.589   1.592   4.386 -0.8769  0.5449 -0.3277
 6692SOL    HW231710   3.725   1.640   4.367  0.1441  0.1625 -1.2264
 6693SOL     OW31711   0.045   1.169   2.548  0.2961  0.0660 -0.0332
 6693SOL    HW131712   4.697   1.151   2.578  1.3283 -1.1362  2.2986
 6693SOL    HW231713   0.092   1.087   2.566 -0.3452 -0.1334  0.7065
 6694SOL     OW31714   3.474   3.718   2.227  0.2745  0.1055 -0.3352
 6694SOL    HW131715   3.548   3.747   2.173 -0.2646  3.2615  0.5807
 6694SOL    HW231716   3.397   3.747   2.179 -1.9742  0.5079  3.5399
 6695SOL     OW31717   3.118   2.038   0.847 -0.0251  0.8369  0.0256
 6695SOL    HW131718   3.107   2.115   0.791 -1.9857 -1.6641 -3.0681
 6695SOL    HW231719   3.114   2.083   0.931 -5.1485 -3.8513  2.2264
 6696SOL     OW31720   0.294   4.574   7.556 -0.1059  0.9470 -0.1892
 6696SOL    HW131721   0.319   4.615   7.639 -0.9532  0.3606  0.3542
 6696SOL    HW231722   0.286   4.485   7.591 -2.9477  0.5969 -1.6923
 6697SOL     OW31723   2.897   2.772   3.635 -0.0109 -0.6266 -0.0388
 6697SOL    HW131724   2.817   2.763   3.584  0.6349  0.9372 -1.3098
 6697SOL    HW231725   2.882   2.853   3.683 -2.0180 -2.7434  2.9516
 6698SOL     OW31726   3.204   1.660   2.354  0.2179  0.7369  0.0008
 6698SOL    HW131727   3.261   1.736   2.367  0.8264  0.2664  0.0578
 6698SOL    HW231728   3.237   1.617   2.274 -0.6681  0.2730 -0.1187
 6699SOL     OW31729   0.316   0.811   9.711 -0.4600 -0.2425 -0.1214
 6699SOL    HW131730   0.395   0.767   9.743 -1.0218 -0.9720  0.2411
 6699SOL    HW231731   0.343   0.903   9.710  2.0563 -0.9874 -0.1945
 6700SOL     OW31732   4.287   2.059   9.316 -0.2113  0.6517 -0.2941
 6700SOL    HW131733   4.241   2.093   9.393  2.4665  0.8493  1.2146
 6700SOL    HW231734   4.336   1.988   9.358  0.2271  0.4832 -1.0867
 6701SOL     OW31735   4.396   2.523   2.926 -0.2456  0.2379  0.1123
 6701SOL    HW131736   4.325   2.536   2.863  1.3334 -1.6009 -2.0708
 6701SOL    HW231737   4.375   2.584   2.996  0.1722  0.8589 -0.2997
 6702SOL     OW31738   0.160   3.555   1.601  0.2515  0.2348  0.9493
 6702SOL    HW131739   0.097   3.579   1.533  0.5705 -1.9632 -0.1272
 6702SOL    HW231740   0.207   3.638   1.614  0.5838  0.6100 -2.6758
 6703SOL     OW31741   0.345   4.604   4.134  0.0842  0.1190  0.1710
 6703SOL    HW131742   0.274   4.665   4.150 -0.6763 -0.8073  0.2956
 6703SOL    HW231743   0.406   4.597   4.208 -0.9839  0.4316  1.0806
 6704SOL     OW31744   2.093   4.351   5.615 -0.0589 -0.1009  0.0415
 6704SOL    HW131745   2.074   4.405   5.692  1.2492  0.6424 -0.1354
 6704SOL    HW231746   2.180   4.321   5.644 -0.5592  2.0453  3.6863
 6705SOL     OW31747   0.382   3.880   4.079 -0.2531 -0.0478  0.0912
 6705SOL    HW131748   0.322   3.819   4.120 -2.0236  0.5461 -1.6065
 6705SOL    HW231749   0.327   3.928   4.017 -1.6234  0.5216  1.7503
 6706SOL     OW31750   1.529   1.738  14.776 -0.7261 -0.1792  0.2016
 6706SOL    HW131751   1.509   1.652  14.740 -1.0293 -0.1682  0.3464
 6706SOL    HW231752   1.446   1.776  14.803  0.7659  1.1671  2.9168
 6707SOL     OW31753   0.653   0.690  12.024 -0.1413 -0.8064  0.0265
 6707SOL    HW131754   0.579   0.750  12.030  0.7450  0.3082 -0.1991
 6707SOL    HW231755   0.728   0.743  11.996 -0.5190  0.5880  1.6696
 6708SOL     OW31756   3.523   4.025   0.867  0.6461 -0.5066 -0.2681
 6708SOL    HW131757   3.430   4.024   0.890  0.3327  0.2111 -1.5065
 6708SOL    HW231758   3.548   3.944   0.912  0.0813 -0.8368 -0.5492
 6709SOL     OW31759   3.932   3.899  11.149  0.4454 -0.2013  0.0683
 6709SOL    HW131760   3.875   3.830  11.116  1.5783  0.3663 -3.0689
 6709SOL    HW231761   4.016   3.864  11.120 -0.2727 -2.1062  0.2899
 6710SOL     OW31762   2.407   3.969   6.829  0.4702  0.3232  0.1782
 6710SOL    HW131763   2.473   4.038   6.834  2.3812 -1.4824  0.0027
 6710SOL    HW231764   2.462   3.897   6.798  1.0435  0.0880  1.7441
 6711SOL     OW31765   1.223   4.107   4.467  0.1577  0.4202 -0.0797
 6711SOL    HW131766   1.272   4.187   4.451 -2.4076  1.8180 -0.9217
 6711SOL    HW231767   1.131   4.133   4.462 -0.3972 -1.4481  0.2508
 6712SOL     OW31768   1.062   2.749  14.046  0.1126  0.5523  0.1098
 6712SOL    HW131769   1.009   2.828  14.045 -0.4886  0.1421 -1.6439
 6712SOL    HW231770   1.054   2.718  14.136 -1.4591 -0.3462 -0.3475
 6713SOL     OW31771   4.669   4.398   7.783  0.1906 -0.5933 -0.1592
 6713SOL    HW131772   4.580   4.416   7.751 -0.0502  1.3627  1.6127
 6713SOL    HW231773   4.671   4.305   7.760  0.2999 -1.4075  3.2301
 6714SOL     OW31774   4.603   3.527  15.133 -0.2683  0.1954  0.3244
 6714SOL    HW131775   4.608   3.536  15.228 -1.1436  0.9815  0.2947
 6714SOL    HW231776   4.693   3.545  15.104 -0.5040 -0.2337 -0.6684
 6715SOL     OW31777   3.507   4.170   6.905  0.4511  0.1400 -0.5409
 6715SOL    HW131778   3.542   4.085   6.879  2.0710  0.4342  0.6467
 6715SOL    HW231779   3.443   4.144   6.971 -0.3658  2.9835 -0.1984
 6716SOL     OW31780   4.198   1.977   7.883  0.0449 -0.0307  0.1005
 6716SOL    HW131781   4.175   1.979   7.976  1.1662 -0.4829  0.3907
 6716SOL    HW231782   4.217   2.070   7.870  0.4421  0.0490  1.2133
 6717SOL     OW31783   0.326   3.358   5.430 -0.1013 -0.4837 -0.0415
 6717SOL    HW131784   0.378   3.406   5.495  0.5712 -0.6062 -0.4875
 6717SOL    HW231785   0.396   3.305   5.393  2.3030  2.4655  0.2234
 6718SOL     OW31786   1.820   2.261   3.568  0.0753 -0.3772 -0.1348
 6718SOL    HW131787   1.821   2.339   3.513 -0.6785  0.1369  0.5922
 6718SOL    HW231788   1.741   2.210   3.553 -0.2693  0.0306  0.2988
 6719SOL     OW31789   3.847   3.455   6.700  0.0106 -0.3608  0.1276
 6719SOL    HW131790   3.893   3.534   6.675 -0.8588  0.0139 -0.2762
 6719SOL    HW231791   3.914   3.421   6.759  0.1023  2.1972  1.4738
 6720SOL     OW31792   0.370   3.006   1.793 -0.5716  0.3095  0.4011
 6720SOL    HW131793   0.390   3.074   1.858 -1.1651  0.9912 -0.1275
 6720SOL    HW231794   0.440   3.023   1.730 -0.3319 -0.1848  0.5369
 6721SOL     OW31795   3.168   2.195  14.926 -0.1312  0.8111  0.5416
 6721SOL    HW131796   3.162   2.106  14.893 -1.2693  0.2858  2.1324
 6721SOL    HW231797   3.110   2.194  15.002 -0.6952 -0.9161  0.0923
 6722SOL     OW31798   1.990   1.561   6.981  0.3686 -0.4615 -0.1070
 6722SOL    HW131799   1.936   1.595   7.053  1.3716  0.9639 -0.0200
 6722SOL    HW231800   1.951   1.609   6.908 -0.2523 -1.4598 -0.4297
 6723SOL     OW31801   0.613   2.805  15.318 -0.2270 -0.2267  0.2347
 6723SOL    HW131802   0.605   2.832  15.409  1.7183 -0.8769  0.5867
 6723SOL    HW231803   0.611   2.711  15.334  3.7571 -0.0569  1.5344
 6724SOL     OW31804   3.221   4.456  16.336 -0.0327 -0.3199  0.8741
 6724SOL    HW131805   3.249   4.527  16.278  4.3572  0.1775  3.5965
 6724SOL    HW231806   3.307   4.437  16.374 -0.4069 -0.9564  1.4080
 6725SOL     OW31807   0.290   0.065  17.402 -0.1040  0.2211 -0.1536
 6725SOL    HW131808   0.311   0.158  17.391 -0.1820  0.1510 -0.8640
 6725SOL    HW231809   0.329   0.048  17.488  1.9500  3.4798 -0.4533
 6726SOL     OW31810   3.364   0.912   6.259 -0.4487  0.1438  0.0138
 6726SOL    HW131811   3.437   0.916   6.197 -1.1699 -0.5593 -0.8662
 6726SOL    HW231812   3.295   0.946   6.202 -0.5257 -2.1785 -1.2728
 6727SOL     OW31813   3.748   2.987   7.209  0.2984 -0.3827 -0.2450
 6727SOL    HW131814   3.796   2.933   7.272 -0.4790 -0.2807  0.4443
 6727SOL    HW231815   3.661   2.974   7.247 -0.0668 -1.1329 -1.3078
 6728SOL     OW31816   2.490   3.196   3.972  0.0420 -0.2736 -0.4983
 6728SOL    HW131817   2.481   3.281   4.016  0.5538  0.8196 -2.4577
 6728SOL    HW231818   2.472   3.221   3.881  0.0508  3.5240  0.5125
 6729SOL     OW31819   0.903   2.608   3.946 -0.2227 -0.0447  0.1357
 6729SOL    HW131820   0.995   2.607   3.919 -0.0631 -0.7216  0.6780
 6729SOL    HW231821   0.857   2.599   3.862 -0.1848 -1.9518  0.3158
 6730SOL     OW31822   1.808   3.126  10.975 -0.0641 -0.1259 -0.1862
 6730SOL    HW131823   1.834   3.215  10.951  0.2586 -0.4581 -1.0789
 6730SOL    HW231824   1.735   3.111  10.915 -0.5286 -1.1014  0.6239
 6731SOL     OW31825   4.658   4.200   5.286 -0.4566 -0.5509  0.1720
 6731SOL    HW131826   4.624   4.255   5.215  1.0543 -0.1928 -0.2694
 6731SOL    HW231827   0.007   4.229   5.304 -0.0476 -2.4361  1.1053
 6732SOL     OW31828   2.302   0.303   9.891 -0.3448  0.5357 -0.0323
 6732SOL    HW131829   2.297   0.208   9.887  1.5987  0.5205 -1.7722
 6732SOL    HW231830   2.287   0.317   9.985 -0.2694  2.4008 -0.2906
 6733SOL     OW31831   2.689   3.014   8.863  0.3806 -0.1931 -0.4779
 6733SOL    HW131832   2.683   3.109   8.857  1.0457 -0.2890 -2.4800
 6733SOL    HW231833   2.649   2.998   8.948  0.3951 -0.1451 -0.4620
 6734SOL     OW31834   4.138   0.071  11.230  0.8751 -0.0477  0.2476
 6734SOL    HW131835   4.063   0.036  11.182 -0.1090  1.5193  0.6130
 6734SOL    HW231836   4.163   0.002  11.292 -0.5303  0.5198  1.4578
 6735SOL     OW31837   2.737   4.050   3.525  0.0661 -0.7931  0.0716
 6735SOL    HW131838   2.669   4.111   3.552  0.6965 -0.8773  1.9139
 6735SOL    HW231839   2.810   4.092   3.571  0.3197 -0.9459 -0.1886
 6736SOL     OW31840   0.673   3.306   7.354  0.1099 -0.3119 -0.2196
 6736SOL    HW131841   0.719   3.319   7.271  2.7997  0.2275  1.3411
 6736SOL    HW231842   0.675   3.400   7.376 -1.5553 -0.2433 -0.3690
 6737SOL     OW31843   3.385   0.334  15.488  0.0834 -0.2437 -0.6022
 6737SOL    HW131844   3.389   0.243  15.518 -2.0563 -0.1443  0.0026
 6737SOL    HW231845   3.416   0.376  15.568  1.7917 -3.0222  0.1651
 6738SOL     OW31846   4.201   0.071   7.217 -0.7050 -0.5244  0.5137
 6738SOL    HW131847   4.205   0.031   7.129  0.7292 -0.2164  0.4372
 6738SOL    HW231848   4.183   0.161   7.191  2.1356  0.4985  2.1550
 6739SOL     OW31849   1.380   4.490   7.166 -0.0509  0.6138 -0.0033
 6739SOL    HW131850   1.415   4.516   7.251  0.7987  1.9722 -0.7722
 6739SOL    HW231851   1.363   4.398   7.182  1.7003  0.0326 -1.4458
 6740SOL     OW31852   4.307   3.245   5.142  0.3447 -0.1787 -0.6851
 6740SOL    HW131853   4.290   3.338   5.157 -1.4103 -0.5624 -0.2930
 6740SOL    HW231854   4.331   3.212   5.228  0.5644  1.2274 -0.2178
 6741SOL     OW31855   4.236   4.628  14.630 -0.0679  0.1004  0.0375
 6741SOL    HW131856   4.183   4.680  14.569 -0.5611  0.9863  1.2349
 6741SOL    HW231857   4.180   4.552  14.644  0.3981 -0.4572 -1.1219
 6742SOL     OW31858   0.861   3.614   4.471 -0.5396  0.7466  0.6238
 6742SOL    HW131859   0.897   3.559   4.540 -1.8115 -2.2784 -1.1010
 6742SOL    HW231860   0.792   3.556   4.437 -0.8553  1.3508  0.2413
 6743SOL     OW31861   0.394   0.392   8.832  0.0043 -0.0705  0.5978
 6743SOL    HW131862   0.474   0.421   8.877 -0.2572  2.4417 -0.5612
 6743SOL    HW231863   0.405   0.300   8.855  2.1841  0.0503  0.0795
 6744SOL     OW31864   4.160   3.591   6.928 -0.2297  0.2804  0.3937
 6744SOL    HW131865   4.255   3.583   6.924  0.0276  2.8147  1.6077
 6744SOL    HW231866   4.148   3.682   6.954 -2.2777  0.3443 -0.7573
 6745SOL     OW31867   3.420   2.254  16.610 -0.1180  0.2390 -0.0270
 6745SOL    HW131868   3.382   2.331  16.567  2.5983  2.2224  1.0919
 6745SOL    HW231869   3.342   2.206  16.638 -0.5444  1.3407  0.7071
 6746SOL     OW31870   4.492   1.705   2.754 -0.3642  0.1578  0.0841
 6746SOL    HW131871   4.427   1.750   2.699 -0.5938 -1.2599 -0.7980
 6746SOL    HW231872   4.436   1.690   2.830  0.1664 -0.2321  0.3944
 6747SOL     OW31873   3.854   3.886   1.655  0.7237 -0.5911  0.3069
 6747SOL    HW131874   3.919   3.841   1.710  0.6209  0.2777  1.1471
 6747SOL    HW231875   3.790   3.914   1.721 -0.1134  0.5346 -0.9855
 6748SOL     OW31876   3.825   3.245   5.005  0.1992  0.2933 -0.0359
 6748SOL    HW131877   3.798   3.312   5.067  0.4891  1.2665 -0.9604
 6748SOL    HW231878   3.899   3.286   4.960  0.0921  2.1431  1.4884
 6749SOL     OW31879   2.388   4.211  16.261 -0.1109  1.0465 -0.1258
 6749SOL    HW131880   2.418   4.123  16.240  1.4004  1.4159  0.4896
 6749SOL    HW231881   2.336   4.240  16.186 -0.3617 -2.1978 -1.2159
 6750SOL     OW31882   3.086   4.699   4.962  0.3191 -0.3032  0.1527
 6750SOL    HW131883   3.052   4.636   4.899  0.0674 -2.1100  2.1177
 6750SOL    HW231884   3.157   0.000   4.912 -1.8373  1.4030 -1.4801
 6751SOL     OW31885   1.179   2.453  14.691 -0.0571  0.1906 -0.4063
 6751SOL    HW131886   1.187   2.357  14.691 -1.0494  0.1035 -1.3827
 6751SOL    HW231887   1.251   2.475  14.632  0.2644  1.1895  0.3809
 6752SOL     OW31888   4.587   3.741   7.591 -0.6206  0.5097  0.3458
 6752SOL    HW131889   4.537   3.739   7.510 -1.5919  0.6440  0.9418
 6752SOL    HW231890   4.605   3.649   7.613  0.6410  0.4456 -0.9540
 6753SOL     OW31891   2.061   1.047   4.166  0.3071 -0.6659 -0.2995
 6753SOL    HW131892   1.998   1.115   4.141  0.5634  0.3767  1.9174
 6753SOL    HW231893   1.997   0.976   4.171  0.0324 -0.3332  1.0524
 6754SOL     OW31894   3.977   3.040   7.702 -0.1425  0.0573 -0.4279
 6754SOL    HW131895   4.025   2.957   7.711 -0.1666 -0.0528 -1.3138
 6754SOL    HW231896   3.900   3.012   7.752 -0.0231  0.7023  0.1050
 6755SOL     OW31897   3.574   0.756   2.489  0.2564 -0.4374 -0.2675
 6755SOL    HW131898   3.630   0.729   2.417 -1.9350  1.6679 -2.7496
 6755SOL    HW231899   3.635   0.768   2.562  0.3635 -1.0526 -0.2543
 6756SOL     OW31900   1.933   3.774  11.883  0.1992  0.8601 -0.1332
 6756SOL    HW131901   2.012   3.772  11.829  0.1507 -0.6212 -0.1375
 6756SOL    HW231902   1.864   3.748  11.822  0.9795 -0.8206 -0.3045
 6757SOL     OW31903   1.502   4.733   8.512 -0.2776  0.0327  0.3816
 6757SOL    HW131904   1.425   4.682   8.538  0.1889 -1.1841 -0.6783
 6757SOL    HW231905   1.576   4.675   8.527  0.5951  1.1673  0.4576
 6758SOL     OW31906   4.680   1.347   5.988  0.6637  0.1296  0.5267
 6758SOL    HW131907   0.018   1.341   6.044 -0.5684 -0.9081  2.1657
 6758SOL    HW231908   4.676   1.438   5.959  0.2272  0.1039  0.5136
 6759SOL     OW31909   0.009   4.607   6.775  0.2560 -0.7019  0.1254
 6759SOL    HW131910   4.703   4.541   6.724 -0.4919  0.9256 -1.2839
 6759SOL    HW231911   0.091   4.561   6.792 -0.1924 -1.9873 -1.2457
 6760SOL     OW31912   1.077   1.785  15.315 -0.4831 -0.1004  0.2477
 6760SOL    HW131913   1.114   1.860  15.268 -0.4994 -0.9951 -1.2105
 6760SOL    HW231914   1.140   1.720  15.284 -2.3227 -1.7348 -0.0840
 6761SOL     OW31915   1.001   1.881  12.700 -0.6964 -0.3768  0.3632
 6761SOL    HW131916   1.018   1.872  12.606 -0.9937  2.4218  0.0429
 6761SOL    HW231917   0.906   1.874  12.711 -0.5406 -1.0704  1.3031
 6762SOL     OW31918   0.192   4.666   7.967  1.0849 -0.2589  0.1740
 6762SOL    HW131919   0.178   4.579   8.003 -1.2593  1.3422  3.1689
 6762SOL    HW231920   0.123   4.668   7.901  0.1068  2.9334  1.2755
 6763SOL     OW31921   0.795   2.882   9.290  0.0627  0.5220 -0.0477
 6763SOL    HW131922   0.794   2.794   9.326 -0.9144  0.0451 -1.2262
 6763SOL    HW231923   0.823   2.918   9.374  0.4670  1.1148 -0.4323
 6764SOL     OW31924   0.521   3.136   2.607  0.7119 -0.2021 -0.3431
 6764SOL    HW131925   0.444   3.105   2.655  0.3120  3.2441  1.3156
 6764SOL    HW231926   0.572   3.173   2.680  1.1533 -1.0059 -0.2469
 6765SOL     OW31927   4.272   4.137   8.664  0.1690 -0.4570  0.2908
 6765SOL    HW131928   4.278   4.091   8.580  0.3663 -2.1042  1.2032
 6765SOL    HW231929   4.304   4.225   8.648  1.0343 -0.4413  2.1749
 6766SOL     OW31930   3.500   1.318  12.635 -0.2617  0.2924 -0.1304
 6766SOL    HW131931   3.536   1.236  12.601  0.9212  0.3802  0.9201
 6766SOL    HW231932   3.410   1.326  12.604 -0.4521 -1.4525 -0.0186
 6767SOL     OW31933   0.167   2.536  17.122 -0.5084  0.3752 -0.2960
 6767SOL    HW131934   0.143   2.449  17.092 -1.3133  0.9306 -1.2732
 6767SOL    HW231935   0.194   2.509  17.210 -1.0879  0.1809 -0.1817
 6768SOL     OW31936   3.329   0.380   1.184 -0.0216 -0.0197  0.4500
 6768SOL    HW131937   3.295   0.466   1.211 -0.9841 -0.7268  1.5062
 6768SOL    HW231938   3.337   0.331   1.266  1.8802  1.4123  1.1069
 6769SOL     OW31939   2.626   4.467   0.356  0.2816  0.3552 -0.9285
 6769SOL    HW131940   2.612   4.546   0.408 -0.5636  0.4558 -1.3158
 6769SOL    HW231941   2.688   4.418   0.411 -0.0063  0.9203 -0.1013
 6770SOL     OW31942   1.488   1.643   8.190  0.2987  0.0331  0.2682
 6770SOL    HW131943   1.421   1.622   8.125  1.5756  1.1854 -1.4046
 6770SOL    HW231944   1.522   1.722   8.149 -2.4592  1.5198  0.8048
 6771SOL     OW31945   0.833   1.028   3.092 -0.2782 -0.1070 -0.4371
 6771SOL    HW131946   0.886   0.988   3.161 -1.3406  0.4884  0.7317
 6771SOL    HW231947   0.909   1.039   3.036  0.3250  0.0649  0.4224
 6772SOL     OW31948   4.367   2.642   9.562  0.0866  0.6227 -0.3500
 6772SOL    HW131949   4.325   2.649   9.648 -2.2334  0.6346 -1.4707
 6772SOL    HW231950   4.296   2.603   9.511  0.4487 -1.1465  0.4988
 6773SOL     OW31951   2.274   0.888  13.834 -0.2114 -0.4320 -0.1937
 6773SOL    HW131952   2.241   0.916  13.749  0.0083 -1.9759 -0.7803
 6773SOL    HW231953   2.201   0.845  13.878  0.2264 -0.5846  0.3851
 6774SOL     OW31954   2.075   1.923   8.002  0.2049  0.5028  0.2819
 6774SOL    HW131955   2.036   1.969   7.928  0.9774 -0.0707 -0.4818
 6774SOL    HW231956   2.106   1.994   8.059 -4.6303  1.9294  1.1323
 6775SOL     OW31957   0.948   3.956  16.962 -0.0480  0.4110 -0.0336
 6775SOL    HW131958   1.009   3.913  17.021 -0.7400 -0.8500 -0.2279
 6775SOL    HW231959   0.971   3.913  16.879  2.1914  2.3932 -0.4433
 6776SOL     OW31960   0.209   2.210   0.262 -0.2293  0.2840 -0.4093
 6776SOL    HW131961   0.225   2.151   0.188  0.1337  0.9170 -0.8314
 6776SOL    HW231962   0.180   2.292   0.224  0.1007  0.5208 -0.1530
 6777SOL     OW31963   3.526   3.091  17.552 -0.2373  0.5316  0.0834
 6777SOL    HW131964   3.565   3.165  17.505 -0.8386  2.6876  2.9531
 6777SOL    HW231965   3.474   3.144  17.613  1.3155  2.1484 -0.0089
 6778SOL     OW31966   2.620   3.468  12.069 -0.3549  0.6919  0.3375
 6778SOL    HW131967   2.625   3.550  12.019  0.8984  0.1857 -0.3616
 6778SOL    HW231968   2.588   3.506  12.151  0.4464  0.1638  0.8914
 6779SOL     OW31969   3.770   0.673  14.962  0.1302  0.5855 -0.0135
 6779SOL    HW131970   3.731   0.714  15.040 -0.0488 -0.0575  0.2357
 6779SOL    HW231971   3.744   0.728  14.888 -1.4806 -0.4872 -0.2437
 6780SOL     OW31972   4.676   4.345   5.056 -0.2368  0.3513 -0.0086
 6780SOL    HW131973   4.638   4.314   4.974 -1.6377  1.8753  0.0626
 6780SOL    HW231974   4.638   4.433   5.064 -3.6797 -1.2446  1.0941
 6781SOL     OW31975   0.497   2.750  17.228  0.4080 -0.0486  0.3652
 6781SOL    HW131976   0.499   2.730  17.322  3.7470 -2.1818 -0.1841
 6781SOL    HW231977   0.540   2.836  17.230 -1.8662  1.1019 -0.0845
 6782SOL     OW31978   0.120   2.805   7.943 -0.5811  0.3056  0.6017
 6782SOL    HW131979   0.141   2.887   7.988  1.2626  0.3848 -0.4322
 6782SOL    HW231980   0.039   2.777   7.987  0.9557 -1.1395  2.5070
 6783SOL     OW31981   0.681   0.024   9.260 -0.1696  0.7596  0.1047
 6783SOL    HW131982   0.613   0.073   9.213 -0.1407 -1.9686 -2.7865
 6783SOL    HW231983   0.670   0.059   9.348  1.4556 -0.4854  0.7819
 6784SOL     OW31984   1.761   1.806   7.787  0.0517  0.1475  0.0044
 6784SOL    HW131985   1.846   1.762   7.788 -0.1941 -0.3232  0.2903
 6784SOL    HW231986   1.782   1.899   7.782 -0.5520  0.2302 -1.1234
 6785SOL     OW31987   1.104   4.159   0.289 -0.1033 -0.5573  0.3124
 6785SOL    HW131988   1.132   4.103   0.361 -0.9190 -2.8389 -1.1631
 6785SOL    HW231989   1.072   4.089   0.233 -0.2224  0.9453 -1.5020
 6786SOL     OW31990   2.793   3.262  10.049 -0.2623 -0.1267  0.4547
 6786SOL    HW131991   2.698   3.261  10.044 -0.1509 -1.6234 -1.3121
 6786SOL    HW231992   2.817   3.291   9.961  1.7360 -2.5836  0.1825
 6787SOL     OW31993   2.717   3.839   3.939  0.3680  0.1594  0.1037
 6787SOL    HW131994   2.692   3.853   3.848 -1.5747 -0.5873  0.5076
 6787SOL    HW231995   2.803   3.881   3.935  0.5602 -0.3792 -1.1747
 6788SOL     OW31996   0.348   1.285   2.218 -0.3994 -0.0032 -0.1274
 6788SOL    HW131997   0.350   1.365   2.272 -2.0786  1.6962 -2.5683
 6788SOL    HW231998   0.372   1.310   2.129 -2.6571  0.9853 -0.4658
 6789SOL     OW31999   0.345   1.241   8.160  0.4649  0.4168  0.4431
 6789SOL    HW132000   0.398   1.263   8.236  2.3814  0.0096 -0.7835
 6789SOL    HW232001   0.327   1.331   8.133  1.0873  0.3663 -0.1233
 6790SOL     OW32002   2.798   3.324   4.684 -0.2022  0.0539  0.1767
 6790SOL    HW132003   2.783   3.246   4.738 -2.0078  0.0480 -0.3387
 6790SOL    HW232004   2.839   3.380   4.749 -0.2860  0.7569 -0.3795
 6791SOL     OW32005   0.495   0.653   1.945  0.2893  0.5507  0.0120
 6791SOL    HW132006   0.537   0.606   1.874  0.3476  0.3225  0.1975
 6791SOL    HW232007   0.558   0.639   2.015  0.0102  0.3007  0.2152
 6792SOL     OW32008   3.562   1.626   5.639 -0.0785 -0.2824 -0.7282
 6792SOL    HW132009   3.487   1.569   5.655  1.4098 -1.9386  0.3345
 6792SOL    HW232010   3.549   1.697   5.701 -2.2175 -0.9475 -0.4212
 6793SOL     OW32011   0.378   4.539  15.552 -0.0097  0.3337 -0.3007
 6793SOL    HW132012   0.388   4.460  15.605  0.8503  0.7365  0.1469
 6793SOL    HW232013   0.306   4.529  15.490  1.6430 -0.8996 -2.0364
 6794SOL     OW32014   1.524   2.971   2.583  0.3172  0.4520 -0.0487
 6794SOL    HW132015   1.524   2.887   2.629  1.6511  0.1463 -0.6247
 6794SOL    HW232016   1.438   3.012   2.590 -0.9961 -2.9686  4.0971
 6795SOL     OW32017   0.258   3.865   6.244 -0.5298  0.0082 -0.9001
 6795SOL    HW132018   0.255   3.961   6.248  0.1968  0.0512 -1.4068
 6795SOL    HW232019   0.283   3.836   6.332 -4.5637  0.1986  0.2922
 6796SOL     OW32020   3.058   1.435  16.527  0.3201 -0.2655 -0.5771
 6796SOL    HW132021   2.970   1.439  16.566  1.1683 -0.6497  1.3536
 6796SOL    HW232022   3.113   1.400  16.596  0.5055 -0.5317 -0.8603
 6797SOL     OW32023   1.487   0.083   5.239  0.0969  0.8574  0.2608
 6797SOL    HW132024   1.426   0.112   5.307 -0.5620 -1.4285  0.6602
 6797SOL    HW232025   1.563   0.127   5.277  1.3856 -1.5584  0.4845
 6798SOL     OW32026   0.944   3.055   4.413  0.0985 -0.0434 -0.0204
 6798SOL    HW132027   0.981   2.981   4.366  0.6133  0.8792 -1.0798
 6798SOL    HW232028   0.906   3.099   4.337 -0.0333 -0.2836 -0.0940
 6799SOL     OW32029   1.042   2.337   2.346  0.3246 -0.0903 -0.4913
 6799SOL    HW132030   1.107   2.323   2.415  0.1603  0.4651 -0.2220
 6799SOL    HW232031   1.079   2.388   2.274 -1.2044  0.0865 -1.1602
 6800SOL     OW32032   2.182   4.067   7.375  0.1783  0.5044 -0.1002
 6800SOL    HW132033   2.216   4.144   7.421 -0.9835  1.6861 -1.2161
 6800SOL    HW232034   2.250   4.001   7.386  0.2884  0.6285 -0.0308
 6801SOL     OW32035   1.541   3.358   7.104  0.3335 -0.2536  0.0401
 6801SOL    HW132036   1.484   3.431   7.125  3.7950  2.5471 -0.1828
 6801SOL    HW232037   1.627   3.387   7.134  0.4066 -0.9353  0.5000
 6802SOL     OW32038   0.132   2.989   2.411  0.0791 -0.3327 -0.3502
 6802SOL    HW132039   0.155   2.909   2.364  0.7884 -1.3722  1.7728
 6802SOL    HW232040   0.218   3.030   2.409  0.1535 -0.5893 -2.3584
 6803SOL     OW32041   3.335   2.447  16.431  0.2679  0.4977 -0.2674
 6803SOL    HW132042   3.415   2.459  16.379  0.5036  0.9994  0.2156
 6803SOL    HW232043   3.287   2.417  16.354  1.4309  1.3051 -1.2942
 6804SOL     OW32044   0.711   2.410   3.343  0.3371  0.2236 -0.0478
 6804SOL    HW132045   0.650   2.462   3.395  1.3663  1.4713 -0.0692
 6804SOL    HW232046   0.695   2.457   3.261 -0.0384  0.3791  0.1154
 6805SOL     OW32047   0.799   1.600   8.965 -0.1300 -0.2375 -0.2930
 6805SOL    HW132048   0.723   1.545   8.982 -0.3709  0.3212  0.3987
 6805SOL    HW232049   0.873   1.552   9.004  0.4159  0.7051 -0.1778
 6806SOL     OW32050   3.891   2.284   8.503  0.5764 -0.0810  0.3264
 6806SOL    HW132051   3.951   2.331   8.445 -0.4183 -1.3500 -1.7072
 6806SOL    HW232052   3.808   2.284   8.456  0.3035 -1.2269  0.8188
 6807SOL     OW32053   3.163   1.528   4.957  0.1429 -0.3172  0.0548
 6807SOL    HW132054   3.196   1.508   4.869 -0.2056  1.4214 -0.4726
 6807SOL    HW232055   3.196   1.618   4.964 -0.9596  0.2114 -1.4640
 6808SOL     OW32056   3.946   1.615   0.042 -0.0839 -0.3438  0.2167
 6808SOL    HW132057   3.855   1.591   0.025  0.2065  0.7321 -2.8380
 6808SOL    HW232058   4.003   1.557  17.751 -0.3497  1.5803 -2.3162
 6809SOL     OW32059   2.838   4.038  10.872  0.1610 -0.0154  0.6077
 6809SOL    HW132060   2.827   4.005  10.961 -0.2410  0.7598  0.8395
 6809SOL    HW232061   2.745   4.051  10.854  0.2485  0.1577  0.2806
 6810SOL     OW32062   1.348   3.790   6.507 -0.0375 -0.2529 -0.7971
 6810SOL    HW132063   1.362   3.712   6.560  2.6931  0.6998 -0.1305
 6810SOL    HW232064   1.432   3.787   6.461  1.0118  1.5971  1.0400
 6811SOL     OW32065   3.504   2.672   7.398 -0.3259 -0.0732 -0.2934
 6811SOL    HW132066   3.589   2.631   7.411  1.0768  2.4600 -1.5984
 6811SOL    HW232067   3.450   2.593   7.393  2.4281 -1.9911  0.5745
 6812SOL     OW32068   2.983   4.629  10.692 -0.5430 -0.3114 -0.3316
 6812SOL    HW132069   3.048   4.679  10.740 -0.2722 -0.0638 -0.9570
 6812SOL    HW232070   3.040   4.567  10.646 -1.0053 -1.8298  1.1212
 6813SOL     OW32071   1.080   3.795   0.186 -0.4317 -0.6246  0.0162
 6813SOL    HW132072   1.070   3.777   0.093 -0.8810  0.9882 -0.2441
 6813SOL    HW232073   1.091   3.705   0.216  1.3726  0.0930  1.5788
 6814SOL     OW32074   4.150   2.641   2.774 -0.3942 -0.6108 -0.4143
 6814SOL    HW132075   4.055   2.631   2.770 -0.6542  2.1819 -1.2950
 6814SOL    HW232076   4.163   2.735   2.761  1.3034 -0.9425 -1.1457
 6815SOL     OW32077   1.623   2.470   9.703  0.6370  0.4712  0.4790
 6815SOL    HW132078   1.718   2.460   9.701  0.9164  3.4007 -0.8929
 6815SOL    HW232079   1.597   2.385   9.668  1.5882  0.7414 -0.8934
 6816SOL     OW32080   1.156   2.634   1.178 -0.1795 -0.2442  0.3892
 6816SOL    HW132081   1.228   2.642   1.116 -0.3387 -1.9444 -0.0031
 6816SOL    HW232082   1.111   2.718   1.166  0.2133 -0.0100  0.5888
 6817SOL     OW32083   0.199   3.723   4.388  0.5479 -0.2987 -0.6700
 6817SOL    HW132084   0.160   3.643   4.422 -0.1862 -0.4168 -1.7984
 6817SOL    HW232085   0.269   3.670   4.350  0.9322  0.0431 -0.4393
 6818SOL     OW32086   1.842   3.227   2.106  0.7600 -0.2680  0.5329
 6818SOL    HW132087   1.766   3.286   2.107 -0.3574 -1.6604 -1.4861
 6818SOL    HW232088   1.887   3.246   2.024  0.4586 -3.1149 -0.2942
 6819SOL     OW32089   0.168   3.753   4.972  0.4389  0.1008 -0.0279
 6819SOL    HW132090   0.187   3.679   4.914  0.8786  0.9385 -0.9586
 6819SOL    HW232091   0.153   3.705   5.053  0.8862  0.4972  0.2952
 6820SOL     OW32092   2.542   1.529   8.892  0.3026 -0.2268 -0.5549
 6820SOL    HW132093   2.610   1.521   8.825  0.2287  1.2681 -0.7908
 6820SOL    HW232094   2.567   1.610   8.935  1.2868 -0.3952 -0.8125
 6821SOL     OW32095   2.911   3.828  15.547  0.1392  0.1810  0.0123
 6821SOL    HW132096   2.967   3.893  15.504  0.9256 -1.1833 -1.0258
 6821SOL    HW232097   2.933   3.824  15.640 -1.7440 -1.7416  0.3745
 6822SOL     OW32098   2.503   0.651   8.965 -0.0816  0.8220  0.2863
 6822SOL    HW132099   2.418   0.617   8.993 -0.2520  0.1311 -1.0548
 6822SOL    HW232100   2.556   0.572   8.959 -1.3414 -0.0812  1.0719
 6823SOL     OW32101   1.977   1.017   6.283  0.0532 -0.2689  0.7434
 6823SOL    HW132102   1.907   1.045   6.224 -0.4623 -1.8239  0.6274
 6823SOL    HW232103   2.024   0.954   6.228 -1.6752  1.0054 -2.1435
 6824SOL     OW32104   2.629   4.287   1.843  0.5424  0.0395  0.2030
 6824SOL    HW132105   2.711   4.247   1.871  0.3740 -1.2107 -1.0565
 6824SOL    HW232106   2.610   4.324   1.929 -0.6000  4.2189 -1.8365
 6825SOL     OW32107   3.926   1.937   7.392 -0.3881  0.0198  0.1751
 6825SOL    HW132108   3.948   1.848   7.418 -0.4961 -0.0513  0.0279
 6825SOL    HW232109   3.999   1.952   7.331  0.9730  0.6741  1.9746
 6826SOL     OW32110   1.360   1.384   8.763  0.5051 -0.1650 -0.1639
 6826SOL    HW132111   1.276   1.429   8.771  0.0659 -1.0243  0.1197
 6826SOL    HW232112   1.346   1.334   8.683  0.3660  0.3974 -0.4885
 6827SOL     OW32113   3.399   2.083   5.325 -0.1794  0.2315  0.0099
 6827SOL    HW132114   3.440   2.158   5.283  0.9969 -0.9244 -0.9029
 6827SOL    HW232115   3.324   2.061   5.268 -0.4041 -3.0256  1.5521
 6828SOL     OW32116   0.776   2.448   6.840 -0.1949  0.0081  0.0283
 6828SOL    HW132117   0.789   2.374   6.900  1.0630  0.3123  0.1296
 6828SOL    HW232118   0.687   2.430   6.809 -0.6241  0.3691  1.0268
 6829SOL     OW32119   2.081   4.101   6.291  0.9090  0.0275 -0.2268
 6829SOL    HW132120   2.069   4.109   6.385  1.6751 -0.1783 -0.1101
 6829SOL    HW232121   2.103   4.008   6.283 -2.9314 -0.8440 -0.3731
 6830SOL     OW32122   0.194   1.707   2.784 -0.4544  0.4729  0.0974
 6830SOL    HW132123   0.209   1.794   2.748  1.9572  1.0480  2.5198
 6830SOL    HW232124   0.263   1.675   2.843  1.3723  1.6694 -1.3714
 6831SOL     OW32125   3.138   3.490  11.224 -0.1700 -0.0451  0.0995
 6831SOL    HW132126   3.204   3.554  11.248 -0.3758  0.2245 -0.0510
 6831SOL    HW232127   3.149   3.420  11.288  0.9476 -0.1249 -0.1866
 6832SOL     OW32128   1.471   2.218   3.632 -0.4692 -0.1827 -0.6268
 6832SOL    HW132129   1.518   2.135   3.623 -1.4723 -0.3452 -4.2958
 6832SOL    HW232130   1.401   2.221   3.567 -2.3249 -1.4116  1.2984
 6833SOL     OW32131   1.915   2.181   3.064 -0.0600  0.7708  0.1503
 6833SOL    HW132132   1.929   2.271   3.093  0.2368  1.3328 -1.7361
 6833SOL    HW232133   1.907   2.130   3.145 -0.7314  0.4255 -0.1347
 6834SOL     OW32134   3.088   0.530  12.941  0.1529  0.2173 -0.7597
 6834SOL    HW132135   3.151   0.593  12.975  0.6172  0.0924 -1.3825
 6834SOL    HW232136   3.148   0.468  12.899 -0.1861  0.4242 -1.5305
 6835SOL     OW32137   2.457   2.459  12.711 -0.3646  0.1152  0.1714
 6835SOL    HW132138   2.511   2.520  12.763 -0.3303  0.0623  0.1974
 6835SOL    HW232139   2.514   2.382  12.715  1.3491  1.2404 -2.5501
 6836SOL     OW32140   0.389   4.551   1.853  0.3686  0.1275  0.6142
 6836SOL    HW132141   0.406   4.511   1.938 -0.0594 -0.2922  0.5038
 6836SOL    HW232142   0.297   4.525   1.846  0.7021 -1.2683  1.4313
 6837SOL     OW32143   2.397   2.298  11.897 -0.3439 -0.4302 -0.1386
 6837SOL    HW132144   2.427   2.207  11.896  2.5690  0.5135  0.8949
 6837SOL    HW232145   2.454   2.323  11.970 -1.1157 -1.3091  0.7551
 6838SOL     OW32146   0.384   0.749   5.092  0.6391  0.7708 -0.1342
 6838SOL    HW132147   0.419   0.824   5.140  1.3332  1.1343 -1.2021
 6838SOL    HW232148   0.449   0.681   5.107 -1.4413 -0.6839  2.4430
 6839SOL     OW32149   0.599   4.662   7.255  1.0773  0.0508  0.1609
 6839SOL    HW132150   0.585   4.568   7.265  1.7186 -0.2295 -1.4673
 6839SOL    HW232151   0.559   4.701   7.332 -1.7045 -0.1660 -1.1911
 6840SOL     OW32152   3.046   2.987   0.452 -0.4353  0.4498  0.2611
 6840SOL    HW132153   3.093   3.071   0.459 -1.5146  1.0497  0.2309
 6840SOL    HW232154   2.957   3.010   0.427  0.5343  0.8908 -2.7941
 6841SOL     OW32155   3.504   1.245   7.200  0.4450  0.2799 -0.8371
 6841SOL    HW132156   3.463   1.165   7.167  0.1536  0.2290 -0.3446
 6841SOL    HW232157   3.588   1.249   7.154  2.0410 -3.5070  1.7955
 6842SOL     OW32158   4.495   0.327   2.442 -0.2951 -0.3914  0.3582
 6842SOL    HW132159   4.423   0.303   2.501 -0.2064 -1.0427  0.2011
 6842SOL    HW232160   4.483   0.421   2.441  0.7706 -0.2525  0.2961
 6843SOL     OW32161   0.842   2.655   4.993 -0.5677 -0.6663 -0.0093
 6843SOL    HW132162   0.841   2.743   5.030 -1.8866 -1.2863  1.4229
 6843SOL    HW232163   0.868   2.603   5.070 -1.4976 -1.6656 -0.3850
 6844SOL     OW32164   3.455   2.369   6.547  0.6339  0.1652 -0.6115
 6844SOL    HW132165   3.379   2.350   6.492  1.5491  1.0305 -2.1964
 6844SOL    HW232166   3.447   2.308   6.620  0.8046  1.4719  0.5128
 6845SOL     OW32167   1.865   4.136  13.679  0.6586 -0.4545 -0.7823
 6845SOL    HW132168   1.840   4.226  13.700 -1.8882 -1.1204 -1.0294
 6845SOL    HW232169   1.957   4.162  13.668  0.8683  0.4599  3.0608
 6846SOL     OW32170   1.174   1.512   2.692 -0.1270  0.0796  0.4441
 6846SOL    HW132171   1.102   1.462   2.731  0.0521  0.6091  1.4571
 6846SOL    HW232172   1.246   1.483   2.748  1.4467  0.9519 -1.1045
 6847SOL     OW32173   3.946   4.092   9.271 -0.4806 -1.0194 -0.0438
 6847SOL    HW132174   3.859   4.102   9.310 -0.3725  0.4575 -0.1891
 6847SOL    HW232175   3.960   4.178   9.231 -0.9237  0.3853  2.7807
 6848SOL     OW32176   1.711   3.742   5.629  0.3973  0.4048 -0.1603
 6848SOL    HW132177   1.653   3.771   5.559 -0.2701  1.6863  0.9286
 6848SOL    HW232178   1.650   3.691   5.683 -0.9830  1.4091 -0.7793
 6849SOL     OW32179   2.896   1.500   5.599  0.3816  0.2443 -0.6024
 6849SOL    HW132180   2.888   1.439   5.526  2.1793 -1.0406  0.3012
 6849SOL    HW232181   2.912   1.578   5.546  1.6588  0.1008 -0.4125
 6850SOL     OW32182   3.863   1.445   5.373 -0.0248  0.5382  0.6747
 6850SOL    HW132183   3.796   1.387   5.410  0.6216 -0.5555  0.1564
 6850SOL    HW232184   3.863   1.512   5.441  0.3397  1.4596 -0.2371
 6851SOL     OW32185   0.662   3.911  12.799  0.0406 -0.4482 -0.0711
 6851SOL    HW132186   0.720   3.863  12.858 -1.5596  1.8522  3.3890
 6851SOL    HW232187   0.578   3.874  12.825  0.2570 -0.4935  0.5707
 6852SOL     OW32188   2.097   4.091  11.681  0.7300 -0.2116 -0.0338
 6852SOL    HW132189   2.157   4.142  11.627 -0.2320  1.1284  0.1663
 6852SOL    HW232190   2.038   4.158  11.715 -1.5436 -0.9112 -2.6007
 6853SOL     OW32191   0.986   2.491  14.483  0.3047 -0.5515  0.3088
 6853SOL    HW132192   0.941   2.548  14.546 -2.8319 -1.3348 -1.2131
 6853SOL    HW232193   1.048   2.465  14.551  0.6285 -1.4115 -0.3178
 6854SOL     OW32194   0.037   2.314  12.187  0.0896 -0.5325  0.7765
 6854SOL    HW132195   0.031   2.347  12.098  0.2299 -1.4069  0.4394
 6854SOL    HW232196   0.114   2.360  12.220  1.0113  0.5611 -2.8839
 6855SOL     OW32197   2.949   0.130  12.789  0.1760 -0.0811  0.5346
 6855SOL    HW132198   3.028   0.106  12.741  0.1488 -0.2499  0.5713
 6855SOL    HW232199   2.898   0.049  12.785 -0.8986  0.7193 -1.5654
 6856SOL     OW32200   1.039   0.437  12.012  1.0714 -0.1918  0.7668
 6856SOL    HW132201   0.950   0.468  12.027  1.0698 -0.3760  1.1201
 6856SOL    HW232202   1.087   0.446  12.094 -0.6692 -2.3738  2.0471
 6857SOL     OW32203   3.137   0.272   1.017  0.6083 -0.2816  0.2040
 6857SOL    HW132204   3.158   0.324   0.940 -1.2262  2.3682  1.4927
 6857SOL    HW232205   3.203   0.314   1.073 -0.2445  0.1864  0.8696
 6858SOL     OW32206   0.947   1.431   7.248  0.3053 -0.3766  0.0977
 6858SOL    HW132207   1.018   1.469   7.196  0.7377 -0.1916  0.8137
 6858SOL    HW232208   0.945   1.481   7.330  0.7923  2.0122 -1.3531
 6859SOL     OW32209   1.659   2.345  14.862 -0.6163 -0.2724  0.1216
 6859SOL    HW132210   1.666   2.295  14.781 -0.5201  0.1755 -0.1468
 6859SOL    HW232211   1.564   2.337  14.873 -0.8479  1.7136 -0.4999
 6860SOL     OW32212   1.550   1.448  11.733 -0.6171 -0.4231  0.6421
 6860SOL    HW132213   1.577   1.443  11.825  1.6236  0.8841  0.0399
 6860SOL    HW232214   1.626   1.485  11.689 -1.5943  2.2521  1.1869
 6861SOL     OW32215   2.376   2.380   8.509 -0.1769  0.0590 -0.1440
 6861SOL    HW132216   2.435   2.310   8.538  0.8020  0.1975 -1.7932
 6861SOL    HW232217   2.389   2.427   8.591  2.8309 -0.6200 -0.2266
 6862SOL     OW32218   4.521   2.350   5.660 -0.3658  0.0577 -0.0042
 6862SOL    HW132219   4.446   2.294   5.679 -0.7016 -0.3781 -2.7387
 6862SOL    HW232220   4.507   2.436   5.699 -0.9503 -0.1751  0.2985
 6863SOL     OW32221   4.486   3.964   5.825 -0.0400  0.5250 -0.6689
 6863SOL    HW132222   4.402   3.918   5.825 -0.5816  1.5027  0.3042
 6863SOL    HW232223   4.533   3.916   5.757  1.4914  1.7664 -0.4889
 6864SOL     OW32224   3.686   3.448   6.200  0.0422  0.4150  0.6437
 6864SOL    HW132225   3.774   3.481   6.183  0.4898 -1.2046 -0.1406
 6864SOL    HW232226   3.705   3.395   6.277  0.0332 -0.8720 -0.2570
 6865SOL     OW32227   1.721   1.076   8.758 -0.1977  0.1730 -0.6870
 6865SOL    HW132228   1.786   1.017   8.798 -1.4718 -0.5821  0.2637
 6865SOL    HW232229   1.749   1.161   8.793  0.4587 -0.4836  0.4004
 6866SOL     OW32230   3.136   3.113   2.109  0.4201 -0.3241 -0.6192
 6866SOL    HW132231   3.093   3.108   2.024 -1.0193 -2.2590  0.2324
 6866SOL    HW232232   3.057   3.094   2.159  0.2138 -0.2013 -0.9044
 6867SOL     OW32233   0.873   3.607   1.370  0.8223  0.0355 -0.1146
 6867SOL    HW132234   0.778   3.599   1.374  0.6739  0.4900 -2.7351
 6867SOL    HW232235   0.883   3.635   1.279  3.2581 -0.6607 -0.0811
 6868SOL     OW32236   3.895   2.784   5.966 -0.2000  0.4075 -0.0599
 6868SOL    HW132237   3.900   2.689   5.969 -3.7386  0.2669  1.5596
 6868SOL    HW232238   3.827   2.803   5.901 -0.6702 -0.1615  0.2708
 6869SOL     OW32239   3.681   4.445  14.952  0.2302 -0.0691  0.5929
 6869SOL    HW132240   3.739   4.510  14.993  1.0922  0.5602 -1.6685
 6869SOL    HW232241   3.724   4.435  14.867 -2.6632 -2.1996 -0.6052
 6870SOL     OW32242   3.239   1.140  12.619  0.6516 -0.3495  0.7437
 6870SOL    HW132243   3.192   1.067  12.579 -0.3550  0.8344 -0.2194
 6870SOL    HW232244   3.241   1.209  12.552  0.0012  0.0256  1.1015
 6871SOL     OW32245   2.604   2.734   3.090 -0.3292 -0.3384  0.2482
 6871SOL    HW132246   2.646   2.658   3.048  1.4548  0.1402  1.1768
 6871SOL    HW232247   2.635   2.723   3.180  2.0234 -0.3498 -0.5609
 6872SOL     OW32248   0.954   1.671   4.742 -0.1560  0.1886  0.3312
 6872SOL    HW132249   0.923   1.602   4.683  1.1047 -0.4242  0.3786
 6872SOL    HW232250   0.893   1.658   4.814  0.5521  0.2531  0.9349
 6873SOL     OW32251   2.494   1.172   5.835  0.0459  0.8818 -0.2274
 6873SOL    HW132252   2.490   1.149   5.742 -0.7587 -3.0984  0.7784
 6873SOL    HW232253   2.527   1.260   5.819  0.9133  0.6446  0.2543
 6874SOL     OW32254   2.664   4.257   6.026  0.1382  0.0441  0.0661
 6874SOL    HW132255   2.640   4.288   5.939 -0.8624 -1.1203 -0.0738
 6874SOL    HW232256   2.738   4.202   6.003  0.3193  0.5764 -0.6195
 6875SOL     OW32257   1.591   1.632   8.547 -0.0452  0.1377 -0.2079
 6875SOL    HW132258   1.566   1.541   8.533 -0.8171  0.3539 -0.2199
 6875SOL    HW232259   1.650   1.650   8.474 -2.2292  0.5847 -1.8223
 6876SOL     OW32260   0.766   2.164   7.760  0.3824  1.3080 -0.3787
 6876SOL    HW132261   0.794   2.173   7.668  1.3724  1.0677 -0.1038
 6876SOL    HW232262   0.692   2.103   7.755 -0.4761  2.2281  1.3147
 6877SOL     OW32263   3.192   0.605   8.617 -0.3030  0.2613 -0.2452
 6877SOL    HW132264   3.114   0.613   8.562 -0.0879 -1.7297 -0.8332
 6877SOL    HW232265   3.242   0.683   8.593 -0.4030  0.0347 -1.1957
 6878SOL     OW32266   2.590   4.427   7.612  0.0388  0.1068  0.2468
 6878SOL    HW132267   2.684   4.437   7.624  0.4161  0.4208 -2.8999
 6878SOL    HW232268   2.556   4.362   7.673 -1.6535  0.7188 -0.0492
 6879SOL     OW32269   4.261   1.801   4.465 -0.7471 -0.0090  0.3784
 6879SOL    HW132270   4.196   1.739   4.498 -2.3059  2.0220  1.1921
 6879SOL    HW232271   4.331   1.744   4.435 -1.3696  1.3251 -3.6255
 6880SOL     OW32272   4.298   2.163  11.559 -0.2966  0.3279 -0.4395
 6880SOL    HW132273   4.264   2.150  11.648 -1.3647 -0.3711 -0.9578
 6880SOL    HW232274   4.270   2.086  11.510  0.6198  0.4529 -1.1555
 6881SOL     OW32275   0.918   1.351  12.466 -0.0600 -0.1834  0.0914
 6881SOL    HW132276   0.831   1.326  12.436 -0.2899 -1.4526  1.8096
 6881SOL    HW232277   0.904   1.434  12.513 -2.8867 -1.2291  1.0464
 6882SOL     OW32278   2.782   2.377   6.904  0.3657 -0.2914 -0.1724
 6882SOL    HW132279   2.782   2.285   6.876 -1.8851 -0.2708 -0.2376
 6882SOL    HW232280   2.864   2.393   6.951 -0.8547  0.9121  1.5718
 6883SOL     OW32281   4.065   3.122  17.652  0.1674  0.3984  0.7163
 6883SOL    HW132282   4.137   3.181  17.671  1.3517 -0.6539 -0.5007
 6883SOL    HW232283   4.053   3.089  17.741 -0.7611 -1.3795 -0.0620
 6884SOL     OW32284   1.846   4.694   8.784  0.4940  0.1244 -0.1458
 6884SOL    HW132285   1.849   4.655   8.697 -0.3126 -0.1878 -0.0353
 6884SOL    HW232286   1.781   4.639   8.828 -0.9929 -0.5155 -3.1579
 6885SOL     OW32287   2.756   2.045   4.878  0.3286  0.6758  0.0412
 6885SOL    HW132288   2.721   2.068   4.965  0.6786 -4.0751  1.4497
 6885SOL    HW232289   2.835   2.002   4.912 -0.9468 -1.7046  0.0164
 6886SOL     OW32290   0.194   2.077   2.204  0.0345 -0.1875 -0.3461
 6886SOL    HW132291   0.139   2.154   2.194 -2.7225 -1.7434  2.7394
 6886SOL    HW232292   0.253   2.098   2.132 -2.0210  2.4875 -1.2373
 6887SOL     OW32293   0.077   3.984   3.453  0.2107 -0.3587  0.3315
 6887SOL    HW132294   0.169   3.992   3.476  0.3542 -0.1505 -0.3254
 6887SOL    HW232295   0.050   3.898   3.486  1.6218 -1.4046 -1.2006
 6888SOL     OW32296   2.515   1.542   0.320  0.3041 -0.4455 -0.2787
 6888SOL    HW132297   2.543   1.593   0.396  1.2076 -1.2677 -0.0559
 6888SOL    HW232298   2.533   1.598   0.244 -1.3165 -0.0839 -0.3875
 6889SOL     OW32299   1.442   4.434   5.519  0.6806 -1.3110  0.5296
 6889SOL    HW132300   1.497   4.467   5.590 -0.5721 -0.8680  1.2899
 6889SOL    HW232301   1.492   4.469   5.445  1.3090  1.0847  2.1173
 6890SOL     OW32302   0.584   0.496  12.852  0.5763  0.5506 -0.5392
 6890SOL    HW132303   0.571   0.402  12.837 -0.2867  0.5875 -0.0413
 6890SOL    HW232304   0.676   0.502  12.827  0.8656  1.6898  0.8035
 6891SOL     OW32305   3.394   3.980   4.998 -0.0283 -0.0952 -0.2174
 6891SOL    HW132306   3.460   3.991   4.930 -0.4590  0.8953 -0.4674
 6891SOL    HW232307   3.450   3.970   5.075 -0.4057 -0.5934 -0.0020
 6892SOL     OW32308   2.885   1.318   4.837 -0.4298 -0.3991  0.6856
 6892SOL    HW132309   2.875   1.358   4.750  0.1350 -2.6160 -0.3852
 6892SOL    HW232310   2.972   1.280   4.825 -0.1885  0.5175 -0.4864
 6893SOL     OW32311   4.676   4.209   8.665  0.1459 -0.1108  0.0447
 6893SOL    HW132312   4.687   4.260   8.745  0.3923  0.4085 -0.3255
 6893SOL    HW232313   0.016   4.161   8.648  0.2720  0.1897 -0.1972
 6894SOL     OW32314   2.291   3.066   3.324 -0.0170 -0.0879  0.9078
 6894SOL    HW132315   2.265   2.996   3.264  0.3991  0.4489  0.1076
 6894SOL    HW232316   2.201   3.098   3.330  0.1357  0.6593 -0.7078
 6895SOL     OW32317   3.222   1.611  12.892 -0.3638 -0.2609 -0.2811
 6895SOL    HW132318   3.175   1.670  12.951  0.8829  1.8169 -1.3492
 6895SOL    HW232319   3.156   1.548  12.863 -2.1621  1.4258  0.1677
 6896SOL     OW32320   2.707   3.489   7.233  0.0639 -0.1906  0.3527
 6896SOL    HW132321   2.793   3.529   7.217 -0.1412 -0.0126 -0.3424
 6896SOL    HW232322   2.687   3.476   7.140 -0.1112  1.7032  0.1256
 6897SOL     OW32323   0.808   0.493   2.880  0.2910  0.2862 -0.1926
 6897SOL    HW132324   0.876   0.559   2.863  0.4344  0.2021  0.0570
 6897SOL    HW232325   0.851   0.414   2.849 -0.1491  1.0114 -2.6555
 6898SOL     OW32326   0.543   4.379   4.114  0.4287 -0.0442  0.7457
 6898SOL    HW132327   0.622   4.424   4.145 -1.5663  1.8837  3.0417
 6898SOL    HW232328   0.511   4.333   4.192 -0.7176 -0.3071  0.1156
 6899SOL     OW32329   3.579   2.596   4.768  0.2773 -0.5003  0.6969
 6899SOL    HW132330   3.499   2.649   4.773  1.2498  1.0074  0.3782
 6899SOL    HW232331   3.542   2.518   4.726  0.5946 -0.3422  0.1254
 6900SOL     OW32332   3.996   0.675   1.962  0.4022  0.7411  0.0331
 6900SOL    HW132333   3.906   0.695   1.935 -0.0667 -0.9300  0.3717
 6900SOL    HW232334   4.048   0.672   1.881 -0.4748 -1.0445 -0.4557
 6901SOL     OW32335   0.165   0.777   7.770  0.2704 -0.0326 -0.1717
 6901SOL    HW132336   0.220   0.709   7.808  3.1864  1.6309 -1.4488
 6901SOL    HW232337   0.153   0.737   7.684  0.5383  0.0756 -0.2596
 6902SOL     OW32338   0.811   2.151   3.647 -0.7248 -0.3325  0.1077
 6902SOL    HW132339   0.831   2.096   3.723 -0.7857 -1.4657 -0.6983
 6902SOL    HW232340   0.767   2.224   3.692  0.7356 -0.6172  1.9846
 6903SOL     OW32341   2.255   1.059   6.332 -0.0526  1.0087  0.1409
 6903SOL    HW132342   2.283   0.978   6.374 -0.5020  1.6645  1.7224
 6903SOL    HW232343   2.160   1.046   6.339 -0.0183  0.6275 -0.1245
 6904SOL     OW32344   2.988   0.718   8.853  0.6067 -0.6046  0.3518
 6904SOL    HW132345   3.026   0.644   8.900  2.8929  1.1266  1.2695
 6904SOL    HW232346   2.979   0.682   8.765  3.6039  0.5790 -0.4398
 6905SOL     OW32347   0.684   1.786   0.811 -0.0980  0.6290  0.3237
 6905SOL    HW132348   0.752   1.720   0.819 -1.6324 -0.8644  1.0304
 6905SOL    HW232349   0.610   1.750   0.860 -0.4795 -0.8352 -1.3135
 6906SOL     OW32350   4.655   2.867   6.785  0.2496  0.3208 -0.0698
 6906SOL    HW132351   4.703   2.917   6.851 -3.0154  3.0499  0.1984
 6906SOL    HW232352   4.578   2.834   6.831 -0.8897 -1.0557 -2.9284
 6907SOL     OW32353   0.578   2.578   5.159  0.1404 -0.3549  0.2592
 6907SOL    HW132354   0.591   2.655   5.214  0.1352  0.1641 -0.4664
 6907SOL    HW232355   0.506   2.598   5.099 -0.1741 -0.1344  0.7138
 6908SOL     OW32356   0.938   0.251   8.408 -0.2685  0.5881 -0.0555
 6908SOL    HW132357   0.847   0.226   8.393  0.1491 -1.4269  0.7279
 6908SOL    HW232358   0.987   0.180   8.450  0.4429  0.6005 -0.8524
 6909SOL     OW32359   3.181   0.894  17.174 -0.6486  0.4495 -0.1229
 6909SOL    HW132360   3.235   0.948  17.233 -2.4200  0.5568  1.3951
 6909SOL    HW232361   3.147   0.954  17.107  2.3830  0.7345 -1.4025
 6910SOL     OW32362   3.653   0.890   7.931 -0.0306 -0.4944 -0.1793
 6910SOL    HW132363   3.616   0.957   7.873 -0.5686 -1.6839 -1.2247
 6910SOL    HW232364   3.737   0.880   7.886  0.8705 -0.7482  1.5894
 6911SOL     OW32365   1.577   1.061   2.336 -0.2601  0.5845 -0.2442
 6911SOL    HW132366   1.503   1.001   2.339 -0.9011  1.2289 -2.8774
 6911SOL    HW232367   1.603   1.063   2.428 -1.3721  1.4820  0.0559
 6912SOL     OW32368   0.075   3.387  11.493 -0.4839 -0.1961 -0.1080
 6912SOL    HW132369   0.051   3.378  11.401  2.6225 -1.8184 -0.7824
 6912SOL    HW232370   0.028   3.468  11.511 -0.0038 -0.0142  0.3200
 6913SOL     OW32371   4.640   0.427   8.286  0.2064  0.4275  0.7781
 6913SOL    HW132372   4.699   0.469   8.223 -1.4197 -0.4946 -1.3231
 6913SOL    HW232373   4.679   0.353   8.332  0.7741 -0.9756 -1.9627
 6914SOL     OW32374   0.947   2.648  10.856 -0.4530  0.1845  0.3140
 6914SOL    HW132375   0.921   2.718  10.916 -2.5905  0.2746 -0.7240
 6914SOL    HW232376   1.042   2.651  10.853 -0.4860 -2.2963 -2.4143
 6915SOL     OW32377   0.044   0.284   7.782 -0.1067  0.2636  0.4895
 6915SOL    HW132378   0.027   0.284   7.688 -0.7615 -1.3911  0.6109
 6915SOL    HW232379   0.138   0.262   7.786 -0.4790 -1.7117 -1.6341
 6916SOL     OW32380   2.092   3.575  12.748 -0.0469  0.0674  0.0799
 6916SOL    HW132381   2.154   3.541  12.813 -1.5385 -3.0617 -0.1138
 6916SOL    HW232382   2.136   3.566  12.663  0.3252  0.5086  0.2260
 6917SOL     OW32383   2.952   0.257   8.941  0.0092 -0.2252  0.5948
 6917SOL    HW132384   2.876   0.199   8.934  0.6336 -1.0644  0.7564
 6917SOL    HW232385   3.013   0.200   8.987 -0.6351 -0.2031  1.4941
 6918SOL     OW32386   0.313   2.378   6.339 -0.2015 -0.8979  0.1961
 6918SOL    HW132387   0.380   2.380   6.407 -0.1783  0.1856  0.1514
 6918SOL    HW232388   0.251   2.445   6.368  0.8404  0.2762 -0.2986
 6919SOL     OW32389   3.948   0.321  14.755  1.1917  0.1516 -0.0341
 6919SOL    HW132390   4.026   0.280  14.719  1.9405  1.1103  0.4914
 6919SOL    HW232391   3.887   0.336  14.682  0.5313 -0.5253  0.3737
 6920SOL     OW32392   3.517   1.549   7.772  0.2021  0.2144 -0.1235
 6920SOL    HW132393   3.504   1.457   7.751 -0.0873 -0.1484  1.6311
 6920SOL    HW232394   3.548   1.540   7.862 -1.1525  0.2973  0.3446
 6921SOL     OW32395   3.636   2.835   4.962 -0.0352  0.4105  0.0990
 6921SOL    HW132396   3.652   2.767   4.898 -1.7800 -0.3705  0.4786
 6921SOL    HW232397   3.610   2.783   5.039  1.2614 -3.4974 -2.1328
 6922SOL     OW32398   4.327   0.804  10.434 -0.3095  0.7822 -0.7137
 6922SOL    HW132399   4.275   0.884  10.445  1.6985  2.2157 -1.6240
 6922SOL    HW232400   4.286   0.772  10.354  2.1354 -2.1758 -0.7815
 6923SOL     OW32401   2.775   2.101   6.858 -0.1438 -0.2172 -0.0265
 6923SOL    HW132402   2.792   2.007   6.866 -2.6139 -0.7724 -1.7170
 6923SOL    HW232403   2.683   2.097   6.834 -0.7477  0.3276  2.2322
 6924SOL     OW32404   3.135   4.598   6.438 -0.0226  0.7238  0.1695
 6924SOL    HW132405   3.071   4.584   6.508 -0.1873  1.0280  0.0808
 6924SOL    HW232406   3.213   4.574   6.489 -0.4099  0.2958  0.5558
 6925SOL     OW32407   1.045   3.085  13.923 -0.4612  0.5557  0.3261
 6925SOL    HW132408   1.002   3.004  13.948 -1.9863  0.8786 -1.2638
 6925SOL    HW232409   1.136   3.066  13.897 -0.5215 -0.1322  0.6158
 6926SOL     OW32410   3.270   4.236   2.210  0.1098  0.5468 -0.1865
 6926SOL    HW132411   3.227   4.160   2.249  0.1333 -1.0866 -3.3437
 6926SOL    HW232412   3.290   4.283   2.291  0.2364 -0.3850  0.3176
 6927SOL     OW32413   4.275   2.080  12.338 -0.0955 -0.1981 -0.6430
 6927SOL    HW132414   4.336   2.135  12.388 -0.0956 -0.3913 -0.4317
 6927SOL    HW232415   4.328   2.001  12.333  0.7403  0.3498 -0.4718
 6928SOL     OW32416   3.507   4.602   2.205 -0.2007  0.2387 -0.9392
 6928SOL    HW132417   3.437   4.632   2.264 -0.1555 -0.5458 -0.4733
 6928SOL    HW232418   3.555   4.679   2.177  2.1279 -0.8300  0.1136
 6929SOL     OW32419   3.000   2.224  13.028  0.1082 -0.2464 -0.0525
 6929SOL    HW132420   3.046   2.145  13.055  0.1166 -0.2105  0.0399
 6929SOL    HW232421   3.002   2.221  12.932 -1.2070  1.1603 -0.1288
 6930SOL     OW32422   4.550   1.670   6.843 -0.2787 -0.1817 -0.0301
 6930SOL    HW132423   4.578   1.761   6.844  0.0677 -0.2868 -0.0634
 6930SOL    HW232424   4.606   1.634   6.774 -0.8575  0.0704 -0.6326
 6931SOL     OW32425   3.155   2.372   4.126 -0.0568 -0.3186  0.8096
 6931SOL    HW132426   3.163   2.468   4.128  0.5957 -0.3186 -1.4555
 6931SOL    HW232427   3.245   2.344   4.108  0.0576 -0.7988  2.1517
 6932SOL     OW32428   1.123   3.290   3.281  0.4959 -0.3089  0.0368
 6932SOL    HW132429   1.060   3.226   3.315 -0.2572 -0.0198 -0.8158
 6932SOL    HW232430   1.098   3.304   3.190  1.2370 -2.6306 -0.5302
 6933SOL     OW32431   3.007   0.103   4.466  0.0182  0.5391  0.1440
 6933SOL    HW132432   2.937   0.117   4.402 -0.0092 -0.4856 -0.0440
 6933SOL    HW232433   3.045   0.191   4.461 -1.0997  1.0197  0.0066
 6934SOL     OW32434   0.471   0.791   6.033 -0.7139 -0.0217  0.1070
 6934SOL    HW132435   0.514   0.738   5.966  1.1113  2.5391 -0.7467
 6934SOL    HW232436   0.489   0.878   5.996 -1.0457 -1.1732 -2.7901
 6935SOL     OW32437   0.397   0.731   0.380 -0.5709  0.1925  0.1426
 6935SOL    HW132438   0.424   0.816   0.345 -0.8310  1.5643  3.2437
 6935SOL    HW232439   0.446   0.669   0.326 -0.8787 -0.7689  0.9717
 6936SOL     OW32440   3.428   3.798   9.436 -0.5750  0.1129 -0.0514
 6936SOL    HW132441   3.503   3.744   9.461 -1.5262 -1.9385 -1.6415
 6936SOL    HW232442   3.450   3.878   9.485  0.3192 -1.1105  1.5342
 6937SOL     OW32443   1.590   3.352   8.676 -0.5653  0.2286  0.2892
 6937SOL    HW132444   1.644   3.300   8.735 -1.7510 -2.0398 -0.6218
 6937SOL    HW232445   1.648   3.385   8.608 -2.3935 -0.5423 -1.6518
 6938SOL     OW32446   4.668   0.014   5.816 -0.0494 -0.2069 -0.6124
 6938SOL    HW132447   4.608   0.001   5.743 -0.5915  0.8085 -0.3437
 6938SOL    HW232448   4.712   0.098   5.805  3.0851 -1.8385 -0.6862
 6939SOL     OW32449   0.372   3.305  14.314 -0.0666  0.7814 -0.8135
 6939SOL    HW132450   0.312   3.369  14.276 -0.2887  1.1066  0.0969
 6939SOL    HW232451   0.408   3.287  14.227  1.8089 -1.8553  0.4858
 6940SOL     OW32452   4.248   2.132   8.476 -0.3961 -0.4387 -0.3170
 6940SOL    HW132453   4.165   2.104   8.513 -0.3799  0.3056  0.2897
 6940SOL    HW232454   4.246   2.087   8.392 -1.8978 -1.3666  0.2132
 6941SOL     OW32455   4.684   2.175  12.781 -0.1662 -0.1153  0.0639
 6941SOL    HW132456   4.616   2.165  12.848  1.4109 -1.5632  1.4519
 6941SOL    HW232457   4.724   2.250  12.824 -0.5601 -0.1706  0.5214
 6942SOL     OW32458   1.614   2.784   5.414 -0.2603  0.1770 -0.0301
 6942SOL    HW132459   1.588   2.797   5.322 -0.9417 -2.0281 -0.1475
 6942SOL    HW232460   1.529   2.784   5.458 -0.0002  0.6149  0.4683
 6943SOL     OW32461   2.899   4.444   7.046 -0.1053  0.5194  0.2739
 6943SOL    HW132462   2.842   4.452   7.123  0.6152  2.2965  0.6251
 6943SOL    HW232463   2.987   4.435   7.083  0.1623 -1.3001 -0.8194
 6944SOL     OW32464   2.887   3.555   9.991  0.3701  0.4982  0.4521
 6944SOL    HW132465   2.830   3.560  10.068 -0.9345  0.4842 -0.5250
 6944SOL    HW232466   2.964   3.601  10.025  0.6900  0.9001 -0.8265
 6945SOL     OW32467   1.323   3.546   3.042 -0.5820  0.3265 -0.5610
 6945SOL    HW132468   1.372   3.471   3.076 -1.4138 -1.3705 -3.0571
 6945SOL    HW232469   1.306   3.586   3.127 -0.2113 -1.3646  0.3219
 6946SOL     OW32470   2.334   3.528   6.527 -0.2993 -0.2045 -0.9507
 6946SOL    HW132471   2.309   3.619   6.547 -2.0106 -1.0120  0.5779
 6946SOL    HW232472   2.398   3.525   6.598  0.4375 -1.2322 -1.6725
 6947SOL     OW32473   0.932   3.472   4.796 -0.3975 -0.4079  0.2371
 6947SOL    HW132474   0.904   3.541   4.856 -0.5384 -0.1548 -0.1163
 6947SOL    HW232475   0.928   3.398   4.856 -2.1735 -0.0296  0.5782
 6948SOL     OW32476   4.475   2.005  15.335 -0.4526  0.1766  0.2510
 6948SOL    HW132477   4.536   1.948  15.381 -0.5641  1.5132  2.0304
 6948SOL    HW232478   4.459   1.957  15.254 -0.3459  0.2681  0.1759
 6949SOL     OW32479   0.415   1.390   9.494 -0.5585  0.6262 -0.1082
 6949SOL    HW132480   0.370   1.417   9.573 -0.2512  2.3340 -0.5141
 6949SOL    HW232481   0.502   1.376   9.531 -0.5630 -2.4330 -1.2870
 6950SOL     OW32482   0.464   2.707  13.880 -0.3622  0.5142  0.1197
 6950SOL    HW132483   0.556   2.701  13.854  0.3328  1.2266  2.4432
 6950SOL    HW232484   0.407   2.672  13.810 -0.1363 -0.4143  0.3990
 6951SOL     OW32485   0.525   0.925   4.829 -0.1845 -0.3360  0.2810
 6951SOL    HW132486   0.587   0.878   4.885  1.1289  1.1101  0.0293
 6951SOL    HW232487   0.470   0.859   4.787  1.0838 -0.5990 -0.9766
 6952SOL     OW32488   0.324   0.633   7.928 -0.0531  0.0623  0.1615
 6952SOL    HW132489   0.397   0.695   7.919 -0.3741  0.5126  0.6832
 6952SOL    HW232490   0.368   0.552   7.904  0.2139  0.4649 -0.7172
 6953SOL     OW32491   0.886   0.227  12.196 -0.4897 -0.3373  0.1864
 6953SOL    HW132492   0.874   0.256  12.286  1.5389  0.8002  0.0797
 6953SOL    HW232493   0.821   0.291  12.167 -0.2941 -0.7115 -1.0969
 6954SOL     OW32494   3.840   3.194   4.156 -0.3462  0.4141 -0.4781
 6954SOL    HW132495   3.794   3.225   4.077 -2.0693 -2.0775 -0.4862
 6954SOL    HW232496   3.784   3.221   4.229  1.3914 -0.6564  1.2455
 6955SOL     OW32497   4.296   3.227  17.744 -0.0259 -0.5419  0.3184
 6955SOL    HW132498   4.276   3.187   0.069 -3.1409  0.6129  0.1223
 6955SOL    HW232499   4.349   3.296   0.023  1.3623 -1.1918 -0.4326
 6956SOL     OW32500   3.178   3.240  16.316  0.4707  0.2457  0.0893
 6956SOL    HW132501   3.086   3.265  16.329  0.5758  1.0394 -0.6638
 6956SOL    HW232502   3.170   3.182  16.241  1.8497 -1.7435  1.4985
 6957SOL     OW32503   4.492   0.993   8.247  0.6856  0.0450  0.6261
 6957SOL    HW132504   4.517   0.944   8.326  0.4420 -1.5127 -0.2655
 6957SOL    HW232505   4.513   0.929   8.179 -2.3354  0.3967 -0.6104
 6958SOL     OW32506   1.993   3.656   9.097  0.0196  0.2930  0.2776
 6958SOL    HW132507   1.934   3.724   9.129  0.5664  0.5144  0.8148
 6958SOL    HW232508   1.968   3.592   9.164 -2.2593  1.2135  0.3072
 6959SOL     OW32509   4.285   4.347   3.843 -0.0859 -0.4550  0.3600
 6959SOL    HW132510   4.373   4.369   3.873  0.6604 -1.1359 -1.3286
 6959SOL    HW232511   4.267   4.259   3.876  2.7246 -1.1978 -0.0608
 6960SOL     OW32512   4.574   4.410   9.702 -0.3578  0.7228  0.2110
 6960SOL    HW132513   4.514   4.457   9.644 -1.2697 -0.3851  0.2533
 6960SOL    HW232514   4.524   4.334   9.732 -0.4259  0.2313 -1.1215
 6961SOL     OW32515   0.359   2.378   4.094  0.5236  0.0232  0.6167
 6961SOL    HW132516   0.330   2.294   4.060  0.6964 -0.3608  1.4186
 6961SOL    HW232517   0.373   2.415   4.007 -0.7656 -0.7163  0.0950
 6962SOL     OW32518   3.888   1.267   1.195 -0.2673 -0.4240 -0.0914
 6962SOL    HW132519   3.934   1.348   1.174  0.3181 -0.3330  1.5242
 6962SOL    HW232520   3.933   1.242   1.276  0.6848  0.3464 -0.3822
 6963SOL     OW32521   0.082   2.828   3.839  0.1493 -0.5739 -0.3318
 6963SOL    HW132522   0.047   2.748   3.878  1.3561 -1.2670 -0.6697
 6963SOL    HW232523   0.170   2.827   3.876 -1.0401 -3.0387  2.4165
 6964SOL     OW32524   0.944   2.544  17.165  0.3956 -0.1750  0.3301
 6964SOL    HW132525   0.968   2.601  17.092 -0.7363 -0.6688 -0.4199
 6964SOL    HW232526   0.855   2.520  17.143 -0.1733  2.0824  0.1773
 6965SOL     OW32527   3.439   2.442   1.856 -0.6031  0.1602  0.1475
 6965SOL    HW132528   3.475   2.468   1.771 -1.3653  2.1226  0.4316
 6965SOL    HW232529   3.438   2.347   1.865 -0.0902  0.2016  0.6190
 6966SOL     OW32530   3.884   0.887  16.464  0.4204  0.2061 -0.1170
 6966SOL    HW132531   3.894   0.979  16.488  0.7669  0.6280 -1.8906
 6966SOL    HW232532   3.965   0.871  16.415  1.8770  3.5998  1.1945
 6967SOL     OW32533   0.709   3.856   9.977  0.0744  0.0726  0.0704
 6967SOL    HW132534   0.684   3.813   9.895  2.0983  0.0215 -0.5060
 6967SOL    HW232535   0.625   3.859  10.023 -0.0292 -0.1936 -0.0994
 6968SOL     OW32536   1.166   4.483   5.187  0.4600 -0.0361  0.4752
 6968SOL    HW132537   1.154   4.548   5.256 -1.8695 -1.4570  1.3833
 6968SOL    HW232538   1.169   4.401   5.236 -0.1385 -0.7035 -0.6019
 6969SOL     OW32539   1.413   3.543   5.336  0.6182 -0.3493  0.1929
 6969SOL    HW132540   1.448   3.481   5.400 -2.9596 -1.5474  0.9666
 6969SOL    HW232541   1.484   3.607   5.331 -1.3890  1.9224  0.5713
 6970SOL     OW32542   0.855   3.997  14.509  0.4796  0.0821 -0.1148
 6970SOL    HW132543   0.827   4.048  14.433 -1.4663 -0.2941  0.3490
 6970SOL    HW232544   0.948   4.017  14.504  0.1494  1.3968 -0.8464
 6971SOL     OW32545   0.726   0.635   6.735  0.5041  0.3817 -0.4993
 6971SOL    HW132546   0.668   0.691   6.683  0.6928  0.8828 -0.1628
 6971SOL    HW232547   0.806   0.687   6.728  0.5184  0.5347  0.8036
 6972SOL     OW32548   3.905   3.780   4.630 -0.3956  0.4426 -0.3477
 6972SOL    HW132549   3.947   3.828   4.702 -0.5468  1.4928 -0.9559
 6972SOL    HW232550   3.917   3.853   4.569 -2.2178  0.4351 -0.7194
 6973SOL     OW32551   2.551   4.079  10.006  0.2245 -0.1294 -0.3625
 6973SOL    HW132552   2.542   3.988  10.034 -1.4501 -0.4931 -2.0810
 6973SOL    HW232553   2.535   4.069   9.912  0.5999  1.1298 -0.5601
 6974SOL     OW32554   3.394   3.340   1.904  0.5104 -0.1542  0.2520
 6974SOL    HW132555   3.369   3.331   1.997 -1.5245  0.1512 -0.2614
 6974SOL    HW232556   3.489   3.348   1.912  0.6045 -1.6058  0.6777
 6975SOL     OW32557   1.246   0.469   7.169  0.0462 -0.6869  0.6573
 6975SOL    HW132558   1.201   0.511   7.096  1.9357  0.3962  0.1489
 6975SOL    HW232559   1.248   0.549   7.222  2.3067 -0.2381 -0.1334
 6976SOL     OW32560   3.406   0.301  11.777 -0.1882 -0.8528  0.4996
 6976SOL    HW132561   3.343   0.310  11.705 -0.8981 -0.1444  1.2094
 6976SOL    HW232562   3.376   0.380  11.821 -0.1986 -0.0194 -1.0149
 6977SOL     OW32563   3.886   1.495   9.135 -0.1250 -0.8371  0.7363
 6977SOL    HW132564   3.909   1.413   9.178  2.3448 -0.0447  0.8927
 6977SOL    HW232565   3.965   1.525   9.091  0.5340 -0.7032  2.0362
 6978SOL     OW32566   3.016   1.485   9.175  0.1292 -0.3088 -0.2347
 6978SOL    HW132567   3.012   1.391   9.155 -2.6673 -0.2482 -0.0295
 6978SOL    HW232568   3.009   1.493   9.270 -0.0690 -0.1800 -0.2603
 6979SOL     OW32569   2.359   1.641  12.058 -0.1510 -0.2516  0.5592
 6979SOL    HW132570   2.341   1.557  12.017 -0.7416 -0.6410  1.6100
 6979SOL    HW232571   2.448   1.656  12.028 -0.2932 -2.5788 -0.9931
 6980SOL     OW32572   0.981   3.756   2.894 -0.2291 -0.6301 -0.3095
 6980SOL    HW132573   1.040   3.748   2.820  0.0006  0.7918 -0.2928
 6980SOL    HW232574   0.972   3.852   2.891 -0.4538 -0.5755  1.6190
 6981SOL     OW32575   4.734   4.414   5.770  0.3012  0.0133  0.1651
 6981SOL    HW132576   0.060   4.401   5.703 -2.3911 -3.7631 -1.8031
 6981SOL    HW232577   4.732   4.508   5.755  1.1419  0.2253  1.4582
 6982SOL     OW32578   0.553   3.458  11.445  0.0880  0.0939 -0.1747
 6982SOL    HW132579   0.569   3.538  11.396 -1.8300  0.8370  0.4267
 6982SOL    HW232580   0.458   3.462  11.455 -0.1764 -1.0224 -2.4042
 6983SOL     OW32581   1.440   4.645   8.245 -0.6445  0.3672  0.0675
 6983SOL    HW132582   1.504   4.679   8.308  2.5183 -1.5524 -2.1316
 6983SOL    HW232583   1.364   4.646   8.304 -1.1935 -0.2350 -0.6363
 6984SOL     OW32584   2.592   3.070   8.041  0.5525 -0.1208 -0.4730
 6984SOL    HW132585   2.518   3.086   8.101  0.3879  2.4965 -1.3988
 6984SOL    HW232586   2.554   3.002   7.986  0.3634 -3.2064  3.4199
 6985SOL     OW32587   1.838   0.138   8.266 -0.5259  0.6862  0.5201
 6985SOL    HW132588   1.845   0.045   8.249 -2.4512  1.0004 -2.0669
 6985SOL    HW232589   1.920   0.173   8.231  0.7758 -0.3109  2.5921
 6986SOL     OW32590   4.579   1.634   9.737 -0.5130  0.3812  0.0508
 6986SOL    HW132591   4.536   1.676   9.663  0.4081  0.3174 -0.5205
 6986SOL    HW232592   4.569   1.541   9.717  0.2269 -0.0231  1.5403
 6987SOL     OW32593   0.992   2.829   1.652  0.7683  0.6020  0.0816
 6987SOL    HW132594   1.080   2.801   1.629  0.3379 -0.3233 -0.4397
 6987SOL    HW232595   0.947   2.801   1.572 -0.7333  0.1538  1.0816
 6988SOL     OW32596   3.205   0.005   9.942 -0.1836 -0.3814  0.1410
 6988SOL    HW132597   3.180   4.658   9.911 -1.3759  0.7718 -2.1857
 6988SOL    HW232598   3.135   0.058   9.901 -0.2074  0.0383  0.7329
 6989SOL     OW32599   0.636   0.854   2.909  0.6066  0.4144 -0.1779
 6989SOL    HW132600   0.704   0.884   2.970  0.1875 -0.0212  0.4942
 6989SOL    HW232601   0.584   0.931   2.885 -1.7973 -1.3142 -0.5400
 6990SOL     OW32602   4.604   1.141  12.118  0.2692  0.1692  0.0359
 6990SOL    HW132603   4.562   1.113  12.037  0.0830  0.0641  0.1668
 6990SOL    HW232604   4.531   1.139  12.180  1.2447 -0.3438  1.1765
 6991SOL     OW32605   3.700   4.687   9.927  0.3404 -0.4009 -0.0931
 6991SOL    HW132606   3.784   4.641   9.919 -0.7788 -2.3847 -0.5083
 6991SOL    HW232607   3.683   4.700   9.833  0.2327  1.3955  0.1851
 6992SOL     OW32608   3.025   2.791   7.245  0.4336  0.4547  0.1071
 6992SOL    HW132609   2.952   2.730   7.235  0.9872 -0.0086 -1.0712
 6992SOL    HW232610   3.033   2.835   7.160 -0.1556  1.1852  0.4259
 6993SOL     OW32611   1.306   2.202   8.917 -0.0738  0.6951 -0.6822
 6993SOL    HW132612   1.338   2.253   8.843 -2.5317  1.8555 -0.9686
 6993SOL    HW232613   1.256   2.129   8.882  1.7304 -1.6078  1.5417
 6994SOL     OW32614   4.069   1.794   8.787  0.2978 -0.1931  0.1620
 6994SOL    HW132615   4.100   1.742   8.713  1.4175  1.0895 -0.2834
 6994SOL    HW232616   4.125   1.870   8.773 -0.5538  0.6171  1.1976
 6995SOL     OW32617   4.029   3.713   1.815 -0.3736 -0.7114 -0.5359
 6995SOL    HW132618   4.114   3.754   1.831 -0.9908  0.2796  0.2054
 6995SOL    HW232619   4.050   3.620   1.824  0.8510 -0.4633 -0.7389
 6996SOL     OW32620   2.849   3.492  12.298 -0.8190 -0.3660  0.4499
 6996SOL    HW132621   2.774   3.510  12.355  0.3808  1.1123  1.5852
 6996SOL    HW232622   2.892   3.414  12.334  0.1258 -0.3863 -0.7475
 6997SOL     OW32623   2.790   3.832   8.988  0.2376 -0.0110  0.1036
 6997SOL    HW132624   2.816   3.751   8.945 -0.5599 -0.4392  0.4202
 6997SOL    HW232625   2.756   3.878   8.911  0.4751  0.0815  0.0565
 6998SOL     OW32626   1.240   0.138   3.159 -0.1805 -0.0385  0.2185
 6998SOL    HW132627   1.253   0.225   3.122 -1.7638  0.9199  1.9191
 6998SOL    HW232628   1.154   0.121   3.120 -0.0750  0.3224 -0.1631
 6999SOL     OW32629   0.105   3.690  10.451 -0.3342  0.7839 -0.2355
 6999SOL    HW132630   0.100   3.738  10.368 -3.7412 -0.8492 -0.9967
 6999SOL    HW232631   0.081   3.759  10.513 -2.3935 -0.1243 -0.0324
 7000SOL     OW32632   2.350   0.129  17.101  0.4657 -0.0493  0.2070
 7000SOL    HW132633   2.306   0.164  17.178 -1.3861 -1.6974 -0.1224
 7000SOL    HW232634   2.298   0.164  17.029  1.6849 -1.0596 -1.1590
 7001SOL     OW32635   2.825   1.923  14.867 -0.7136  0.4564  0.3479
 7001SOL    HW132636   2.913   1.891  14.886 -1.2732 -0.3484  1.5690
 7001SOL    HW232637   2.804   1.993  14.928  3.5048  1.8749  0.1478
 7002SOL     OW32638   2.609   0.872   8.227  0.0604  0.3665 -0.2349
 7002SOL    HW132639   2.678   0.826   8.276 -0.1449  0.4905  0.1749
 7002SOL    HW232640   2.621   0.956   8.271  2.0226  0.7463 -1.4833
 7003SOL     OW32641   1.858   0.325   5.562 -0.3109  0.0216  0.4869
 7003SOL    HW132642   1.792   0.296   5.498  1.4734  1.6902 -2.1138
 7003SOL    HW232643   1.895   0.405   5.525 -2.9882  0.4330 -1.3846
 7004SOL     OW32644   2.497   4.499   3.660 -0.4774  0.5977 -0.3556
 7004SOL    HW132645   2.443   4.488   3.582  1.2747 -2.3891 -1.1540
 7004SOL    HW232646   2.440   4.550   3.718 -1.2423 -0.6176 -0.0457
 7005SOL     OW32647   1.272   3.435  17.671  0.5232  0.1254 -0.0426
 7005SOL    HW132648   1.241   3.511  17.623 -0.2687 -0.8816 -1.1146
 7005SOL    HW232649   1.187   3.416  17.710  1.2972 -1.0372  1.0994
 7006SOL     OW32650   4.399   1.456   8.755  0.4524 -0.6613  0.7900
 7006SOL    HW132651   4.416   1.528   8.817  0.6913 -0.3672  0.3833
 7006SOL    HW232652   4.385   1.380   8.812  1.1212  0.0171  1.8653
 7007SOL     OW32653   0.312   1.768   4.084 -0.2093 -0.1746  0.3760
 7007SOL    HW132654   0.369   1.691   4.088 -0.2961 -0.4615 -3.8480
 7007SOL    HW232655   0.258   1.748   4.007  1.2023  0.6284 -0.8344
 7008SOL     OW32656   0.097   2.239   8.978  0.2675 -0.4837 -0.1185
 7008SOL    HW132657   0.016   2.227   8.928 -1.3547  0.1453  2.3310
 7008SOL    HW232658   0.056   2.292   9.047 -0.4412 -2.3445  0.8880
 7009SOL     OW32659   1.202   3.763   8.390  0.1000  0.4821 -0.5151
 7009SOL    HW132660   1.251   3.696   8.438  0.4154  2.4402  1.8568
 7009SOL    HW232661   1.131   3.779   8.452  0.0214 -2.2078  0.1131
 7010SOL     OW32662   2.070   0.253  15.396 -0.1572 -0.5563  0.2829
 7010SOL    HW132663   2.108   0.225  15.479 -0.0806 -1.5313 -0.0748
 7010SOL    HW232664   2.146   0.255  15.339 -0.8370 -0.6892 -0.6274
 7011SOL     OW32665   4.570   3.447   6.946  0.2509 -0.0402  0.2026
 7011SOL    HW132666   4.533   3.498   6.874 -0.0854  0.5021  0.7680
 7011SOL    HW232667   4.535   3.358   6.951 -0.0433 -0.0891 -2.5367
 7012SOL     OW32668   0.125   1.833   1.844  0.1486 -0.3072  0.2225
 7012SOL    HW132669   0.106   1.751   1.889  1.4026 -1.9397 -2.1892
 7012SOL    HW232670   0.100   1.811   1.754 -0.4516 -1.9728  0.7983
 7013SOL     OW32671   0.357   0.613   7.096  0.2031  0.2925  0.4599
 7013SOL    HW132672   0.366   0.686   7.034  1.0032  0.6466  0.9885
 7013SOL    HW232673   0.449   0.596   7.116  0.1014 -3.4458 -2.2540
 7014SOL     OW32674   1.122   2.473  13.997 -0.3977 -0.3818 -0.4627
 7014SOL    HW132675   1.093   2.426  14.076 -1.3475 -0.9210 -1.1358
 7014SOL    HW232676   1.104   2.567  14.004 -1.4397 -0.6074 -0.0224
 7015SOL     OW32677   0.194   0.668   6.017  0.0531  0.1040 -0.2623
 7015SOL    HW132678   0.281   0.674   5.979  0.1788  0.2057  0.0435
 7015SOL    HW232679   0.145   0.742   5.980 -0.6126 -0.8072 -1.2020
 7016SOL     OW32680   3.907   3.508   5.257  0.5726  0.4036  0.3847
 7016SOL    HW132681   3.907   3.589   5.207  0.8389 -1.2766 -2.3278
 7016SOL    HW232682   3.820   3.473   5.237  0.3598  1.2993 -0.2529
 7017SOL     OW32683   3.698   1.441   6.291 -0.5969 -0.3512 -0.3243
 7017SOL    HW132684   3.650   1.476   6.366  0.2405  1.2422 -0.5281
 7017SOL    HW232685   3.666   1.500   6.222 -0.2286 -0.1213 -0.3012
 7018SOL     OW32686   3.352   0.557  11.838 -0.9796  0.6449  0.3203
 7018SOL    HW132687   3.346   0.600  11.753  2.5676  2.4420  0.9893
 7018SOL    HW232688   3.430   0.593  11.879 -0.6793  0.0413  0.2865
 7019SOL     OW32689   4.203   3.820   7.888  0.0420  0.5087  0.0310
 7019SOL    HW132690   4.212   3.864   7.803 -0.4157 -1.2560 -0.9140
 7019SOL    HW232691   4.293   3.798   7.912 -0.2571  0.8087  1.4255
 7020SOL     OW32692   0.881   3.601   6.341 -0.1327  0.4116 -0.8261
 7020SOL    HW132693   0.827   3.547   6.284  1.8903 -0.1276 -2.2192
 7020SOL    HW232694   0.958   3.550   6.366  0.0578  0.4148 -1.4015
 7021SOL     OW32695   1.836   0.671   5.796 -0.3893  0.2391 -0.1864
 7021SOL    HW132696   1.782   0.597   5.770 -0.9085  0.2997  0.7275
 7021SOL    HW232697   1.776   0.723   5.851 -2.3848 -0.2860 -1.8670
 7022SOL     OW32698   0.182   0.099   3.498 -0.1650 -0.0168 -0.4098
 7022SOL    HW132699   0.260   0.056   3.533 -0.7047 -0.6781 -0.0343
 7022SOL    HW232700   0.231   0.177   3.470 -0.1245 -0.0872 -0.5339
 7023SOL     OW32701   2.283   0.122   5.488 -0.0014 -0.6613  0.1068
 7023SOL    HW132702   2.340   0.187   5.530 -0.1542 -0.6097  0.2357
 7023SOL    HW232703   2.204   0.160   5.526  0.7189  0.0922  0.8779
 7024SOL     OW32704   3.595   2.151   5.013  0.5078  0.2132  0.1848
 7024SOL    HW132705   3.671   2.178   4.962  1.1035 -2.0010 -0.0913
 7024SOL    HW232706   3.596   2.056   5.003  3.6388  0.3720 -0.9232
 7025SOL     OW32707   3.596   0.423   4.104 -0.0786 -0.3898  0.0479
 7025SOL    HW132708   3.526   0.407   4.168 -0.9804 -0.8495 -1.0419
 7025SOL    HW232709   3.568   0.509   4.071  1.6016 -0.0602 -0.5080
 7026SOL     OW32710   3.487   3.853   7.664  0.1590  0.3279 -0.0498
 7026SOL    HW132711   3.571   3.891   7.689 -1.4134  2.6821  1.6770
 7026SOL    HW232712   3.490   3.774   7.718  3.2392  1.8213  1.9476
 7027SOL     OW32713   0.335   2.132   0.491  0.2574  0.8277  0.3962
 7027SOL    HW132714   0.404   2.195   0.510  1.2625  0.0657 -0.6998
 7027SOL    HW232715   0.300   2.171   0.411  1.5781 -0.1255 -0.6586
 7028SOL     OW32716   2.467   1.344  14.596  0.2971 -0.4774  0.5318
 7028SOL    HW132717   2.476   1.433  14.562  0.8636  0.3516  2.8049
 7028SOL    HW232718   2.457   1.373  14.687  1.1185  0.0358  0.4567
 7029SOL     OW32719   3.585   2.410   2.772 -0.2716  0.4560 -0.4994
 7029SOL    HW132720   3.617   2.343   2.712 -2.7609 -1.1423 -0.0504
 7029SOL    HW232721   3.527   2.449   2.706 -1.0712 -0.5619 -0.4116
 7030SOL     OW32722   1.519   0.745  12.111 -0.2732 -0.4587  0.6102
 7030SOL    HW132723   1.600   0.717  12.068 -1.4718  1.0910 -2.6900
 7030SOL    HW232724   1.556   0.749  12.199  0.6557 -1.2745  0.2570
 7031SOL     OW32725   0.152   2.915   1.556  0.0517 -0.6650  0.5582
 7031SOL    HW132726   0.197   2.958   1.484  1.5067 -1.7131  0.8500
 7031SOL    HW232727   0.157   2.988   1.618  1.3574 -0.0092 -0.3145
 7032SOL     OW32728   4.366   3.941   8.485  0.6792 -0.1427 -0.0607
 7032SOL    HW132729   4.419   3.871   8.523  0.4046 -0.1789  0.2535
 7032SOL    HW232730   4.441   3.993   8.456  0.6207  0.6663  1.2308
 7033SOL     OW32731   0.068   3.139  16.557 -0.2478  0.4620  0.2889
 7033SOL    HW132732   0.065   3.224  16.602  3.0103  0.7343 -0.0341
 7033SOL    HW232733   0.129   3.085  16.606  2.8297  2.9549 -0.7867
 7034SOL     OW32734   0.166   2.623   6.416 -0.2283  0.2144 -0.9991
 7034SOL    HW132735   0.100   2.595   6.352 -0.4327 -0.2344 -0.5912
 7034SOL    HW232736   0.107   2.672   6.473  1.6124  0.4132  0.7278
 7035SOL     OW32737   1.469   4.105   8.984  0.2892  0.6038 -0.0998
 7035SOL    HW132738   1.403   4.149   9.037 -1.2468  1.0660 -2.4049
 7035SOL    HW232739   1.544   4.102   9.043 -0.3488 -1.4405  0.6044
 7036SOL     OW32740   4.311   1.360   9.560 -0.0662  0.0248 -0.1071
 7036SOL    HW132741   4.351   1.274   9.550  2.1000  1.2140 -1.4079
 7036SOL    HW232742   4.360   1.394   9.635 -0.2246 -1.1286  0.5222
 7037SOL     OW32743   2.734   1.192  12.041 -0.2489 -0.0152 -0.0295
 7037SOL    HW132744   2.727   1.122  11.976 -1.8167  0.8951 -0.8443
 7037SOL    HW232745   2.794   1.149  12.101 -2.0891 -1.6820  0.6066
 7038SOL     OW32746   3.629   3.110  11.156  0.4931  0.4546  0.3476
 7038SOL    HW132747   3.575   3.136  11.081  1.8289 -1.4486 -1.2828
 7038SOL    HW232748   3.653   3.023  11.124 -0.0347  0.5272 -0.2518
 7039SOL     OW32749   2.486   4.610   6.121  0.6934  0.1796  0.1481
 7039SOL    HW132750   2.498   4.637   6.030 -1.2082 -1.1395 -0.4757
 7039SOL    HW232751   2.549   4.656   6.176  1.0492  0.2927 -0.3485
 7040SOL     OW32752   1.520   0.015   7.843 -0.2215  0.0489 -0.0902
 7040SOL    HW132753   1.573   4.691   7.891  0.1402  0.0703 -0.4592
 7040SOL    HW232754   1.471   4.688   7.796  0.4662  0.5387 -1.4900
 7041SOL     OW32755   1.690   3.537   3.268 -0.2773  0.2992 -0.5303
 7041SOL    HW132756   1.632   3.578   3.332  1.4773  1.9554  0.0279
 7041SOL    HW232757   1.646   3.454   3.253  1.6375 -0.9824  0.8838
 7042SOL     OW32758   3.380   1.297   8.744 -0.4394  0.4834  0.1328
 7042SOL    HW132759   3.377   1.390   8.765  0.2860 -0.3096  3.6140
 7042SOL    HW232760   3.395   1.297   8.649  2.7706 -2.2290  0.6736
 7043SOL     OW32761   0.803   3.347  17.401 -0.0031 -0.3721  0.1257
 7043SOL    HW132762   0.818   3.439  17.377  0.8762 -0.9992 -1.7299
 7043SOL    HW232763   0.871   3.305  17.349  1.1557  0.4415  0.9756
 7044SOL     OW32764   3.832   2.044   7.122  0.3088 -0.1615  0.8258
 7044SOL    HW132765   3.914   2.045   7.172  1.0627  0.4826 -0.4354
 7044SOL    HW232766   3.850   2.101   7.047  0.9789  0.3513  1.3709
 7045SOL     OW32767   0.672   0.456   7.187  0.8139  0.2114 -0.1664
 7045SOL    HW132768   0.677   0.522   7.118  2.2620  0.6378  0.3523
 7045SOL    HW232769   0.754   0.406   7.185 -0.0103 -1.1972  0.9054
 7046SOL     OW32770   4.027   1.949  12.334 -0.4220 -0.0596 -0.7408
 7046SOL    HW132771   4.098   2.013  12.338  2.2359 -2.9251 -2.2706
 7046SOL    HW232772   4.013   1.933  12.427  4.1480 -1.1692 -0.2483
 7047SOL     OW32773   2.325   0.988   2.310 -0.4235 -0.4285 -0.0096
 7047SOL    HW132774   2.264   1.046   2.265  1.0667 -0.4547 -2.0403
 7047SOL    HW232775   2.383   1.051   2.354 -0.3885  0.0763 -0.7860
 7048SOL     OW32776   0.604   3.619   1.502 -0.4337  0.2736 -0.1747
 7048SOL    HW132777   0.630   3.711   1.500 -2.2403  0.8299  1.0720
 7048SOL    HW232778   0.514   3.621   1.468 -0.6296  0.5427  0.3483
 7049SOL     OW32779   3.802   0.255   1.379 -0.5111 -0.1511 -0.8409
 7049SOL    HW132780   3.884   0.304   1.378 -0.9965  0.6851  0.2764
 7049SOL    HW232781   3.734   0.322   1.374  0.1011  0.7323  2.8056
 7050SOL     OW32782   4.628   1.018   2.820 -0.4960  0.1668  0.7231
 7050SOL    HW132783   4.578   1.028   2.902 -3.0555 -2.7169 -0.4854
 7050SOL    HW232784   4.687   1.091   2.839  0.8492 -1.9230  4.5430
 7051SOL     OW32785   3.296   4.322   5.087  0.3606 -0.1937 -0.2971
 7051SOL    HW132786   3.362   4.389   5.106  0.5883 -0.6282  0.4303
 7051SOL    HW232787   3.351   4.244   5.089  0.0472 -0.3373  2.9679
 7052SOL     OW32788   4.465   3.663   0.952 -0.2124  0.1818 -0.5352
 7052SOL    HW132789   4.446   3.740   0.899 -0.1338  0.0884 -0.6995
 7052SOL    HW232790   4.460   3.591   0.890  0.9890 -1.8385  1.7125
 7053SOL     OW32791   2.347   4.216   1.429 -0.5120 -0.0691 -0.0051
 7053SOL    HW132792   2.315   4.135   1.389  0.5223 -0.8765  0.7865
 7053SOL    HW232793   2.398   4.175   1.499 -0.4876  0.2130  0.1428
 7054SOL     OW32794   1.779   2.485   5.209 -0.1556  0.7993 -0.2594
 7054SOL    HW132795   1.745   2.475   5.298 -0.8750 -1.4433 -0.7782
 7054SOL    HW232796   1.823   2.400   5.203 -1.4782  0.0717  0.2461
 7055SOL     OW32797   1.741   2.190   2.874 -0.3389  0.1559 -0.0471
 7055SOL    HW132798   1.798   2.212   2.947 -0.3927  0.4145 -0.0829
 7055SOL    HW232799   1.808   2.167   2.809  0.6974 -0.3185  1.2060
 7056SOL     OW32800   4.400   3.136   3.478 -0.0491 -0.4065 -0.7868
 7056SOL    HW132801   4.386   3.219   3.523  2.9177 -0.6255  0.5353
 7056SOL    HW232802   4.439   3.092   3.553  0.3391 -0.4839 -1.0369
 7057SOL     OW32803   3.504   2.863  16.040 -0.3510  0.0758  0.2966
 7057SOL    HW132804   3.441   2.836  15.974  1.1406 -0.8804 -0.7476
 7057SOL    HW232805   3.512   2.776  16.080  2.2358 -0.5731 -1.6096
 7058SOL     OW32806   0.157   3.370   5.801 -0.4538 -0.2136  0.0057
 7058SOL    HW132807   0.165   3.417   5.718 -1.9752 -1.0021 -0.6036
 7058SOL    HW232808   0.233   3.314   5.812 -0.4534 -0.1058  0.5460
 7059SOL     OW32809   2.689   3.874   6.119  0.4211  0.0348 -0.1684
 7059SOL    HW132810   2.675   3.818   6.043  1.2240 -0.6077  0.1679
 7059SOL    HW232811   2.754   3.936   6.086  2.2354 -1.5927  0.4217
 7060SOL     OW32812   2.320   4.170   2.406  0.4191 -0.0048 -0.6012
 7060SOL    HW132813   2.289   4.081   2.397  1.4907 -0.5941  1.6110
 7060SOL    HW232814   2.265   4.213   2.340 -0.2199 -0.0899 -0.1172
 7061SOL     OW32815   2.100   0.284   7.088  0.0590 -0.0748  0.3490
 7061SOL    HW132816   2.031   0.249   7.143  0.7672  0.4236  1.5521
 7061SOL    HW232817   2.105   0.236   7.005 -0.7078  2.7986 -1.3737
 7062SOL     OW32818   2.573   0.596   5.869 -0.3726 -0.3063  0.0759
 7062SOL    HW132819   2.537   0.665   5.926 -2.2533 -1.1472 -0.0895
 7062SOL    HW232820   2.614   0.539   5.935 -1.4494 -0.8902  0.2364
 7063SOL     OW32821   2.602   2.812   6.888  0.2354 -0.6635 -0.1724
 7063SOL    HW132822   2.514   2.824   6.925 -0.5755  0.6800 -2.5069
 7063SOL    HW232823   2.601   2.717   6.892  0.0549 -0.7272 -1.8787
 7064SOL     OW32824   1.538   1.497   1.602 -1.0612  0.0442  0.2150
 7064SOL    HW132825   1.462   1.453   1.640 -0.6418 -1.2012 -0.4020
 7064SOL    HW232826   1.563   1.560   1.670  2.1372 -0.4283 -0.5350
 7065SOL     OW32827   0.002   0.687  10.171  0.4019  0.7316 -0.0109
 7065SOL    HW132828   4.704   0.749  10.109 -0.3971  0.2271 -0.0219
 7065SOL    HW232829   4.679   0.701  10.240  0.8805  2.9791 -0.0197
 7066SOL     OW32830   3.424   3.266   2.890 -0.1725 -0.3496  0.7064
 7066SOL    HW132831   3.468   3.184   2.913 -0.1033  0.0598  2.0543
 7066SOL    HW232832   3.349   3.240   2.837 -0.8504 -1.1166  2.0309
 7067SOL     OW32833   3.354   2.142  15.832  0.0850  0.3337  0.0386
 7067SOL    HW132834   3.379   2.142  15.925 -1.8870 -0.9754  0.5613
 7067SOL    HW232835   3.302   2.222  15.826 -1.4006 -0.6712 -0.4210
 7068SOL     OW32836   3.318   2.801  15.839 -0.0465  0.2548  0.4742
 7068SOL    HW132837   3.366   2.854  15.775 -1.6916 -0.9079 -1.7097
 7068SOL    HW232838   3.232   2.842  15.828  0.3138  1.2084  1.1865
 7069SOL     OW32839   1.870   4.638   5.675  0.0667  0.0679  0.4601
 7069SOL    HW132840   1.922   4.703   5.721  0.4738 -1.6742  2.4797
 7069SOL    HW232841   1.906   4.627   5.587  0.2055  1.4561  0.3443
 7070SOL     OW32842   4.115   0.388   9.702  0.4285 -0.0846  0.6089
 7070SOL    HW132843   4.046   0.338   9.746 -0.5617  2.3739  1.8878
 7070SOL    HW232844   4.133   0.447   9.775 -0.9016  0.7806  0.2417
 7071SOL     OW32845   4.381   0.312   8.259 -0.0142 -0.6060  0.4526
 7071SOL    HW132846   4.473   0.328   8.237 -0.3584  0.8198  0.0383
 7071SOL    HW232847   4.347   0.385   8.207 -0.1323  0.2975  1.8103
 7072SOL     OW32848   3.912   4.528   9.193  0.2717 -0.3895  0.0667
 7072SOL    HW132849   3.938   4.452   9.141 -0.1250  0.7377 -1.7749
 7072SOL    HW232850   3.987   4.545   9.251 -0.2182 -0.2210  0.6514
 7073SOL     OW32851   2.652   2.560   5.230 -0.1954 -0.0183 -0.0346
 7073SOL    HW132852   2.606   2.491   5.183  0.2269 -0.8544  0.8049
 7073SOL    HW232853   2.696   2.511   5.299  1.6729  0.8737 -0.5904
 7074SOL     OW32854   3.628   2.582   6.253  0.8180 -0.3976  0.0591
 7074SOL    HW132855   3.583   2.649   6.201 -0.4836 -0.1494  1.5115
 7074SOL    HW232856   3.628   2.618   6.342  0.8670  0.0633 -0.1319
 7075SOL     OW32857   0.413   0.538   8.558  0.2789  0.5905  0.5707
 7075SOL    HW132858   0.332   0.587   8.570  0.7119  1.5375 -0.3816
 7075SOL    HW232859   0.437   0.499   8.642 -2.1142 -2.8485 -0.3424
 7076SOL     OW32860   1.713   0.754   7.709 -0.2846  0.6456 -0.0987
 7076SOL    HW132861   1.660   0.793   7.640  1.4650 -0.5528 -2.1215
 7076SOL    HW232862   1.646   0.726   7.771 -0.8276  0.2700 -0.8598
 7077SOL     OW32863   2.560   3.556   1.699  0.1072  0.0570 -0.3392
 7077SOL    HW132864   2.481   3.502   1.695 -0.2573  0.6742 -1.7134
 7077SOL    HW232865   2.608   3.524   1.622 -2.2371  0.8853 -2.1439
 7078SOL     OW32866   0.359   2.089   4.013 -0.0586  0.0271 -0.0419
 7078SOL    HW132867   0.327   2.003   4.042 -0.5062  0.6692  1.3516
 7078SOL    HW232868   0.438   2.087   4.068 -0.4170 -1.7771  0.4277
 7079SOL     OW32869   0.528   2.040   1.074  0.0552 -0.4644  0.1061
 7079SOL    HW132870   0.543   2.053   1.168  0.5218  1.9148 -0.2939
 7079SOL    HW232871   0.455   2.100   1.058 -0.1803 -0.6596  0.4624
 7080SOL     OW32872   3.446   4.521   6.830 -0.2827 -0.0360 -0.0474
 7080SOL    HW132873   3.386   4.468   6.882 -0.6515 -0.4994 -0.9532
 7080SOL    HW232874   3.523   4.535   6.885 -0.7588  1.6136  0.2088
 7081SOL     OW32875   3.511   4.404   2.937 -0.2372  0.8767 -0.3944
 7081SOL    HW132876   3.579   4.400   2.870 -1.2105  2.0280 -1.4531
 7081SOL    HW232877   3.544   4.344   3.004 -2.3777  0.7114  0.4958
 7082SOL     OW32878   3.725   2.253   9.977 -0.0998  0.3052  0.0282
 7082SOL    HW132879   3.736   2.314   9.904 -3.1123 -2.5193 -2.8059
 7082SOL    HW232880   3.807   2.260  10.027 -1.1573  0.1062  1.7810
 7083SOL     OW32881   3.207   1.299   5.099 -0.3009  0.2434  0.1636
 7083SOL    HW132882   3.182   1.378   5.051  0.8300  0.6008  0.1702
 7083SOL    HW232883   3.273   1.335   5.157 -1.6865 -1.9538  3.1437
 7084SOL     OW32884   2.003   0.380   6.136  0.0922  0.2022 -0.2973
 7084SOL    HW132885   2.095   0.386   6.110  0.0979  2.1420  0.1093
 7084SOL    HW232886   1.966   0.360   6.050 -0.0740 -0.2374 -0.1206
 7085SOL     OW32887   1.048   2.425  17.681  0.4344 -0.5080  0.0779
 7085SOL    HW132888   1.031   2.478  17.603 -0.6257  0.5271  1.0162
 7085SOL    HW232889   1.073   2.344  17.635  0.6601 -0.8893  0.8804
 7086SOL     OW32890   1.363   0.833   7.069  0.3500 -0.2996 -0.7292
 7086SOL    HW132891   1.434   0.840   7.006  1.3724 -0.0209  0.4481
 7086SOL    HW232892   1.318   0.751   7.048 -1.3317  0.1200  1.1962
 7087SOL     OW32893   0.145   0.543   9.977  0.1323  0.1155 -0.1154
 7087SOL    HW132894   0.218   0.595  10.011  1.6311 -3.0752  1.5395
 7087SOL    HW232895   0.085   0.525  10.049 -3.8550  0.0766 -3.4796
 7088SOL     OW32896   0.752   1.293  16.926 -0.1120 -0.4638  0.7147
 7088SOL    HW132897   0.812   1.368  16.930 -0.3137 -0.2751  0.2399
 7088SOL    HW232898   0.772   1.264  16.837 -1.6020  2.1393 -0.4760
 7089SOL     OW32899   3.100   4.713   7.413 -0.2423 -0.6538 -0.2574
 7089SOL    HW132900   3.116   4.667   7.495  1.4410 -1.7100 -1.1859
 7089SOL    HW232901   3.181   4.683   7.372  0.2922  1.8690 -1.0520
 7090SOL     OW32902   1.977   2.706  14.077  0.6068  0.1305 -0.6238
 7090SOL    HW132903   1.946   2.616  14.084 -1.2697  0.8475  0.2488
 7090SOL    HW232904   1.990   2.709  13.982  0.5393  3.0220 -0.5369
 7091SOL     OW32905   2.181   0.129   8.724 -0.4067  0.3147 -0.5618
 7091SOL    HW132906   2.102   0.093   8.765 -0.1069  0.5086  0.1907
 7091SOL    HW232907   2.158   0.165   8.638 -0.4146  2.2636  0.2454
 7092SOL     OW32908   0.982   1.527   3.829  0.3123  0.0418 -0.1286
 7092SOL    HW132909   0.935   1.604   3.797  1.0635 -0.5443 -2.5978
 7092SOL    HW232910   0.922   1.458   3.801  1.5572 -1.4045  0.7941
 7093SOL     OW32911   4.088   3.552   4.296 -0.0856 -0.7311  0.1268
 7093SOL    HW132912   4.093   3.461   4.326  0.7827 -1.5125 -2.3352
 7093SOL    HW232913   3.999   3.552   4.261 -0.2048  3.2256  0.3922
 7094SOL     OW32914   0.962   4.574   9.677 -0.5271 -0.0258  0.3772
 7094SOL    HW132915   0.930   4.538   9.760  2.4384 -1.4170  0.9111
 7094SOL    HW232916   0.878   4.589   9.635 -0.7786 -1.2914  0.4147
 7095SOL     OW32917   3.053   0.704  16.359 -0.2141 -0.0313 -0.1113
 7095SOL    HW132918   3.097   0.692  16.275 -0.5159 -0.4378 -0.2085
 7095SOL    HW232919   3.059   0.799  16.364  1.2924 -0.2414  2.4926
 7096SOL     OW32920   1.588   3.907   6.831 -0.3012  0.4877  0.3032
 7096SOL    HW132921   1.590   3.858   6.913 -1.4918 -0.0349  0.0163
 7096SOL    HW232922   1.679   3.896   6.805 -1.0705 -1.5938 -1.5138
 7097SOL     OW32923   0.126   1.069   3.517  0.3260 -0.2089  0.3482
 7097SOL    HW132924   0.144   1.008   3.446  1.8400 -0.6220  1.0907
 7097SOL    HW232925   0.032   1.056   3.529  0.4248 -1.7529 -0.5579
 7098SOL     OW32926   1.289   1.399   1.659 -0.1330  0.1150 -0.0889
 7098SOL    HW132927   1.244   1.398   1.743 -0.8932  1.3448 -0.4804
 7098SOL    HW232928   1.229   1.437   1.595  0.1504 -0.8901 -0.9586
 7099SOL     OW32929   0.595   0.378   3.970 -0.2982  0.1291  0.3208
 7099SOL    HW132930   0.634   0.406   4.053  1.0236  0.6674 -0.4874
 7099SOL    HW232931   0.512   0.423   3.982  1.7286  3.9409 -0.1185
 7100SOL     OW32932   4.685   3.579  16.574  0.1110 -0.4102  0.1721
 7100SOL    HW132933   4.690   3.600  16.481 -1.7857  1.0882  0.3974
 7100SOL    HW232934   4.737   3.648  16.615  0.0893 -1.4277  1.9160
 7101SOL     OW32935   4.514   1.520  12.543 -0.1311  0.5479 -0.5690
 7101SOL    HW132936   4.517   1.441  12.488  1.8756  1.7630 -2.2378
 7101SOL    HW232937   4.537   1.496  12.633  1.9871  1.3514 -0.8743
 7102SOL     OW32938   3.883   0.209   6.708  0.0858 -0.2477 -0.3763
 7102SOL    HW132939   3.821   0.253   6.650 -0.2103  1.1286  0.9654
 7102SOL    HW232940   3.948   0.193   6.640 -0.2346 -0.9095 -0.5186
 7103SOL     OW32941   0.596   1.742   1.368 -0.2048  0.3998  0.1497
 7103SOL    HW132942   0.660   1.708   1.305 -1.6123 -0.6407 -0.7075
 7103SOL    HW232943   0.653   1.779   1.436 -0.7064  1.1339  0.1577
 7104SOL     OW32944   0.690   4.042   6.228  0.2548 -0.0501  0.3919
 7104SOL    HW132945   0.664   3.955   6.196 -1.9505  1.0039 -0.6739
 7104SOL    HW232946   0.641   4.045   6.310 -2.3832  0.3919 -1.2037
 7105SOL     OW32947   0.706   4.306   2.747  0.2463 -0.3943  0.1180
 7105SOL    HW132948   0.700   4.342   2.836  1.8749  2.0033 -0.7534
 7105SOL    HW232949   0.796   4.274   2.747  0.5691  0.4613  3.4066
 7106SOL     OW32950   3.915   4.523   2.793  0.1610  0.2285  0.2403
 7106SOL    HW132951   3.988   4.470   2.762 -0.8481  0.8038 -3.0488
 7106SOL    HW232952   3.840   4.468   2.769  1.0430 -1.2234  0.7965
 7107SOL     OW32953   0.443   1.280  17.330 -1.8899 -0.2576  0.2730
 7107SOL    HW132954   0.382   1.212  17.300  1.4046 -5.1054  4.3308
 7107SOL    HW232955   0.405   1.358  17.290 -0.7126  0.5427  0.7246
 7108SOL     OW32956   3.218   3.854   8.620  0.2579 -0.1096 -0.4404
 7108SOL    HW132957   3.198   3.918   8.552 -1.9492  2.8643  3.0147
 7108SOL    HW232958   3.267   3.907   8.683 -1.7232  2.8903 -1.4359
 7109SOL     OW32959   2.077   1.518   4.272 -0.0067 -0.0417  0.2405
 7109SOL    HW132960   1.988   1.523   4.238  0.7061 -0.5182 -1.6931
 7109SOL    HW232961   2.127   1.492   4.195 -0.2261  1.1212 -0.2943
 7110SOL     OW32962   0.128   0.868   2.012 -0.0651  0.5996  0.0372
 7110SOL    HW132963   0.116   0.775   1.995 -1.8623  0.8516 -0.0701
 7110SOL    HW232964   0.061   0.883   2.079 -1.6915 -1.2571 -1.1836
 7111SOL     OW32965   2.813   1.270   8.486 -0.5776  0.6477  0.0318
 7111SOL    HW132966   2.781   1.222   8.562  0.7334 -0.3828 -0.0663
 7111SOL    HW232967   2.833   1.194   8.431  1.3477  0.5275  0.9112
 7112SOL     OW32968   2.530   4.053   6.564  0.0654  0.3794  0.6051
 7112SOL    HW132969   2.491   4.125   6.612  0.3901  1.3933 -0.6407
 7112SOL    HW232970   2.602   4.101   6.523 -1.0802  1.0045 -0.6649
 7113SOL     OW32971   2.591   1.327   5.446  0.3976  0.4259 -0.8775
 7113SOL    HW132972   2.647   1.258   5.411  0.8219 -0.4129  1.4653
 7113SOL    HW232973   2.598   1.324   5.541 -0.3654  2.3239 -0.7624
 7114SOL     OW32974   3.602   0.426  10.713 -0.1103 -0.4845  0.0298
 7114SOL    HW132975   3.549   0.376  10.775  0.0500 -3.6211 -2.3170
 7114SOL    HW232976   3.540   0.497  10.698  2.7776  2.2806  1.1538
 7115SOL     OW32977   1.035   1.486   4.112  0.1744 -0.0706  0.1916
 7115SOL    HW132978   1.127   1.503   4.133  0.5673 -0.9156 -0.8272
 7115SOL    HW232979   1.039   1.481   4.017 -0.9450 -2.8744  0.3020
 7116SOL     OW32980   4.686   2.976   1.148  0.5242  0.8111  0.7178
 7116SOL    HW132981   4.666   2.994   1.240  0.8341 -1.5094  1.2399
 7116SOL    HW232982   4.597   2.978   1.114  0.6869  1.1037  0.3100
 7117SOL     OW32983   1.908   0.006   9.235  0.6659  0.0925 -0.5414
 7117SOL    HW132984   1.986   0.027   9.286 -0.5682  1.7385  0.6243
 7117SOL    HW232985   1.871   0.094   9.236  2.4464  0.8305  1.5981
 7118SOL     OW32986   1.226   4.688   8.536  0.0489 -0.1741  0.1756
 7118SOL    HW132987   1.204   4.649   8.620  1.9408 -3.0928 -0.6761
 7118SOL    HW232988   1.137   4.690   8.501 -0.3362 -4.1903  0.9360
 7119SOL     OW32989   3.147   0.809   1.948 -0.2947  0.1374  0.2268
 7119SOL    HW132990   3.172   0.747   2.018  1.0716 -0.9799 -1.2529
 7119SOL    HW232991   3.051   0.810   1.949 -0.3154 -2.1053  2.1288
 7120SOL     OW32992   3.604   2.326  10.519  0.2122  0.0214 -0.2979
 7120SOL    HW132993   3.539   2.261  10.493 -1.2872  1.5663 -0.3742
 7120SOL    HW232994   3.656   2.322  10.439 -0.7723  3.4247 -1.1146
 7121SOL     OW32995   3.736   3.727  11.023 -0.6202 -0.0564 -0.4684
 7121SOL    HW132996   3.739   3.634  11.045  4.0447  0.0681 -0.4798
 7121SOL    HW232997   3.648   3.758  11.042 -0.4372 -0.0655  0.3875
 7122SOL     OW32998   1.869   4.217   4.792  0.1614 -0.4184  0.3722
 7122SOL    HW132999   1.799   4.279   4.771  0.4681 -0.5043 -0.9544
 7122SOL    HW233000   1.837   4.179   4.873  0.9605  3.3058  2.4603
 7123SOL     OW33001   1.347   4.154   5.758  0.1141 -0.0590 -0.6793
 7123SOL    HW133002   1.399   4.194   5.828 -2.5359 -0.2422  1.3844
 7123SOL    HW233003   1.272   4.212   5.758  1.3053  1.4810  0.1251
 7124SOL     OW33004   4.450   3.576   3.846  0.1458  0.4742 -0.2742
 7124SOL    HW133005   4.507   3.510   3.808  0.0431  2.3484 -3.7268
 7124SOL    HW233006   4.392   3.518   3.895  0.0711  1.1312  0.4228
 7125SOL     OW33007   4.082   1.509  16.581 -0.0583  0.2373  0.1362
 7125SOL    HW133008   4.115   1.422  16.605  0.3002  0.3629  0.1000
 7125SOL    HW233009   4.023   1.528  16.654 -0.2455  1.6200 -0.3671
 7126SOL     OW33010   3.782   2.057   5.420 -0.2510 -0.0198 -0.8352
 7126SOL    HW133011   3.724   1.985   5.396  1.3111 -1.7872  0.6800
 7126SOL    HW233012   3.859   2.030   5.369 -0.3918 -0.7665 -0.6475
 7127SOL     OW33013   1.250   2.481   1.881 -0.0514 -0.1006 -0.6589
 7127SOL    HW133014   1.171   2.532   1.901 -0.7787 -1.3681 -0.2900
 7127SOL    HW233015   1.242   2.410   1.945  0.0650  0.4676 -0.0020
 7128SOL     OW33016   0.539   3.468   8.890 -0.2805  0.1471  0.0550
 7128SOL    HW133017   0.580   3.395   8.844 -1.1459  0.0731 -0.6006
 7128SOL    HW233018   0.459   3.429   8.925  0.4145 -0.3291  1.1065
 7129SOL     OW33019   3.167   0.546   8.221 -0.3324  0.2159  0.1048
 7129SOL    HW133020   3.214   0.474   8.178 -1.8818  0.1047 -1.3783
 7129SOL    HW233021   3.233   0.611   8.244  1.7800 -1.6653 -0.5732
 7130SOL     OW33022   1.524   2.234   1.869  0.3352  0.1251 -0.2627
 7130SOL    HW133023   1.532   2.204   1.779 -1.2081  2.4939 -1.1847
 7130SOL    HW233024   1.595   2.296   1.882  1.7619 -1.3545 -1.0867
 7131SOL     OW33025   2.819   3.408  16.607 -0.1569 -0.4196  0.6661
 7131SOL    HW133026   2.757   3.413  16.680 -2.4135  2.3262 -1.4480
 7131SOL    HW233027   2.823   3.314  16.592 -1.6265 -0.2613 -0.6607
 7132SOL     OW33028   3.162   2.538   6.275  0.6459 -0.0342  0.4264
 7132SOL    HW133029   3.069   2.556   6.264  1.0054  1.3402 -0.3175
 7132SOL    HW233030   3.178   2.570   6.186  1.0314  0.4055  0.6554
 7133SOL     OW33031   1.824   3.564   7.933  0.1964 -0.1248 -0.2014
 7133SOL    HW133032   1.751   3.607   7.976 -0.5534  1.1135 -2.7233
 7133SOL    HW233033   1.782   3.534   7.852 -1.2268 -0.9245  0.8590
 7134SOL     OW33034   2.006   3.278   5.988 -0.3892  0.4009  0.0687
 7134SOL    HW133035   1.988   3.262   6.081 -1.1679  0.9691  0.0178
 7134SOL    HW233036   2.101   3.273   5.991 -0.3843  0.2461 -0.3600
 7135SOL     OW33037   1.060   0.497  14.472  0.5515 -0.0095  0.8338
 7135SOL    HW133038   1.134   0.557  14.482  0.9286 -0.5863  1.5471
 7135SOL    HW233039   1.104   0.420  14.436 -0.8605 -0.5186  0.2151
 7136SOL     OW33040   2.107   2.915   7.212  0.2885 -0.5326 -0.0882
 7136SOL    HW133041   2.195   2.882   7.196  0.6341  0.3904 -0.1397
 7136SOL    HW233042   2.097   2.898   7.305 -1.9451  1.4493  0.0316
 7137SOL     OW33043   4.114   4.360   4.408  0.2254 -0.1655 -0.0090
 7137SOL    HW133044   4.146   4.297   4.344  3.6555 -0.3673  1.8916
 7137SOL    HW233045   4.066   4.300   4.465 -1.0986  0.7704 -0.1317
 7138SOL     OW33046   4.722   0.826   7.360  0.2026  0.0577 -0.3915
 7138SOL    HW133047   4.723   0.913   7.401  0.5152  1.1235 -2.6780
 7138SOL    HW233048   0.075   0.808   7.360 -0.3518 -2.8606  2.3665
 7139SOL     OW33049   0.895   4.052   7.776  0.3799 -0.3282  0.1892
 7139SOL    HW133050   0.845   4.134   7.783 -0.5861 -0.7576 -1.6538
 7139SOL    HW233051   0.837   3.990   7.821  1.7811 -0.7526  1.3926
 7140SOL     OW33052   4.582   1.127   1.332  0.2247 -0.1492  0.4074
 7140SOL    HW133053   4.630   1.153   1.411 -1.2876 -2.3319  2.0449
 7140SOL    HW233054   4.587   1.208   1.282  0.7961  0.5949  1.6642
 7141SOL     OW33055   1.672   1.198   3.870  1.0998  0.1049  0.0194
 7141SOL    HW133056   1.713   1.284   3.879 -0.0848  0.6897 -0.0591
 7141SOL    HW233057   1.728   1.153   3.808  1.1742 -1.4609  1.2225
 7142SOL     OW33058   1.381   1.968  17.218  0.0528  0.3101  0.4078
 7142SOL    HW133059   1.374   1.992  17.310  2.1124 -0.1731  0.6811
 7142SOL    HW233060   1.327   1.889  17.215  1.4463 -0.6562  0.9080
 7143SOL     OW33061   2.615   3.689   8.589 -0.0082 -0.4088  0.4699
 7143SOL    HW133062   2.655   3.668   8.505 -2.6616 -1.3862 -0.5630
 7143SOL    HW233063   2.608   3.604   8.632 -1.6402 -0.3272  0.3705
 7144SOL     OW33064   3.832   2.263   4.031 -0.1560  0.0685 -0.6642
 7144SOL    HW133065   3.846   2.226   3.943 -0.6876 -0.6945 -0.4227
 7144SOL    HW233066   3.910   2.232   4.078 -1.5233 -1.7812  0.3736
 7145SOL     OW33067   3.619   1.905   2.088  0.1190  0.0258 -0.0344
 7145SOL    HW133068   3.530   1.940   2.100 -0.2714 -1.7786  2.3099
 7145SOL    HW233069   3.597   1.823   2.044  2.4263 -0.1943 -0.7599
 7146SOL     OW33070   0.492   3.332   3.024  0.1091 -0.2536 -0.1501
 7146SOL    HW133071   0.530   3.392   3.089 -0.1430 -0.1297 -0.1167
 7146SOL    HW233072   0.399   3.352   3.027 -0.1640 -1.4875 -0.6401
 7147SOL     OW33073   1.146   3.336   6.005  0.5373 -0.3053  0.1147
 7147SOL    HW133074   1.085   3.315   5.934  1.0466  1.1685 -0.7672
 7147SOL    HW233075   1.214   3.270   5.989  0.4641 -0.2690 -0.3593
 7148SOL     OW33076   2.328   0.203  15.300 -0.4116 -0.4898 -0.3082
 7148SOL    HW133077   2.383   0.125  15.294  1.8614  1.0881 -0.0875
 7148SOL    HW233078   2.351   0.249  15.381  1.4585  0.7469 -1.5330
 7149SOL     OW33079   3.994   4.625  11.061  0.2548  0.2800  0.5918
 7149SOL    HW133080   3.911   4.577  11.054  1.3277 -1.1959 -2.2178
 7149SOL    HW233081   3.970   4.697  11.003  3.6881  0.5221 -0.5157
 7150SOL     OW33082   4.635   0.426  11.220 -0.8824  0.3340 -0.1534
 7150SOL    HW133083   4.568   0.398  11.157  0.1024 -3.3755  0.4108
 7150SOL    HW233084   4.717   0.415  11.173 -0.1459 -0.2447  1.2833
 7151SOL     OW33085   1.200   3.774   7.435  0.2312 -0.4404 -0.1199
 7151SOL    HW133086   1.169   3.785   7.345  1.2727 -2.5583 -0.7409
 7151SOL    HW233087   1.166   3.858   7.465 -0.8457 -0.8652 -0.1580
 7152SOL     OW33088   0.281   3.864   5.463 -0.2552  0.2519  0.0260
 7152SOL    HW133089   0.290   3.914   5.545  0.4649 -0.9528  0.6820
 7152SOL    HW233090   0.368   3.865   5.422 -1.4035  2.2783 -2.3513
 7153SOL     OW33091   1.963   2.499  15.029 -0.1238 -0.0230  0.1702
 7153SOL    HW133092   1.896   2.474  15.092  2.2185 -0.8705  2.3387
 7153SOL    HW233093   2.033   2.514  15.093  0.8569  0.4752 -1.0174
 7154SOL     OW33094   3.714   1.108   9.709 -0.3898 -0.2979 -0.2493
 7154SOL    HW133095   3.745   1.192   9.744  0.1731 -1.4518  2.0440
 7154SOL    HW233096   3.778   1.054   9.755 -0.5518  0.0503  0.3899
 7155SOL     OW33097   2.304   0.964   1.314 -0.4601 -0.4019 -0.3474
 7155SOL    HW133098   2.257   0.913   1.379  0.5156 -1.3788 -0.4191
 7155SOL    HW233099   2.252   1.045   1.314  0.4263  0.1711 -0.1460
 7156SOL     OW33100   1.749   4.123  17.233 -0.4214  0.7001  0.0003
 7156SOL    HW133101   1.805   4.188  17.191 -0.0688  2.5790  3.4504
 7156SOL    HW233102   1.801   4.043  17.223 -2.0642 -0.3271 -0.5446
 7157SOL     OW33103   0.709   2.504   0.553 -0.3238 -0.4089 -0.2899
 7157SOL    HW133104   0.792   2.546   0.531 -0.4578  0.9169  1.6973
 7157SOL    HW233105   0.702   2.428   0.496  1.5474 -1.7723  1.3339
 7158SOL     OW33106   4.564   4.013  12.627 -0.0618  0.2530 -0.2581
 7158SOL    HW133107   4.612   4.090  12.657 -1.5913  0.7514  0.9291
 7158SOL    HW233108   4.578   4.026  12.533  2.7172 -0.1635  0.1196
 7159SOL     OW33109   4.436   1.370   7.936  0.2664  0.0604 -0.9012
 7159SOL    HW133110   4.491   1.293   7.956  1.4584  0.9379 -0.7905
 7159SOL    HW233111   4.491   1.406   7.866  0.6025  1.7841  0.2692
 7160SOL     OW33112   2.061   2.574   2.371  0.0633  0.6839  0.7386
 7160SOL    HW133113   2.076   2.631   2.446 -0.9487  2.7368 -0.6089
 7160SOL    HW233114   1.985   2.525   2.399 -0.2912  1.4038  1.0499
 7161SOL     OW33115   1.904   0.899   7.850 -0.5404 -0.3791  0.1869
 7161SOL    HW133116   1.947   0.936   7.773 -1.6473  0.9044  0.1839
 7161SOL    HW233117   1.842   0.834   7.815  0.6739 -0.9152 -0.9723
 7162SOL     OW33118   3.524   3.987   4.722  0.5893  0.6440 -0.1691
 7162SOL    HW133119   3.475   3.951   4.648 -1.1669  4.4546 -0.8561
 7162SOL    HW233120   3.525   4.079   4.695  1.1540  0.4889 -0.6855
 7163SOL     OW33121   0.598   1.934   4.837  0.3385 -0.2758 -0.0746
 7163SOL    HW133122   0.682   1.924   4.883  0.8994 -0.5413 -1.1545
 7163SOL    HW233123   0.623   1.935   4.745 -2.0721 -1.6688 -0.7336
 7164SOL     OW33124   3.216   1.642   2.655  0.1830  0.0940  0.8540
 7164SOL    HW133125   3.217   1.548   2.640  5.0671  0.0280  1.5862
 7164SOL    HW233126   3.171   1.679   2.580  1.0802  1.0234  0.7640
 7165SOL     OW33127   4.500   0.622   7.379  0.0473  0.4293  0.0001
 7165SOL    HW133128   4.433   0.555   7.365 -1.5653  1.8497  0.9230
 7165SOL    HW233129   4.557   0.566   7.432  0.5775 -0.0568 -1.0763
 7166SOL     OW33130   0.190   2.672   0.372 -0.4685 -0.5563 -0.1581
 7166SOL    HW133131   0.271   2.630   0.400  0.0015  1.5281  1.6142
 7166SOL    HW233132   0.227   2.719   0.298 -0.5499 -0.6100 -0.2329
 7167SOL     OW33133   4.450   4.545   5.813  0.0322 -0.0967 -0.5064
 7167SOL    HW133134   4.462   4.452   5.833 -2.3183 -0.4907 -0.8934
 7167SOL    HW233135   4.458   4.583   5.900  0.4274  1.3955 -1.1884
 7168SOL     OW33136   0.864   0.735  10.005 -0.3131 -0.6075 -0.0534
 7168SOL    HW133137   0.931   0.681   9.963  0.9416  2.2320 -1.7497
 7168SOL    HW233138   0.821   0.674  10.064 -1.1704  0.6612  0.6326
 7169SOL     OW33139   4.345   2.981   6.156  0.1132  0.3944  0.2266
 7169SOL    HW133140   4.263   2.952   6.116 -0.3775 -0.0994  1.5965
 7169SOL    HW233141   4.398   2.985   6.077 -1.7460  0.8143 -1.0106
 7170SOL     OW33142   0.199   3.486  14.219 -0.5675 -0.3156 -0.4840
 7170SOL    HW133143   0.107   3.468  14.240 -1.5154  1.9502 -2.7881
 7170SOL    HW233144   0.186   3.580  14.207 -0.0479 -0.1097  0.5188
 7171SOL     OW33145   2.545   1.614   6.799  0.1355 -0.0950  0.1174
 7171SOL    HW133146   2.524   1.579   6.712  0.2611 -2.1796  0.9354
 7171SOL    HW233147   2.462   1.661   6.811  1.0300  1.4098  0.3485
 7172SOL     OW33148   1.406   1.924   5.067 -0.4498  0.0735 -0.5169
 7172SOL    HW133149   1.323   1.971   5.069 -0.8157 -0.5282 -1.4273
 7172SOL    HW233150   1.381   1.838   5.034 -0.2498  0.0683 -0.6520
 7173SOL     OW33151   0.377   0.668   1.671  0.4937  0.0226 -0.1973
 7173SOL    HW133152   0.345   0.657   1.582 -1.8000 -1.2973  0.8014
 7173SOL    HW233153   0.471   0.649   1.667  0.2134 -1.2771 -0.3766
 7174SOL     OW33154   0.626   3.266  11.636  0.2894  0.0401  0.3611
 7174SOL    HW133155   0.636   3.329  11.564  1.3932  0.4476  0.8712
 7174SOL    HW233156   0.532   3.250  11.630  0.2311  0.4657  0.1371
 7175SOL     OW33157   2.377   4.462  13.949 -0.1563 -0.6516  0.6794
 7175SOL    HW133158   2.364   4.428  14.037  4.2142 -0.5525  1.3452
 7175SOL    HW233159   2.471   4.456  13.934 -0.5017 -1.1004 -1.4078
 7176SOL     OW33160   4.666   0.114   7.970  0.0726  0.0086 -0.2315
 7176SOL    HW133161   4.692   0.194   7.925  0.5482  0.9502  1.6806
 7176SOL    HW233162   4.680   0.046   7.905 -2.3782  2.7925 -3.6366
 7177SOL     OW33163   1.522   1.921   6.674 -0.6800  0.3392 -0.5566
 7177SOL    HW133164   1.525   1.932   6.579 -4.0514 -0.5068 -0.7619
 7177SOL    HW233165   1.598   1.976   6.693 -1.4207  0.6865  1.4359
 7178SOL     OW33166   1.808   1.331   3.226  0.0953  0.2680  0.0568
 7178SOL    HW133167   1.786   1.238   3.227  0.7856  0.1513  2.6549
 7178SOL    HW233168   1.854   1.345   3.143  0.8308  0.6915  0.5393
 7179SOL     OW33169   2.961   1.153   5.189  0.2067 -0.5319  0.0405
 7179SOL    HW133170   2.993   1.185   5.273  1.2010  0.3697 -0.6893
 7179SOL    HW233171   3.029   1.184   5.129  0.6060 -2.3885 -0.4698
 7180SOL     OW33172   4.193   3.381   1.466  0.3181 -0.3567 -0.6807
 7180SOL    HW133173   4.250   3.319   1.510 -1.8359  0.0305  2.6714
 7180SOL    HW233174   4.250   3.412   1.395 -0.9830 -2.1080 -2.5005
 7181SOL     OW33175   2.593   3.768   4.350  0.1066 -0.2824 -0.5873
 7181SOL    HW133176   2.619   3.733   4.265  1.3611  0.1616 -0.3915
 7181SOL    HW233177   2.654   3.719   4.406  1.2355  1.3121 -0.4287
 7182SOL     OW33178   2.636   2.234   3.009 -0.5176  0.5632 -0.0505
 7182SOL    HW133179   2.615   2.158   2.954  0.1141 -0.0856  0.6120
 7182SOL    HW233180   2.605   2.210   3.096  1.8190 -0.0866  0.5991
 7183SOL     OW33181   2.502   0.819   6.113  0.3403  0.3828  0.0949
 7183SOL    HW133182   2.507   0.907   6.152  0.7361 -1.1033  3.4154
 7183SOL    HW233183   2.438   0.843   6.046  0.6001 -2.3931 -1.1150
 7184SOL     OW33184   0.667   4.373   3.205 -0.8794 -0.1788 -0.2371
 7184SOL    HW133185   0.597   4.436   3.186  1.0378  1.6043 -1.2795
 7184SOL    HW233186   0.677   4.396   3.297 -1.0741  0.9390 -0.4962
 7185SOL     OW33187   2.617   0.185   4.465  0.0983  0.0651 -0.4819
 7185SOL    HW133188   2.671   0.196   4.387  0.8407 -0.8025 -0.0893
 7185SOL    HW233189   2.644   0.259   4.520  1.5695  0.3269 -1.5714
 7186SOL     OW33190   0.617   0.474   7.496 -0.0255  0.5225 -0.6377
 7186SOL    HW133191   0.647   0.471   7.404 -1.2091  0.4922 -1.0164
 7186SOL    HW233192   0.633   0.567   7.510 -2.1926  0.9471 -0.9744
 7187SOL     OW33193   1.238   3.898   1.580  0.4261 -0.0595  0.0023
 7187SOL    HW133194   1.273   3.975   1.626  2.3437 -0.5781 -0.5774
 7187SOL    HW233195   1.170   3.937   1.525 -0.1889 -0.8465  0.2025
 7188SOL     OW33196   3.000   1.612   1.961 -0.2893  0.1308 -0.1663
 7188SOL    HW133197   3.038   1.524   1.963  0.3840  0.4476  0.7932
 7188SOL    HW233198   3.073   1.671   1.945  0.0376 -0.0340  0.7763
 7189SOL     OW33199   2.330   2.665   5.360 -0.3638 -0.6196 -0.1856
 7189SOL    HW133200   2.305   2.647   5.451  0.7684  1.6307  0.5652
 7189SOL    HW233201   2.252   2.644   5.310  0.4451 -1.7292 -0.9837
 7190SOL     OW33202   0.976   2.069   1.935  0.7106  0.2633  0.2112
 7190SOL    HW133203   1.057   2.018   1.927 -0.1922 -1.1839  0.3440
 7190SOL    HW233204   0.919   2.008   1.888  1.1680  1.2561 -1.6366
 7191SOL     OW33205   1.767   1.142  15.083  0.5019  0.0620  0.6214
 7191SOL    HW133206   1.789   1.104  15.168  1.5562 -1.6224 -0.3978
 7191SOL    HW233207   1.841   1.104  15.035 -0.7975 -1.5509 -0.1118
 7192SOL     OW33208   4.217   4.021   6.862  0.1196  0.2431  0.1067
 7192SOL    HW133209   4.288   4.062   6.911 -0.4847 -0.9016  1.9699
 7192SOL    HW233210   4.259   4.011   6.777  0.3216 -1.2786  0.3819
 7193SOL     OW33211   1.901   2.892  11.087 -0.4967  0.1453 -0.2851
 7193SOL    HW133212   1.921   2.923  11.175 -2.3512  0.2005  0.1293
 7193SOL    HW233213   1.848   2.965  11.053  0.0821  0.0668 -1.3478
 7194SOL     OW33214   2.656   0.092  10.884  0.1212 -0.3297  0.1917
 7194SOL    HW133215   2.728   0.068  10.827  1.2041  0.9119  1.0397
 7194SOL    HW233216   2.698   0.096  10.970  2.6489 -0.1984 -1.0538
 7195SOL     OW33217   1.614   3.947   4.824  0.2485 -0.2458  0.0162
 7195SOL    HW133218   1.675   3.933   4.752 -1.1986  2.0299 -1.6215
 7195SOL    HW233219   1.534   3.926   4.777  0.1375  0.3199 -0.0443
 7196SOL     OW33220   2.150   3.879   4.693  0.5574 -0.1537  0.0070
 7196SOL    HW133221   2.182   3.808   4.637 -2.4692 -2.2881  0.9595
 7196SOL    HW233222   2.106   3.945   4.641 -0.9460 -1.6125 -0.5819
 7197SOL     OW33223   1.285   1.275   2.527 -0.2707 -0.0267  0.6854
 7197SOL    HW133224   1.238   1.342   2.578  1.7720  1.6710  0.3521
 7197SOL    HW233225   1.348   1.317   2.469  1.6826  0.6217  3.2778
 7198SOL     OW33226   0.788   2.971   2.983  0.4004 -0.3765  0.6239
 7198SOL    HW133227   0.756   3.044   2.932 -3.5055 -1.2532  1.8406
 7198SOL    HW233228   0.775   2.903   2.918  0.2180 -0.1059  0.3795
 7199SOL     OW33229   2.407   2.809   2.065 -0.1915 -0.3869 -0.3994
 7199SOL    HW133230   2.495   2.771   2.065 -0.2690 -0.5749 -0.6784
 7199SOL    HW233231   2.400   2.865   2.142  0.4944 -0.3051 -0.4015
 7200SOL     OW33232   0.301   0.210   7.316  0.3857  0.3345 -0.5021
 7200SOL    HW133233   0.232   0.251   7.262 -1.1177 -1.1396  0.2851
 7200SOL    HW233234   0.377   0.227   7.260 -0.0362 -0.6465 -1.3696
 7201SOL     OW33235   4.420   4.011  10.019  0.8680 -0.1983  0.1680
 7201SOL    HW133236   4.422   4.077  10.088 -1.2214 -0.6619  0.6917
 7201SOL    HW233237   4.397   3.939  10.077  0.9888  1.1905  1.9549
 7202SOL     OW33238   3.233   0.810  12.073  0.7738  0.1863 -0.6980
 7202SOL    HW133239   3.249   0.855  11.990  0.1106 -1.3110 -1.6579
 7202SOL    HW233240   3.185   0.733  12.039  0.8049 -0.7135  1.3230
 7203SOL     OW33241   2.305   2.510   2.250 -0.0407  0.2304  0.0685
 7203SOL    HW133242   2.220   2.546   2.276 -0.1686  0.0288 -0.0644
 7203SOL    HW233243   2.355   2.540   2.325 -1.0252  0.9501  0.4354
 7204SOL     OW33244   4.431   1.006  11.561 -0.2171 -0.0310  0.8706
 7204SOL    HW133245   4.496   0.963  11.506  1.9176  1.7557  2.0131
 7204SOL    HW233246   4.370   0.935  11.583  1.4807 -2.1763 -1.3151
 7205SOL     OW33247   2.347   0.616   9.867 -0.2145 -0.6791  0.1545
 7205SOL    HW133248   2.313   0.618   9.956  0.3501  0.3669  0.3460
 7205SOL    HW233249   2.298   0.537   9.845  0.1444 -1.0060  0.5220
 7206SOL     OW33250   3.413   3.813   2.479 -0.0835  0.0410 -0.3707
 7206SOL    HW133251   3.413   3.727   2.521 -2.3469  1.0274  1.6345
 7206SOL    HW233252   3.452   3.786   2.395 -1.1530 -2.1926 -0.1603
 7207SOL     OW33253   3.573   0.969   9.952  0.8080 -0.1828  0.3148
 7207SOL    HW133254   3.491   0.942   9.910 -0.3537  1.6400  1.4460
 7207SOL    HW233255   3.631   0.954   9.876  1.1426 -1.5501  0.8370
 7208SOL     OW33256   2.464   4.723  12.156  0.1194 -0.7549  0.1493
 7208SOL    HW133257   2.525   0.051  12.182  1.2443 -2.0146  0.8136
 7208SOL    HW233258   2.519   4.648  12.135 -0.6424 -1.0574 -0.8053
 7209SOL     OW33259   2.625   2.623  13.488  0.0268 -0.4346  0.0401
 7209SOL    HW133260   2.598   2.713  13.503  1.8082  0.1395 -0.2183
 7209SOL    HW233261   2.581   2.611  13.404  1.0052 -2.6379 -0.1659
 7210SOL     OW33262   0.476   0.765   9.954  0.6079  0.0771 -0.1097
 7210SOL    HW133263   0.390   0.791   9.988  0.7886 -0.3617  0.6933
 7210SOL    HW233264   0.530   0.843   9.963  2.1203 -1.2875  2.5641
 7211SOL     OW33265   3.183   1.907   7.611 -0.2990  0.0381  0.6358
 7211SOL    HW133266   3.212   1.906   7.520 -0.5854  1.3873  0.5358
 7211SOL    HW233267   3.178   1.813   7.632  1.1170 -0.8253 -2.9511
 7212SOL     OW33268   3.603   0.023   9.414 -0.2380 -0.3231  0.2185
 7212SOL    HW133269   3.614   4.671   9.390 -0.2560 -0.3396  0.2730
 7212SOL    HW233270   3.582   0.071   9.334  0.5301 -1.7101 -0.8211
 7213SOL     OW33271   4.015   2.668   7.875  0.1703 -0.6144  0.1550
 7213SOL    HW133272   4.079   2.737   7.858 -2.8451  2.0109 -0.4330
 7213SOL    HW233273   3.983   2.632   7.793  0.0590 -1.6676  0.6667
 7214SOL     OW33274   3.226   0.652  13.805 -0.0240 -0.0684  0.4011
 7214SOL    HW133275   3.242   0.741  13.836  0.9614 -0.3406  0.6713
 7214SOL    HW233276   3.132   0.637  13.811 -0.3858  2.8881  1.9602
 7215SOL     OW33277   4.110   3.832   3.061  0.0693 -0.0357  0.4364
 7215SOL    HW133278   4.150   3.772   3.123  1.4463  0.7654  0.3367
 7215SOL    HW233279   4.176   3.902   3.055 -0.9597  1.0225  1.4927
 7216SOL     OW33280   1.997   4.603   7.687 -0.7851 -0.1370 -0.0233
 7216SOL    HW133281   1.912   4.617   7.644  0.4431  0.4606 -2.2403
 7216SOL    HW233282   1.970   4.625   7.776  1.7598 -2.3606  1.3055
 7217SOL     OW33283   4.695   4.330   1.120  0.1886  0.6700 -0.2908
 7217SOL    HW133284   4.725   4.404   1.173  1.1594 -0.0298  0.1335
 7217SOL    HW233285   0.011   4.343   1.044  1.2645  2.9436  0.8769
 7218SOL     OW33286   2.030   3.999   2.092  0.2762  0.3349 -0.2059
 7218SOL    HW133287   1.941   4.019   2.062 -0.6094 -0.6320  1.7713
 7218SOL    HW233288   2.053   3.933   2.028 -1.3290  1.3580 -1.8387
 7219SOL     OW33289   1.632   3.095   4.683 -0.0809 -0.1085 -0.6176
 7219SOL    HW133290   1.708   3.046   4.653  1.3366 -0.0862  2.8707
 7219SOL    HW233291   1.564   3.028   4.680  3.1701 -3.4791  0.3170
 7220SOL     OW33292   1.322   2.712   8.766 -0.1065 -0.0894  0.0283
 7220SOL    HW133293   1.296   2.620   8.762 -1.9382  0.4627 -0.7338
 7220SOL    HW233294   1.300   2.736   8.856 -1.2090 -1.1700  0.0441
 7221SOL     OW33295   0.999   3.701   4.227 -0.4931  0.1836  0.0368
 7221SOL    HW133296   0.947   3.678   4.305  0.7768 -1.9668  0.2216
 7221SOL    HW233297   1.076   3.646   4.236  0.2323  0.8269 -2.4147
 7222SOL     OW33298   3.718   3.520  16.335 -0.5267  0.0266 -0.2882
 7222SOL    HW133299   3.658   3.546  16.405 -2.0716 -2.6699 -0.6004
 7222SOL    HW233300   3.675   3.460  16.274  0.0882 -1.4700  0.7433
 7223SOL     OW33301   2.270   1.104   7.865  0.2334  0.1132  0.0276
 7223SOL    HW133302   2.358   1.128   7.834 -0.5445  2.8690 -0.0582
 7223SOL    HW233303   2.294   1.062   7.948 -0.8659 -0.3455  0.1159
 7224SOL     OW33304   3.103   4.413  10.584  0.6100  0.0015 -0.1179
 7224SOL    HW133305   3.172   4.347  10.574 -0.1865 -0.9548  0.7096
 7224SOL    HW233306   3.027   4.356  10.591 -0.7162  1.6872 -0.9843
 7225SOL     OW33307   3.216   1.469   5.624 -0.3574 -0.4226 -0.1642
 7225SOL    HW133308   3.128   1.505   5.620 -0.0157  0.2199 -1.6075
 7225SOL    HW233309   3.228   1.447   5.532  0.1575 -0.3053 -0.1258
 7226SOL     OW33310   1.682   1.550   4.546 -0.4856  0.4914  0.1227
 7226SOL    HW133311   1.738   1.612   4.593  1.2176 -0.8446 -0.1756
 7226SOL    HW233312   1.594   1.587   4.562 -0.6290 -0.0896  0.6866
 7227SOL     OW33313   4.592   0.970   6.941  0.6272  0.1343  0.7212
 7227SOL    HW133314   4.520   0.955   6.880  0.8113  0.0201  0.5304
 7227SOL    HW233315   4.556   0.947   7.027 -0.4360  0.5921  0.4033
 7228SOL     OW33316   2.856   2.113  16.555  0.5587 -0.1189 -0.0931
 7228SOL    HW133317   2.871   2.019  16.551  0.0353 -0.2315  0.6163
 7228SOL    HW233318   2.850   2.130  16.649 -3.1778  0.8168 -0.5100
 7229SOL     OW33319   0.414   0.047   8.570  0.3581 -0.2600 -0.2005
 7229SOL    HW133320   0.326   0.077   8.548  1.2319  0.7368 -2.3294
 7229SOL    HW233321   0.467   0.085   8.500  0.6367 -0.8183 -0.2910
 7230SOL     OW33322   0.463   2.599   0.447 -0.3411  0.3264  0.8172
 7230SOL    HW133323   0.532   2.548   0.490 -0.6421 -1.0993 -0.4061
 7230SOL    HW233324   0.503   2.685   0.457  0.5453 -0.0129  0.2129
 7231SOL     OW33325   2.655   3.320   1.001  0.6494  0.3182  0.1341
 7231SOL    HW133326   2.747   3.338   1.021  0.7467  0.6674 -0.6188
 7231SOL    HW233327   2.634   3.246   1.058  4.0475  1.5566  2.9738
 7232SOL     OW33328   3.396   3.976   3.187 -0.1196  0.2047 -0.4771
 7232SOL    HW133329   3.307   3.943   3.175 -0.5605  0.7505  1.2369
 7232SOL    HW233330   3.374   4.069   3.188 -1.6379 -0.1629 -0.0250
 7233SOL     OW33331   2.439   0.840   9.755  0.0661  0.6671 -0.3359
 7233SOL    HW133332   2.397   0.767   9.801  3.6133 -1.1850 -0.0520
 7233SOL    HW233333   2.454   0.805   9.667  0.2879 -1.8197  0.6837
 7234SOL     OW33334   3.327   0.877   7.465  0.1311  0.2789  0.5025
 7234SOL    HW133335   3.390   0.826   7.414 -0.6783  0.1390 -0.3609
 7234SOL    HW233336   3.390   0.912   7.528  1.5948 -1.4306 -0.0075
 7235SOL     OW33337   0.461   1.093   4.187  0.0068 -0.4850 -0.4988
 7235SOL    HW133338   0.471   1.122   4.278  1.8975 -1.6751 -0.3165
 7235SOL    HW233339   0.532   1.028   4.190  0.2400 -0.2230 -0.2825
 7236SOL     OW33340   0.523   3.952   4.589  0.7154 -0.6583  0.0939
 7236SOL    HW133341   0.482   3.870   4.616 -0.6896 -0.2415 -0.7696
 7236SOL    HW233342   0.520   3.940   4.494  1.2748  1.2059 -0.1466
 7237SOL     OW33343   0.068   1.278   9.748 -0.2273  0.4438 -0.1572
 7237SOL    HW133344   0.150   1.291   9.702 -0.3471 -0.6502 -0.6739
 7237SOL    HW233345   0.100   1.278   9.838 -1.4307 -0.6206  0.2603
 7238SOL     OW33346   3.724   2.813   8.864 -0.0499  0.1308 -0.6395
 7238SOL    HW133347   3.707   2.907   8.853  0.4413  0.3080  0.1839
 7238SOL    HW233348   3.697   2.805   8.955  0.8532 -1.0630 -0.4826
 7239SOL     OW33349   2.776   1.820   9.643  0.9043  0.1094 -0.1352
 7239SOL    HW133350   2.805   1.735   9.609  1.0124  0.3281 -0.6029
 7239SOL    HW233351   2.696   1.826   9.591  0.6883 -0.1472  0.1690
 7240SOL     OW33352   4.349   0.487   6.987  0.1936  0.2204  0.6547
 7240SOL    HW133353   4.379   0.397   6.976 -2.0386 -0.7487  2.4483
 7240SOL    HW233354   4.436   0.514   7.016  0.0813  1.5886 -0.2806
 7241SOL     OW33355   2.998   3.913   3.687 -0.3948 -0.0736  0.1101
 7241SOL    HW133356   2.987   4.006   3.672 -2.8344 -0.2197  0.9831
 7241SOL    HW233357   3.023   3.877   3.602  1.2220  1.8623 -0.2224
 7242SOL     OW33358   3.352   0.394   8.100  0.5361  0.1738  0.7738
 7242SOL    HW133359   3.326   0.315   8.053 -0.2552 -0.0235  1.5374
 7242SOL    HW233360   3.365   0.448   8.022  0.6843 -1.1411 -0.1137
 7243SOL     OW33361   2.097   0.274  16.244  0.3103 -0.3863  0.1358
 7243SOL    HW133362   2.146   0.354  16.226 -3.5581  1.5253 -1.8774
 7243SOL    HW233363   2.112   0.214  16.171  0.5482 -0.9597  0.6591
 7244SOL     OW33364   3.416   3.005   5.804 -0.5845  0.1064  0.1684
 7244SOL    HW133365   3.440   2.994   5.712 -2.0288 -0.2037 -0.1736
 7244SOL    HW233366   3.495   3.050   5.834  0.8737 -2.2740 -0.0719
 7245SOL     OW33367   4.019   0.527   7.276  0.0620  0.1057  0.3308
 7245SOL    HW133368   3.992   0.455   7.334 -1.2301 -0.1993 -0.6442
 7245SOL    HW233369   3.947   0.590   7.285  0.9456  0.8942  1.7307
 7246SOL     OW33370   1.924   0.555   7.696 -0.9953 -0.1176  0.2663
 7246SOL    HW133371   1.838   0.596   7.689 -0.4031  1.2748  1.2261
 7246SOL    HW233372   1.953   0.549   7.787  0.2197 -1.6447 -0.2170
 7247SOL     OW33373   1.756   3.495  13.135  0.2726  0.1617 -0.1353
 7247SOL    HW133374   1.705   3.450  13.068  1.4120 -2.1157  0.5254
 7247SOL    HW233375   1.810   3.426  13.174  1.8672 -0.8276 -4.1070
 7248SOL     OW33376   0.805   4.104   4.842  0.5216  0.9357  0.6036
 7248SOL    HW133377   0.772   4.023   4.882 -0.3918  1.5192  1.0433
 7248SOL    HW233378   0.727   4.151   4.812  0.3351  0.2711  0.0623
 7249SOL     OW33379   1.757   0.746  10.646 -0.0151  0.0935 -0.2986
 7249SOL    HW133380   1.723   0.807  10.712 -1.5568 -0.1649 -0.8675
 7249SOL    HW233381   1.826   0.797  10.603 -0.6829 -0.2210 -1.7335
 7250SOL     OW33382   1.753   3.298   9.391 -0.1887 -0.5454 -0.5703
 7250SOL    HW133383   1.688   3.230   9.375 -0.8446  0.1003 -0.6225
 7250SOL    HW233384   1.832   3.245   9.403  0.9883  1.3126 -0.0026
 7251SOL     OW33385   1.749   1.624   3.122 -0.2302  0.5516  0.5217
 7251SOL    HW133386   1.678   1.635   3.059  0.2548  1.5575  0.1474
 7251SOL    HW233387   1.724   1.535   3.148 -1.8354  1.5096  2.3345
 7252SOL     OW33388   4.267   1.004  10.805 -0.2178  0.0121  0.0453
 7252SOL    HW133389   4.293   1.078  10.860  1.7966 -0.3557 -0.4105
 7252SOL    HW233390   4.306   0.933  10.857 -2.6800 -0.5860  1.0898
 7253SOL     OW33391   1.621   1.729   1.754  0.1156  0.2115  0.1829
 7253SOL    HW133392   1.604   1.760   1.665 -0.1122  0.5267  0.3365
 7253SOL    HW233393   1.685   1.796   1.778  1.9865 -1.2196 -0.8068
 7254SOL     OW33394   1.430   1.252   3.647 -0.3318 -0.1831  0.7540
 7254SOL    HW133395   1.493   1.279   3.580  0.6226 -2.3189  0.7865
 7254SOL    HW233396   1.478   1.191   3.703  4.0745  4.2580  1.7380
 7255SOL     OW33397   2.836   4.232   6.895 -0.5657 -0.0126  0.1758
 7255SOL    HW133398   2.838   4.315   6.943 -0.5076 -0.3794  0.8076
 7255SOL    HW233399   2.931   4.220   6.901 -0.5912  0.4930  1.5018
 7256SOL     OW33400   2.285   3.826   4.214 -0.2939 -0.2484 -0.0190
 7256SOL    HW133401   2.310   3.748   4.163 -0.3670 -0.4432  0.2445
 7256SOL    HW233402   2.191   3.836   4.200 -0.5264 -0.0139  1.8344
 7257SOL     OW33403   3.670   1.589  12.052 -0.0337  0.0293 -0.3064
 7257SOL    HW133404   3.741   1.651  12.067 -0.7541  0.4139  1.5697
 7257SOL    HW233405   3.630   1.593  12.139  2.3277  0.0242  0.7819
 7258SOL     OW33406   2.782   0.804   9.018  0.0465 -0.0101  1.1147
 7258SOL    HW133407   2.806   0.758   9.099  1.3132 -0.8937  0.2416
 7258SOL    HW233408   2.852   0.772   8.961 -2.4406  1.0249 -2.5139
 7259SOL     OW33409   0.278   0.041   5.705 -0.2460  1.0256  0.2659
 7259SOL    HW133410   0.214   0.054   5.635 -0.1600 -0.2592 -0.0577
 7259SOL    HW233411   0.233   0.095   5.769 -0.9950  0.3777  0.2885
 7260SOL     OW33412   1.228   2.512   0.148  0.0993  0.0679 -0.3095
 7260SOL    HW133413   1.205   2.491   0.058  2.4340 -1.1535 -0.6278
 7260SOL    HW233414   1.316   2.479   0.170 -0.2691 -0.0568  1.0184
 7261SOL     OW33415   3.332   0.069   1.989 -0.0043 -0.0773 -0.1794
 7261SOL    HW133416   3.381   0.011   1.931  0.4226  0.4826 -0.3727
 7261SOL    HW233417   3.295   0.123   1.919  0.6580 -1.1579 -1.3616
 7262SOL     OW33418   3.564   4.693  11.656  0.3309 -0.6490  0.0892
 7262SOL    HW133419   3.613   0.034  11.653 -2.4637  0.9425 -1.8388
 7262SOL    HW233420   3.522   4.701  11.741 -0.7395  0.4323 -0.5365
 7263SOL     OW33421   1.690   0.162  16.310 -0.1907  0.8107 -0.5252
 7263SOL    HW133422   1.676   0.068  16.320 -2.1411  0.8731 -2.7467
 7263SOL    HW233423   1.600   0.195  16.318 -0.9279 -1.1463 -0.8826
 7264SOL     OW33424   0.687   0.765   4.985  0.5540 -0.2245  0.8811
 7264SOL    HW133425   0.750   0.805   5.046  2.3168 -2.2915  0.3895
 7264SOL    HW233426   0.662   0.694   5.043 -0.1771  0.4029  1.3402
 7265SOL     OW33427   1.730   1.877   2.891  0.4328 -0.3495  0.2017
 7265SOL    HW133428   1.668   1.870   2.963  0.7094  1.2993  0.5951
 7265SOL    HW233429   1.750   1.970   2.890 -0.0080 -0.2336  1.5243
 7266SOL     OW33430   4.531   2.729   3.682 -0.8579 -0.0942 -0.2762
 7266SOL    HW133431   4.527   2.758   3.773 -0.7560 -2.2892  0.4386
 7266SOL    HW233432   4.546   2.635   3.695 -0.5934  0.0099  0.1692
 7267SOL     OW33433   0.495   1.048   1.617  0.3575 -0.1062 -0.2964
 7267SOL    HW133434   0.424   0.992   1.646 -1.0323  2.3734  1.0775
 7267SOL    HW233435   0.483   1.033   1.523 -0.3898 -1.5119  0.0324
 7268SOL     OW33436   3.610   1.693   3.437  0.4081 -0.2806  0.7770
 7268SOL    HW133437   3.536   1.749   3.414  0.9750 -0.3406 -1.1701
 7268SOL    HW233438   3.591   1.652   3.522  0.7633  0.5789  1.2665
 7269SOL     OW33439   4.267   1.243   5.708 -0.4977 -0.3347  0.3636
 7269SOL    HW133440   4.358   1.244   5.737 -0.4460  0.7736  0.1652
 7269SOL    HW233441   4.222   1.265   5.790 -1.3617 -0.9427  0.0580
 7270SOL     OW33442   2.872   4.602   3.835 -0.1168 -0.2534 -0.2767
 7270SOL    HW133443   2.821   4.651   3.900 -1.2507  0.0851 -1.4097
 7270SOL    HW233444   2.825   4.523   3.863  1.8058 -0.2316  2.9460
 7271SOL     OW33445   3.528   1.230   2.015 -0.3630 -0.5784  0.2906
 7271SOL    HW133446   3.606   1.287   2.021  0.6621 -1.7757 -1.8304
 7271SOL    HW233447   3.544   1.201   1.925 -0.5650  0.6189 -0.1305
 7272SOL     OW33448   3.763   2.639   8.649  0.6008 -0.3408 -0.9264
 7272SOL    HW133449   3.828   2.581   8.687 -1.4660 -1.7491  0.4959
 7272SOL    HW233450   3.711   2.676   8.721  1.0946  1.3862 -1.4554
 7273SOL     OW33451   3.302   1.138   9.386  0.5503 -0.0427  0.1187
 7273SOL    HW133452   3.326   1.181   9.304 -0.3528  1.7861  0.8126
 7273SOL    HW233453   3.371   1.176   9.441  0.0067  1.2678 -0.0882
 7274SOL     OW33454   2.784   2.826  15.128  0.3678 -0.4545 -0.4307
 7274SOL    HW133455   2.807   2.843  15.219  0.0337 -1.3667 -0.1819
 7274SOL    HW233456   2.843   2.755  15.103 -0.2324 -1.4324  0.9381
 7275SOL     OW33457   0.239   3.029   7.605  0.3936 -0.0716 -0.1906
 7275SOL    HW133458   0.330   3.004   7.619  0.7204  0.4252 -1.4034
 7275SOL    HW233459   0.245   3.096   7.673  1.1677 -1.1433  0.7732
 7276SOL     OW33460   4.626   1.394  11.928 -0.2759  0.0383  0.5284
 7276SOL    HW133461   4.715   1.360  11.919  0.3637  1.5835  1.0122
 7276SOL    HW233462   4.649   1.472  11.979  0.7630  1.0750 -1.5421
 7277SOL     OW33463   1.673   1.477   7.481 -0.3603  0.1860  0.0249
 7277SOL    HW133464   1.683   1.520   7.566 -2.0377 -1.7587  1.2118
 7277SOL    HW233465   1.578   1.467   7.472 -0.2060 -0.0297 -1.3189
 7278SOL     OW33466   1.389   3.880   5.789  0.1264 -0.1786 -0.3567
 7278SOL    HW133467   1.423   3.895   5.877 -0.4076 -1.1248  0.0023
 7278SOL    HW233468   1.361   3.968   5.764  0.6984  0.1664  0.2104
 7279SOL     OW33469   2.700   0.509   3.546  0.0936  0.0675  0.5411
 7279SOL    HW133470   2.786   0.534   3.511 -0.9849  0.1757 -2.0213
 7279SOL    HW233471   2.730   0.498   3.636  0.2836  0.8238  0.5726
 7280SOL     OW33472   3.017   3.297   0.412  0.3542  0.1452  0.1163
 7280SOL    HW133473   3.074   3.334   0.479  0.2722  2.1805 -0.9586
 7280SOL    HW233474   2.936   3.301   0.463 -0.3355  0.2101 -0.9824
 7281SOL     OW33475   0.600   0.742   5.416  0.2506  0.3880  0.0669
 7281SOL    HW133476   0.534   0.781   5.473 -0.5431 -2.0694  0.8387
 7281SOL    HW233477   0.678   0.788   5.446 -0.5018  2.1459 -0.6537
 7282SOL     OW33478   2.644   0.664   7.143 -0.4576  0.2266 -0.3637
 7282SOL    HW133479   2.589   0.742   7.129 -0.5598  0.0110 -1.1548
 7282SOL    HW233480   2.589   0.591   7.116  0.9062 -0.2770 -1.7811
 7283SOL     OW33481   1.520   0.201   2.095  0.7456  0.1106  0.1366
 7283SOL    HW133482   1.433   0.171   2.122  0.2264  0.3757 -1.2083
 7283SOL    HW233483   1.497   0.242   2.011 -0.5322  0.6986  0.7805
 7284SOL     OW33484   4.118   0.813   4.703 -0.2458 -0.3292  0.0227
 7284SOL    HW133485   4.181   0.747   4.675  1.6439  1.5909 -0.2545
 7284SOL    HW233486   4.157   0.893   4.669 -0.3347 -0.1660  0.2979
 7285SOL     OW33487   1.640   3.453   1.287  0.2329  0.3056 -1.1433
 7285SOL    HW133488   1.562   3.508   1.295  1.6645  1.7450  2.8758
 7285SOL    HW233489   1.630   3.383   1.351  0.6071  1.4321  0.1212
 7286SOL     OW33490   2.227   3.475   3.279  0.4872  0.1367  0.1568
 7286SOL    HW133491   2.272   3.559   3.280  0.8282 -0.0542  0.7985
 7286SOL    HW233492   2.137   3.507   3.268 -0.3780 -2.4015 -0.2753
 7287SOL     OW33493   2.286   2.116   0.638 -0.0473 -0.6950 -0.1262
 7287SOL    HW133494   2.235   2.142   0.561  2.1892 -0.6756 -1.5846
 7287SOL    HW233495   2.226   2.151   0.705 -0.6424 -0.9987 -0.5002
 7288SOL     OW33496   2.663   4.601   9.477  0.2833  0.8266 -0.1066
 7288SOL    HW133497   2.572   4.617   9.505  1.4710  1.6659  3.2864
 7288SOL    HW233498   2.705   4.630   9.558  1.1740  1.3630 -0.7699
 7289SOL     OW33499   4.035   2.834  16.689 -0.6300 -0.3090 -0.2644
 7289SOL    HW133500   4.081   2.860  16.609  0.7932  2.4062  1.4354
 7289SOL    HW233501   4.008   2.925  16.705  1.3218  0.0682  0.8497
 7290SOL     OW33502   0.427   2.070  15.650 -0.2825 -0.3972 -0.3015
 7290SOL    HW133503   0.434   2.165  15.640 -2.6527 -0.2020  0.0343
 7290SOL    HW233504   0.334   2.063  15.670 -0.3250  2.0968  0.3998
 7291SOL     OW33505   0.177   3.017   5.835  0.0541 -0.6617  0.5442
 7291SOL    HW133506   0.220   3.100   5.815 -0.6396 -0.3269  0.4616
 7291SOL    HW233507   0.219   2.950   5.781 -0.0110 -0.2842  0.0194
 7292SOL     OW33508   3.180   2.850   6.795 -0.2525 -0.3066 -0.0995
 7292SOL    HW133509   3.102   2.876   6.843  0.2744 -0.6229  0.9371
 7292SOL    HW233510   3.238   2.923   6.813  0.4332 -1.2134  1.3708
 7293SOL     OW33511   1.894   2.769   3.625  0.1063 -0.4992 -0.4934
 7293SOL    HW133512   1.889   2.860   3.595 -1.2825 -0.6396 -0.6922
 7293SOL    HW233513   1.986   2.746   3.625 -0.1921 -1.7628  1.5119
 7294SOL     OW33514   1.414   0.313   1.404  0.4689  0.8743 -0.4250
 7294SOL    HW133515   1.461   0.284   1.326 -1.7395 -2.1422 -0.6478
 7294SOL    HW233516   1.468   0.271   1.472  0.7716 -0.4190 -1.4609
 7295SOL     OW33517   3.334   0.228   3.421  0.8350  0.0353  0.0239
 7295SOL    HW133518   3.322   0.183   3.337 -1.5871  1.4557 -0.3820
 7295SOL    HW233519   3.412   0.184   3.453  1.6849  0.5112 -1.3886
 7296SOL     OW33520   2.802   2.903   7.648  0.0185 -0.7437  0.3846
 7296SOL    HW133521   2.749   2.971   7.688  0.7071 -0.4250  0.7592
 7296SOL    HW233522   2.736   2.848   7.608  0.9381 -0.0723 -2.0624
 7297SOL     OW33523   1.952   3.753   8.796 -0.2486  0.3260  0.0125
 7297SOL    HW133524   1.878   3.709   8.754  0.5385  0.3842 -1.4472
 7297SOL    HW233525   1.955   3.713   8.883 -1.3351 -2.2649 -1.1312
 7298SOL     OW33526   2.915   4.676   6.867 -0.2291  0.2117 -0.5680
 7298SOL    HW133527   2.886   4.589   6.892 -0.0476  0.4421  0.4373
 7298SOL    HW233528   2.861   0.000   6.912  0.9658 -0.1467  1.4104
 7299SOL     OW33529   4.566   2.080   3.759  0.1521 -0.0622 -0.3469
 7299SOL    HW133530   4.538   2.091   3.850 -0.4829 -0.6607 -0.4715
 7299SOL    HW233531   4.653   2.046   3.781  0.0833 -1.6491 -2.6158
 7300SOL     OW33532   0.706   1.958  12.388 -0.5563  0.8925 -0.3413
 7300SOL    HW133533   0.705   1.936  12.481 -0.2435 -1.2013 -0.8216
 7300SOL    HW233534   0.616   1.976  12.360 -0.9566  1.1129  1.0760
 7301SOL     OW33535   1.894   0.250  16.448  0.5943  0.4929  0.3432
 7301SOL    HW133536   1.931   0.284  16.366  0.1920 -1.0615 -0.4814
 7301SOL    HW233537   1.806   0.236  16.415  1.6063  0.0837 -2.1313
 7302SOL     OW33538   0.627   4.183   3.929 -0.3357  0.6276  0.0333
 7302SOL    HW133539   0.670   4.136   4.001 -1.1357  0.6455  0.5264
 7302SOL    HW233540   0.559   4.235   3.973 -0.3695  2.2515 -1.9782
 7303SOL     OW33541   2.871   3.436  16.154  0.1280  0.3968 -0.1243
 7303SOL    HW133542   2.898   3.359  16.204 -1.1183  0.2241  0.2838
 7303SOL    HW233543   2.892   3.412  16.063  0.3679 -3.2924  0.8933
 7304SOL     OW33544   3.702   3.073  17.298  0.0843 -0.3748 -0.1509
 7304SOL    HW133545   3.797   3.065  17.291 -0.0452 -1.6105 -0.4961
 7304SOL    HW233546   3.678   3.001  17.356 -0.1330  0.2689  0.5588
 7305SOL     OW33547   2.338   3.766   4.513  0.2322  0.1011 -0.5862
 7305SOL    HW133548   2.426   3.799   4.494  0.0538  1.7461  1.4919
 7305SOL    HW233549   2.296   3.781   4.429 -1.4363 -2.2877 -0.2008
 7306SOL     OW33550   2.652   1.385   6.890  0.2083  1.1097  0.9327
 7306SOL    HW133551   2.596   1.341   6.826  1.7780 -0.1847  0.4557
 7306SOL    HW233552   2.591   1.443   6.935 -2.8799 -1.0193 -0.4596
 7307SOL     OW33553   2.203   2.856   4.286 -0.3235  0.2727  0.4008
 7307SOL    HW133554   2.236   2.891   4.203 -0.2968  0.9233  0.6812
 7307SOL    HW233555   2.285   2.814   4.312  0.4663  2.3785  1.3401
 7308SOL     OW33556   2.588   0.605   8.233  0.0253 -0.0353 -0.0657
 7308SOL    HW133557   2.493   0.592   8.235  0.2040 -1.4771 -1.2054
 7308SOL    HW233558   2.602   0.655   8.153 -0.7943 -0.7022 -0.6121
 7309SOL     OW33559   4.048   1.499   6.734  0.3616  0.6634  0.7218
 7309SOL    HW133560   4.127   1.536   6.771  1.6596 -0.4112 -0.9883
 7309SOL    HW233561   3.990   1.506   6.810  0.6376  1.9574  0.8113
 7310SOL     OW33562   2.970   3.577  15.287  0.1400 -0.1595 -0.7763
 7310SOL    HW133563   3.050   3.623  15.262 -1.0377  1.9283 -0.7043
 7310SOL    HW233564   2.931   3.566  15.201  0.9461  2.0668 -1.4502
 7311SOL     OW33565   0.909   0.938   2.707 -0.0460 -0.5002  0.3822
 7311SOL    HW133566   0.830   0.971   2.748  0.3757  1.3402 -0.2777
 7311SOL    HW233567   0.888   0.844   2.701 -2.4306  0.2516 -2.9449
 7312SOL     OW33568   1.320   4.707   3.511  0.0135  0.4165  0.4357
 7312SOL    HW133569   1.258   4.637   3.533 -0.2563  0.4434 -0.2189
 7312SOL    HW233570   1.378   4.647   3.465  0.5000  0.7755  0.5800
 7313SOL     OW33571   3.850   3.151   4.556  0.3282  0.1475 -0.3525
 7313SOL    HW133572   3.835   3.106   4.639 -0.1207  1.1093  0.0956
 7313SOL    HW233573   3.784   3.218   4.572 -1.4595 -1.6736 -0.1086
 7314SOL     OW33574   3.544   3.767   6.668 -0.1353  0.4199 -0.2000
 7314SOL    HW133575   3.479   3.776   6.598 -1.0531 -1.3756  0.4162
 7314SOL    HW233576   3.514   3.681   6.697 -0.6238  0.4760 -0.5373
 7315SOL     OW33577   1.380   4.086   7.517  0.7385  0.7332 -0.5160
 7315SOL    HW133578   1.294   4.043   7.511  1.3277 -0.6187  0.8884
 7315SOL    HW233579   1.432   4.015   7.481  1.0713  1.7900 -2.1321
 7316SOL     OW33580   1.566   3.832   4.308 -0.3617  0.2880  0.0275
 7316SOL    HW133581   1.571   3.928   4.305  0.1699  0.2606  0.0906
 7316SOL    HW233582   1.524   3.801   4.228 -0.7769  1.1607 -0.0920
 7317SOL     OW33583   3.841   4.278  16.017  0.1622  0.0636  0.2628
 7317SOL    HW133584   3.772   4.224  15.978  0.5716  0.3217 -0.8234
 7317SOL    HW233585   3.910   4.213  16.029  1.3213  1.3838  0.7703
 7318SOL     OW33586   4.098   4.556   8.579 -0.4524 -0.2830  0.0243
 7318SOL    HW133587   4.054   4.477   8.547 -2.9678  1.5537 -1.0959
 7318SOL    HW233588   4.125   4.526   8.665  2.0639 -0.4462 -0.8386
 7319SOL     OW33589   4.298   3.849   9.777 -0.2883 -0.2048  0.5218
 7319SOL    HW133590   4.207   3.842   9.806  0.1119 -1.8469  1.3920
 7319SOL    HW233591   4.348   3.902   9.839 -0.7525 -0.9271  1.5263
 7320SOL     OW33592   1.635   0.522   3.843 -0.2243 -0.3895  0.2427
 7320SOL    HW133593   1.581   0.601   3.836 -3.1803 -2.2743  1.6640
 7320SOL    HW233594   1.581   0.473   3.905 -1.7331  0.4276 -0.4146
 7321SOL     OW33595   0.348   2.142  14.874 -0.0727 -0.7776 -0.2245
 7321SOL    HW133596   0.289   2.124  14.947 -0.5068 -0.5969 -0.5325
 7321SOL    HW233597   0.371   2.227  14.911  0.0400 -0.4757 -0.9869
 7322SOL     OW33598   3.654   3.710   8.502 -0.3217 -0.2969  0.0769
 7322SOL    HW133599   3.724   3.767   8.534  0.5183 -1.4389  0.2907
 7322SOL    HW233600   3.590   3.780   8.489 -0.8027 -0.7326  0.0839
 7323SOL     OW33601   0.101   0.256   3.091 -0.1538 -0.5814  1.1542
 7323SOL    HW133602   0.196   0.241   3.083 -0.4675 -1.7395 -0.3260
 7323SOL    HW233603   0.102   0.345   3.126 -0.2677  0.0446 -0.4245
 7324SOL     OW33604   3.322   3.485   3.052  0.0574  0.2791 -0.3065
 7324SOL    HW133605   3.355   3.432   2.980  0.4535  1.1793 -0.7819
 7324SOL    HW233606   3.395   3.544   3.071 -1.5857  1.6284  1.8792
 7325SOL     OW33607   2.786   2.863   8.675  0.2702  0.4234  0.6113
 7325SOL    HW133608   2.723   2.889   8.743 -1.2869 -2.0481  0.1201
 7325SOL    HW233609   2.720   2.868   8.606  0.0947  2.8575  0.9601
 7326SOL     OW33610   3.575   2.842   2.770  0.2458  0.0085  0.2514
 7326SOL    HW133611   3.616   2.856   2.685  0.8537  0.7595  0.6764
 7326SOL    HW233612   3.487   2.865   2.739  0.7234  0.0280 -1.0866
 7327SOL     OW33613   1.468   0.970  16.853 -0.6405 -0.1885  0.1003
 7327SOL    HW133614   1.464   1.010  16.939  1.7554  1.6595 -0.6546
 7327SOL    HW233615   1.506   0.885  16.876  1.0804  0.6242  0.2620
 7328SOL     OW33616   2.499   1.065   3.197 -0.1121 -0.1835  0.3342
 7328SOL    HW133617   2.413   1.024   3.203 -1.5611  2.8814  0.5274
 7328SOL    HW233618   2.496   1.078   3.102 -0.0156  1.5451  0.5791
 7329SOL     OW33619   0.813   0.090   5.848  0.3561  0.3972  0.1265
 7329SOL    HW133620   0.737   0.072   5.792  0.9760  1.8763 -1.1932
 7329SOL    HW233621   0.872   0.016   5.831  1.3134  0.9889  0.9410
 7330SOL     OW33622   3.955   3.863   7.535 -0.4248 -0.4011 -0.4857
 7330SOL    HW133623   4.037   3.882   7.490 -0.4255 -1.8032 -1.0770
 7330SOL    HW233624   3.924   3.798   7.472  0.5852 -1.6885  0.3601
 7331SOL     OW33625   4.229   2.296  10.200  0.5165 -0.4459  0.2555
 7331SOL    HW133626   4.317   2.300  10.237  0.1290 -0.7234  1.2163
 7331SOL    HW233627   4.198   2.212  10.235  2.8079 -2.0564 -1.4985
 7332SOL     OW33628   0.673   2.661  15.072  0.2863  0.0280 -0.5624
 7332SOL    HW133629   0.595   2.648  15.127  0.5806 -0.2349 -0.2064
 7332SOL    HW233630   0.628   2.677  14.989  1.2368  0.9332 -0.8974
 7333SOL     OW33631   1.006   2.356   8.601  0.5023 -0.1723  0.6254
 7333SOL    HW133632   0.980   2.265   8.614  0.3014 -0.0313  1.1794
 7333SOL    HW233633   0.921   2.392   8.573  0.3701  1.9047  3.7349
 7334SOL     OW33634   0.164   2.297  11.863  0.2658  0.1631 -0.0507
 7334SOL    HW133635   0.069   2.284  11.858  0.1041  1.0213  0.8304
 7334SOL    HW233636   0.208   2.219  11.828  0.1468  0.2335 -0.3612
 7335SOL     OW33637   4.079   0.293  10.324  0.3353  0.6809  0.0927
 7335SOL    HW133638   4.152   0.242  10.290  2.5395  1.8618  2.9920
 7335SOL    HW233639   4.121   0.343  10.395  1.3132 -1.0770  0.7586
 7336SOL     OW33640   1.305   1.837   8.433  0.3114  0.3230  0.1360
 7336SOL    HW133641   1.311   1.860   8.340  1.5338  2.3428  0.7315
 7336SOL    HW233642   1.337   1.747   8.428  1.5086  0.7400  0.4079
 7337SOL     OW33643   1.150   1.129   6.803 -0.0411  0.1469 -0.2207
 7337SOL    HW133644   1.182   1.212   6.768 -0.9748  1.1172  1.2055
 7337SOL    HW233645   1.212   1.074   6.756  2.4614  1.3036  1.7049
 7338SOL     OW33646   4.005   2.508   6.013 -0.5695 -0.0618  0.1230
 7338SOL    HW133647   3.913   2.481   6.017 -1.0441  1.3332 -1.6187
 7338SOL    HW233648   4.035   2.489   6.102 -0.8530  0.6699  0.3702
 7339SOL     OW33649   2.830   3.153   2.570  0.2985 -0.3687  0.9227
 7339SOL    HW133650   2.792   3.173   2.656 -1.0663  0.7990  0.0462
 7339SOL    HW233651   2.783   3.074   2.543 -0.3695  0.5977 -0.7228
 7340SOL     OW33652   2.222   0.347   2.935 -0.2659 -0.1482 -0.1633
 7340SOL    HW133653   2.268   0.386   2.861  1.1691 -2.6448 -0.5846
 7340SOL    HW233654   2.178   0.429   2.955 -0.1578 -0.3306  0.8249
 7341SOL     OW33655   0.632   1.477   7.581  0.0459  0.0378  0.3914
 7341SOL    HW133656   0.660   1.536   7.651 -2.1130 -2.4191  3.3384
 7341SOL    HW233657   0.658   1.519   7.499 -2.9850  1.0531 -0.0625
 7342SOL     OW33658   0.913   1.391   9.724  0.1477 -0.2614 -0.3318
 7342SOL    HW133659   0.901   1.300   9.698  0.9832  0.5144 -3.3516
 7342SOL    HW233660   1.007   1.394   9.742  0.5601  0.4832 -2.6448
 7343SOL     OW33661   1.997   4.324   7.912 -0.4027  0.1011 -0.2180
 7343SOL    HW133662   1.906   4.307   7.934 -0.2899  0.0285  0.1840
 7343SOL    HW233663   2.048   4.247   7.939 -0.4021  0.0915 -0.2461
 7344SOL     OW33664   3.426   0.722   5.666  0.3758  0.1014  0.6675
 7344SOL    HW133665   3.483   0.646   5.654 -0.1332  0.0068 -1.2431
 7344SOL    HW233666   3.373   0.711   5.587 -0.9741 -0.5496  1.6623
 7345SOL     OW33667   3.183   0.047  12.700  0.3248  0.2541 -1.0314
 7345SOL    HW133668   3.269   0.086  12.716  0.5373 -0.4907 -0.3385
 7345SOL    HW233669   3.183   0.024  12.607  0.9690  1.8179 -1.4043
 7346SOL     OW33670   1.589   1.031   7.261  0.1838  0.2024 -0.2193
 7346SOL    HW133671   1.603   1.125   7.274 -0.6098  0.3473 -0.4487
 7346SOL    HW233672   1.678   1.010   7.231  1.5180  3.4642  1.3333
 7347SOL     OW33673   1.013   4.667   2.214  0.4470  0.2797 -0.5484
 7347SOL    HW133674   0.977   4.721   2.285  1.6642 -0.9715  1.0354
 7347SOL    HW233675   0.946   4.663   2.146 -0.3242  0.2369  0.2101
 7348SOL     OW33676   3.355   1.268  17.200  0.1767  0.3757  0.0594
 7348SOL    HW133677   3.360   1.332  17.270  2.6597  1.0439 -0.7341
 7348SOL    HW233678   3.301   1.197  17.235 -2.1956  1.3400 -1.6283
 7349SOL     OW33679   2.424   4.543   1.640 -0.0359 -0.0728 -0.1337
 7349SOL    HW133680   2.416   4.569   1.549  0.1879  0.6155  0.0442
 7349SOL    HW233681   2.376   4.460   1.644  0.3685 -0.3357 -0.7900
 7350SOL     OW33682   3.194   2.907   1.754 -0.3629 -0.8319  0.2443
 7350SOL    HW133683   3.232   2.910   1.666  0.1033 -0.1805  0.4649
 7350SOL    HW233684   3.262   2.848   1.789 -1.1968 -0.1682  2.9912
 7351SOL     OW33685   2.076   0.680   4.272  0.3519  0.7216  0.0375
 7351SOL    HW133686   2.094   0.664   4.365 -0.7983 -0.3560  0.0697
 7351SOL    HW233687   2.001   0.622   4.258 -1.5115  2.8579  1.1385
 7352SOL     OW33688   1.491   1.194   1.808 -0.2757 -0.0037 -0.0961
 7352SOL    HW133689   1.397   1.173   1.804  0.0775 -1.1335 -2.7767
 7352SOL    HW233690   1.523   1.126   1.866 -1.9074 -2.0862 -1.6321
 7353SOL     OW33691   3.247   4.607   9.570 -0.1377  0.6499  0.7434
 7353SOL    HW133692   3.290   4.579   9.490 -1.8581  1.2829 -0.3956
 7353SOL    HW233693   3.156   4.612   9.542  0.6152  2.2652 -1.3321
 7354SOL     OW33694   4.641   3.150   0.041 -0.5496  0.9476 -0.5974
 7354SOL    HW133695   4.668   3.183  17.715  1.3439  0.2642 -0.2821
 7354SOL    HW233696   4.584   3.215   0.082 -0.9133  0.7644 -0.8139
 7355SOL     OW33697   3.790   2.098  12.267  0.6566 -0.2853 -0.1532
 7355SOL    HW133698   3.882   2.071  12.264  0.6413 -0.1616 -1.7945
 7355SOL    HW233699   3.765   2.094  12.175  1.3678  0.1395 -0.3726
 7356SOL     OW33700   1.453   1.336   4.708 -0.5043 -0.3183  0.9023
 7356SOL    HW133701   1.425   1.320   4.798  0.0781 -0.6113  1.0249
 7356SOL    HW233702   1.430   1.429   4.703 -0.1028 -0.1901  1.4410
 7357SOL     OW33703   3.697   4.727   4.530  0.2037 -0.2729  0.2329
 7357SOL    HW133704   3.632   4.677   4.480  0.9866  1.4252 -2.4754
 7357SOL    HW233705   3.701   0.066   4.477 -1.7448  0.2765  0.8902
 7358SOL     OW33706   1.449   1.301   8.187 -0.0906  0.0810  0.3130
 7358SOL    HW133707   1.365   1.280   8.146  0.2309  2.2226 -1.4170
 7358SOL    HW233708   1.506   1.334   8.118 -1.5283 -0.0572 -0.9247
 7359SOL     OW33709   0.411   1.346   2.789 -0.0741 -0.5568 -0.5020
 7359SOL    HW133710   0.320   1.361   2.764 -0.4159  0.6910  1.5430
 7359SOL    HW233711   0.432   1.429   2.832  0.5424 -1.3356  0.7042
 7360SOL     OW33712   4.030   4.557   2.013  0.3115  0.1865 -0.0188
 7360SOL    HW133713   4.034   4.464   1.991 -1.1969  0.5616 -1.9158
 7360SOL    HW233714   4.124   4.572   2.019  0.4419 -0.4459 -0.3876
 7361SOL     OW33715   1.542   3.303   1.843  0.5596 -0.2917  0.3721
 7361SOL    HW133716   1.580   3.216   1.830 -2.0476 -1.5854  1.4707
 7361SOL    HW233717   1.507   3.289   1.931 -0.8832  0.6610 -0.0386
 7362SOL     OW33718   3.590   2.984   8.635  0.2004  0.1354  0.1820
 7362SOL    HW133719   3.517   2.924   8.651  1.3036 -0.8879  1.4318
 7362SOL    HW233720   3.585   3.036   8.716  0.0577 -1.2547  1.0750
 7363SOL     OW33721   0.362   0.632  12.835  0.2506 -0.6683  0.5697
 7363SOL    HW133722   0.357   0.618  12.741  1.5103  0.0879  0.3882
 7363SOL    HW233723   0.447   0.593  12.857  0.5558 -0.1782  0.2465
 7364SOL     OW33724   3.783   0.623   0.491  0.4120  0.4774 -0.0246
 7364SOL    HW133725   3.867   0.651   0.454  1.2060  0.5435  1.7946
 7364SOL    HW233726   3.812   0.575   0.569  1.4618  1.6267  0.3068
 7365SOL     OW33727   3.401   3.321  17.699 -0.4786  0.6038 -0.3350
 7365SOL    HW133728   3.410   3.388  17.631  3.4294 -1.9065 -2.2698
 7365SOL    HW233729   3.405   3.379   0.015 -0.3962  0.8755 -0.5464
 7366SOL     OW33730   2.916   4.728   3.585 -0.4001 -0.0458  0.2468
 7366SOL    HW133731   2.877   4.699   3.668 -1.3393  0.6469  0.0428
 7366SOL    HW233732   2.897   0.081   3.598 -1.0928 -0.5840  3.2299
 7367SOL     OW33733   4.652   4.411   3.713 -0.7317  0.0180  0.0602
 7367SOL    HW133734   4.713   4.376   3.648 -1.0181  1.0215 -0.7602
 7367SOL    HW233735   4.653   4.506   3.702  0.9942 -0.1523 -1.2699
 7368SOL     OW33736   3.006   0.149   9.799  1.0398 -0.1355  0.7195
 7368SOL    HW133737   3.067   0.222   9.809  0.6124  0.1604  1.1961
 7368SOL    HW233738   2.926   0.199   9.816  0.0351 -1.4234 -0.2391
 7369SOL     OW33739   3.422   3.659   2.826  0.3756 -0.2749 -0.5102
 7369SOL    HW133740   3.327   3.671   2.823  0.5703  1.0947 -0.9921
 7369SOL    HW233741   3.443   3.692   2.914 -2.3171  2.3675 -0.8544
 7370SOL     OW33742   0.920   2.779   3.096 -0.1388 -0.1222 -0.2711
 7370SOL    HW133743   0.865   2.851   3.064 -1.6689 -0.8210  0.8062
 7370SOL    HW233744   1.004   2.797   3.053  0.6037 -0.1989  1.1640
 7371SOL     OW33745   1.096   2.908   1.111 -0.4351 -0.3927 -0.2313
 7371SOL    HW133746   1.056   2.935   1.029 -3.1290  1.0961  1.5520
 7371SOL    HW233747   1.065   2.965   1.181 -1.0211 -0.9651 -0.0146
 7372SOL     OW33748   0.997   3.223  16.122 -0.6304 -0.6129  0.3736
 7372SOL    HW133749   1.071   3.284  16.112 -2.2697  1.3057 -0.1547
 7372SOL    HW233750   0.940   3.295  16.151  0.7652  1.1729 -1.2684
 7373SOL     OW33751   2.152   4.709  10.132  0.4511  0.0034  0.0895
 7373SOL    HW133752   2.063   4.689  10.159  1.5938 -2.7459  1.7403
 7373SOL    HW233753   2.179   0.011  10.213 -3.3292  1.3238  0.6374
 7374SOL     OW33754   2.884   3.684   5.419  0.5616  0.1909 -0.2683
 7374SOL    HW133755   2.793   3.660   5.401  0.0932  0.3113  1.9241
 7374SOL    HW233756   2.884   3.687   5.515  4.2387 -3.7571 -0.0812
 7375SOL     OW33757   3.809   2.187   4.862 -0.6089  0.7974 -0.1497
 7375SOL    HW133758   3.877   2.246   4.896 -2.2298  0.9130  2.8728
 7375SOL    HW233759   3.785   2.247   4.791  0.8702  2.8125  1.0628
 7376SOL     OW33760   1.112   1.076   7.585 -0.2583 -0.1132  1.1221
 7376SOL    HW133761   1.067   1.146   7.632 -1.4642 -0.3604  0.3294
 7376SOL    HW233762   1.091   1.009   7.649  0.9253 -0.7838  0.8122
 7377SOL     OW33763   1.197   3.701   5.357  0.5432 -0.0435 -1.0871
 7377SOL    HW133764   1.277   3.652   5.338 -0.5490 -1.8870 -0.8702
 7377SOL    HW233765   1.176   3.667   5.443  2.8777  0.5516 -0.2659
 7378SOL     OW33766   4.401   1.142   3.766 -0.3957 -0.1127  0.0953
 7378SOL    HW133767   4.435   1.141   3.855 -0.6949 -0.2690  0.2067
 7378SOL    HW233768   4.367   1.230   3.749  1.6670  0.5205 -0.8005
 7379SOL     OW33769   2.584   1.052   5.221  0.9003  0.3734 -0.0342
 7379SOL    HW133770   2.629   1.109   5.159  0.1523 -0.1098 -1.0244
 7379SOL    HW233771   2.628   1.084   5.299  0.9983 -0.9348  0.4531
 7380SOL     OW33772   3.741   1.397   8.291 -0.6165 -0.3314  0.2546
 7380SOL    HW133773   3.745   1.372   8.383  0.7592 -1.3143 -0.0741
 7380SOL    HW233774   3.700   1.483   8.303 -0.3005  0.1949 -2.4109
 7381SOL     OW33775   0.855   2.108   8.322  0.2666  0.3648 -0.1803
 7381SOL    HW133776   0.794   2.036   8.304  1.0835 -0.0283 -1.4299
 7381SOL    HW233777   0.823   2.181   8.269 -2.0386  0.5567  1.5309
 7382SOL     OW33778   2.796   3.044   9.832  0.3976 -0.2893  0.1492
 7382SOL    HW133779   2.763   3.017   9.746 -2.1104 -0.7809  1.2678
 7382SOL    HW233780   2.819   3.137   9.826  0.7956 -0.3059  1.4937
 7383SOL     OW33781   0.374   1.389   4.035  0.4812 -0.1193 -0.8114
 7383SOL    HW133782   0.466   1.363   4.044  0.4215  0.2007  0.7332
 7383SOL    HW233783   0.377   1.458   3.968 -2.0512  2.2576  1.5262
 7384SOL     OW33784   2.635   1.546   2.849 -0.3662  0.4186  0.2877
 7384SOL    HW133785   2.681   1.625   2.820 -0.1553  0.4051  0.5837
 7384SOL    HW233786   2.634   1.561   2.944 -1.1207 -1.2692  0.5347
 7385SOL     OW33787   3.459   1.166   9.641  0.3753  0.0521  0.5496
 7385SOL    HW133788   3.550   1.177   9.669  0.1338  2.1479  0.5670
 7385SOL    HW233789   3.450   1.071   9.642  0.6962  0.0338  1.7801
 7386SOL     OW33790   3.786   1.360   8.570  0.2745 -0.0274 -0.4683
 7386SOL    HW133791   3.838   1.280   8.571  1.8857  1.0201 -0.1506
 7386SOL    HW233792   3.781   1.396   8.659 -2.4229 -3.4771  0.7286
 7387SOL     OW33793   0.769   0.177   0.573 -0.6102 -0.3493 -0.4375
 7387SOL    HW133794   0.726   0.261   0.592 -0.9636 -0.5443 -0.3661
 7387SOL    HW233795   0.862   0.199   0.579 -1.0113  0.9192  1.4848
 7388SOL     OW33796   4.142   2.251   0.514  0.3199 -0.0914 -0.1031
 7388SOL    HW133797   4.165   2.210   0.431  0.9785 -0.7981  0.4261
 7388SOL    HW233798   4.176   2.181   0.571 -0.0165  0.0957  0.3208
 7389SOL     OW33799   3.459   1.108  13.389 -0.0470 -0.1081  0.4728
 7389SOL    HW133800   3.479   1.168  13.461  1.3228  0.7918 -0.6598
 7389SOL    HW233801   3.550   1.087  13.371  0.2646  0.9512  0.8382
 7390SOL     OW33802   1.316   1.452   5.184  0.5641  0.6752  0.2346
 7390SOL    HW133803   1.224   1.430   5.198  0.1241  0.7035 -2.5432
 7390SOL    HW233804   1.337   1.490   5.269 -0.3337 -0.1758  0.8363
 7391SOL     OW33805   2.598   4.340   7.933 -0.8915 -0.6218  0.0826
 7391SOL    HW133806   2.588   4.421   7.883 -0.2070 -1.1273 -0.8869
 7391SOL    HW233807   2.548   4.345   8.014 -0.4639 -0.4702  0.3344
 7392SOL     OW33808   0.164   4.251  13.764  0.1080  0.7569 -0.2084
 7392SOL    HW133809   0.163   4.328  13.707 -0.7881 -0.3968 -1.7539
 7392SOL    HW233810   0.073   4.225  13.747  0.7822 -2.5075  1.3587
 7393SOL     OW33811   2.280   1.866  11.417 -0.1712  0.0460 -0.0606
 7393SOL    HW133812   2.304   1.834  11.504 -0.3806 -1.4482 -0.5484
 7393SOL    HW233813   2.347   1.932  11.401  2.4900 -2.3320  1.1490
 7394SOL     OW33814   3.860   2.716   4.495 -0.6014 -0.7996 -0.1071
 7394SOL    HW133815   3.876   2.803   4.460 -0.9062 -0.5661  0.3343
 7394SOL    HW233816   3.895   2.662   4.425 -1.0570  0.2664 -1.1626
 7395SOL     OW33817   4.675   1.230   5.432 -0.7702  0.2742  0.0771
 7395SOL    HW133818   4.731   1.236   5.510  0.4487 -2.4100 -0.6051
 7395SOL    HW233819   4.605   1.285   5.468 -0.8004  1.5330 -1.8644
 7396SOL     OW33820   3.703   3.385   2.507  0.2932 -0.4784 -0.6480
 7396SOL    HW133821   3.656   3.408   2.427  1.0981 -1.0490 -1.2849
 7396SOL    HW233822   3.664   3.447   2.568 -0.2478 -0.1962 -1.2896
 7397SOL     OW33823   1.677   2.412   8.076 -0.2249  0.1873 -0.4794
 7397SOL    HW133824   1.624   2.362   8.138  1.6163  0.5627  1.3880
 7397SOL    HW233825   1.713   2.476   8.137 -1.1785 -1.0188  1.3642
 7398SOL     OW33826   4.172   2.029  12.755  0.2727 -0.3655  0.3670
 7398SOL    HW133827   4.216   2.103  12.713 -1.3685  0.9526  0.9338
 7398SOL    HW233828   4.134   2.080  12.826 -1.4644 -2.6493  1.0879
 7399SOL     OW33829   2.181   2.283   9.453  0.2323  0.8172  0.7796
 7399SOL    HW133830   2.144   2.207   9.498 -4.3071  2.8876  0.5446
 7399SOL    HW233831   2.225   2.334   9.522  0.0701  0.6526  1.0058
 7400SOL     OW33832   3.029   0.435   7.504  0.4350  0.5503  0.0652
 7400SOL    HW133833   3.098   0.399   7.448 -1.9110 -3.3462 -0.3222
 7400SOL    HW233834   2.953   0.440   7.446  1.0769 -0.9472 -0.9064
 7401SOL     OW33835   2.880   2.020   2.089  0.3876  0.4178  0.3817
 7401SOL    HW133836   2.841   1.985   2.009  0.5533 -1.0436  0.9303
 7401SOL    HW233837   2.806   2.001   2.147 -0.6424  1.1578 -0.6831
 7402SOL     OW33838   2.014   2.967   5.797  0.0326 -0.0999 -0.5990
 7402SOL    HW133839   1.978   3.041   5.747 -2.0995 -1.7993 -1.6093
 7402SOL    HW233840   2.041   2.912   5.723  0.4660  0.2871 -0.7244
 7403SOL     OW33841   1.436   2.722   7.119 -0.0435  0.0821  0.0307
 7403SOL    HW133842   1.365   2.714   7.055  0.4503 -1.1891 -0.3453
 7403SOL    HW233843   1.509   2.764   7.073  0.6318 -3.1682 -1.8523
 7404SOL     OW33844   1.844   0.946   7.145 -0.0506 -0.0327  0.0815
 7404SOL    HW133845   1.861   0.937   7.052 -2.0979 -0.0040 -0.2995
 7404SOL    HW233846   1.846   0.853   7.167 -0.4664  0.1613  0.9510
 7405SOL     OW33847   3.839   0.443   4.239 -0.1343 -0.0806  0.1722
 7405SOL    HW133848   3.749   0.430   4.209 -0.0478 -0.8017  0.2238
 7405SOL    HW233849   3.873   0.485   4.160 -0.8276  0.3102  0.0839
 7406SOL     OW33850   0.667   3.433   4.342  0.1583  0.3672 -0.2102
 7406SOL    HW133851   0.599   3.463   4.403 -1.3477 -2.0822 -0.7013
 7406SOL    HW233852   0.654   3.338   4.344  0.9374  0.2557 -0.6002
 7407SOL     OW33853   1.321   1.958  15.256  0.0967 -0.0991 -0.4826
 7407SOL    HW133854   1.406   1.944  15.215 -0.2327 -0.1743 -1.1485
 7407SOL    HW233855   1.292   2.037  15.211 -0.1356  0.1422  0.0886
 7408SOL     OW33856   0.419   0.671   4.252  0.0474 -0.3273 -0.5409
 7408SOL    HW133857   0.492   0.722   4.217 -0.8482  0.4528 -1.2400
 7408SOL    HW233858   0.464   0.605   4.305  0.2716  0.0184 -0.3021
 7409SOL     OW33859   1.071   3.124   1.291  0.2952  0.2651 -0.6295
 7409SOL    HW133860   1.098   3.168   1.211 -1.1719  2.9614  0.3391
 7409SOL    HW233861   1.020   3.200   1.320 -0.9807 -1.4901  1.7478
 7410SOL     OW33862   0.882   3.748   5.853 -0.1887  0.2294  0.3928
 7410SOL    HW133863   0.902   3.825   5.799  1.0058  0.2600  0.8844
 7410SOL    HW233864   0.956   3.756   5.914 -0.3906 -1.7963  0.9061
 7411SOL     OW33865   0.989   0.358   8.070  0.2841 -0.7367  0.1267
 7411SOL    HW133866   1.017   0.403   7.991  1.7814 -1.2913  0.3438
 7411SOL    HW233867   0.918   0.313   8.025 -2.9480  2.2339  2.2662
 7412SOL     OW33868   4.236   3.918   2.091 -0.6714  0.1407  0.2483
 7412SOL    HW133869   4.199   3.884   2.172  0.5660  0.6800  1.0404
 7412SOL    HW233870   4.263   3.837   2.048  1.4653  1.1015 -0.2113
 7413SOL     OW33871   3.503   2.998   3.549 -0.5267  0.2348 -0.4452
 7413SOL    HW133872   3.597   3.010   3.555 -0.5602 -0.5475  1.4270
 7413SOL    HW233873   3.471   2.994   3.639  0.0461  0.5588 -0.2314
 7414SOL     OW33874   3.015   1.225   9.117  0.1068  0.1026 -0.5018
 7414SOL    HW133875   3.076   1.153   9.134  0.6351  0.6636 -0.0125
 7414SOL    HW233876   2.939   1.182   9.155  1.2648 -2.2080 -0.8036
 7415SOL     OW33877   3.820   4.419   5.887  0.4426  0.0566  1.0420
 7415SOL    HW133878   3.909   4.426   5.921  1.3124 -0.2640 -1.2113
 7415SOL    HW233879   3.767   4.434   5.966  3.9609  0.9820  3.2291
 7416SOL     OW33880   3.486   1.664   8.063 -0.3523  0.6080  0.1565
 7416SOL    HW133881   3.394   1.689   8.056 -0.6201 -0.4712 -0.1153
 7416SOL    HW233882   3.521   1.751   8.045  0.8309  0.6879  2.8513
 7417SOL     OW33883   0.729   0.085   7.063 -0.0358  0.1601  0.0902
 7417SOL    HW133884   0.814   0.105   7.102  1.1306 -1.5284 -1.5492
 7417SOL    HW233885   0.696   0.016   7.120 -1.6322  0.5404 -0.3682
 7418SOL     OW33886   1.947   4.674  13.194  0.1665 -0.2110  0.3358
 7418SOL    HW133887   2.024   4.641  13.147  1.4433  1.0911  1.5121
 7418SOL    HW233888   1.945   0.024  13.163 -1.9467  0.2875  1.9291
 7419SOL     OW33889   1.291   4.309   3.721 -0.1991 -0.5966 -0.2624
 7419SOL    HW133890   1.221   4.246   3.704 -2.7109  1.5214  2.1912
 7419SOL    HW233891   1.250   4.387   3.684  0.8994  1.6132  3.1281
 7420SOL     OW33892   0.881   1.623  10.422 -0.2207  0.6653  0.0109
 7420SOL    HW133893   0.924   1.610  10.506  2.0161 -0.3553 -1.2846
 7420SOL    HW233894   0.817   1.553  10.429 -0.9451  1.3492  0.1988
 7421SOL     OW33895   0.562   4.467  14.236  0.5358 -0.6673 -0.1024
 7421SOL    HW133896   0.532   4.417  14.312 -1.6214  1.4545  0.4264
 7421SOL    HW233897   0.541   4.552  14.276  1.0874 -0.1075 -1.0019
 7422SOL     OW33898   0.176   4.044  12.056 -0.4586 -0.3017 -0.1546
 7422SOL    HW133899   0.191   3.981  11.985  2.7684 -1.1134  1.2373
 7422SOL    HW233900   0.200   4.127  12.016 -0.4759 -1.4008 -2.4486
 7423SOL     OW33901   3.635   4.451   8.240 -0.1975 -0.3404  0.4260
 7423SOL    HW133902   3.642   4.357   8.221  0.2479 -0.3992  0.8912
 7423SOL    HW233903   3.575   4.441   8.313 -1.9119 -3.0656 -1.3460
 7424SOL     OW33904   2.227   3.776  16.125 -0.4290  0.5932  0.6250
 7424SOL    HW133905   2.166   3.836  16.082 -1.5619 -1.4824 -0.6559
 7424SOL    HW233906   2.215   3.695  16.075  3.3014  0.6493 -0.3654
 7425SOL     OW33907   1.691   1.816   4.719  0.4881 -0.0394  0.3587
 7425SOL    HW133908   1.663   1.839   4.630 -0.6835  2.5496  1.3985
 7425SOL    HW233909   1.627   1.866   4.769  3.2353 -0.3924  4.1654
 7426SOL     OW33910   2.308   0.340   3.973  0.0298 -0.4807  0.5013
 7426SOL    HW133911   2.339   0.304   3.890 -2.3779  0.7272 -0.8962
 7426SOL    HW233912   2.227   0.388   3.960  0.5688  0.8686  2.1077
 7427SOL     OW33913   0.412   1.240   7.803 -0.7821 -0.0901 -0.7441
 7427SOL    HW133914   0.493   1.265   7.759 -0.0629 -0.9997  0.1059
 7427SOL    HW233915   0.424   1.286   7.886  0.3693 -1.9545  0.1041
 7428SOL     OW33916   2.713   0.636   8.670  0.4605 -0.0710  0.0383
 7428SOL    HW133917   2.709   0.599   8.759 -1.8542 -1.2237 -0.5411
 7428SOL    HW233918   2.694   0.554   8.625 -0.2801  0.8042 -1.2428
 7429SOL     OW33919   3.373   1.411   0.235  0.1920  0.4821 -0.3827
 7429SOL    HW133920   3.448   1.394   0.291 -0.5502 -0.1606  0.4274
 7429SOL    HW233921   3.333   1.479   0.289 -0.7918  0.8148 -1.5165
 7430SOL     OW33922   3.812   3.992  14.995  0.0877 -0.3762 -0.1478
 7430SOL    HW133923   3.869   3.961  14.925  0.3045 -0.8432  0.2293
 7430SOL    HW233924   3.831   3.923  15.059  0.0540  1.0929  1.4689
 7431SOL     OW33925   0.655   4.572   3.397  0.1832  0.1770  0.0293
 7431SOL    HW133926   0.660   4.559   3.492  0.6719  2.2655  0.3011
 7431SOL    HW233927   0.627   4.664   3.397 -2.6107 -0.6835 -1.3663
 7432SOL     OW33928   3.584   3.366   9.482 -0.0679  0.1917  0.1277
 7432SOL    HW133929   3.560   3.360   9.390  1.4293 -0.8632 -0.1860
 7432SOL    HW233930   3.507   3.328   9.524  0.5262 -0.9328  0.2066
 7433SOL     OW33931   1.648   3.357   6.214 -0.1686  0.3504 -0.2378
 7433SOL    HW133932   1.554   3.338   6.221  0.4841 -2.0492  1.9466
 7433SOL    HW233933   1.680   3.301   6.285  0.7017 -0.5288 -1.3155
 7434SOL     OW33934   3.526   2.513   9.195 -1.3073 -0.4455  0.0001
 7434SOL    HW133935   3.491   2.527   9.107  0.9145  0.6426 -0.7120
 7434SOL    HW233936   3.446   2.528   9.245 -1.2329 -1.1141  0.3313
 7435SOL     OW33937   3.506   2.590  10.121 -0.1344  0.1181 -0.1921
 7435SOL    HW133938   3.578   2.652  10.124  1.1339 -1.2754 -1.7331
 7435SOL    HW233939   3.455   2.619  10.045  1.1322  1.4729 -0.5110
 7436SOL     OW33940   0.846   2.965   2.287  0.3752 -0.1187  0.3234
 7436SOL    HW133941   0.764   2.924   2.259 -1.1579  1.8834  1.9167
 7436SOL    HW233942   0.811   3.038   2.338  2.2745  2.2043 -1.7347
 7437SOL     OW33943   3.141   1.097   2.246 -0.3689  0.2380  0.4723
 7437SOL    HW133944   3.169   1.008   2.262 -4.3886 -1.0440  0.5094
 7437SOL    HW233945   3.164   1.103   2.153 -2.7120 -0.8738 -0.1772
 7438SOL     OW33946   4.237   4.180   7.504  0.0764  0.6116  0.0893
 7438SOL    HW133947   4.318   4.228   7.484  0.4042  0.0603  0.0854
 7438SOL    HW233948   4.168   4.238   7.473  0.0048  1.1097  1.1934
 7439SOL     OW33949   4.180   0.571  10.152  0.5223 -0.2613 -0.4750
 7439SOL    HW133950   4.229   0.489  10.152  1.8704  0.5425  2.4317
 7439SOL    HW233951   4.091   0.557  10.185  0.7465  1.0820  0.7226
 7440SOL     OW33952   4.542   3.723   7.887 -0.3797  0.1950  0.1796
 7440SOL    HW133953   4.583   3.639   7.910 -0.4692  0.1253  0.0833
 7440SOL    HW233954   4.576   3.743   7.800 -2.6902 -0.8884 -0.9722
 7441SOL     OW33955   3.120   0.530   6.149  0.5378 -0.2256 -0.1885
 7441SOL    HW133956   3.172   0.512   6.071  0.9256  2.4856 -0.5420
 7441SOL    HW233957   3.097   0.620   6.129  0.8879 -0.4516 -1.6048
 7442SOL     OW33958   3.895   4.093   8.335 -0.5295  0.3102 -0.1436
 7442SOL    HW133959   3.899   4.011   8.383  0.0448 -0.0084 -0.7305
 7442SOL    HW233960   3.861   4.149   8.405 -1.3527  1.5035 -1.4967
 7443SOL     OW33961   0.519   2.689   7.419 -0.4876 -0.1740 -0.9394
 7443SOL    HW133962   0.537   2.699   7.512 -1.1718 -1.5882 -0.6614
 7443SOL    HW233963   0.594   2.741   7.389 -1.0847 -0.0464 -2.2285
 7444SOL     OW33964   4.115   0.590   9.877 -0.1589  0.0509  0.2078
 7444SOL    HW133965   4.029   0.619   9.908  1.4805  2.2740  2.6297
 7444SOL    HW233966   4.157   0.572   9.961  1.7347 -0.4172 -0.8515
 7445SOL     OW33967   2.220   3.957   7.912  0.3555  0.3432 -0.4926
 7445SOL    HW133968   2.201   3.977   8.004 -2.0549 -1.7872 -0.5386
 7445SOL    HW233969   2.229   4.042   7.869 -0.9650  0.2502 -0.9410
 7446SOL     OW33970   2.336   2.358   1.340  0.1941 -0.0087  0.1718
 7446SOL    HW133971   2.409   2.320   1.292 -0.2838 -0.6353 -0.0541
 7446SOL    HW233972   2.260   2.309   1.310  1.4714 -0.7532 -1.8616
 7447SOL     OW33973   4.134   4.172  10.015  0.3237  0.1342  0.0911
 7447SOL    HW133974   4.221   4.180  10.056  0.1892  0.1656  0.3718
 7447SOL    HW233975   4.127   4.247   9.956  1.3264  0.4514  0.3649
 7448SOL     OW33976   2.745   3.565   6.956  0.0014 -0.5506  0.1573
 7448SOL    HW133977   2.723   3.479   6.920 -0.3755  0.4958 -2.1107
 7448SOL    HW233978   2.823   3.584   6.904 -1.2811  2.1158 -0.8013
 7449SOL     OW33979   3.179   1.601   3.738  0.3684  0.0274  0.4294
 7449SOL    HW133980   3.118   1.535   3.768  0.6692  0.4746  2.0214
 7449SOL    HW233981   3.132   1.625   3.658 -0.3055  0.5832  0.9963
 7450SOL     OW33982   1.833   4.003   2.328  0.4321 -0.6652  0.0670
 7450SOL    HW133983   1.800   4.092   2.329  1.9701 -0.1051  0.3758
 7450SOL    HW233984   1.929   4.005   2.333  0.5810 -1.2751 -2.2572
 7451SOL     OW33985   0.882   1.774   6.532  0.4007 -0.2724  0.3989
 7451SOL    HW133986   0.881   1.792   6.438 -2.3819 -1.4517  0.2175
 7451SOL    HW233987   0.822   1.843   6.557 -0.0756 -0.0401 -1.4018
 7452SOL     OW33988   0.585   0.452   9.020 -0.5385  0.1712  0.0554
 7452SOL    HW133989   0.588   0.524   9.083 -0.0151 -0.3969  0.6826
 7452SOL    HW233990   0.677   0.428   9.011 -0.7707 -0.6234 -0.2596
 7453SOL     OW33991   0.329   0.577   4.689  1.0042 -0.2914  0.3755
 7453SOL    HW133992   0.271   0.615   4.623 -1.1916 -2.1270  1.2536
 7453SOL    HW233993   0.312   0.640   4.759 -0.7227  0.7323 -0.9681
 7454SOL     OW33994   4.068   0.337   2.315 -0.7164 -0.2623 -0.0149
 7454SOL    HW133995   4.048   0.363   2.225  0.4204 -0.3632 -0.3011
 7454SOL    HW233996   3.977   0.336   2.344 -0.8142  0.4587 -0.2998
 7455SOL     OW33997   4.056   4.368   9.550  0.1700  0.1113  0.7030
 7455SOL    HW133998   4.020   4.285   9.517 -0.1829  1.1139 -1.4165
 7455SOL    HW233999   4.101   4.400   9.473  0.6140  0.8106  1.2572
 7456SOL     OW34000   0.006   1.770  14.456  0.5553  0.4460 -0.5443
 7456SOL    HW134001   4.688   1.788  14.530 -0.5240  1.5547 -1.6647
 7456SOL    HW234002   4.711   1.691  14.417  1.6239 -0.4987  0.4092
 7457SOL     OW34003   1.141   4.504   3.590 -0.0815 -0.4827  0.1142
 7457SOL    HW134004   1.095   4.451   3.524  0.1135  0.9859 -1.2141
 7457SOL    HW234005   1.079   4.560   3.637  0.2488 -0.2814  0.3119
 7458SOL     OW34006   1.933   1.197   7.214 -0.1371  0.1342  0.0469
 7458SOL    HW134007   1.948   1.184   7.308 -1.4512 -0.1292  0.2126
 7458SOL    HW234008   1.891   1.114   7.193 -1.7595  0.4081  2.1906
 7459SOL     OW34009   3.686   0.369  15.433 -0.5693  0.1464  0.3781
 7459SOL    HW134010   3.698   0.344  15.525  0.2799 -1.2667 -0.1250
 7459SOL    HW234011   3.601   0.414  15.435  0.1435  1.5287 -0.3734
 7460SOL     OW34012   1.873   0.454   3.406  0.4147  0.0411 -0.9653
 7460SOL    HW134013   1.825   0.515   3.462  0.8930 -0.9338  0.5038
 7460SOL    HW234014   1.833   0.369   3.425  1.6648 -0.3440 -0.0906
 7461SOL     OW34015   4.697   3.274  17.570  0.2713  0.0430 -0.0469
 7461SOL    HW134016   0.007   3.270  17.488 -1.2688  1.2755 -1.0670
 7461SOL    HW234017   0.007   3.337  17.620  0.8009  0.6123 -1.2975
 7462SOL     OW34018   3.029   2.526   7.996 -0.0020 -0.5784 -0.3063
 7462SOL    HW134019   3.005   2.438   7.966 -0.7562 -0.8888  1.2141
 7462SOL    HW234020   3.094   2.560   7.935 -0.6954  0.7738 -0.2960
 7463SOL     OW34021   4.711   3.260  12.031  0.1082  0.4641 -0.0442
 7463SOL    HW134022   4.739   3.190  11.971 -0.9695  0.9706 -1.1535
 7463SOL    HW234023   0.039   3.260  12.097  0.6404 -1.2414 -0.5999
 7464SOL     OW34024   2.651   1.003   2.135  0.0531  0.9120  0.0776
 7464SOL    HW134025   2.616   0.923   2.096 -1.2215  1.2191  0.6158
 7464SOL    HW234026   2.708   0.961   2.199  0.8964 -1.0922 -1.9661
 7465SOL     OW34027   0.892   1.837   9.733  0.2291  0.4406  0.1353
 7465SOL    HW134028   0.834   1.910   9.711  0.3422  0.6622  0.5626
 7465SOL    HW234029   0.854   1.763   9.685 -0.0644 -0.8164  2.3000
 7466SOL     OW34030   0.862   1.412   8.623 -0.0544  0.4444 -0.4244
 7466SOL    HW134031   0.784   1.358   8.635  2.1557 -2.6001  0.3674
 7466SOL    HW234032   0.832   1.495   8.658  0.5490  0.5897 -0.2591
 7467SOL     OW34033   4.550   1.262   8.243 -0.4607  0.1204  0.6139
 7467SOL    HW134034   4.527   1.169   8.235  1.2886 -0.2013 -0.6050
 7467SOL    HW234035   4.484   1.292   8.306  1.5563 -0.6713  3.1131
 7468SOL     OW34036   0.933   2.189   8.969  0.1356 -0.0776  0.2330
 7468SOL    HW134037   0.868   2.135   9.014 -1.5942  1.6049 -0.2457
 7468SOL    HW234038   0.977   2.127   8.911  0.4127 -0.2187  0.5950
 7469SOL     OW34039   2.783   4.311   8.760  0.0328  0.5127 -0.3794
 7469SOL    HW134040   2.704   4.269   8.795  1.2660 -2.6277 -1.4069
 7469SOL    HW234041   2.833   4.337   8.837  0.3888  0.0230 -0.4493
 7470SOL     OW34042   0.276   4.336   9.001 -0.0032  0.0985 -0.0833
 7470SOL    HW134043   0.269   4.331   9.097 -1.8004 -1.0117 -0.2629
 7470SOL    HW234044   0.244   4.257   8.958 -1.3073  1.0366 -0.8357
 7471SOL     OW34045   1.206   0.766   2.989  0.1662  0.6445 -0.1674
 7471SOL    HW134046   1.274   0.726   2.936 -1.4088 -1.0360 -0.9088
 7471SOL    HW234047   1.258   0.802   3.061 -0.1167  2.5715 -0.9197
 7472SOL     OW34048   3.742   2.603   7.794  0.4431 -0.1963  0.6793
 7472SOL    HW134049   3.758   2.551   7.872 -2.0367  0.2924  1.5211
 7472SOL    HW234050   3.743   2.691   7.831 -1.1792  1.1007 -2.2643
 7473SOL     OW34051   0.089   0.541   7.638 -0.0733 -0.6933  0.0543
 7473SOL    HW134052   0.066   0.476   7.704 -0.5632 -2.6968 -2.0799
 7473SOL    HW234053   0.166   0.502   7.596 -2.4882 -1.6779 -3.4451
 7474SOL     OW34054   4.708   3.998   4.130  0.0785  0.0383  0.0234
 7474SOL    HW134055   0.020   4.023   4.206  0.5866  1.3164 -0.7411
 7474SOL    HW234056   4.701   3.904   4.143  1.2173  0.0233  0.5038
 7475SOL     OW34057   1.100   0.669   7.513 -0.3524 -0.5083  0.2383
 7475SOL    HW134058   1.181   0.664   7.462 -0.7449 -0.3083 -0.4022
 7475SOL    HW234059   1.057   0.752   7.494 -1.2128 -0.5835  1.8563
 7476SOL     OW34060   0.872   4.289   3.545 -0.0967  0.3688 -0.6366
 7476SOL    HW134061   0.803   4.306   3.609  0.5792  0.6687  0.0029
 7476SOL    HW234062   0.825   4.226   3.490  2.3256  0.1832 -2.5052
 7477SOL     OW34063   2.792   1.131   9.505 -0.9710 -0.3855  0.5457
 7477SOL    HW134064   2.886   1.150   9.508 -0.7533 -1.3249 -0.4125
 7477SOL    HW234065   2.787   1.072   9.580  0.3601 -1.1931  0.0060
 7478SOL     OW34066   2.036   2.949  11.897  0.3803 -0.4419  0.3478
 7478SOL    HW134067   2.132   2.946  11.892  0.4530 -1.3229  2.0943
 7478SOL    HW234068   2.017   2.977  11.987 -1.3947 -0.5110 -0.0214
 7479SOL     OW34069   4.207   3.408   2.691  0.1626 -0.5580 -0.2598
 7479SOL    HW134070   4.119   3.386   2.660  0.8388 -0.9738 -1.8759
 7479SOL    HW234071   4.247   3.434   2.608  1.0560 -0.1921  0.2795
 7480SOL     OW34072   3.251   0.351   1.934 -0.1400 -0.3962  0.1303
 7480SOL    HW134073   3.296   0.351   2.018 -1.5126  0.5084  0.8597
 7480SOL    HW234074   3.170   0.396   1.956  1.5591  2.6850  0.1294
 7481SOL     OW34075   4.208   1.371   3.064 -0.0008 -0.8360 -0.2850
 7481SOL    HW134076   4.212   1.297   3.125  1.3369  1.5038  2.4210
 7481SOL    HW234077   4.117   1.399   3.079 -1.2006 -3.2868 -2.8653
 7482SOL     OW34078   2.809   3.580  15.508  0.3045 -0.5933 -0.4747
 7482SOL    HW134079   2.847   3.586  15.421 -0.3478 -1.1509 -0.7956
 7482SOL    HW234080   2.816   3.669  15.542 -0.3313 -0.9217  0.5089
 7483SOL     OW34081   0.927   1.937   4.658 -0.8794  0.0952  0.4109
 7483SOL    HW134082   1.001   1.991   4.686 -0.0337 -0.2050 -1.2076
 7483SOL    HW234083   0.968   1.862   4.701 -0.6041  0.0985  0.1556
 7484SOL     OW34084   3.704   4.521   1.444  0.1226 -0.2595 -0.2208
 7484SOL    HW134085   3.667   4.606   1.419  1.3818  0.5289  0.6201
 7484SOL    HW234086   3.636   4.479   1.497  0.2486 -0.7695 -0.4657
 7485SOL     OW34087   2.916   4.642   9.833  0.2923  0.0214  0.3917
 7485SOL    HW134088   2.995   4.592   9.852  2.1838  3.3783  1.3531
 7485SOL    HW234089   2.953   4.729   9.820 -1.6983  0.7994  0.0049
 7486SOL     OW34090   2.262   3.468   8.493 -0.3076 -0.2763 -0.2699
 7486SOL    HW134091   2.227   3.392   8.447  0.7482  0.3711 -2.1720
 7486SOL    HW234092   2.327   3.431   8.553  0.0295 -1.0433 -1.0913
 7487SOL     OW34093   3.802   2.796   2.032  0.1659  0.4959 -0.0522
 7487SOL    HW134094   3.751   2.721   2.062 -0.8610  1.5570  0.8328
 7487SOL    HW234095   3.870   2.750   1.982 -1.0280  0.9709 -2.0969
 7488SOL     OW34096   2.086   2.963   8.533  0.3255 -0.3044  0.2930
 7488SOL    HW134097   2.020   2.998   8.592 -0.1424 -1.1575  0.2713
 7488SOL    HW234098   2.146   2.923   8.596  0.9501 -0.1166 -0.1808
 7489SOL     OW34099   1.171   1.687   7.371 -0.4237  0.1602 -0.5761
 7489SOL    HW134100   1.127   1.704   7.287  1.0660  1.4753 -1.0875
 7489SOL    HW234101   1.261   1.715   7.354 -0.4397  0.6681  0.1877
 7490SOL     OW34102   3.161   3.593   3.255  0.4921 -0.2461  0.7321
 7490SOL    HW134103   3.191   3.509   3.289 -0.4453 -1.4250 -1.3638
 7490SOL    HW234104   3.182   3.581   3.162  1.4980 -1.4031  1.1088
 7491SOL     OW34105   1.339   4.555   7.727 -0.0072 -0.0268 -0.7051
 7491SOL    HW134106   1.301   4.566   7.640 -3.5778 -1.2970  0.7166
 7491SOL    HW234107   1.381   4.470   7.713  0.2348 -0.0599  0.2148
 7492SOL     OW34108   3.876   2.797   7.366 -0.0426 -0.1793  0.3060
 7492SOL    HW134109   3.970   2.787   7.383 -0.4869 -3.2103  0.8493
 7492SOL    HW234110   3.847   2.709   7.388 -0.4204 -0.5430 -1.6342
 7493SOL     OW34111   2.900   2.380  16.959  0.0889  0.0059  0.7600
 7493SOL    HW134112   2.912   2.456  16.902  0.5314  0.0171  0.8638
 7493SOL    HW234113   2.839   2.419  17.021  0.2449 -0.6359  1.3122
 7494SOL     OW34114   0.045   2.950   7.257  0.3893  0.5670 -0.4456
 7494SOL    HW134115   0.036   2.889   7.330 -2.2701 -0.9118 -2.0166
 7494SOL    HW234116   0.138   2.944   7.234  0.0709 -2.4334 -0.9088
 7495SOL     OW34117   1.522   2.284   5.060 -0.0080  0.6513 -0.8561
 7495SOL    HW134118   1.574   2.204   5.069  0.5326  0.8666 -2.0086
 7495SOL    HW234119   1.588   2.333   5.011  2.2926 -1.1726  0.4217
 7496SOL     OW34120   2.528   2.700   8.051  0.2154  0.3294  0.2837
 7496SOL    HW134121   2.581   2.767   8.094 -1.1867  0.8769  1.1529
 7496SOL    HW234122   2.473   2.754   7.994  0.5288 -1.1058 -1.3604
 7497SOL     OW34123   1.293   1.661   1.892 -0.1566  0.0773 -0.3767
 7497SOL    HW134124   1.381   1.655   1.929  0.1268  0.3339 -1.0046
 7497SOL    HW234125   1.261   1.571   1.891  0.4970 -0.1730  1.6294
 7498SOL     OW34126   2.901   3.260   9.496 -0.0562 -0.1916 -0.2990
 7498SOL    HW134127   2.880   3.350   9.472 -0.6721 -0.3831 -0.4748
 7498SOL    HW234128   2.880   3.266   9.589  1.6230  1.1299 -0.0118
 7499SOL     OW34129   4.477   1.899  12.290 -0.0842 -0.4500 -0.6668
 7499SOL    HW134130   4.523   1.836  12.347  0.5777  0.3466 -0.3217
 7499SOL    HW234131   4.547   1.908  12.226  1.1282 -3.2321  0.2411
 7500SOL     OW34132   0.282   3.102   2.090  0.4457  0.2081  0.4899
 7500SOL    HW134133   0.220   3.172   2.069  1.9758  0.6975 -2.3522
 7500SOL    HW234134   0.358   3.135   2.042  0.3870 -0.3177  0.0301
 7501SOL     OW34135   2.807   3.805  13.022 -0.3676 -0.2465 -0.5169
 7501SOL    HW134136   2.736   3.868  13.033  2.2286  2.7113 -0.7567
 7501SOL    HW234137   2.878   3.868  13.013 -0.8493  0.1235 -1.8504
 7502SOL     OW34138   1.230   0.290  12.816  0.3659 -0.0737  0.3329
 7502SOL    HW134139   1.236   0.374  12.771  1.2373 -0.5844 -0.4987
 7502SOL    HW234140   1.243   0.318  12.907 -0.2186 -2.0988  1.0367
 7503SOL     OW34141   4.597   3.142   7.521  0.6753  0.3952  0.6008
 7503SOL    HW134142   4.562   3.102   7.600 -1.5728 -0.7072 -0.9539
 7503SOL    HW234143   4.519   3.139   7.465  1.0855  0.8671  0.0081
 7504SOL     OW34144   0.617   2.591  11.497  0.2959 -0.5253  0.5864
 7504SOL    HW134145   0.560   2.607  11.572 -1.2985  0.1520 -0.7776
 7504SOL    HW234146   0.696   2.551  11.534  0.1522 -1.0909  0.2866
 7505SOL     OW34147   4.021   2.660   1.894  0.2809  0.1760 -0.3343
 7505SOL    HW134148   4.053   2.704   1.815 -1.4774 -0.2003 -1.2598
 7505SOL    HW234149   4.094   2.601   1.913  2.1971  2.5256 -0.3384
 7506SOL     OW34150   4.401   2.897   6.409  0.2517 -0.8971 -0.6384
 7506SOL    HW134151   4.386   2.950   6.330 -0.7207  1.6714  1.2528
 7506SOL    HW234152   4.492   2.869   6.394  0.3352  0.0905 -1.9932
 7507SOL     OW34153   0.288   0.806   8.709  0.0814  0.1858 -0.5137
 7507SOL    HW134154   0.222   0.815   8.641 -2.2534 -0.6877  1.6279
 7507SOL    HW234155   0.222   0.803   8.778  1.9994  0.4302  1.3594
 7508SOL     OW34156   2.201   1.985   9.598  0.2001 -0.3613 -0.3172
 7508SOL    HW134157   2.157   1.941   9.670  1.2011 -1.2073 -0.2247
 7508SOL    HW234158   2.157   1.936   9.528 -1.8975 -0.6620  1.2071
 7509SOL     OW34159   0.391   3.149   5.068  0.0141  0.2498 -0.0873
 7509SOL    HW134160   0.383   3.241   5.042  0.8931  0.3090 -0.1488
 7509SOL    HW234161   0.462   3.122   5.011  0.8235 -0.0561  1.0613
 7510SOL     OW34162   3.537   2.748  12.919 -0.4978  0.4266 -0.0784
 7510SOL    HW134163   3.607   2.808  12.891 -0.0085 -0.2723 -0.3628
 7510SOL    HW234164   3.557   2.677  12.857  1.2312 -0.9170  2.0311
 7511SOL     OW34165   0.220   3.018  11.699  0.0903 -0.2587 -0.2633
 7511SOL    HW134166   0.146   3.034  11.641  0.9197  0.8847 -1.0052
 7511SOL    HW234167   0.291   3.024  11.634  0.1653 -0.0411 -0.1642
 7512SOL     OW34168   2.420   2.700   4.380  0.1528  0.3407  0.3704
 7512SOL    HW134169   2.447   2.609   4.394  2.0941  0.5080 -2.2200
 7512SOL    HW234170   2.502   2.741   4.353 -0.0268  0.3361 -0.1977
 7513SOL     OW34171   0.307   1.655  11.612 -0.0784  0.0942  0.2018
 7513SOL    HW134172   0.252   1.726  11.580  1.5978  1.0917 -0.4836
 7513SOL    HW234173   0.335   1.715  11.682  0.5499 -0.5168  0.4676
 7514SOL     OW34174   4.502   1.196   9.469  0.1423  0.0878  0.6613
 7514SOL    HW134175   4.542   1.275   9.433 -2.7028  1.5235  0.6342
 7514SOL    HW234176   4.565   1.131   9.439 -0.2139 -0.3293  0.8276
 7515SOL     OW34177   2.234   2.936   9.303 -0.0235 -0.1889 -0.7822
 7515SOL    HW134178   2.196   2.900   9.383 -0.8623 -1.4119 -1.7350
 7515SOL    HW234179   2.259   3.023   9.335  2.1656 -1.1968  0.2562
 7516SOL     OW34180   2.747   3.754  11.301  0.1005 -0.3154 -0.0699
 7516SOL    HW134181   2.747   3.728  11.393  1.2691 -0.8563 -0.2181
 7516SOL    HW234182   2.684   3.685  11.280  0.0328 -0.2471 -0.0910
 7517SOL     OW34183   0.680   2.670   4.565  0.1167 -0.4797  0.6445
 7517SOL    HW134184   0.677   2.688   4.659  1.3226 -0.2442  0.6389
 7517SOL    HW234185   0.589   2.647   4.549  0.2515  1.7009 -3.1390
 7518SOL     OW34186   1.866   2.964   3.261 -0.0017  0.5078 -0.6215
 7518SOL    HW134187   1.885   3.046   3.216 -0.7125  2.0120  1.8023
 7518SOL    HW234188   1.903   2.909   3.192 -2.8518  0.3879 -2.0317
 7519SOL     OW34189   1.980   4.379   8.722 -0.6706 -0.3765 -0.3799
 7519SOL    HW134190   2.013   4.468   8.708  1.7429 -1.2870 -0.4281
 7519SOL    HW234191   1.907   4.382   8.660 -0.4606 -1.8302 -0.6968
 7520SOL     OW34192   2.442   4.144   2.959  0.3718  0.5739  0.2660
 7520SOL    HW134193   2.497   4.115   2.887  2.2888  1.4215  1.3767
 7520SOL    HW234194   2.509   4.184   3.014 -1.3489  1.2138  1.9163
 7521SOL     OW34195   2.525   1.450  14.310  0.1201  0.0198 -0.3063
 7521SOL    HW134196   2.564   1.363  14.309  0.6992  0.2796 -1.0764
 7521SOL    HW234197   2.566   1.496  14.383 -0.2786  1.2562 -0.8577
 7522SOL     OW34198   4.480   4.491   5.529 -0.2329  0.1828  0.2978
 7522SOL    HW134199   4.490   4.532   5.615 -3.0115 -0.1425  0.7787
 7522SOL    HW234200   4.507   4.402   5.551  0.1123  0.5556  1.4075
 7523SOL     OW34201   0.481   0.975   0.281  0.3029 -0.1138 -0.4814
 7523SOL    HW134202   0.534   0.981   0.201  0.0359 -2.2071 -0.8161
 7523SOL    HW234203   0.426   1.046   0.249 -0.5943 -0.4742  0.2587
 7524SOL     OW34204   2.808   3.617   8.830  0.2538  0.2271  0.2806
 7524SOL    HW134205   2.803   3.532   8.787  2.2148 -0.2389  0.9485
 7524SOL    HW234206   2.803   3.679   8.757  1.2039  0.7532  0.6597
 7525SOL     OW34207   2.716   1.719   5.788 -0.4069  0.0575  0.8465
 7525SOL    HW134208   2.641   1.747   5.841 -0.3486 -1.3081  1.6245
 7525SOL    HW234209   2.750   1.656   5.851 -0.7532  0.4081  1.3809
 7526SOL     OW34210   3.042   2.972  16.136 -0.5687 -0.4467  0.1634
 7526SOL    HW134211   3.087   3.003  16.057 -2.6641 -1.1002 -1.3213
 7526SOL    HW234212   3.077   2.887  16.161 -1.7534 -1.8637 -2.9343
 7527SOL     OW34213   0.033   2.847   7.521 -0.1237  0.1547  0.8645
 7527SOL    HW134214   0.087   2.903   7.577 -1.2905  0.1789  1.9674
 7527SOL    HW234215   4.717   2.793   7.576 -0.8684  1.1091  1.0357
 7528SOL     OW34216   3.752   3.556  10.688 -0.4140 -0.3671 -0.9235
 7528SOL    HW134217   3.772   3.648  10.704  0.8419 -1.1703  2.2260
 7528SOL    HW234218   3.778   3.526  10.776  2.4958 -1.4138 -2.1431
 7529SOL     OW34219   0.520   2.120   6.121 -0.3943  0.9317  0.3268
 7529SOL    HW134220   0.613   2.127   6.143 -0.5532  1.0122  0.9657
 7529SOL    HW234221   0.512   2.026   6.139 -1.6565  0.6198 -1.8804
 7530SOL     OW34222   4.047   0.324   8.478  0.1757 -0.6010  0.1557
 7530SOL    HW134223   4.068   0.334   8.571 -1.8169  1.7240  0.3384
 7530SOL    HW234224   4.015   0.234   8.482 -0.7717 -0.2756 -0.3657
 7531SOL     OW34225   2.606   1.787  11.941 -0.5119  0.1506  0.2869
 7531SOL    HW134226   2.606   1.770  11.847  1.3239 -1.4600  0.5859
 7531SOL    HW234227   2.647   1.706  11.972 -1.1737 -0.8549 -1.4098
 7532SOL     OW34228   3.958   4.584   4.355  0.1198  0.1972 -0.4752
 7532SOL    HW134229   3.996   4.497   4.363 -0.2187  0.0313 -0.6651
 7532SOL    HW234230   4.009   4.634   4.419  1.1453  0.2934 -1.3512
 7533SOL     OW34231   1.778   3.417   7.716  0.8994 -0.0297  0.8857
 7533SOL    HW134232   1.705   3.371   7.674  0.1966 -0.0215  2.1013
 7533SOL    HW234233   1.849   3.355   7.698 -0.0611 -1.3059  1.4659
 7534SOL     OW34234   1.785   3.429   8.196  0.1922  0.0908 -0.3227
 7534SOL    HW134235   1.816   3.398   8.110  0.4166  1.1008 -0.5996
 7534SOL    HW234236   1.843   3.504   8.205 -0.0004  0.1333  0.5151
 7535SOL     OW34237   0.697   3.127  14.165 -0.0443  0.2696 -0.7430
 7535SOL    HW134238   0.605   3.154  14.157 -0.3851 -0.3530  0.9089
 7535SOL    HW234239   0.748   3.204  14.143 -0.0765  0.7077  0.7148
 7536SOL     OW34240   2.509   0.487  13.744  0.3225 -0.2322  0.2914
 7536SOL    HW134241   2.495   0.437  13.664 -1.6567  0.7634  0.0279
 7536SOL    HW234242   2.424   0.467  13.784 -0.6461 -0.2988 -1.8017
 7537SOL     OW34243   4.558   3.068   1.416  0.4758 -0.2913  0.8397
 7537SOL    HW134244   4.548   3.163   1.420 -1.3302 -0.4956  1.3222
 7537SOL    HW234245   4.533   3.044   1.505 -0.0419  1.0961  1.0701
 7538SOL     OW34246   0.210   4.230   2.070  0.3727 -0.3223 -0.3156
 7538SOL    HW134247   0.159   4.172   2.014 -0.1091 -0.8835  0.6909
 7538SOL    HW234248   0.137   4.289   2.090 -0.0449 -0.5792 -1.0872
 7539SOL     OW34249   3.540   2.868  14.434  0.0632  0.0161 -0.5132
 7539SOL    HW134250   3.571   2.925  14.364 -1.7241 -0.0036 -1.3416
 7539SOL    HW234251   3.450   2.840  14.417 -0.3258 -0.5217  2.3454
 7540SOL     OW34252   0.487   1.699   7.197  0.5480  0.2575 -0.0560
 7540SOL    HW134253   0.519   1.641   7.128  1.9466  0.1403  0.6874
 7540SOL    HW234254   0.416   1.659   7.246  0.0827 -0.7868 -1.5760
 7541SOL     OW34255   1.980   0.711   5.257  0.0110  0.5227  0.3100
 7541SOL    HW134256   1.910   0.775   5.243  0.9633  1.5560  0.3374
 7541SOL    HW234257   2.028   0.727   5.176 -2.1416  0.4014 -1.0075
 7542SOL     OW34258   4.031   1.421   9.752 -0.5949  0.1761  0.7039
 7542SOL    HW134259   4.066   1.363   9.820 -1.0168 -2.2946 -1.1962
 7542SOL    HW234260   4.095   1.403   9.683 -0.1925  0.6922  0.9461
 7543SOL     OW34261   0.738   3.972   2.655 -0.2477 -0.0271 -0.2463
 7543SOL    HW134262   0.803   3.969   2.585 -0.0362 -0.0246 -0.0513
 7543SOL    HW234263   0.672   3.909   2.626  0.6097 -0.8484 -0.4514
 7544SOL     OW34264   3.180   0.827   8.037  0.0295  0.6301  0.0466
 7544SOL    HW134265   3.246   0.885   7.999  0.5678 -1.5474 -2.3209
 7544SOL    HW234266   3.234   0.796   8.109 -0.9844 -2.1262 -0.3983
 7545SOL     OW34267   2.197   2.741   1.903 -0.1643 -0.1836  0.6605
 7545SOL    HW134268   2.261   2.762   1.971  1.9462 -2.2464 -0.6799
 7545SOL    HW234269   2.128   2.709   1.960  0.8677 -1.3742  1.2536
 7546SOL     OW34270   2.786   3.814   7.590  0.0309  0.1543 -0.5878
 7546SOL    HW134271   2.728   3.842   7.519  0.1180  1.0185 -0.3196
 7546SOL    HW234272   2.848   3.771   7.530 -1.0006  0.2616 -1.7284
 7547SOL     OW34273   3.528   0.053   6.821  0.5871 -0.7184 -0.3387
 7547SOL    HW134274   3.511   0.085   6.733 -3.1415 -2.2604 -0.1684
 7547SOL    HW234275   3.487   4.707   6.827  1.3554 -0.9117  2.2312
 7548SOL     OW34276   3.571   2.947   2.026  0.4694  0.1521  0.6379
 7548SOL    HW134277   3.557   2.946   1.931 -0.5221  2.1944  0.7706
 7548SOL    HW234278   3.665   2.932   2.035  0.4409 -0.4043  0.0083
 7549SOL     OW34279   3.250   2.066   8.874  0.1127 -0.6173 -0.3216
 7549SOL    HW134280   3.330   2.113   8.897 -1.1795  0.5239  1.8569
 7549SOL    HW234281   3.239   2.023   8.959  2.5292  0.6773  0.6596
 7550SOL     OW34282   4.005   1.691   7.466 -0.0837 -0.1111 -0.4823
 7550SOL    HW134283   4.058   1.690   7.387  0.8077  0.2454  0.1169
 7550SOL    HW234284   4.036   1.615   7.515  0.4932  2.5013  3.2164
 7551SOL     OW34285   0.599   1.034   2.366  0.2304 -0.1694  0.2758
 7551SOL    HW134286   0.529   1.028   2.301  0.3686  2.4050 -0.1051
 7551SOL    HW234287   0.572   1.108   2.421 -0.3694  0.4010 -0.7889
 7552SOL     OW34288   2.373   3.526   7.056 -0.7939  0.1101 -0.4884
 7552SOL    HW134289   2.300   3.469   7.030 -0.5498 -0.9269  1.1107
 7552SOL    HW234290   2.428   3.455   7.086 -0.3361  0.7393  0.1477
 7553SOL     OW34291   1.300   1.004   4.898  0.4073  0.1147 -0.2180
 7553SOL    HW134292   1.322   1.073   4.960 -0.7906  0.2007  0.1061
 7553SOL    HW234293   1.242   0.953   4.954 -0.5622 -1.3610 -2.5659
 7554SOL     OW34294   3.850   3.689   8.989 -0.6972  0.1719 -0.0427
 7554SOL    HW134295   3.777   3.703   9.049 -0.8315  1.4222 -0.4984
 7554SOL    HW234296   3.893   3.774   9.000 -1.9111  0.8575 -0.5485
 7555SOL     OW34297   1.586   1.930   4.507 -0.1241  0.0191 -0.6894
 7555SOL    HW134298   1.516   1.920   4.442 -0.8954  0.4602  0.0811
 7555SOL    HW234299   1.653   1.957   4.444  0.5104 -1.0701 -0.4852
 7556SOL     OW34300   0.799   4.673  15.661 -0.1150 -0.1324  0.8818
 7556SOL    HW134301   0.719   4.724  15.674 -1.3378 -1.6771 -0.4783
 7556SOL    HW234302   0.762   4.585  15.656 -0.5971  0.0885  0.5254
 7557SOL     OW34303   3.761   1.653   2.669 -0.1111 -0.3143 -0.1629
 7557SOL    HW134304   3.665   1.653   2.669 -0.1186  0.1203  1.2132
 7557SOL    HW234305   3.780   1.563   2.695  0.4376 -0.2097 -0.2044
 7558SOL     OW34306   3.005   4.257   9.979  0.1925  0.2727 -0.4838
 7558SOL    HW134307   2.941   4.193  10.008  1.0482 -0.8234 -1.0178
 7558SOL    HW234308   3.086   4.206   9.990  0.9144  1.7065  0.8251
 7559SOL     OW34309   1.228   2.059   8.568  0.2181  0.1054 -0.2777
 7559SOL    HW134310   1.136   2.042   8.545  0.8259 -1.5759 -1.4826
 7559SOL    HW234311   1.272   1.984   8.528 -0.1768  0.0450 -0.6037
 7560SOL     OW34312   0.534   2.021   7.185 -0.0079  0.1151 -0.7855
 7560SOL    HW134313   0.516   1.930   7.207 -0.1651  0.2105 -0.5141
 7560SOL    HW234314   0.593   2.014   7.111  0.6230  1.5404 -0.4124
 7561SOL     OW34315   1.841   1.079   8.170  0.3755 -0.2841  0.2588
 7561SOL    HW134316   1.857   1.173   8.176  0.8927 -0.1952 -2.5900
 7561SOL    HW234317   1.771   1.084   8.106 -0.4417 -0.6560  1.1212
 7562SOL     OW34318   0.716   0.200   7.578  0.4040  0.0267  0.8649
 7562SOL    HW134319   0.656   0.138   7.536  0.1972  1.1859 -0.5505
 7562SOL    HW234320   0.677   0.279   7.539  2.9029  0.3287 -1.0167
 7563SOL     OW34321   0.435   0.875  12.039 -0.1973 -0.2873 -0.0923
 7563SOL    HW134322   0.426   0.944  12.105  0.1453  0.6443 -1.0102
 7563SOL    HW234323   0.362   0.902  11.983  0.5247 -1.9734 -1.8196
 7564SOL     OW34324   0.235   2.398   1.460  0.1949  0.1887 -0.6170
 7564SOL    HW134325   0.258   2.478   1.508 -1.2095  0.7876 -0.9445
 7564SOL    HW234326   0.154   2.381   1.509  1.2337 -1.1680  0.6195
 7565SOL     OW34327   4.020   4.095   4.566 -0.3494  0.1047 -0.0988
 7565SOL    HW134328   3.947   4.082   4.505 -1.3524  1.7317  0.7621
 7565SOL    HW234329   3.974   4.092   4.650  1.1144  0.8310  0.7268
 7566SOL     OW34330   2.319   3.367   9.117 -0.5446  0.1252 -0.6403
 7566SOL    HW134331   2.334   3.401   9.206  0.8243 -2.9885  0.3008
 7566SOL    HW234332   2.283   3.445   9.074 -0.1923  1.7214  1.9538
 7567SOL     OW34333   0.535   2.170   1.340  0.4181  0.1076 -0.0702
 7567SOL    HW134334   0.501   2.145   1.426 -1.6968  1.8523 -0.3856
 7567SOL    HW234335   0.597   2.236   1.372  0.7425 -0.5497  0.6669
 7568SOL     OW34336   4.606   1.144  14.497 -0.0038 -0.2433  0.0714
 7568SOL    HW134337   4.581   1.197  14.422  0.8149  0.5383  0.3535
 7568SOL    HW234338   4.556   1.181  14.570  0.8210  2.1655 -0.5790
 7569SOL     OW34339   1.492   3.659   7.293 -0.0061  0.0576 -0.0715
 7569SOL    HW134340   1.418   3.613   7.253  0.2134 -0.7160  0.4015
 7569SOL    HW234341   1.540   3.593   7.343 -0.7966  0.9503  1.8788
 7570SOL     OW34342   1.226   3.009  11.207 -0.3629 -0.2798  0.2874
 7570SOL    HW134343   1.193   3.037  11.122  1.3280 -2.7112 -1.1650
 7570SOL    HW234344   1.141   2.987  11.245  0.4498 -3.1459  0.4461
 7571SOL     OW34345   0.252   3.238   2.694  0.6817  0.3479 -0.5601
 7571SOL    HW134346   0.181   3.190   2.651  1.1068  0.8904 -1.8800
 7571SOL    HW234347   0.239   3.318   2.642  1.8935  0.1963 -1.0869
 7572SOL     OW34348   1.951   0.498  13.600 -0.5523  0.2892 -0.0266
 7572SOL    HW134349   1.915   0.428  13.655 -0.7343 -1.2744 -2.1198
 7572SOL    HW234350   2.045   0.492  13.616 -0.7953  1.4888  1.6970
 7573SOL     OW34351   3.000   3.543   6.186 -1.2310 -0.3070  0.3414
 7573SOL    HW134352   3.092   3.519   6.176 -1.5372 -0.2498 -2.6203
 7573SOL    HW234353   2.982   3.499   6.269 -0.1967 -1.7877 -0.2220
 7574SOL     OW34354   2.117   3.628   3.522 -0.3031  0.0460  0.3728
 7574SOL    HW134355   2.030   3.591   3.535  0.4066 -1.4802  0.7665
 7574SOL    HW234356   2.106   3.684   3.445  0.9496 -0.1023  0.0860
 7575SOL     OW34357   0.113   1.688   9.684 -0.0347  0.0505  0.5059
 7575SOL    HW134358   0.075   1.710   9.599 -0.2911  0.3955  0.7077
 7575SOL    HW234359   0.040   1.692   9.746  0.1779 -2.1601  0.9021
 7576SOL     OW34360   4.124   0.818  13.440  0.7075  0.0449  0.1696
 7576SOL    HW134361   4.043   0.773  13.463  0.6999  0.9023  1.8446
 7576SOL    HW234362   4.148   0.840  13.530  0.9604  0.3943  0.0172
 7577SOL     OW34363   1.930   2.790  17.637 -0.6040  0.5956 -0.2833
 7577SOL    HW134364   1.966   2.878  17.642  0.6487  0.1174 -0.8676
 7577SOL    HW234365   1.955   2.746  17.718  2.2143  3.6110  0.4822
 7578SOL     OW34366   0.978   1.977  11.092 -0.1855 -0.0636 -0.3167
 7578SOL    HW134367   1.019   2.056  11.128 -0.4877  0.0087 -0.1237
 7578SOL    HW234368   0.983   1.928  11.174  0.2646  1.0641  0.3340
 7579SOL     OW34369   0.094   2.242  11.365 -0.4960  0.7628 -0.0486
 7579SOL    HW134370   0.047   2.166  11.332 -0.3822  1.1500 -1.1025
 7579SOL    HW234371   0.106   2.234  11.460  1.8105 -0.9456 -0.4940
 7580SOL     OW34372   3.704   4.373   2.745 -0.0269  0.0561 -0.6098
 7580SOL    HW134373   3.734   4.283   2.755  0.3357  0.1187 -1.1252
 7580SOL    HW234374   3.654   4.373   2.663 -1.1065  0.9664  0.0473
 7581SOL     OW34375   0.273   1.456   8.831 -0.2521 -0.1022 -0.2514
 7581SOL    HW134376   0.221   1.493   8.902  0.4677  1.6902 -0.6768
 7581SOL    HW234377   0.320   1.536   8.808 -0.4185 -0.7403 -2.7720
 7582SOL     OW34378   2.669   4.329   2.112 -0.2548  0.0243 -0.0631
 7582SOL    HW134379   2.685   4.402   2.172 -0.3813 -1.2599  1.5155
 7582SOL    HW234380   2.605   4.273   2.156  1.5302 -0.0135  2.4176
 7583SOL     OW34381   4.237   1.758   3.456 -0.2432 -0.0510 -0.3053
 7583SOL    HW134382   4.178   1.707   3.400 -0.2684  0.0217 -0.3442
 7583SOL    HW234383   4.220   1.716   3.541  0.6338  1.0136  0.3917
 7584SOL     OW34384   4.604   4.652   8.984  0.4140 -0.3913  0.4225
 7584SOL    HW134385   4.573   4.708   9.055 -3.7396 -1.5263 -0.4889
 7584SOL    HW234386   4.560   4.702   8.914  1.6266  0.8919  0.5761
 7585SOL     OW34387   1.126   1.233   6.386 -0.2065 -0.0264 -0.2240
 7585SOL    HW134388   1.161   1.169   6.448 -1.2803  0.3921  0.8123
 7585SOL    HW234389   1.208   1.270   6.352  0.4127  1.3229  2.7485
 7586SOL     OW34390   3.518   0.340   8.312  0.9413  0.1590  0.6855
 7586SOL    HW134391   3.454   0.350   8.242  0.2251  0.3569  1.3756
 7586SOL    HW234392   3.460   0.330   8.387  0.1562  0.8838  0.1674
 7587SOL     OW34393   2.016   0.280  13.351  0.0073  0.1971 -0.1082
 7587SOL    HW134394   1.932   0.307  13.388 -1.2095  1.0891 -3.5380
 7587SOL    HW234395   2.076   0.353  13.364  0.3030  0.1327 -1.1227
 7588SOL     OW34396   1.211   1.828   5.432  0.0205  0.0385  0.2491
 7588SOL    HW134397   1.184   1.801   5.520  2.0110  0.2136  0.9048
 7588SOL    HW234398   1.122   1.845   5.401  0.1685 -1.3269 -0.9492
 7589SOL     OW34399   1.206   3.487   8.721  0.7232  0.3196 -0.0055
 7589SOL    HW134400   1.141   3.542   8.763  0.8067 -0.4796  1.1598
 7589SOL    HW234401   1.194   3.400   8.760 -1.2261  0.7044  0.2508
 7590SOL     OW34402   0.588   4.663   1.731 -0.3402  0.0982  0.0804
 7590SOL    HW134403   0.521   4.621   1.784  0.2206  0.3730  0.9993
 7590SOL    HW234404   0.658   4.608   1.767 -0.3022 -0.7552 -1.3001
 7591SOL     OW34405   4.432   0.206   6.996 -0.2407 -0.2046  0.1003
 7591SOL    HW134406   4.524   0.225   6.975 -0.9262  0.7887 -1.8846
 7591SOL    HW234407   4.437   0.123   6.948  1.1848 -0.5259  0.8012
 7592SOL     OW34408   3.358   1.419   8.094  0.4039  1.2131 -0.1301
 7592SOL    HW134409   3.428   1.483   8.108 -0.0745  1.5669  0.6490
 7592SOL    HW234410   3.317   1.423   8.181  0.0569  0.5829 -0.2565
 7593SOL     OW34411   1.287   4.212   7.939 -0.0852 -0.4036  0.4408
 7593SOL    HW134412   1.348   4.234   7.869 -0.4200 -0.5881  0.0926
 7593SOL    HW234413   1.214   4.252   7.893 -0.6171 -0.8172  0.9136
 7594SOL     OW34414   2.600   3.943  14.089  0.3619  0.6114 -0.2408
 7594SOL    HW134415   2.635   3.948  14.178  2.0633 -2.1015 -0.7757
 7594SOL    HW234416   2.622   4.033  14.064 -1.7556  1.9143  2.5670
 7595SOL     OW34417   1.899   0.396   0.739  0.4791 -0.6572  0.1779
 7595SOL    HW134418   1.848   0.413   0.818 -0.9323  1.0969 -1.0879
 7595SOL    HW234419   1.876   0.473   0.686 -1.9617  0.0524  2.3023
 7596SOL     OW34420   1.154   1.571  14.987 -0.0615 -0.1422  0.1203
 7596SOL    HW134421   1.101   1.492  14.980 -0.2566 -0.1078  1.2004
 7596SOL    HW234422   1.184   1.576  15.078  1.0734 -1.3802 -0.1695
 7597SOL     OW34423   2.306   2.618  12.553 -0.0442 -0.2915 -0.4397
 7597SOL    HW134424   2.218   2.644  12.583  0.2667  0.5720 -0.2697
 7597SOL    HW234425   2.313   2.541  12.610  0.7471 -0.2667 -0.5087
 7598SOL     OW34426   0.568   3.458   8.523 -0.3947 -0.5187  0.2167
 7598SOL    HW134427   0.609   3.379   8.488  2.2199  1.0567 -0.2033
 7598SOL    HW234428   0.637   3.516   8.491  0.1534 -0.2341  1.8890
 7599SOL     OW34429   1.884   0.324   2.377  0.2296 -0.0952  0.5720
 7599SOL    HW134430   1.877   0.417   2.397  2.2726 -0.0580  1.1787
 7599SOL    HW234431   1.797   0.302   2.345  0.7899 -1.4205 -0.0879
 7600SOL     OW34432   0.246   4.319   8.024  0.5026  0.1536  0.4779
 7600SOL    HW134433   0.168   4.272   8.054  0.0473 -0.4290 -1.5770
 7600SOL    HW234434   0.289   4.329   8.108 -0.5853  0.8511  0.9484
 7601SOL     OW34435   4.299   4.687   9.833  0.1950  0.8304 -0.7197
 7601SOL    HW134436   4.332   4.639   9.909  0.1448 -2.3025 -2.6919
 7601SOL    HW234437   4.210   4.708   9.863  1.9701  1.9845  3.7819
 7602SOL     OW34438   2.708   4.034   8.119 -0.4555  0.0599  0.4376
 7602SOL    HW134439   2.632   3.982   8.144 -0.0717  0.3268  2.1486
 7602SOL    HW234440   2.739   3.991   8.040  0.1024  1.8751 -0.3357
 7603SOL     OW34441   4.416   1.410   2.689  0.4421  0.2226 -0.2628
 7603SOL    HW134442   4.447   1.381   2.776 -2.4449 -1.8319  0.0992
 7603SOL    HW234443   4.407   1.503   2.710  1.6961  0.0884  0.9710
 7604SOL     OW34444   3.253   4.520   8.306  0.3152 -0.1437 -0.3989
 7604SOL    HW134445   3.177   4.496   8.253 -0.1934 -1.8196  1.0999
 7604SOL    HW234446   3.301   4.440   8.282  0.8044 -0.3315  1.2056
 7605SOL     OW34447   1.103   0.230   5.404  0.4722  0.2196 -0.1489
 7605SOL    HW134448   1.096   0.313   5.450  3.1286  0.9228 -1.0323
 7605SOL    HW234449   1.013   0.214   5.376  0.8586 -0.4106 -1.0183
 7606SOL     OW34450   4.353   0.065   8.412  0.7060 -0.1308  1.1250
 7606SOL    HW134451   4.272   0.020   8.388 -0.2864  1.0455  2.3469
 7606SOL    HW234452   4.336   0.155   8.384  2.3744  0.3280  1.5653
 7607SOL     OW34453   0.358   3.508  13.466 -1.0478 -0.4438 -0.7359
 7607SOL    HW134454   0.452   3.500  13.482 -1.4790 -2.0484  0.9927
 7607SOL    HW234455   0.350   3.583  13.407  1.7197  0.0875 -0.4486
 7608SOL     OW34456   1.205   4.268   4.078  0.5286 -0.0704 -0.6072
 7608SOL    HW134457   1.162   4.314   4.006 -3.1959 -3.1769 -0.3696
 7608SOL    HW234458   1.223   4.180   4.047  0.6148 -0.4330  0.4839
 7609SOL     OW34459   4.283   3.410   6.552  0.0821  0.4292 -0.4793
 7609SOL    HW134460   4.306   3.317   6.542 -0.2434 -0.1040  3.8026
 7609SOL    HW234461   4.239   3.435   6.471 -0.1032 -0.4351 -0.6465
 7610SOL     OW34462   3.883   2.214   6.903  0.0371 -0.0141  0.2290
 7610SOL    HW134463   3.835   2.262   6.835  0.8942 -1.0483 -1.1246
 7610SOL    HW234464   3.926   2.285   6.951  0.5993 -1.3055  1.6433
 7611SOL     OW34465   0.608   2.963  11.785  0.0797 -0.2855  0.5931
 7611SOL    HW134466   0.515   2.982  11.776  0.2974 -0.1852 -1.4843
 7611SOL    HW234467   0.616   2.894  11.851 -3.1268  0.3973  1.6873
 7612SOL     OW34468   2.435   1.336   9.709 -0.4578  0.4193  0.2582
 7612SOL    HW134469   2.486   1.257   9.727  0.6825  1.2562  0.7187
 7612SOL    HW234470   2.391   1.302   9.632  2.8445  0.9769 -1.8892
 7613SOL     OW34471   4.283   1.269   2.508 -0.2455  0.0573 -0.0225
 7613SOL    HW134472   4.323   1.334   2.566  0.7771  0.9950 -1.7891
 7613SOL    HW234473   4.211   1.309   2.460  2.6295  0.9660 -3.6372
 7614SOL     OW34474   4.297   4.623  13.694 -0.6274  0.2636 -0.1774
 7614SOL    HW134475   4.371   4.679  13.667  0.0570 -2.0536 -3.0382
 7614SOL    HW234476   4.221   4.663  13.653  0.5523  2.8493  0.1308
 7615SOL     OW34477   1.074   2.166   1.494 -0.3052 -0.3890  0.0018
 7615SOL    HW134478   1.119   2.229   1.551 -0.4941  1.2131 -1.6157
 7615SOL    HW234479   1.002   2.140   1.551 -0.1536 -0.5701  0.1108
 7616SOL     OW34480   3.794   0.436   4.889  0.3758 -0.2354 -0.8223
 7616SOL    HW134481   3.857   0.395   4.829 -0.0889 -1.1934 -0.6432
 7616SOL    HW234482   3.845   0.509   4.926 -1.5994  0.2640  0.8679
 7617SOL     OW34483   2.817   1.234   3.752  0.2705 -0.2577  0.0443
 7617SOL    HW134484   2.829   1.210   3.660 -2.3425  1.1138 -0.6805
 7617SOL    HW234485   2.729   1.203   3.776 -0.3478  1.2087 -0.2950
 7618SOL     OW34486   2.548   1.795   8.466  0.0963  0.3333  0.4829
 7618SOL    HW134487   2.578   1.727   8.407  0.0096 -0.0851  0.9199
 7618SOL    HW234488   2.467   1.758   8.501 -0.4192 -0.1464 -1.2210
 7619SOL     OW34489   0.620   0.578   9.299 -0.1038  0.6431  0.3682
 7619SOL    HW134490   0.593   0.502   9.350 -0.0657 -0.1380 -0.7781
 7619SOL    HW234491   0.700   0.605   9.344 -1.0103 -0.1395  2.4476
 7620SOL     OW34492   0.728   2.202   7.321  0.3089 -0.1031 -0.1235
 7620SOL    HW134493   0.662   2.139   7.292 -0.4641  0.6817 -0.0613
 7620SOL    HW234494   0.676   2.254   7.383 -2.0463 -2.2090 -0.3336
 7621SOL     OW34495   1.096   4.334   3.252  0.2109 -0.3548  0.0413
 7621SOL    HW134496   1.081   4.385   3.173  0.5145 -0.4667 -0.0892
 7621SOL    HW234497   1.022   4.358   3.308  3.0709  0.8813  3.3098
 7622SOL     OW34498   0.927   3.619   0.990 -0.1577 -0.1189 -0.0429
 7622SOL    HW134499   1.018   3.645   0.975 -0.8317  2.5758  0.5254
 7622SOL    HW234500   0.899   3.604   0.900 -0.6994 -1.2019  0.3056
 7623SOL     OW34501   4.294   0.184  11.593 -0.4413 -0.4082 -0.3158
 7623SOL    HW134502   4.306   0.221  11.506 -0.4845 -0.7406 -0.4653
 7623SOL    HW234503   4.249   0.256  11.637  2.7889  1.9407 -0.8332
 7624SOL     OW34504   2.113   2.037  15.313  0.3482  0.9767  0.2448
 7624SOL    HW134505   2.044   1.974  15.335  1.8534 -0.5667  0.5059
 7624SOL    HW234506   2.081   2.059  15.226 -0.5102  4.6856  1.4549
 7625SOL     OW34507   2.793   3.508   3.335  0.2403  0.0624 -0.1712
 7625SOL    HW134508   2.801   3.574   3.266  2.3089 -0.1859 -0.1834
 7625SOL    HW234509   2.883   3.494   3.364 -0.3396 -0.0491  1.6101
 7626SOL     OW34510   1.493   3.714   4.566  0.0492 -0.4981 -0.4882
 7626SOL    HW134511   1.496   3.675   4.478  2.7565 -3.0727  0.7686
 7626SOL    HW234512   1.414   3.768   4.564 -0.4621 -1.2383 -0.2752
 7627SOL     OW34513   2.365   4.556   9.513 -0.1066 -0.3269  0.8533
 7627SOL    HW134514   2.291   4.497   9.525 -0.1513 -0.0995  1.6490
 7627SOL    HW234515   2.364   4.572   9.418  1.4579  2.3562  1.2837
 7628SOL     OW34516   2.473   3.831  10.097  0.0540  0.0730 -0.6568
 7628SOL    HW134517   2.382   3.860  10.086 -0.1898 -1.4646 -2.6256
 7628SOL    HW234518   2.464   3.746  10.140  0.5746  0.2880 -0.1159
 7629SOL     OW34519   0.686   2.136   6.424 -0.1504 -0.1457 -0.1669
 7629SOL    HW134520   0.774   2.132   6.386 -0.3520  1.7788 -0.7906
 7629SOL    HW234521   0.689   2.212   6.481 -3.4195  0.0660 -0.2989
 7630SOL     OW34522   1.982   1.923   8.884  0.1434 -0.6879 -0.2510
 7630SOL    HW134523   2.047   1.978   8.840 -0.0989  1.4435  2.0450
 7630SOL    HW234524   2.031   1.882   8.955  0.7989  0.8592  0.1809
 7631SOL     OW34525   2.440   2.476   3.234  0.2181 -0.4212 -0.5470
 7631SOL    HW134526   2.530   2.506   3.240  1.0441 -2.9261 -0.1743
 7631SOL    HW234527   2.459   2.383   3.221  0.6249 -0.9146  3.5747
 7632SOL     OW34528   0.461   1.089   6.209  0.5754 -0.1801  0.0188
 7632SOL    HW134529   0.513   1.010   6.202 -2.1799 -2.1164  1.5274
 7632SOL    HW234530   0.420   1.067   6.293 -0.2806 -0.3025 -0.4349
 7633SOL     OW34531   2.182   0.222   9.634  0.5738  0.2316 -0.3219
 7633SOL    HW134532   2.237   0.233   9.712 -0.4110 -0.7927  0.5150
 7633SOL    HW234533   2.209   0.308   9.600  1.5287  0.0794  0.0517
 7634SOL     OW34534   2.289   4.178   7.816 -0.2890  0.1267  0.2880
 7634SOL    HW134535   2.350   4.160   7.744 -1.2109 -1.3421 -0.1178
 7634SOL    HW234536   2.310   4.271   7.823 -1.6471  0.5684 -1.6446
 7635SOL     OW34537   0.149   2.004   9.609  0.2631 -0.2512  0.8518
 7635SOL    HW134538   0.166   1.990   9.702  2.7777  1.0466  0.5749
 7635SOL    HW234539   0.187   1.930   9.561  0.9200  1.6079 -1.5045
 7636SOL     OW34540   3.158   0.340  11.617  0.7156 -0.0736  0.4093
 7636SOL    HW134541   3.076   0.380  11.645 -0.7092 -2.6700  0.0007
 7636SOL    HW234542   3.190   0.414  11.566 -2.4524  0.5491 -0.6746
 7637SOL     OW34543   0.181   3.106   5.503 -0.0382  0.0867 -0.3021
 7637SOL    HW134544   0.086   3.108   5.508  0.0377  0.8884  0.8281
 7637SOL    HW234545   0.203   3.197   5.522  0.3311  0.1140 -0.8669
 7638SOL     OW34546   3.522   2.701   5.181 -0.5623 -0.2160  0.1430
 7638SOL    HW134547   3.460   2.737   5.244 -0.0559 -0.7023  0.9255
 7638SOL    HW234548   3.480   2.624   5.143 -1.7861 -0.1254  1.3402
 7639SOL     OW34549   3.289   2.645   4.175 -0.4667  0.9659 -0.4629
 7639SOL    HW134550   3.261   2.694   4.097  2.8620 -1.7388 -3.3873
 7639SOL    HW234551   3.384   2.657   4.174 -0.4043  0.6118  3.0398
 7640SOL     OW34552   4.558   1.559   7.789 -0.0525  0.2411  0.3313
 7640SOL    HW134553   4.647   1.579   7.763 -0.0807 -0.9488 -0.6803
 7640SOL    HW234554   4.517   1.641   7.819 -2.1350  0.4425 -3.0916
 7641SOL     OW34555   4.271   0.139   2.891  0.2917 -0.0497 -0.1000
 7641SOL    HW134556   4.182   0.154   2.924 -0.0636  0.0186 -1.0921
 7641SOL    HW234557   4.291   0.224   2.852  0.6723  0.5015  1.3027
 7642SOL     OW34558   4.458   1.604   4.678 -0.4536  0.2779 -0.3807
 7642SOL    HW134559   4.390   1.582   4.742  2.2185 -1.6304  1.7675
 7642SOL    HW234560   4.466   1.700   4.678 -1.1408  0.3358  0.1200
 7643SOL     OW34561   0.173   3.368   0.355  0.2582  0.5863  0.5892
 7643SOL    HW134562   0.141   3.277   0.356  0.9705  0.3041 -1.1406
 7643SOL    HW234563   0.196   3.392   0.444 -0.6986  0.7783  0.7870
 7644SOL     OW34564   4.126   0.396  17.338  0.0891 -0.1806  0.1685
 7644SOL    HW134565   4.076   0.400  17.257 -0.0320 -0.7445  0.2118
 7644SOL    HW234566   4.206   0.435  17.305 -1.0781  0.5075 -1.8546
 7645SOL     OW34567   3.540   4.055   9.611 -0.3085  0.0130 -0.1823
 7645SOL    HW134568   3.625   4.078   9.647  0.2355 -1.1724 -0.7132
 7645SOL    HW234569   3.511   3.983   9.667 -0.9316  0.1903 -0.2702
 7646SOL     OW34570   4.131   1.849   6.947  0.3299  0.0441 -0.1491
 7646SOL    HW134571   4.078   1.890   6.877 -0.1311 -1.4699 -0.6855
 7646SOL    HW234572   4.205   1.908   6.933  1.2472 -1.0751  0.0590
 7647SOL     OW34573   0.531   2.850   6.655  0.4016 -0.1403  0.1991
 7647SOL    HW134574   0.486   2.766   6.669  2.9056 -1.2514  1.4159
 7647SOL    HW234575   0.482   2.907   6.715 -2.4313 -1.4629 -0.8532
 7648SOL     OW34576   4.565   2.936   3.907 -0.0616 -0.2976  0.7382
 7648SOL    HW134577   4.645   2.885   3.892 -1.1146 -2.0170  0.9452
 7648SOL    HW234578   4.564   2.944   4.002  0.8160  1.7484  0.5697
 7649SOL     OW34579   4.416   0.506   4.763  0.2563  0.5373 -0.3946
 7649SOL    HW134580   4.483   0.572   4.782  1.9058 -1.0814 -0.6678
 7649SOL    HW234581   4.388   0.473   4.849 -0.3948  0.2999 -0.6971
 7650SOL     OW34582   3.596   1.842  16.666  0.0177  0.3148 -0.5464
 7650SOL    HW134583   3.506   1.872  16.680 -0.4758 -1.2787 -0.2760
 7650SOL    HW234584   3.624   1.830  16.756  2.8032  2.0605 -1.1893
 7651SOL     OW34585   1.381   2.867   1.176  0.0425  0.4393  0.1717
 7651SOL    HW134586   1.383   2.771   1.176 -0.2510  0.4316 -0.0762
 7651SOL    HW234587   1.305   2.890   1.122 -0.5001 -3.3874 -0.7563
 7652SOL     OW34588   0.178   2.867  17.609 -0.7256  0.1569  1.0043
 7652SOL    HW134589   0.102   2.876  17.666 -1.1685  0.8468  0.3101
 7652SOL    HW234590   0.143   2.879  17.520 -1.2708 -1.5236  0.9975
 7653SOL     OW34591   0.697   1.058   1.880  0.2973  0.3043 -0.0047
 7653SOL    HW134592   0.720   1.025   1.793  0.3845  0.0487  0.1155
 7653SOL    HW234593   0.609   1.023   1.888 -1.0014  3.2905 -1.4851
 7654SOL     OW34594   2.976   3.526   7.217  0.5701 -0.1573  0.3871
 7654SOL    HW134595   2.982   3.620   7.204  1.3785 -0.0897  1.2388
 7654SOL    HW234596   3.063   3.498   7.244  0.7646  2.1972  2.1793
 7655SOL     OW34597   3.649   2.263   7.569  0.0022 -0.1352  0.1131
 7655SOL    HW134598   3.573   2.206   7.579  0.4880 -0.7510  0.2720
 7655SOL    HW234599   3.624   2.332   7.631 -1.8226 -0.1673 -0.5786
 7656SOL     OW34600   3.564   2.055   3.414  0.2970 -0.3523  0.5764
 7656SOL    HW134601   3.555   2.021   3.325  1.1367 -0.5606  0.5706
 7656SOL    HW234602   3.507   2.001   3.469 -1.2842 -0.0718 -0.8033
 7657SOL     OW34603   1.340   2.760   4.357 -0.1592  0.6893 -0.5240
 7657SOL    HW134604   1.385   2.689   4.403  0.2727  1.1959 -0.1539
 7657SOL    HW234605   1.401   2.830   4.380 -0.2625  0.0700  1.6433
 7658SOL     OW34606   0.786   2.936   6.675  0.8714  0.6462 -0.3633
 7658SOL    HW134607   0.702   2.896   6.654  1.1767 -0.9080  1.3756
 7658SOL    HW234608   0.823   2.861   6.723  2.0492 -0.1291 -2.4607
 7659SOL     OW34609   4.527   2.433  17.492 -0.1192 -0.3009  0.2786
 7659SOL    HW134610   4.504   2.489  17.566  2.2446  0.1637  0.6583
 7659SOL    HW234611   4.468   2.358  17.496  2.9731 -2.7151  0.9869
 7660SOL     OW34612   4.394   3.821   5.360 -0.3879  0.0082  0.0578
 7660SOL    HW134613   4.472   3.850   5.314 -0.8672  1.1647 -0.0126
 7660SOL    HW234614   4.426   3.732   5.376 -0.1802 -0.4168 -2.7299
 7661SOL     OW34615   3.592   2.673  13.324  0.3854 -0.0985  0.4613
 7661SOL    HW134616   3.611   2.608  13.255 -0.6857  0.1660 -0.0864
 7661SOL    HW234617   3.515   2.717  13.287  1.3834  1.1095 -0.1622
 7662SOL     OW34618   0.927   0.959   2.206  0.0524 -0.4123  0.2157
 7662SOL    HW134619   0.928   1.016   2.129 -1.1051 -0.8621 -0.1233
 7662SOL    HW234620   1.008   0.908   2.210  0.4262  0.1461 -0.1858
 7663SOL     OW34621   1.296   3.288   4.670 -0.3697 -0.5042 -0.0429
 7663SOL    HW134622   1.256   3.375   4.670  0.4622 -0.1271  0.3262
 7663SOL    HW234623   1.258   3.240   4.596  0.6480 -0.9007 -0.3121
 7664SOL     OW34624   4.482   2.141  17.554  0.1432  0.3856 -0.2068
 7664SOL    HW134625   4.397   2.124  17.513 -0.7412  1.6056  1.0839
 7664SOL    HW234626   4.544   2.085  17.507  0.7820 -1.2754  2.6382
 7665SOL     OW34627   0.324   1.740  12.265 -0.1865 -0.9119  0.4674
 7665SOL    HW134628   0.237   1.779  12.264 -0.8342 -2.3534  0.7428
 7665SOL    HW234629   0.312   1.652  12.229 -0.5003  0.3886 -2.5665
 7666SOL     OW34630   2.828   2.864   8.234 -0.1346 -0.2504  0.4302
 7666SOL    HW134631   2.893   2.891   8.168 -0.9506  1.2255  0.2257
 7666SOL    HW234632   2.862   2.910   8.312 -3.1434  0.2490  1.4352
 7667SOL     OW34633   2.438   0.377   3.139  0.1615  0.3082 -0.4958
 7667SOL    HW134634   2.377   0.366   3.066  0.2962  0.2417 -0.5984
 7667SOL    HW234635   2.380   0.344   3.207  0.8717  1.9674  0.9064
 7668SOL     OW34636   1.915   4.251   6.122 -0.6184 -0.3708 -0.3392
 7668SOL    HW134637   1.980   4.186   6.150 -1.8294 -0.6247  1.9127
 7668SOL    HW234638   1.870   4.201   6.054 -0.7938  0.5780 -0.9210
 7669SOL     OW34639   0.702   0.944   4.467 -0.5713  0.3731  0.2889
 7669SOL    HW134640   0.683   0.906   4.381 -3.2965  2.3676  0.0068
 7669SOL    HW234641   0.776   0.999   4.440  0.3194 -2.2949 -2.6918
 7670SOL     OW34642   1.279   0.754   4.170  0.0932 -0.4202 -0.3159
 7670SOL    HW134643   1.268   0.678   4.112 -0.9509  0.5839 -1.4345
 7670SOL    HW234644   1.371   0.746   4.192  0.5890  0.7232 -1.9410
 7671SOL     OW34645   0.815   0.642   5.656 -0.5287  0.4190 -0.0920
 7671SOL    HW134646   0.830   0.616   5.565  2.7504 -1.6389  1.0381
 7671SOL    HW234647   0.900   0.636   5.698 -0.7297 -0.1518  0.2300
 7672SOL     OW34648   2.041   1.258  17.256  0.0303 -0.3186 -0.0925
 7672SOL    HW134649   1.958   1.304  17.259  0.3981  0.4157 -1.1037
 7672SOL    HW234650   2.037   1.222  17.168 -0.8362 -0.5117  0.0277
 7673SOL     OW34651   4.266   4.059   5.358  0.4688 -0.3788  0.1618
 7673SOL    HW134652   4.295   3.968   5.370  4.3124  0.7007 -1.0530
 7673SOL    HW234653   4.312   4.098   5.432  1.0602 -0.8288  0.0253
 7674SOL     OW34654   1.757   4.621   7.557  0.0508 -0.0214  0.1658
 7674SOL    HW134655   1.672   4.629   7.514 -0.6786  0.0398  1.6183
 7674SOL    HW234656   1.769   4.527   7.544  0.6555  0.1985 -0.8738
 7675SOL     OW34657   2.224   1.962   2.530 -0.0435 -0.8048  0.3134
 7675SOL    HW134658   2.178   1.940   2.449 -0.4687 -0.6225  0.5028
 7675SOL    HW234659   2.160   1.988   2.597 -1.5027 -0.7131 -1.1057
 7676SOL     OW34660   3.248   3.594   4.834  0.0849  0.3289  0.0910
 7676SOL    HW134661   3.322   3.652   4.853 -0.4624  1.2714 -0.6904
 7676SOL    HW234662   3.174   3.652   4.850  1.8118  2.2609  0.9874
 7677SOL     OW34663   1.161   1.874   9.765  0.1793  0.0472  0.5166
 7677SOL    HW134664   1.070   1.859   9.738  0.5963  2.0381 -2.0818
 7677SOL    HW234665   1.173   1.961   9.726  1.6404 -1.0686 -1.5106
 7678SOL     OW34666   0.129   3.420  16.359 -0.0710  0.0760  0.2337
 7678SOL    HW134667   0.155   3.457  16.275  0.2219  2.3037  1.2940
 7678SOL    HW234668   0.038   3.451  16.360 -0.5523 -1.2881 -1.3834
 7679SOL     OW34669   2.566   1.132  13.698 -0.2200 -0.2727 -0.0027
 7679SOL    HW134670   2.641   1.187  13.721  0.8190 -2.1458  1.0780
 7679SOL    HW234671   2.600   1.058  13.648 -0.2250 -1.3429  1.5826
 7680SOL     OW34672   3.777   1.113   3.471 -0.2155  0.0220  0.0144
 7680SOL    HW134673   3.771   1.112   3.567 -0.0230  1.4065  0.0410
 7680SOL    HW234674   3.856   1.166   3.457  1.5972 -2.0831  2.2243
 7681SOL     OW34675   1.825   4.051  14.696 -0.8180  0.0105  0.1161
 7681SOL    HW134676   1.798   4.031  14.785 -0.8202  1.5648  0.4741
 7681SOL    HW234677   1.900   3.992  14.692 -0.6213  0.3719 -1.7039
 7682SOL     OW34678   0.098   3.175   6.565  0.1133  0.0020  0.4808
 7682SOL    HW134679   0.034   3.160   6.634  1.2408 -0.8392  1.3400
 7682SOL    HW234680   0.060   3.242   6.508 -0.3982 -1.3474 -0.7634
 7683SOL     OW34681   2.121   0.038   7.454 -0.2088  0.4397 -0.1513
 7683SOL    HW134682   2.105   4.740   7.541  0.3271 -0.4153 -0.4268
 7683SOL    HW234683   2.189   0.101   7.478  0.1442  0.0521 -0.1338
 7684SOL     OW34684   1.598   0.831   8.963 -0.2588 -0.0202 -0.3814
 7684SOL    HW134685   1.515   0.869   8.934 -0.0300  0.0955 -0.8757
 7684SOL    HW234686   1.639   0.904   9.010  1.1903  0.2182 -2.0243
 7685SOL     OW34687   3.392   3.187  14.651 -0.1391 -0.4792  0.1591
 7685SOL    HW134688   3.447   3.122  14.695  0.3655  0.2465  0.6061
 7685SOL    HW234689   3.406   3.161  14.560 -1.4659  1.4963 -0.6295
 7686SOL     OW34690   1.594   3.248   4.442  0.0920  0.0418  0.1653
 7686SOL    HW134691   1.685   3.264   4.418 -0.1984  0.9273 -0.3770
 7686SOL    HW234692   1.588   3.232   4.536 -2.2660 -0.2006 -0.0042
 7687SOL     OW34693   0.656   3.415   3.847  0.4689  0.4306  0.0236
 7687SOL    HW134694   0.683   3.343   3.790  0.2424  0.5424 -0.2243
 7687SOL    HW234695   0.744   3.448   3.866  0.4633  1.0837 -1.0628
 7688SOL     OW34696   2.522   0.393   7.680 -0.4370  0.4828  0.3732
 7688SOL    HW134697   2.440   0.387   7.631  1.1029 -1.5117 -1.9233
 7688SOL    HW234698   2.575   0.443   7.618  2.0213  0.1453  2.1981
 7689SOL     OW34699   1.462   4.279  11.983 -0.4665 -0.4451  0.2256
 7689SOL    HW134700   1.404   4.279  11.907  0.1914  0.1520 -0.2759
 7689SOL    HW234701   1.477   4.373  11.996  1.1657 -0.4612 -1.6655
 7690SOL     OW34702   0.043   4.506  13.372  0.3230  0.5343  0.0052
 7690SOL    HW134703   4.732   4.503  13.291  0.8508 -0.7397 -0.2747
 7690SOL    HW234704   0.131   4.527  13.339  0.9742 -1.2139  0.6334
 7691SOL     OW34705   4.391   1.529  16.692  0.5070 -0.4767  0.6713
 7691SOL    HW134706   4.318   1.587  16.713  1.3242  0.9411 -0.4121
 7691SOL    HW234707   4.365   1.444  16.729  1.4213 -1.0228  0.0509
 7692SOL     OW34708   1.753   4.114   5.910  0.1874  0.0878 -0.2001
 7692SOL    HW134709   1.745   4.137   5.817  0.9815 -0.9804 -0.5307
 7692SOL    HW234710   1.776   4.022   5.899  0.9215  0.3206 -0.6009
 7693SOL     OW34711   0.429   2.013  14.642 -0.3486  0.7162  0.1232
 7693SOL    HW134712   0.358   1.952  14.626  0.8034 -0.7131  0.4559
 7693SOL    HW234713   0.411   2.043  14.731  0.9312 -0.8883  0.9232
 7694SOL     OW34714   2.942   0.496  11.683  0.2343 -0.3234  0.2004
 7694SOL    HW134715   2.857   0.500  11.728  0.1567  1.7751 -0.1322
 7694SOL    HW234716   2.948   0.585  11.649  0.2563 -0.0874  0.8091
 7695SOL     OW34717   3.734   1.035  10.153  0.5459 -0.4286 -0.5594
 7695SOL    HW134718   3.686   0.988  10.085  0.7461 -2.6023  0.8047
 7695SOL    HW234719   3.795   0.970  10.187  1.2297  0.9161  0.8066
 7696SOL     OW34720   3.378   3.866   8.232 -0.6788  0.4712 -0.1720
 7696SOL    HW134721   3.359   3.772   8.229 -2.1440  0.7694 -0.1642
 7696SOL    HW234722   3.324   3.901   8.162 -1.1676  0.4973  0.2168
 7697SOL     OW34723   3.793   3.686   7.674  0.2011  0.0723  0.3306
 7697SOL    HW134724   3.785   3.756   7.739  0.0392 -1.3852  1.8453
 7697SOL    HW234725   3.858   3.726   7.615 -2.2208  1.6976 -1.2552
 7698SOL     OW34726   4.305   0.503   8.052 -0.1013 -0.6175  0.2028
 7698SOL    HW134727   4.374   0.543   7.999 -0.4382 -3.0518 -2.0928
 7698SOL    HW234728   4.260   0.451   7.986  0.6305  3.2166 -3.3191
 7699SOL     OW34729   1.673   2.629   3.557  0.2139 -0.5560  0.2603
 7699SOL    HW134730   1.665   2.556   3.618 -1.0704  0.4822  1.3390
 7699SOL    HW234731   1.755   2.664   3.591  0.4748 -2.3949  1.5571
 7700SOL     OW34732   0.760   3.903  17.608  0.2423  0.3327 -0.2464
 7700SOL    HW134733   0.719   3.979  17.648 -1.5084 -0.7510  0.0306
 7700SOL    HW234734   0.716   3.910  17.523  0.2836 -2.1360 -0.4711
 7701SOL     OW34735   0.190   2.929   0.924 -0.4733  0.4930  0.1909
 7701SOL    HW134736   0.255   2.964   0.864  0.1104 -2.0870 -0.6812
 7701SOL    HW234737   0.251   2.867   0.964  0.3728  1.6428  0.6874
 7702SOL     OW34738   0.711   2.202   1.772  0.0726  0.2755  0.5410
 7702SOL    HW134739   0.723   2.229   1.863 -0.2287  2.2579 -0.0048
 7702SOL    HW234740   0.765   2.124   1.787 -0.8000 -0.1018  1.6741
 7703SOL     OW34741   2.267   3.169   2.141 -0.3126 -0.2917  0.3998
 7703SOL    HW134742   2.356   3.203   2.154  0.7578 -3.2725  0.8702
 7703SOL    HW234743   2.252   3.122   2.223 -2.0598  1.6112  1.1597
 7704SOL     OW34744   2.905   0.491   4.777  0.1395  0.1969  0.4295
 7704SOL    HW134745   2.881   0.555   4.710 -0.3634 -2.9562 -2.3737
 7704SOL    HW234746   2.947   0.429   4.718  2.1895  0.6727  1.3687
 7705SOL     OW34747   4.158   2.987   4.265 -0.7049  0.0428 -0.2295
 7705SOL    HW134748   4.083   2.957   4.316  0.3720 -0.0830  1.2474
 7705SOL    HW234749   4.127   2.970   4.175  0.4527 -0.8477 -0.4499
 7706SOL     OW34750   3.337   0.656  13.548 -0.5356 -0.4671  0.5833
 7706SOL    HW134751   3.309   0.616  13.630  0.4827 -2.0270  0.1763
 7706SOL    HW234752   3.294   0.740  13.565 -0.7948 -0.2208 -1.2459
 7707SOL     OW34753   4.289   3.797   1.791 -0.0315  0.9627 -0.1173
 7707SOL    HW134754   4.371   3.846   1.787  0.5564 -0.0500 -0.4852
 7707SOL    HW234755   4.327   3.717   1.754 -0.1324  0.4088  0.9789
 7708SOL     OW34756   0.710   0.047   6.536 -0.9917 -1.1046  0.2985
 7708SOL    HW134757   0.712   0.116   6.602  1.3163 -1.8494  1.0213
 7708SOL    HW234758   0.726   4.703   6.579  1.4171  0.9681  3.4426
 7709SOL     OW34759   0.445   0.262   6.103  0.0544  0.0165 -0.1974
 7709SOL    HW134760   0.534   0.227   6.098  0.0780  0.1443 -0.7656
 7709SOL    HW234761   0.406   0.183   6.067 -3.6671  0.8647  2.0270
 7710SOL     OW34762   0.935   4.018   3.808  0.2613 -0.0896 -0.5695
 7710SOL    HW134763   0.876   3.948   3.779 -1.6603  1.5933 -0.7619
 7710SOL    HW234764   0.987   3.969   3.872 -0.1338  0.4667  0.1743
 7711SOL     OW34765   2.855   2.787   8.958 -0.6005 -0.2676  0.0628
 7711SOL    HW134766   2.851   2.858   9.022  0.0429  1.2001 -1.5368
 7711SOL    HW234767   2.809   2.824   8.883 -1.0630 -3.2656 -1.1613
 7712SOL     OW34768   2.288   3.932   7.068 -0.1759 -0.5412 -0.4820
 7712SOL    HW134769   2.227   4.005   7.076  2.2389  1.2867  1.3541
 7712SOL    HW234770   2.327   3.954   6.984 -0.2436 -1.2221 -0.6934
 7713SOL     OW34771   2.922   0.850   2.500 -0.0976 -0.3980  0.4378
 7713SOL    HW134772   2.902   0.906   2.575  2.2389 -0.7984  1.3330
 7713SOL    HW234773   2.853   0.784   2.504  0.2684 -0.8089 -0.0366
 7714SOL     OW34774   1.226   1.325  16.491  0.4431 -0.0545 -0.4175
 7714SOL    HW134775   1.249   1.321  16.398  0.0721  0.1220 -0.5182
 7714SOL    HW234776   1.184   1.411  16.494  0.9082  0.1354  0.5738
 7715SOL     OW34777   1.131   3.737   2.680  0.0396 -0.2337 -0.1525
 7715SOL    HW134778   1.208   3.794   2.676  0.1605 -0.4693 -1.1661
 7715SOL    HW234779   1.096   3.728   2.591 -0.6206 -0.5607  0.1399
 7716SOL     OW34780   3.585   2.644  12.358 -0.4121  0.5659 -0.2656
 7716SOL    HW134781   3.586   2.552  12.385 -0.2907 -0.0067 -2.2232
 7716SOL    HW234782   3.664   2.642  12.303 -0.2222 -3.2905  0.1432
 7717SOL     OW34783   1.048   0.357   9.566 -0.0144 -0.1114  0.3755
 7717SOL    HW134784   1.109   0.286   9.582  0.8072  0.3715 -0.6272
 7717SOL    HW234785   0.980   0.320   9.509  1.1066 -1.5078 -0.0375
 7718SOL     OW34786   0.466   0.920   1.312  0.2379 -0.0770  0.3043
 7718SOL    HW134787   0.394   0.861   1.289 -0.4429  0.7013  0.4202
 7718SOL    HW234788   0.535   0.859   1.338  0.1833 -0.3566 -0.2088
 7719SOL     OW34789   2.505   4.647   8.049  0.0218  0.5053 -0.6959
 7719SOL    HW134790   2.547   4.633   8.134 -2.0623  1.4207  0.5128
 7719SOL    HW234791   2.581   4.680   8.002 -0.9825  1.1346 -1.8674
 7720SOL     OW34792   1.592   4.054  14.158  0.0131  0.9506 -0.0053
 7720SOL    HW134793   1.549   4.075  14.240  0.5638 -0.3937  0.6264
 7720SOL    HW234794   1.541   4.101  14.092 -0.0557 -0.0323 -0.6545
 7721SOL     OW34795   2.087   3.565  14.735 -0.5310 -0.5685 -0.1071
 7721SOL    HW134796   2.086   3.592  14.644 -1.1455 -0.3051 -0.0153
 7721SOL    HW234797   2.171   3.518  14.739  0.7188  1.6715  0.2396
 7722SOL     OW34798   1.836   0.168  15.255 -0.0776 -0.0691  0.4420
 7722SOL    HW134799   1.912   0.181  15.312 -0.2395  2.7829  0.0238
 7722SOL    HW234800   1.868   0.108  15.188 -0.9584  0.4215 -0.4311
 7723SOL     OW34801   2.258   2.056  10.917  0.4430  0.2471 -0.1463
 7723SOL    HW134802   2.342   2.022  10.885 -0.5188 -1.2215 -1.1192
 7723SOL    HW234803   2.280   2.146  10.941  0.7054 -0.2985  1.6199
 7724SOL     OW34804   4.572   3.384   2.011 -0.2174  0.3310  0.3014
 7724SOL    HW134805   4.491   3.380   1.960 -0.9129  2.5002  1.2299
 7724SOL    HW234806   4.640   3.373   1.944 -0.8212 -0.6392 -0.1536
 7725SOL     OW34807   1.611   0.329   2.334 -0.0165  0.2357  0.1545
 7725SOL    HW134808   1.558   0.288   2.266  1.8199  2.8114 -2.8601
 7725SOL    HW234809   1.574   0.416   2.321  0.4741  0.3906 -0.2059
 7726SOL     OW34810   1.350   3.135   7.024 -0.1930  0.4572  0.1256
 7726SOL    HW134811   1.366   3.188   7.101 -2.9048  1.0971  0.2507
 7726SOL    HW234812   1.424   3.076   7.039 -1.3781 -0.0874  3.6813
 7727SOL     OW34813   4.000   0.638   0.329  0.6279 -0.3501 -0.3814
 7727SOL    HW134814   3.991   0.573   0.259 -2.9944 -0.1693 -0.0933
 7727SOL    HW234815   4.094   0.652   0.328  0.4283  0.9813  0.1745
 7728SOL     OW34816   1.741   2.495  15.204  0.2895  0.2372 -0.0973
 7728SOL    HW134817   1.667   2.465  15.257  0.6044 -3.2959 -1.6463
 7728SOL    HW234818   1.754   2.584  15.236  2.5457 -0.6791  1.5120
 7729SOL     OW34819   2.231   2.117   6.781  0.6933 -0.5708  0.2006
 7729SOL    HW134820   2.262   2.201   6.746 -0.1323 -0.2919  0.1263
 7729SOL    HW234821   2.139   2.123   6.755  0.7582 -2.6159 -0.4528
 7730SOL     OW34822   3.400   0.056   0.405  0.0409 -0.0236 -0.2481
 7730SOL    HW134823   3.348   4.738   0.350 -1.8050  1.1403  0.2387
 7730SOL    HW234824   3.328   0.081   0.463  0.7509 -1.5296  1.2803
 7731SOL     OW34825   1.057   4.460   3.943  0.4969 -0.4812 -0.3217
 7731SOL    HW134826   1.003   4.401   3.890  1.5209 -2.9249  1.3281
 7731SOL    HW234827   0.993   4.531   3.950  1.2684  0.3526 -1.7656
 7732SOL     OW34828   1.726   3.076   6.335 -0.2079 -0.0325  0.5104
 7732SOL    HW134829   1.686   2.993   6.362 -0.8159 -0.3014 -1.2006
 7732SOL    HW234830   1.730   3.128   6.415  1.3384  3.2247 -1.7107
 7733SOL     OW34831   2.631   3.586   3.039  0.3120 -0.2509  0.5504
 7733SOL    HW134832   2.612   3.556   2.950 -0.9349 -0.7348  0.9842
 7733SOL    HW234833   2.714   3.634   3.033 -1.3175  2.5415  0.2848
 7734SOL     OW34834   0.072   1.771   4.593  0.1867 -0.3772 -0.3544
 7734SOL    HW134835   0.065   1.733   4.681 -0.0334  0.6438  0.0675
 7734SOL    HW234836   4.722   1.801   4.586  0.6193  1.5404  2.2780
 7735SOL     OW34837   1.131   1.857   7.839  0.2027 -0.0770 -0.7057
 7735SOL    HW134838   1.108   1.818   7.755  0.5028  0.9800 -1.2699
 7735SOL    HW234839   1.052   1.840   7.890  1.0477  2.2130  1.3576
 7736SOL     OW34840   2.700   2.401   4.537 -0.0015  0.3951  0.2194
 7736SOL    HW134841   2.722   2.316   4.576  1.5653  0.5011 -0.4627
 7736SOL    HW234842   2.630   2.427   4.597 -0.4337 -2.2213  0.8762
 7737SOL     OW34843   1.716   1.781  17.615 -0.6413  0.5759 -0.0762
 7737SOL    HW134844   1.695   1.866  17.578 -2.8419  0.2456  0.3910
 7737SOL    HW234845   1.732   1.813  17.704 -0.2343 -1.1895  0.5041
 7738SOL     OW34846   1.153   1.366   2.302  0.3008  0.1186  0.1736
 7738SOL    HW134847   1.174   1.309   2.376  1.6745 -0.2839 -0.5303
 7738SOL    HW234848   1.240   1.393   2.275 -0.0360  0.8906 -0.1326
 7739SOL     OW34849   1.414   2.324  14.348  0.1857  0.5921 -0.0864
 7739SOL    HW134850   1.327   2.284  14.344  0.8444 -0.8541  0.2260
 7739SOL    HW234851   1.399   2.398  14.290 -0.9983 -0.9896 -1.7639
 7740SOL     OW34852   0.792   1.006   6.446  0.4076  0.1830  0.1301
 7740SOL    HW134853   0.832   0.991   6.360  0.3438 -0.2105  0.1673
 7740SOL    HW234854   0.718   0.946   6.432  2.5114 -2.1968 -0.8478
 7741SOL     OW34855   4.693   3.350   6.410  0.1977 -0.5999 -0.2412
 7741SOL    HW134856   4.610   3.312   6.383  1.2993 -3.3051  0.1722
 7741SOL    HW234857   4.674   3.442   6.426  0.2119 -0.5311 -0.6135
 7742SOL     OW34858   4.389   1.292  11.928  0.2535 -0.1155 -0.2073
 7742SOL    HW134859   4.326   1.348  11.972 -1.5930 -1.2234 -1.4625
 7742SOL    HW234860   4.474   1.335  11.938  0.3325  0.0381 -1.5050
 7743SOL     OW34861   4.154   0.214   1.312  0.3006 -0.2401 -0.3728
 7743SOL    HW134862   4.176   0.305   1.330  0.0758 -0.1636 -0.4957
 7743SOL    HW234863   4.215   0.164   1.367  1.5397 -0.2447 -1.7568
 7744SOL     OW34864   3.605   3.802   9.089 -0.0441 -0.0361 -0.0365
 7744SOL    HW134865   3.592   3.764   9.176 -0.5502  0.5426  0.1387
 7744SOL    HW234866   3.520   3.794   9.046 -0.8702  0.7588  1.4657
 7745SOL     OW34867   4.728   3.489   0.211 -0.5984  0.5699  0.3107
 7745SOL    HW134868   0.039   3.428   0.264  1.1999  0.7572 -1.2309
 7745SOL    HW234869   0.055   3.540   0.166 -0.9703  0.0711 -0.8088
 7746SOL     OW34870   3.874   1.465   4.790  0.3625 -0.1403  0.6749
 7746SOL    HW134871   3.854   1.559   4.791  1.3955  0.1059 -1.6500
 7746SOL    HW234872   3.887   1.449   4.884 -0.0515 -3.2539  0.2050
 7747SOL     OW34873   1.237   0.506   7.714  0.3365  0.0071 -0.9399
 7747SOL    HW134874   1.247   0.601   7.706 -1.6401  0.1212 -2.0363
 7747SOL    HW234875   1.147   0.507   7.747  0.7036 -0.0358  0.0555
 7748SOL     OW34876   3.116   0.984   9.044 -0.5696 -0.8287 -0.0398
 7748SOL    HW134877   3.202   0.963   9.082 -0.0523  3.2339  1.0885
 7748SOL    HW234878   3.127   0.921   8.973 -2.3750  1.5665 -2.4126
 7749SOL     OW34879   0.085   2.933  17.374 -0.0833  0.4991 -0.2323
 7749SOL    HW134880   0.125   2.974  17.297  1.2932  2.9881  1.7890
 7749SOL    HW234881   0.041   2.856  17.338  1.7305 -1.3132  1.4116
 7750SOL     OW34882   2.822   2.674   5.850 -0.0517  0.2896 -0.7855
 7750SOL    HW134883   2.813   2.652   5.758  2.9438 -2.8144 -0.3454
 7750SOL    HW234884   2.730   2.687   5.871  0.4249  0.4333  1.2515
 7751SOL     OW34885   2.261   1.016   4.768 -0.3701 -0.1345 -0.1956
 7751SOL    HW134886   2.319   1.091   4.783  0.5720 -1.2814  1.9085
 7751SOL    HW234887   2.227   0.999   4.856  1.0824 -3.1103 -0.2136
 7752SOL     OW34888   1.408   3.100   3.484 -0.0269 -0.0323  0.1924
 7752SOL    HW134889   1.448   3.021   3.520  0.6735  1.0057  1.7148
 7752SOL    HW234890   1.327   3.112   3.535  0.7010  0.5410  1.2233
 7753SOL     OW34891   0.465   2.399   6.552  0.0123  0.4744 -0.1985
 7753SOL    HW134892   0.431   2.471   6.605  0.3406  1.4544 -1.3343
 7753SOL    HW234893   0.465   2.327   6.615 -0.4506  1.9315  1.4626
 7754SOL     OW34894   0.296   4.462  12.655 -0.1431  0.0393 -0.2748
 7754SOL    HW134895   0.276   4.415  12.736  0.3206 -1.1956 -0.8931
 7754SOL    HW234896   0.390   4.459  12.670 -0.3344 -2.6720  0.3839
 7755SOL     OW34897   1.951   3.903   7.376 -0.3644 -0.3717  0.1122
 7755SOL    HW134898   2.028   3.959   7.388  0.8265 -1.8305 -0.8113
 7755SOL    HW234899   1.884   3.970   7.360  1.5431  2.3207  3.4126
 7756SOL     OW34900   0.146   0.717   5.205 -0.1692  0.2243  0.6238
 7756SOL    HW134901   0.090   0.673   5.141 -2.5747  1.8385  1.6362
 7756SOL    HW234902   0.228   0.722   5.156  0.4722 -0.1947  1.6628
 7757SOL     OW34903   1.474   4.146   5.206  0.1140 -0.6482  0.4322
 7757SOL    HW134904   1.456   4.115   5.295  0.8736 -0.9348  0.4857
 7757SOL    HW234905   1.426   4.227   5.189 -0.9036 -1.6858 -1.5777
 7758SOL     OW34906   0.245   3.004  16.940  0.5474  0.0637  0.5727
 7758SOL    HW134907   0.319   2.953  16.971 -1.1000 -0.9705  2.8219
 7758SOL    HW234908   0.232   2.959  16.857  0.9071 -1.2501  1.2353
 7759SOL     OW34909   3.646   0.118   3.002 -0.2433  0.3306  0.0241
 7759SOL    HW134910   3.724   0.138   2.951 -1.3166  1.2970 -1.2155
 7759SOL    HW234911   3.612   0.204   3.029 -0.9223 -0.1902  0.8136
 7760SOL     OW34912   1.383   3.905   5.116  0.2203 -0.0984 -0.3963
 7760SOL    HW134913   1.317   3.900   5.186  0.1092  1.7077 -0.3941
 7760SOL    HW234914   1.440   3.975   5.148 -0.3656 -0.5018  1.5503
 7761SOL     OW34915   0.658   1.204   7.640 -1.0979 -0.1001 -0.4870
 7761SOL    HW134916   0.629   1.293   7.619 -0.1910  0.2539 -0.2337
 7761SOL    HW234917   0.722   1.198   7.569  0.5816  2.4835  0.7996
 7762SOL     OW34918   4.421   4.161   6.337 -0.1850 -0.5958  0.4238
 7762SOL    HW134919   4.491   4.222   6.315 -2.4049  1.8063 -0.0070
 7762SOL    HW234920   4.354   4.196   6.277  1.7021  1.7878 -0.2944
 7763SOL     OW34921   1.356   1.047   2.775  0.4249 -0.4794  0.0528
 7763SOL    HW134922   1.395   1.113   2.718 -0.5248  0.3122  0.3187
 7763SOL    HW234923   1.407   0.968   2.755  0.7456  0.3684 -2.4176
 7764SOL     OW34924   0.847   3.715  12.863  0.1137 -0.2596  0.2324
 7764SOL    HW134925   0.797   3.653  12.811  1.1588 -0.7771 -0.1620
 7764SOL    HW234926   0.929   3.669  12.882 -1.4854 -3.1138  0.0836
 7765SOL     OW34927   1.699   3.451   5.238 -0.0668 -0.0037  0.2664
 7765SOL    HW134928   1.692   3.542   5.209 -1.6557 -0.3405 -0.3912
 7765SOL    HW234929   1.614   3.416   5.213  0.9885 -1.5316 -1.1435
 7766SOL     OW34930   1.980   1.933   8.348 -0.3167 -0.1045  0.1205
 7766SOL    HW134931   1.942   1.878   8.416 -2.4806 -0.1341 -1.1228
 7766SOL    HW234932   2.069   1.921   8.381 -0.5501  0.3742  0.9315
 7767SOL     OW34933   0.960   1.465  16.896 -0.6711  0.1744  0.4492
 7767SOL    HW134934   0.965   1.531  16.827  1.1954  0.6439  1.0341
 7767SOL    HW234935   1.008   1.396  16.849 -0.7053 -1.3236  2.6129
 7768SOL     OW34936   1.181   1.016  13.467  0.1108  0.6645 -0.2914
 7768SOL    HW134937   1.209   1.093  13.417 -3.6757  3.2985  1.6284
 7768SOL    HW234938   1.091   1.034  13.494 -0.1544 -0.8729 -0.1561
 7769SOL     OW34939   0.335   3.595   6.476 -0.1259 -0.0647  0.1250
 7769SOL    HW134940   0.248   3.582   6.515  0.7959 -2.1154  1.4917
 7769SOL    HW234941   0.377   3.640   6.550 -1.4273  2.0323 -0.4005
 7770SOL     OW34942   3.712   2.393  14.911  0.4528 -0.0963 -0.7219
 7770SOL    HW134943   3.694   2.398  15.005 -0.6828  1.6706 -1.0187
 7770SOL    HW234944   3.699   2.299  14.898  1.5522 -0.3216 -0.1624
 7771SOL     OW34945   3.723   0.930   9.081  0.1107 -0.2880  0.2728
 7771SOL    HW134946   3.714   0.851   9.028  2.5353  0.0693 -0.6983
 7771SOL    HW234947   3.660   0.987   9.037 -0.4535 -0.3164  1.0603
 7772SOL     OW34948   3.814   2.301   4.600  0.0220  0.2291  0.2763
 7772SOL    HW134949   3.787   2.224   4.549 -0.4661  0.1232  0.7004
 7772SOL    HW234950   3.907   2.279   4.597 -0.2012 -0.7138  0.2793
 7773SOL     OW34951   3.934   0.681   8.104 -0.3412  0.4740 -0.1073
 7773SOL    HW134952   3.897   0.647   8.185  0.7901  1.3020  0.7622
 7773SOL    HW234953   3.897   0.769   8.112 -2.0227 -0.0925 -1.5147
 7774SOL     OW34954   2.679   1.568   5.384  0.1072  0.3129 -0.2248
 7774SOL    HW134955   2.612   1.511   5.423 -0.8265  1.0755 -0.7346
 7774SOL    HW234956   2.737   1.498   5.353  0.5117  1.0192 -1.0230
 7775SOL     OW34957   3.776   2.115  14.811  0.2657  0.1887 -0.1743
 7775SOL    HW134958   3.688   2.089  14.838  0.3024  0.5544  0.2886
 7775SOL    HW234959   3.829   2.042  14.841 -1.2753 -0.8831 -0.0457
 7776SOL     OW34960   1.520   1.060   4.379 -0.9848 -0.1247 -0.3844
 7776SOL    HW134961   1.435   1.085   4.415 -0.2270  0.2614  1.1342
 7776SOL    HW234962   1.572   1.072   4.459 -1.3091 -0.7164 -0.0901
 7777SOL     OW34963   1.191   2.756  16.520  0.2365 -0.1453 -0.1823
 7777SOL    HW134964   1.260   2.771  16.455  0.4955  0.4231  0.2287
 7777SOL    HW234965   1.248   2.746  16.596 -0.8988  0.2311  0.7121
 7778SOL     OW34966   0.418   1.185   1.864  0.6815  0.4603  0.3869
 7778SOL    HW134967   0.420   1.090   1.873  0.1805  0.3126 -1.0323
 7778SOL    HW234968   0.434   1.194   1.770  0.3111  0.3071  0.3115
 7779SOL     OW34969   1.539   2.460   2.522 -0.3739  0.2885  0.1699
 7779SOL    HW134970   1.486   2.400   2.469  0.6296  0.7753 -1.3903
 7779SOL    HW234971   1.574   2.401   2.588 -0.9601  0.3476  0.5375
 7780SOL     OW34972   1.187   1.260   5.468 -0.1664  0.4525 -0.0661
 7780SOL    HW134973   1.228   1.346   5.479 -0.2795  0.1531  2.6292
 7780SOL    HW234974   1.141   1.293   5.390 -0.2362  0.8969  0.1603
 7781SOL     OW34975   1.954   4.483   2.938 -0.1225  0.0029  0.2598
 7781SOL    HW134976   1.928   4.498   3.029 -3.4782  0.1338 -0.6887
 7781SOL    HW234977   1.942   4.389   2.924 -2.9405  0.2294  1.0640
 7782SOL     OW34978   0.967   2.405  13.658  0.0316 -0.1098 -0.6331
 7782SOL    HW134979   0.913   2.404  13.579 -2.8394 -1.9781  1.3460
 7782SOL    HW234980   0.902   2.382  13.725  1.3986 -2.2223 -0.0203
 7783SOL     OW34981   4.344   4.471  13.350 -0.0169  0.1368  0.2893
 7783SOL    HW134982   4.255   4.450  13.322  0.0153 -2.8322  2.3319
 7783SOL    HW234983   4.359   4.563  13.328  1.1214 -0.3927 -1.0681
 7784SOL     OW34984   1.991   3.808   3.921 -0.1710 -0.3241  0.0205
 7784SOL    HW134985   1.899   3.794   3.941  0.2537 -0.0349  2.2051
 7784SOL    HW234986   2.023   3.728   3.962  0.6474  0.3240  0.6761
 7785SOL     OW34987   1.032   0.606   8.235  0.3001 -0.3329  0.2375
 7785SOL    HW134988   1.085   0.679   8.267 -0.7352 -0.5486  2.4652
 7785SOL    HW234989   1.091   0.572   8.169  0.2988 -0.9387  0.5470
 7786SOL     OW34990   0.737   1.966   7.009  0.7237 -0.3371 -0.0091
 7786SOL    HW134991   0.770   1.885   7.048  2.5591  0.7816  0.7547
 7786SOL    HW234992   0.765   1.938   6.921  0.7684  1.9290 -0.6978
 7787SOL     OW34993   2.021   2.665   5.386  0.3151 -0.3369  0.1542
 7787SOL    HW134994   2.044   2.573   5.400  0.1691 -0.2357  1.0472
 7787SOL    HW234995   2.018   2.658   5.290  0.8122  3.1820 -0.1322
 7788SOL     OW34996   3.794   0.897  13.689 -0.3117 -0.0234  0.1449
 7788SOL    HW134997   3.822   0.852  13.769 -0.1161 -0.1000  0.0326
 7788SOL    HW234998   3.699   0.884  13.689 -0.6443  2.3803  3.1267
 7789SOL     OW34999   3.066   4.582   9.285 -0.4695 -0.2801 -0.4882
 7789SOL    HW135000   3.133   4.514   9.290  0.9408  1.1513 -0.0370
 7789SOL    HW235001   2.999   4.531   9.331 -0.2886  0.3340  0.4542
 7790SOL     OW35002   4.683   1.976  11.801 -0.5067 -0.1188  0.2067
 7790SOL    HW135003   4.691   2.071  11.796 -2.5293 -0.0926 -2.9296
 7790SOL    HW235004   4.697   1.968  11.895 -2.0367  1.9187  0.6078
 7791SOL     OW35005   3.622   2.773   9.390  0.7716  0.0276 -0.1498
 7791SOL    HW135006   3.690   2.708   9.411 -0.5136 -0.9177  1.1230
 7791SOL    HW235007   3.611   2.750   9.298 -2.1125 -2.9532  0.9062
 7792SOL     OW35008   2.037   0.388   2.111  0.3818  0.1428 -0.2009
 7792SOL    HW135009   1.985   0.355   2.185 -0.9493 -1.3842 -1.8000
 7792SOL    HW235010   1.964   0.387   2.049  0.4991  2.6171 -0.3990
 7793SOL     OW35011   3.868   1.942   3.355  0.0780 -0.0943 -0.2822
 7793SOL    HW135012   3.822   2.013   3.399 -0.4909  0.6571 -2.1027
 7793SOL    HW235013   3.915   1.984   3.284 -0.9334  0.1575 -0.8066
 7794SOL     OW35014   2.361   2.827   4.908 -0.4275  0.1905  0.8864
 7794SOL    HW135015   2.420   2.797   4.977 -0.1537 -2.2722 -0.4195
 7794SOL    HW235016   2.284   2.843   4.963 -2.0496 -0.1750 -1.2756
 7795SOL     OW35017   1.310   2.414   4.116  0.3113  0.1140  0.0953
 7795SOL    HW135018   1.241   2.463   4.160  1.3119  0.9951  0.7005
 7795SOL    HW235019   1.375   2.483   4.099  0.2350  0.5220  1.4336
 7796SOL     OW35020   2.139   4.472  13.821  0.0429 -0.6811 -0.1045
 7796SOL    HW135021   2.226   4.491  13.857  0.2530 -1.2407 -0.3068
 7796SOL    HW235022   2.086   4.469  13.900 -3.4168  2.3728 -2.3158
 7797SOL     OW35023   0.346   0.485  14.630 -0.4728 -0.1421 -0.5370
 7797SOL    HW135024   0.430   0.491  14.677 -0.1197 -0.1301 -1.1630
 7797SOL    HW235025   0.375   0.525  14.548 -1.0352  2.0601  0.3209
 7798SOL     OW35026   3.448   0.189   9.797 -0.9686  0.0581 -0.0484
 7798SOL    HW135027   3.424   0.157   9.883 -0.9503  0.6638  0.1838
 7798SOL    HW235028   3.488   0.113   9.754 -2.8143 -1.4049  0.8696
 7799SOL     OW35029   0.702   3.283  11.298  0.0570  0.2586  0.0744
 7799SOL    HW135030   0.657   3.351  11.348  1.8475  0.3477  1.5517
 7799SOL    HW235031   0.676   3.329  11.219 -0.9660  0.1467  0.3366
 7800SOL     OW35032   4.544   4.033  10.391  0.5268 -0.3157 -0.3806
 7800SOL    HW135033   4.616   4.041  10.329  1.0813  1.1771  0.4515
 7800SOL    HW235034   4.497   3.963  10.345 -0.8080 -0.7552  1.6421
 7801SOL     OW35035   3.043   2.419  14.437 -0.2243  0.3285  0.2336
 7801SOL    HW135036   2.981   2.389  14.504 -2.4233 -0.6578 -2.2403
 7801SOL    HW235037   3.013   2.371  14.360  1.4030  1.9925 -1.4137
 7802SOL     OW35038   3.023   3.676   9.483  0.1379 -0.0183  0.5465
 7802SOL    HW135039   3.109   3.633   9.485  1.0651  1.6373 -2.5416
 7802SOL    HW235040   2.984   3.641   9.563  1.0300 -1.4361  0.3760
 7803SOL     OW35041   1.803   1.615   8.697 -0.7276  0.6387  0.2798
 7803SOL    HW135042   1.720   1.611   8.649 -0.8734 -0.2941  0.6162
 7803SOL    HW235043   1.843   1.538   8.656 -0.4299  0.5725  0.7025
 7804SOL     OW35044   0.520   3.930  16.378 -0.2395  0.0169 -0.0447
 7804SOL    HW135045   0.447   3.869  16.390 -1.0165  1.1647  1.1412
 7804SOL    HW235046   0.470   4.012  16.376 -0.4508 -0.0806  1.1408
 7805SOL     OW35047   1.577   4.677   9.432 -0.0549 -0.0486  0.2294
 7805SOL    HW135048   1.572   4.721   9.347 -1.7213 -0.3465  0.1783
 7805SOL    HW235049   1.563   4.586   9.406 -0.7470 -0.2143  1.1902
 7806SOL     OW35050   1.662   1.950   5.999 -0.2753 -0.5971  0.3583
 7806SOL    HW135051   1.630   1.868   5.960  0.0774 -0.7472  0.3907
 7806SOL    HW235052   1.666   1.924   6.091  0.1509 -1.0985  0.1951
 7807SOL     OW35053   0.932   3.833   6.493  0.4920 -1.0050 -0.4967
 7807SOL    HW135054   0.921   3.751   6.447 -3.6824  0.9054 -2.9151
 7807SOL    HW235055   0.995   3.880   6.439  0.2938 -1.8637 -1.4684
 7808SOL     OW35056   0.120   2.907   4.634 -0.2245 -0.3561  0.5771
 7808SOL    HW135057   0.056   2.954   4.688 -1.7928 -2.2341  0.3308
 7808SOL    HW235058   0.117   2.826   4.685 -2.2277 -2.6768 -3.2843
 7809SOL     OW35059   0.675   3.023  11.426 -0.1334 -0.1147  0.6798
 7809SOL    HW135060   0.664   3.096  11.365  0.1278  0.0184  0.7932
 7809SOL    HW235061   0.748   2.977  11.385 -1.0657  0.7655 -1.9859
 7810SOL     OW35062   4.658   2.034   8.184  0.0851 -0.4960  0.0472
 7810SOL    HW135063   4.740   2.027   8.135  0.0435 -3.0900  0.3326
 7810SOL    HW235064   4.643   2.128   8.194  1.5509 -0.0174 -2.3157
 7811SOL     OW35065   2.280   4.619   8.382 -0.3664  0.1087  0.3395
 7811SOL    HW135066   2.241   4.572   8.309 -2.5625 -0.1357  1.6682
 7811SOL    HW235067   2.331   4.683   8.333 -1.2775 -1.1851 -2.2885
 7812SOL     OW35068   2.851   1.579   2.191 -0.0253  0.0106  0.1517
 7812SOL    HW135069   2.778   1.535   2.147 -0.6240  1.0032  0.1336
 7812SOL    HW235070   2.921   1.592   2.127 -1.7502  1.5453 -1.4861
 7813SOL     OW35071   3.590   1.535   2.253  0.7177 -0.1591  0.8221
 7813SOL    HW135072   3.539   1.615   2.269  0.4379  0.3521 -2.6531
 7813SOL    HW235073   3.576   1.489   2.336 -0.0544 -0.7046  0.3849
 7814SOL     OW35074   4.459   2.154  12.925  0.3326  0.1087  0.2921
 7814SOL    HW135075   4.464   2.062  12.951  0.2291  0.0370  0.0616
 7814SOL    HW235076   4.366   2.163  12.905  0.7239  0.3801 -1.4827
 7815SOL     OW35077   1.100   2.901   5.259  0.1477 -0.0125  0.2810
 7815SOL    HW135078   1.178   2.882   5.207 -1.0363 -1.0442 -1.1350
 7815SOL    HW235079   1.032   2.867   5.200  1.0549 -0.2703 -0.6143
 7816SOL     OW35080   1.181   1.520  14.373  0.0460 -0.5416 -0.8543
 7816SOL    HW135081   1.105   1.477  14.334 -0.0911 -0.1457 -1.0277
 7816SOL    HW235082   1.187   1.453  14.440  0.3097 -0.4926 -0.8278
 7817SOL     OW35083   1.306   0.449   1.717  0.0014  0.3733  0.0050
 7817SOL    HW135084   1.229   0.430   1.772 -1.1895  3.6741 -0.5580
 7817SOL    HW235085   1.267   0.455   1.630  0.4614  0.7472 -0.1715
 7818SOL     OW35086   1.416   3.301   8.467 -0.4694  0.0070 -0.2181
 7818SOL    HW135087   1.423   3.207   8.452  1.2372  0.2456 -0.9070
 7818SOL    HW235088   1.446   3.322   8.556 -1.2653 -0.3891  0.1451
 7819SOL     OW35089   0.787   2.198   5.774 -0.7257 -0.0065  0.5356
 7819SOL    HW135090   0.863   2.238   5.730 -0.5104  0.9117  1.7589
 7819SOL    HW235091   0.827   2.112   5.780  0.8747  0.6973 -0.0460
 7820SOL     OW35092   3.180   3.298  11.419 -0.4358 -0.3078  0.4041
 7820SOL    HW135093   3.252   3.238  11.401  1.3460  2.2730 -1.0532
 7820SOL    HW235094   3.207   3.304  11.511 -0.3266 -1.3769  0.4319
 7821SOL     OW35095   2.743   3.825  10.085 -0.2513 -0.1782  0.2067
 7821SOL    HW135096   2.741   3.800   9.993  0.5102 -1.4083  0.5241
 7821SOL    HW235097   2.649   3.819  10.102 -0.1058  0.7570  1.3020
 7822SOL     OW35098   1.955   3.647   0.451 -0.3399 -0.1686  0.3315
 7822SOL    HW135099   1.922   3.660   0.540 -0.4295 -0.2310  0.3076
 7822SOL    HW235100   1.983   3.733   0.420  0.2722 -0.4608  0.0768
 7823SOL     OW35101   1.438   1.947   5.357 -0.0675  0.0589  0.8704
 7823SOL    HW135102   1.363   1.894   5.384  2.5228 -2.4462  3.1263
 7823SOL    HW235103   1.431   1.950   5.261 -2.0806 -0.7154  0.9951
 7824SOL     OW35104   3.414   2.271   4.157  0.3110 -0.1612  0.4867
 7824SOL    HW135105   3.490   2.326   4.178 -0.6256  1.3253  0.0542
 7824SOL    HW235106   3.455   2.190   4.129 -0.0974 -0.3884  0.5466
 7825SOL     OW35107   1.217   1.864   4.560  0.2854 -0.3728 -0.3175
 7825SOL    HW135108   1.179   1.946   4.591  2.3541  0.5291 -0.1916
 7825SOL    HW235109   1.236   1.812   4.638  0.6337  0.1942 -0.0196
 7826SOL     OW35110   1.233   1.118  17.382  0.2097  0.3669  0.3155
 7826SOL    HW135111   1.186   1.067  17.449  0.1650 -1.9725 -1.5040
 7826SOL    HW235112   1.278   1.043  17.344  0.6054  0.1399  1.2409
 7827SOL     OW35113   3.046   1.976   5.549  0.1534 -0.1831  0.2824
 7827SOL    HW135114   3.045   2.072   5.546  1.5572 -0.1922 -0.4795
 7827SOL    HW235115   2.970   1.962   5.606  0.4513  0.4413  0.8410
 7828SOL     OW35116   2.064   0.912   8.083  0.2812  0.2800  0.1084
 7828SOL    HW135117   1.995   0.974   8.106 -2.5006 -2.7258 -0.0984
 7828SOL    HW235118   2.030   0.886   7.997 -0.0449 -3.4025  1.3580
 7829SOL     OW35119   3.054   0.783   9.237 -0.1932 -0.4513  0.4659
 7829SOL    HW135120   3.067   0.852   9.172 -2.6869  1.4120  1.9448
 7829SOL    HW235121   3.101   0.822   9.311 -0.8383  1.2425 -0.0104
 7830SOL     OW35122   3.185   1.915   3.625  0.0129 -0.1110 -0.6065
 7830SOL    HW135123   3.152   1.905   3.714  0.6307  3.2477  0.0082
 7830SOL    HW235124   3.159   2.005   3.604 -0.5694  0.1259  1.1119
 7831SOL     OW35125   3.152   4.262   3.865  0.1698  0.1665 -0.2916
 7831SOL    HW135126   3.214   4.325   3.902  0.8793 -0.7461  0.0939
 7831SOL    HW235127   3.172   4.261   3.772 -1.4749  1.1475 -0.6610
 7832SOL     OW35128   4.449   2.747  12.841 -0.5459  0.1015  0.1180
 7832SOL    HW135129   4.443   2.836  12.875 -0.8562  0.2532 -0.3336
 7832SOL    HW235130   4.543   2.735  12.827 -0.7585 -1.5481  0.0915
 7833SOL     OW35131   0.735   1.527   2.651  0.1557 -0.5224  0.0981
 7833SOL    HW135132   0.744   1.432   2.661 -0.2883 -0.4098  1.6465
 7833SOL    HW235133   0.781   1.549   2.570 -1.1217  1.0831 -0.1850
 7834SOL     OW35134   1.989   0.529  15.469 -0.0304  0.4172 -0.8750
 7834SOL    HW135135   2.007   0.435  15.463  0.8344  0.6207 -1.3241
 7834SOL    HW235136   2.070   0.559  15.510 -1.2034  0.1629  1.6850
 7835SOL     OW35137   0.396   1.153   1.207  0.0396  0.0065  0.1657
 7835SOL    HW135138   0.478   1.181   1.249 -0.0738  1.3740 -0.5473
 7835SOL    HW235139   0.404   1.059   1.225 -0.1816  0.1918  1.2390
 7836SOL     OW35140   4.468   2.505   0.492  0.0986 -0.2776  0.6860
 7836SOL    HW135141   4.507   2.418   0.504 -0.9899 -1.0189 -1.1240
 7836SOL    HW235142   4.532   2.546   0.434 -0.5379  0.6793  0.6600
 7837SOL     OW35143   0.154   1.675   1.409  0.0403 -0.4699 -0.1698
 7837SOL    HW135144   0.213   1.750   1.420 -0.2591 -0.0830 -1.1583
 7837SOL    HW235145   0.077   1.723   1.380 -0.4291 -1.7973 -1.0981
 7838SOL     OW35146   4.010   1.671   1.798  0.2390  0.3356 -0.4300
 7838SOL    HW135147   4.050   1.664   1.711  1.7378  1.0371  0.2145
 7838SOL    HW235148   4.078   1.722   1.843  0.6630 -0.8860  0.2913
 7839SOL     OW35149   2.688   0.581   1.850 -0.1321 -0.4194  0.0575
 7839SOL    HW135150   2.720   0.555   1.764 -1.0230 -1.4602  0.0451
 7839SOL    HW235151   2.634   0.510   1.884 -1.0233 -0.3133 -1.1515
 7840SOL     OW35152   1.271   1.599   3.258 -0.2242  0.0462 -0.2156
 7840SOL    HW135153   1.292   1.644   3.176 -0.9060  2.8109  1.1350
 7840SOL    HW235154   1.205   1.663   3.286 -1.6720 -0.5790 -2.1607
 7841SOL     OW35155   1.697   3.982   8.226 -0.0420 -0.0070  0.4327
 7841SOL    HW135156   1.624   3.922   8.245 -0.5971  1.1183  1.8185
 7841SOL    HW235157   1.661   4.022   8.147 -3.7053  0.3811  2.2777
 7842SOL     OW35158   0.209   3.396   3.860  0.0893  0.2079 -0.2342
 7842SOL    HW135159   0.125   3.438   3.879 -1.2544 -2.0498 -1.1393
 7842SOL    HW235160   0.194   3.303   3.878  1.1939  0.0053 -0.3814
 7843SOL     OW35161   2.707   3.928   9.241  0.7473 -0.3335  0.8468
 7843SOL    HW135162   2.799   3.932   9.267  0.7752  1.9316  0.3606
 7843SOL    HW235163   2.716   3.888   9.154  2.7936  0.2871  0.7616
 7844SOL     OW35164   3.875   3.042  11.811  0.0250 -0.6565 -0.8015
 7844SOL    HW135165   3.783   3.068  11.806  0.5599  1.3596  0.0162
 7844SOL    HW235166   3.917   3.090  11.739  1.2907 -0.2590  0.1971
 7845SOL     OW35167   3.599   1.641   8.335  0.0053 -0.2875  0.0463
 7845SOL    HW135168   3.570   1.663   8.247 -1.4438  0.1210  0.6184
 7845SOL    HW235169   3.519   1.644   8.389  1.9423  0.5115  2.8907
 7846SOL     OW35170   0.555   0.428   4.728 -0.1507  0.7081 -0.0442
 7846SOL    HW135171   0.609   0.489   4.778  1.1176  0.4987 -1.1371
 7846SOL    HW235172   0.480   0.488   4.719 -2.0297 -1.3105  2.1750
 7847SOL     OW35173   1.701   2.525   6.263  0.4444 -0.5125  0.4750
 7847SOL    HW135174   1.690   2.612   6.226 -2.1839 -0.5784  1.1049
 7847SOL    HW235175   1.794   2.521   6.282  0.4298  1.3468  0.9184
 7848SOL     OW35176   3.489   3.323   6.027  0.0049 -0.1862 -0.3102
 7848SOL    HW135177   3.558   3.371   6.073 -1.8840  2.7515 -0.5053
 7848SOL    HW235178   3.538   3.243   6.007  0.8203  0.1849  0.1896
 7849SOL     OW35179   0.107   1.146  11.680 -0.1953 -0.4300 -0.8515
 7849SOL    HW135180   0.018   1.167  11.652  0.8685  2.0639 -2.3513
 7849SOL    HW235181   0.152   1.231  11.680 -1.5208  0.2698 -0.0906
 7850SOL     OW35182   2.979   1.233   4.415  0.1407 -0.0886  0.4182
 7850SOL    HW135183   3.000   1.140   4.410  1.2570  0.0078  3.3167
 7850SOL    HW235184   2.898   1.239   4.464  2.3988 -1.3205  4.3315
 7851SOL     OW35185   4.233   1.685   3.745 -0.4063 -0.2082 -0.1253
 7851SOL    HW135186   4.299   1.619   3.724  0.9994  0.9851  0.5129
 7851SOL    HW235187   4.273   1.724   3.823  0.8503 -0.6786 -0.5341
 7852SOL     OW35188   1.937   2.439   3.206 -0.1026 -0.1434 -0.2079
 7852SOL    HW135189   1.886   2.436   3.287  0.1462  1.0088 -0.0158
 7852SOL    HW235190   2.007   2.501   3.226  0.0386 -0.8485  1.5131
 7853SOL     OW35191   3.330   0.872   8.611  0.5591 -0.0656 -0.3146
 7853SOL    HW135192   3.408   0.926   8.600  0.1836  0.8401  1.4766
 7853SOL    HW235193   3.274   0.925   8.667 -1.1667 -1.8360 -0.3583
 7854SOL     OW35194   1.644   1.878  17.228 -0.4506 -0.0078  0.5470
 7854SOL    HW135195   1.695   1.956  17.210  0.2514 -0.4277  0.6846
 7854SOL    HW235196   1.555   1.909  17.214 -1.9210 -4.0482  0.7203
 7855SOL     OW35197   1.571   4.359   3.739 -0.3772 -0.2037  0.3507
 7855SOL    HW135198   1.582   4.341   3.646 -1.7464 -0.0152  0.1447
 7855SOL    HW235199   1.481   4.326   3.744 -0.1960 -1.0553 -1.9924
 7856SOL     OW35200   4.516   3.547  17.094  0.1540  0.0233 -0.3462
 7856SOL    HW135201   4.434   3.564  17.048  1.4518  0.7328 -2.4091
 7856SOL    HW235202   4.517   3.452  17.098  1.3862 -0.0009 -1.2009
 7857SOL     OW35203   3.678   3.666   9.480  0.2411  0.0854 -0.6417
 7857SOL    HW135204   3.735   3.678   9.404  1.3426  0.4762  0.2498
 7857SOL    HW235205   3.692   3.572   9.496  2.4655  0.7752  1.4766
 7858SOL     OW35206   3.946   1.423   1.583 -0.0909 -1.0646 -0.3172
 7858SOL    HW135207   4.029   1.470   1.580 -1.4065  1.2376 -0.5039
 7858SOL    HW235208   3.888   1.484   1.537 -1.0087 -0.3715  1.7336
 7859SOL     OW35209   2.111   0.173   2.412 -0.1975  0.3157 -0.0639
 7859SOL    HW135210   2.026   0.216   2.409  0.3050  1.2923 -0.3097
 7859SOL    HW235211   2.109   0.115   2.336 -0.8753  1.0131 -0.5790
 7860SOL     OW35212   2.373   0.183   5.031  0.1147  0.4045 -0.6129
 7860SOL    HW135213   2.344   0.207   4.943  1.0284  0.7942 -0.8129
 7860SOL    HW235214   2.391   0.089   5.026  3.2595  0.8279  2.9777
 7861SOL     OW35215   4.279   3.312  10.281 -0.3917 -0.3100  0.1859
 7861SOL    HW135216   4.349   3.285  10.340 -1.0713  1.7310  1.9291
 7861SOL    HW235217   4.222   3.365  10.337 -0.6778 -0.3996 -0.0168
 7862SOL     OW35218   0.144   0.067   2.512 -0.2428 -0.3236  0.1046
 7862SOL    HW135219   0.083   0.129   2.550 -1.1204 -0.1405 -1.6511
 7862SOL    HW235220   0.123   4.739   2.576 -0.1136 -1.9737 -1.6109
 7863SOL     OW35221   0.321   2.771   7.755  0.4116  0.3432  0.2952
 7863SOL    HW135222   0.264   2.745   7.683  1.7194 -0.1010 -0.5974
 7863SOL    HW235223   0.260   2.791   7.826  0.0147 -0.1599  0.0846
 7864SOL     OW35224   3.118   3.847   6.319  0.1415  0.1522 -0.3875
 7864SOL    HW135225   3.167   3.804   6.249  0.7385 -1.1267  0.8293
 7864SOL    HW235226   3.146   3.937   6.302  0.3480  0.1014 -0.3143
 7865SOL     OW35227   1.504   0.959  11.894  0.6446  0.1368 -0.0421
 7865SOL    HW135228   1.424   0.966  11.843  2.3876 -0.3111 -2.8324
 7865SOL    HW235229   1.477   0.895  11.959  1.2654  2.0348  2.0896
 7866SOL     OW35230   4.110   3.596   2.308  0.1005  0.1890  0.3304
 7866SOL    HW135231   4.146   3.574   2.222  0.5085  0.1498  0.5093
 7866SOL    HW235232   4.181   3.564   2.364  0.3067 -0.7136 -0.4293
 7867SOL     OW35233   3.546   2.404   3.915 -0.0971 -0.1431  0.3957
 7867SOL    HW135234   3.616   2.362   3.965  0.2799 -0.5312 -0.4681
 7867SOL    HW235235   3.538   2.488   3.961  1.5028  0.0218  0.3588
 7868SOL     OW35236   4.001   4.713   8.013 -0.1613 -0.0637 -0.0350
 7868SOL    HW135237   3.978   4.653   8.084  1.8292  0.8138  1.3563
 7868SOL    HW235238   4.006   4.648   7.942 -1.6499  1.2682 -1.3753
 7869SOL     OW35239   2.164   1.368   3.145  0.0541 -0.0571 -0.1760
 7869SOL    HW135240   2.079   1.364   3.101 -0.7908  1.4295  1.3439
 7869SOL    HW235241   2.230   1.355   3.077  0.0387  1.1885 -0.4310
 7870SOL     OW35242   3.276   0.168   5.881 -0.0207  0.3570  0.0100
 7870SOL    HW135243   3.291   0.197   5.790  1.5232 -0.0172  0.1355
 7870SOL    HW235244   3.299   0.076   5.869  1.6304  0.9206 -1.2589
 7871SOL     OW35245   1.148   0.307   6.049  0.1025 -0.5171  0.1937
 7871SOL    HW135246   1.192   0.222   6.055 -0.3222 -0.4594  4.3774
 7871SOL    HW235247   1.075   0.295   5.989 -1.5713  2.2922  1.6949
 7872SOL     OW35248   3.951   0.573   8.463 -0.4417 -0.1914 -0.1028
 7872SOL    HW135249   3.875   0.574   8.404  0.2469  1.7355 -0.9543
 7872SOL    HW235250   3.977   0.481   8.468  0.5617  0.1353  0.6448
 7873SOL     OW35251   1.602   2.725   1.509 -0.2671 -0.0552  0.5080
 7873SOL    HW135252   1.582   2.764   1.594 -0.3210  1.5970 -0.2671
 7873SOL    HW235253   1.531   2.661   1.502  1.4320 -2.0561  1.7371
 7874SOL     OW35254   0.674   4.136   0.003 -0.2494  0.0364  0.6081
 7874SOL    HW135255   0.655   4.199   0.072  0.5258 -0.0243  0.8795
 7874SOL    HW235256   0.769   4.150   0.000 -0.3125  0.1552 -0.8853
 7875SOL     OW35257   0.110   1.589   1.713  0.4122 -0.2277 -0.3298
 7875SOL    HW135258   0.113   1.533   1.635 -1.0488  0.7070 -1.0596
 7875SOL    HW235259   0.039   1.546   1.761 -1.7127  0.8381 -2.4777
 7876SOL     OW35260   3.547   3.338   8.802  0.4239  0.2128 -0.2302
 7876SOL    HW135261   3.606   3.366   8.732 -2.0067  2.4696 -1.3267
 7876SOL    HW235262   3.546   3.417   8.856 -0.7594 -0.1798  0.2960
 7877SOL     OW35263   1.107   3.697  12.314  0.0669 -0.0039  0.1119
 7877SOL    HW135264   1.155   3.777  12.293 -0.6681  0.1927 -0.7794
 7877SOL    HW235265   1.031   3.724  12.262 -0.5962 -0.8741  0.6193
 7878SOL     OW35266   2.144   4.495   4.699  0.0190 -0.6472 -0.1150
 7878SOL    HW135267   2.230   4.480   4.661  0.8637 -1.4332  2.0895
 7878SOL    HW235268   2.169   4.566   4.759  0.8463 -0.5706 -0.5592
 7879SOL     OW35269   3.810   3.217   0.663  0.1089  0.3697  0.3025
 7879SOL    HW135270   3.825   3.156   0.591  0.3556 -0.1894  0.8244
 7879SOL    HW235271   3.862   3.285   0.621 -0.7570  0.3457 -0.7923
 7880SOL     OW35272   2.327   0.568   8.234  0.0385  0.8281  0.2385
 7880SOL    HW135273   2.255   0.520   8.274 -0.1075 -1.4904 -2.8056
 7880SOL    HW235274   2.281   0.582   8.151 -0.2013 -0.8630  0.0707
 7881SOL     OW35275   0.984   1.349  14.993 -0.0735  0.1566  0.0789
 7881SOL    HW135276   0.973   1.307  14.907  3.0933  0.4009 -0.4534
 7881SOL    HW235277   1.046   1.295  15.042 -0.6328 -2.1281 -1.7197
 7882SOL     OW35278   4.391   2.715   3.989 -0.2523  0.1199  0.9178
 7882SOL    HW135279   4.363   2.772   3.918 -0.9287 -0.8610  0.4064
 7882SOL    HW235280   4.361   2.633   3.951 -0.0951 -1.2714  3.8230
 7883SOL     OW35281   1.580   3.036   7.087  0.1506  0.0630  0.0295
 7883SOL    HW135282   1.616   2.947   7.081  0.4700  0.1290  1.0269
 7883SOL    HW235283   1.549   3.023   7.176  0.1143  1.1574  0.1742
 7884SOL     OW35284   1.733   4.621   6.522  0.1351 -0.2076 -0.6431
 7884SOL    HW135285   1.751   4.529   6.539  0.1367  0.5888  3.5878
 7884SOL    HW235286   1.748   4.641   6.429 -4.1282 -1.8462 -1.6732
 7885SOL     OW35287   3.254   3.491   0.267  0.1833 -0.2142 -0.3070
 7885SOL    HW135288   3.313   3.466   0.338 -0.1143 -0.4386 -0.1401
 7885SOL    HW235289   3.235   3.583   0.288  0.9579 -0.0719 -0.2036
 7886SOL     OW35290   1.796   3.168   8.057  0.6952 -0.0351 -0.1486
 7886SOL    HW135291   1.754   3.116   8.126  0.1649 -0.6338 -0.9316
 7886SOL    HW235292   1.728   3.167   7.990  0.5270  0.9327 -0.0002
 7887SOL     OW35293   3.174   2.197   3.714 -0.0452 -0.0934 -0.5853
 7887SOL    HW135294   3.133   2.266   3.767  2.5835  1.1453 -0.1486
 7887SOL    HW235295   3.246   2.246   3.674  0.4932 -1.0386 -0.7502
 7888SOL     OW35296   2.210   3.568   8.969 -0.2351 -0.0289 -0.6565
 7888SOL    HW135297   2.253   3.650   8.946  0.1376 -0.3321 -1.0481
 7888SOL    HW235298   2.123   3.586   9.003  0.9768  2.1872  1.2405
 7889SOL     OW35299   4.707   2.964  10.912 -0.6511 -0.4803 -0.0618
 7889SOL    HW135300   4.724   2.966  11.006 -1.3105  4.5074 -0.0501
 7889SOL    HW235301   0.038   2.911  10.877 -0.2640 -0.0244  0.0451
 7890SOL     OW35302   3.941   0.573  10.309  0.2481  0.4297 -0.5209
 7890SOL    HW135303   3.939   0.580  10.405  0.7038 -1.1067 -0.4069
 7890SOL    HW235304   3.926   0.481  10.288  2.2259 -0.2692  1.0687
 7891SOL     OW35305   3.685   4.530  12.779  0.3557 -0.3165 -0.2254
 7891SOL    HW135306   3.718   4.611  12.739 -1.5973 -0.2136 -1.6921
 7891SOL    HW235307   3.727   4.466  12.722 -0.7293  1.9793 -3.6672
 7892SOL     OW35308   2.308   4.597   2.139  0.2285 -0.5134 -0.2111
 7892SOL    HW135309   2.334   4.580   2.049  0.5824  1.0902 -0.4194
 7892SOL    HW235310   2.294   4.692   2.135 -0.3045 -0.5287  0.9809
 7893SOL     OW35311   0.770   4.314   7.819 -0.2014 -0.6123 -0.2017
 7893SOL    HW135312   0.713   4.293   7.892  0.3877 -0.5193  0.2829
 7893SOL    HW235313   0.706   4.333   7.751 -1.4613  0.5936  1.3367
 7894SOL     OW35314   4.648   2.712   1.606  0.3831  0.6270 -0.4614
 7894SOL    HW135315   4.602   2.789   1.573  1.8169  1.2807 -0.9268
 7894SOL    HW235316   4.730   2.750   1.637  0.1279  1.5100 -0.8632
 7895SOL     OW35317   1.396   1.041  16.607  0.5168 -0.2440  0.2682
 7895SOL    HW135318   1.421   0.997  16.688 -1.1074 -1.8463 -0.0819
 7895SOL    HW235319   1.475   1.031  16.554  0.1351 -0.7302 -0.2175
 7896SOL     OW35320   0.269   1.265   7.104  0.3688 -0.2463 -0.2055
 7896SOL    HW135321   0.334   1.283   7.172 -0.2007 -0.3246  0.3561
 7896SOL    HW235322   0.192   1.306   7.144 -0.8599 -3.0609  0.3618
 7897SOL     OW35323   2.752   2.930   2.986  0.6545 -0.5987  0.5715
 7897SOL    HW135324   2.701   2.864   3.033 -0.5610 -0.3502 -0.4204
 7897SOL    HW235325   2.795   2.873   2.922  0.2514 -0.8474  0.5206
 7898SOL     OW35326   0.134   1.235   8.828 -0.0106  0.9251  0.3901
 7898SOL    HW135327   0.050   1.270   8.797 -0.2384 -0.8415 -0.9680
 7898SOL    HW235328   0.191   1.312   8.828  1.1064  0.0877  1.1928
 7899SOL     OW35329   3.023   3.561   8.446  0.2323  0.0733 -0.6846
 7899SOL    HW135330   2.986   3.563   8.357 -1.8792 -0.2593  0.1713
 7899SOL    HW235331   2.981   3.636   8.488  1.5836 -0.0578  0.8900
 7900SOL     OW35332   2.947   0.639   2.813 -0.0997 -0.1454 -0.0804
 7900SOL    HW135333   2.973   0.600   2.729 -2.7387  1.2981 -1.5752
 7900SOL    HW235334   2.854   0.617   2.809  0.1705 -1.2044 -0.4310
 7901SOL     OW35335   3.639   1.780   6.751  0.5990 -0.1326 -0.3971
 7901SOL    HW135336   3.715   1.789   6.808 -0.5232  1.2310  0.8985
 7901SOL    HW235337   3.585   1.719   6.801  0.5704 -1.2064 -1.7298
 7902SOL     OW35338   2.514   2.469   8.740  0.6063  0.1915 -0.3996
 7902SOL    HW135339   2.577   2.436   8.805  1.6766  2.8051 -0.1081
 7902SOL    HW235340   2.499   2.555   8.778 -0.1534  0.3623 -1.1157
 7903SOL     OW35341   0.436   2.176  15.198 -0.3271  0.3035  0.1353
 7903SOL    HW135342   0.427   2.095  15.248  0.5602 -0.3408 -0.7640
 7903SOL    HW235343   0.351   2.180  15.153 -0.9327  0.7735  1.3170
 7904SOL     OW35344   2.567   2.826   8.509 -0.3752 -0.6099 -0.1877
 7904SOL    HW135345   2.548   2.890   8.441  1.2247  0.4849  0.3867
 7904SOL    HW235346   2.549   2.740   8.472  0.5001 -0.4509 -0.9680
 7905SOL     OW35347   2.557   2.780   2.328  0.8907  0.0947 -0.0776
 7905SOL    HW135348   2.517   2.699   2.360 -2.0814  2.0311  1.0529
 7905SOL    HW235349   2.646   2.749   2.312  0.5878 -1.5484  1.3849
 7906SOL     OW35350   2.078   4.665  14.378 -0.0895 -0.0324 -0.0010
 7906SOL    HW135351   2.078   4.646  14.284 -0.4875 -0.4982  0.0918
 7906SOL    HW235352   2.035   4.584  14.406 -2.5912  0.7784 -1.4776
 7907SOL     OW35353   0.157   0.472   5.733 -0.4196 -0.3809 -0.2776
 7907SOL    HW135354   0.226   0.468   5.799 -0.6236 -1.4186 -0.1175
 7907SOL    HW235355   0.100   0.531   5.782  0.1350  0.9515 -1.2370
 7908SOL     OW35356   4.698   2.689   8.966 -0.8275  0.0084 -0.3950
 7908SOL    HW135357   4.648   2.618   8.925 -1.7099  0.7425 -0.5935
 7908SOL    HW235358   4.640   2.739   9.024  1.1223 -1.7444  3.0671
 7909SOL     OW35359   3.245   0.653  17.090  0.1457  0.5088 -0.8973
 7909SOL    HW135360   3.308   0.674  17.022  0.4101  1.7226 -0.2737
 7909SOL    HW235361   3.196   0.734  17.101 -0.5811 -0.2442  1.5396
 7910SOL     OW35362   2.604   0.362   8.597  0.3219  0.2861  0.6024
 7910SOL    HW135363   2.670   0.299   8.626 -0.2997 -0.4642  0.3663
 7910SOL    HW235364   2.527   0.330   8.643 -0.1612 -0.2973 -0.6201
 7911SOL     OW35365   0.346   0.295   3.342 -0.6332 -0.0088  0.0888
 7911SOL    HW135366   0.337   0.289   3.247  0.3536 -2.4945  0.1493
 7911SOL    HW235367   0.440   0.283   3.351 -0.7393  0.0178  1.2760
 7912SOL     OW35368   3.030   3.048   4.283 -0.1173  0.0020 -0.0563
 7912SOL    HW135369   3.007   3.082   4.370 -0.0757 -2.8731  1.0852
 7912SOL    HW235370   3.097   2.990   4.319  0.8722  2.0410  1.4216
 7913SOL     OW35371   4.322   1.708   4.069 -0.2962  0.0574  0.7732
 7913SOL    HW135372   4.375   1.635   4.035  0.3337  0.5854  0.6212
 7913SOL    HW235373   4.279   1.666   4.143 -0.3529 -0.4218  0.4721
 7914SOL     OW35374   3.112   1.372  11.321  0.2972 -0.3260 -0.1611
 7914SOL    HW135375   3.017   1.376  11.305  0.4367 -0.2838 -1.0147
 7914SOL    HW235376   3.144   1.420  11.244  2.1370  0.8292  1.3534
 7915SOL     OW35377   0.768   3.941  12.084  0.2485 -0.3956  0.1666
 7915SOL    HW135378   0.823   3.995  12.141  1.1327 -1.3986  0.2666
 7915SOL    HW235379   0.833   3.879  12.052  0.4060  1.5005 -3.1611
 7916SOL     OW35380   1.720   2.058  11.909 -0.5370  0.3826  0.2414
 7916SOL    HW135381   1.754   1.985  11.858 -1.4423  0.4977 -0.5332
 7916SOL    HW235382   1.795   2.086  11.962  0.1025 -1.6949  0.4390
 7917SOL     OW35383   1.482   3.882   9.982 -0.2294 -0.3448  0.0313
 7917SOL    HW135384   1.426   3.960   9.986  0.6594  0.2482  0.8490
 7917SOL    HW235385   1.458   3.838  10.063 -1.6730  1.2367  0.4803
 7918SOL     OW35386   3.950   1.289  16.054  0.1894  0.1864  0.2411
 7918SOL    HW135387   3.996   1.259  15.975  1.5304 -0.1291  1.1418
 7918SOL    HW235388   3.864   1.306  16.017  0.0086 -1.6418 -0.1744
 7919SOL     OW35389   2.195   3.266   4.583 -0.0063 -0.0978 -0.4929
 7919SOL    HW135390   2.230   3.349   4.549  0.4822  1.2547  3.2671
 7919SOL    HW235391   2.148   3.229   4.509  0.1705  0.1536 -0.7286
 7920SOL     OW35392   4.518   0.779  13.425 -0.1495  0.2524  0.2111
 7920SOL    HW135393   4.444   0.756  13.369 -1.4486  1.9419  1.2334
 7920SOL    HW235394   4.589   0.730  13.384 -1.5942 -2.1154  0.5751
 7921SOL     OW35395   0.315   4.403  11.442 -0.4621 -0.4806  0.0576
 7921SOL    HW135396   0.302   4.486  11.489  1.2161  0.0347 -0.3710
 7921SOL    HW235397   0.365   4.362  11.513 -1.5968 -0.0433  1.1249
 7922SOL     OW35398   3.182   4.065   6.003 -0.4452  0.5444 -0.2523
 7922SOL    HW135399   3.250   4.004   5.976 -1.2909 -0.0877 -0.9512
 7922SOL    HW235400   3.190   4.135   5.938 -1.3812  0.2503 -0.6859
 7923SOL     OW35401   0.824   3.614  11.911  0.3933 -0.3393 -0.2575
 7923SOL    HW135402   0.795   3.564  11.987  1.8049 -0.2393  0.3534
 7923SOL    HW235403   0.852   3.543  11.853 -0.5031 -2.9873  2.5376
 7924SOL     OW35404   4.284   1.404  11.386  0.1247 -0.4189 -0.2712
 7924SOL    HW135405   4.219   1.337  11.364  0.3988 -1.5603  2.4437
 7924SOL    HW235406   4.318   1.374  11.470  2.1541  1.7176 -0.3599
 7925SOL     OW35407   4.085   4.449   6.004 -0.2018 -0.1062  0.0323
 7925SOL    HW135408   4.153   4.414   5.946 -0.7390 -0.4407 -0.3987
 7925SOL    HW235409   4.069   4.374   6.061 -0.5611 -0.1147 -0.0796
 7926SOL     OW35410   0.803   2.097   6.128 -0.0979 -0.6081  0.8310
 7926SOL    HW135411   0.852   2.177   6.151 -0.5150  0.4880 -2.1459
 7926SOL    HW235412   0.847   2.080   6.045  0.2797  0.9672  0.6951
 7927SOL     OW35413   1.363   2.180   6.259  0.8657 -0.0289  0.6989
 7927SOL    HW135414   1.412   2.242   6.206 -0.3485  0.5032  0.1952
 7927SOL    HW235415   1.332   2.118   6.192  1.5609 -0.0880  0.4337
 7928SOL     OW35416   1.295   0.783  10.635  0.6255 -0.2998 -0.1403
 7928SOL    HW135417   1.233   0.774  10.563  0.4736  0.0275 -0.0468
 7928SOL    HW235418   1.365   0.721  10.616  0.6631 -0.8490  1.7464
 7929SOL     OW35419   1.903   0.310   5.881  0.2371 -0.3285  0.0779
 7929SOL    HW135420   1.973   0.363   5.842 -2.1530  3.1338  0.5204
 7929SOL    HW235421   1.836   0.329   5.815  2.7683 -3.6018 -3.4624
 7930SOL     OW35422   0.819   3.728  10.393  1.0493 -0.0354 -0.0085
 7930SOL    HW135423   0.733   3.685  10.396  1.0909 -0.1137  0.0860
 7930SOL    HW235424   0.836   3.731  10.487  4.0778  1.7637 -0.6341
 7931SOL     OW35425   0.315   1.905   3.689 -0.0703  0.3191  0.5771
 7931SOL    HW135426   0.374   1.973   3.655 -1.6770  0.3379 -2.1652
 7931SOL    HW235427   0.308   1.846   3.614  1.1698 -0.5888  1.1844
 7932SOL     OW35428   0.984   0.128  15.727  0.2988 -0.4025 -0.0246
 7932SOL    HW135429   0.928   0.051  15.721  0.0991 -0.1231 -1.5503
 7932SOL    HW235430   0.926   0.197  15.759 -0.5266 -1.3251  0.4521
 7933SOL     OW35431   3.308   3.558   5.581  0.3099  0.4270 -0.7897
 7933SOL    HW135432   3.313   3.495   5.653  0.7117  0.0001 -1.1878
 7933SOL    HW235433   3.232   3.513   5.545 -1.0756  1.5391  0.8061
 7934SOL     OW35434   0.454   4.398   6.579  0.7370  0.2960  0.0574
 7934SOL    HW135435   0.473   4.485   6.543  0.0124 -0.1951 -1.5381
 7934SOL    HW235436   0.478   4.394   6.671  0.5685  0.7076  0.1206
 7935SOL     OW35437   1.410   3.197   8.996  0.4626 -0.4888  0.2260
 7935SOL    HW135438   1.372   3.282   9.022  4.4162  2.0472 -2.2447
 7935SOL    HW235439   1.346   3.173   8.929 -0.3630 -1.2696  1.2999
 7936SOL     OW35440   4.488   4.645   6.572 -0.7231 -0.6789 -0.6873
 7936SOL    HW135441   4.501   4.591   6.494  2.7170 -2.5404  1.1391
 7936SOL    HW235442   4.463   4.728   6.533 -0.8957  0.0580  1.0078
 7937SOL     OW35443   3.079   3.347   0.128  0.4533  0.2087  0.0632
 7937SOL    HW135444   3.163   3.392   0.115  0.0588  0.7495 -0.6241
 7937SOL    HW235445   3.082   3.335   0.223  0.5913  1.0150  0.1627
 7938SOL     OW35446   1.682   2.772   7.037 -0.1078  0.2343 -0.1616
 7938SOL    HW135447   1.717   2.769   7.126  1.3423 -1.2398 -0.8125
 7938SOL    HW235448   1.753   2.726   6.994 -0.1245  0.4604 -0.4321
 7939SOL     OW35449   1.168   0.575   5.836 -0.4919  0.2336  0.3067
 7939SOL    HW135450   1.115   0.518   5.780  0.7192 -1.0743  0.4991
 7939SOL    HW235451   1.182   0.642   5.769 -2.5986 -0.5189 -0.9015
 7940SOL     OW35452   3.741   0.439  16.273 -0.5374 -0.6728  0.0864
 7940SOL    HW135453   3.758   0.500  16.201 -0.6492 -0.6348  0.0922
 7940SOL    HW235454   3.752   0.352  16.234  0.1635 -0.2561 -0.6408
 7941SOL     OW35455   2.169   2.237   1.153 -0.2516 -0.2624  0.4174
 7941SOL    HW135456   2.073   2.232   1.163 -0.3346  0.8216  0.1779
 7941SOL    HW235457   2.187   2.179   1.080  0.1039  0.8995 -0.4139
 7942SOL     OW35458   3.079   2.578   7.576  0.1035 -0.3006 -0.0199
 7942SOL    HW135459   3.160   2.574   7.525 -1.7551 -0.9468 -2.9144
 7942SOL    HW235460   3.100   2.627   7.655 -0.1981  0.8798 -0.6789
 7943SOL     OW35461   2.214   3.764   3.744  0.1940  0.1674  0.2373
 7943SOL    HW135462   2.161   3.706   3.688  1.8669 -1.3460  0.2130
 7943SOL    HW235463   2.151   3.779   3.814 -0.1496  1.4664 -0.3547
 7944SOL     OW35464   0.527   0.915   8.664 -0.6433  0.5380 -0.1134
 7944SOL    HW135465   0.441   0.874   8.672 -0.1696 -0.9087 -2.2127
 7944SOL    HW235466   0.538   0.900   8.570 -1.6631 -1.2312  0.0714
 7945SOL     OW35467   4.017   2.702   5.640 -0.2616  0.2743  0.1616
 7945SOL    HW135468   3.957   2.775   5.624 -1.6482 -0.9821 -0.3130
 7945SOL    HW235469   3.960   2.627   5.654 -1.7828  1.0941 -1.6675
 7946SOL     OW35470   2.796   3.660   5.054  0.4294 -0.0749 -0.4290
 7946SOL    HW135471   2.750   3.650   5.137  2.2431 -0.8966  0.4847
 7946SOL    HW235472   2.758   3.740   5.020  1.2145  0.1078 -0.8899
 7947SOL     OW35473   1.151   2.900   2.950 -0.1365 -0.2684 -0.2541
 7947SOL    HW135474   1.234   2.895   2.998  0.2184  1.5037 -0.6855
 7947SOL    HW235475   1.159   2.836   2.880 -1.1458 -0.4096 -0.2438
 7948SOL     OW35476   0.629   3.913  13.258 -0.2148 -0.3033 -0.2918
 7948SOL    HW135477   0.624   4.000  13.296 -2.4037 -0.5036 -0.0891
 7948SOL    HW235478   0.706   3.926  13.204  0.7501 -2.8009  0.4754
 7949SOL     OW35479   3.760   1.438   3.550  0.3423 -0.2855 -0.3694
 7949SOL    HW135480   3.775   1.346   3.573 -1.2167 -0.9563 -2.0211
 7949SOL    HW235481   3.685   1.453   3.607 -1.1043 -0.6263 -2.1611
 7950SOL     OW35482   4.286   2.755   5.032 -0.3345  0.8987 -0.7008
 7950SOL    HW135483   4.368   2.759   4.983  0.3601 -0.4120  0.3568
 7950SOL    HW235484   4.222   2.804   4.981 -0.4761 -1.1413 -2.4643
 7951SOL     OW35485   2.365   4.210   8.191 -0.3395  0.1896 -0.6057
 7951SOL    HW135486   2.431   4.249   8.249 -0.4099 -1.9420  0.9086
 7951SOL    HW235487   2.308   4.284   8.170 -0.6851 -0.2877 -1.3328
 7952SOL     OW35488   1.316   3.202   0.962  0.3041  0.2937 -0.0120
 7952SOL    HW135489   1.294   3.113   0.937  2.8934 -0.9332  2.0940
 7952SOL    HW235490   1.398   3.202   1.011  1.2140 -0.4630 -1.5360
 7953SOL     OW35491   1.821   3.343   4.856  0.1537 -0.0002  0.4175
 7953SOL    HW135492   1.839   3.423   4.905 -1.3768  0.0252  0.9276
 7953SOL    HW235493   1.729   3.360   4.838  0.2530 -0.3331 -0.4119
 7954SOL     OW35494   1.708   2.442   3.364 -0.0165  0.0140  0.0395
 7954SOL    HW135495   1.696   2.528   3.404  1.0924  0.3637 -0.4178
 7954SOL    HW235496   1.652   2.445   3.286  1.6113  0.7043 -1.0884
 7955SOL     OW35497   1.891   0.657   3.913  0.3584  0.3996  0.3554
 7955SOL    HW135498   1.811   0.613   3.885 -0.0494  1.0940  0.4383
 7955SOL    HW235499   1.866   0.749   3.911 -1.2787 -0.0527  0.0714
 7956SOL     OW35500   1.216   2.246   1.262  0.0232 -0.4040 -0.3942
 7956SOL    HW135501   1.204   2.334   1.297  0.9635 -0.5980  0.4436
 7956SOL    HW235502   1.148   2.197   1.309  1.3372 -1.3980  0.4775
 7957SOL     OW35503   2.753   1.199  11.625 -0.4326  0.0388  0.1226
 7957SOL    HW135504   2.770   1.109  11.600 -1.3402 -0.1837  0.3125
 7957SOL    HW235505   2.820   1.225  11.688  0.4596 -1.9574  0.0001
 7958SOL     OW35506   1.109   4.218   6.364  0.5318 -0.6965  0.1474
 7958SOL    HW135507   1.140   4.127   6.365 -0.8932 -1.1537  2.1822
 7958SOL    HW235508   1.187   4.245   6.412  1.1619 -0.7112 -0.8727
 7959SOL     OW35509   0.938   0.884   6.233  0.2908 -0.0852 -0.0952
 7959SOL    HW135510   1.028   0.858   6.215 -0.3925 -1.1932 -1.9734
 7959SOL    HW235511   0.892   0.838   6.162 -1.1521  0.3344  0.5547
 7960SOL     OW35512   4.184   0.232  16.463  0.5979 -0.2093  0.6199
 7960SOL    HW135513   4.093   0.204  16.455  1.0525 -0.2245 -4.8724
 7960SOL    HW235514   4.175   0.315  16.509 -1.1307  0.5992 -1.2068
 7961SOL     OW35515   0.180   4.399   5.576 -0.2929  0.0132  0.3409
 7961SOL    HW135516   0.261   4.363   5.611 -1.0175 -0.9454  1.0321
 7961SOL    HW235517   0.199   4.479   5.527  1.1405  0.6917  1.9860
 7962SOL     OW35518   0.611   1.052  11.510  0.2329  0.2905  0.0412
 7962SOL    HW135519   0.571   0.987  11.568 -2.2378  2.3110  0.6335
 7962SOL    HW235520   0.581   1.132  11.554 -0.6874 -0.1121  0.1553
 7963SOL     OW35521   3.227   3.870   4.617  0.1533  0.0638 -0.5658
 7963SOL    HW135522   3.142   3.889   4.577  0.3484 -0.0066 -1.0178
 7963SOL    HW235523   3.274   3.849   4.536  2.4533 -0.9048  1.0368
 7964SOL     OW35524   1.378   0.929   6.771  0.2903  0.2698 -0.6398
 7964SOL    HW135525   1.452   0.984   6.796  0.5422 -0.3152 -0.1031
 7964SOL    HW235526   1.413   0.841   6.786 -1.7123 -0.8131 -2.2660
 7965SOL     OW35527   2.422   3.050  14.730 -0.0939 -0.3918  0.4005
 7965SOL    HW135528   2.382   2.963  14.733  0.4574 -0.6764 -0.4970
 7965SOL    HW235529   2.494   3.027  14.789 -1.0826 -0.5011  1.5583
 7966SOL     OW35530   2.564   4.719  17.240  0.4258 -0.1064 -0.1354
 7966SOL    HW135531   2.493   0.012  17.185 -0.3081 -0.3519  0.6525
 7966SOL    HW235532   2.565   0.055  17.298  2.3491 -0.0563 -0.2462
 7967SOL     OW35533   1.099   3.508  10.037 -0.1027 -0.0837 -0.5727
 7967SOL    HW135534   1.084   3.599  10.010 -0.7913  0.0840  0.3498
 7967SOL    HW235535   1.193   3.512  10.019 -0.5842 -2.3622 -3.6243
 7968SOL     OW35536   0.045   3.840  12.744  0.0655  0.0580 -0.5916
 7968SOL    HW135537   4.715   3.889  12.702 -2.0406 -0.2780  2.5641
 7968SOL    HW235538   0.085   3.797  12.668  4.0615 -1.3101  2.2825
 7969SOL     OW35539   4.621   0.904   1.174  0.0438 -0.0205 -0.8144
 7969SOL    HW135540   4.569   0.942   1.103 -1.1800 -0.0927  0.0318
 7969SOL    HW235541   4.621   0.976   1.238  4.3716 -1.1792  0.4737
 7970SOL     OW35542   4.034   1.832   5.457 -0.3137 -0.0517 -0.1968
 7970SOL    HW135543   3.958   1.797   5.503  0.2690  0.0385  0.8502
 7970SOL    HW235544   4.018   1.783   5.377  0.3259 -0.3656 -0.1329
 7971SOL     OW35545   0.791   2.502   7.648 -0.2541  1.0411 -0.3863
 7971SOL    HW135546   0.885   2.485   7.643 -0.6366 -0.8308 -1.4656
 7971SOL    HW235547   0.801   2.596   7.635  0.2123  1.1332  0.6467
 7972SOL     OW35548   1.747   0.665  11.988 -0.3146 -0.1648 -0.7154
 7972SOL    HW135549   1.796   0.643  11.909  0.5004 -0.6230 -0.0810
 7972SOL    HW235550   1.794   0.608  12.049 -1.8439  0.0897  0.6959
 7973SOL     OW35551   3.528   4.236   1.022  0.4454 -0.4647  0.6130
 7973SOL    HW135552   3.527   4.161   0.962 -1.9463 -0.1640  0.2663
 7973SOL    HW235553   3.542   4.301   0.954  1.4305 -1.7855 -0.4487
 7974SOL     OW35554   1.521   2.808   5.918  0.0359 -0.4265  0.2860
 7974SOL    HW135555   1.443   2.772   5.876  1.6611 -2.1413 -1.2515
 7974SOL    HW235556   1.559   2.867   5.853  3.2915 -0.5179  2.1270
 7975SOL     OW35557   0.987   3.202  17.285  0.7547 -0.7111 -0.1711
 7975SOL    HW135558   0.965   3.126  17.231  2.6262 -0.8834 -0.6861
 7975SOL    HW235559   1.082   3.209  17.275  1.1064 -2.5128  1.8947
 7976SOL     OW35560   0.778   3.850   8.394 -0.0053 -0.1155 -0.0371
 7976SOL    HW135561   0.739   3.933   8.420  0.2365  0.3265 -1.0858
 7976SOL    HW235562   0.790   3.865   8.300  1.1902  2.6908  0.5504
 7977SOL     OW35563   0.062   2.494   2.835 -0.0453  0.5869 -0.1971
 7977SOL    HW135564   0.149   2.455   2.826  0.5560  1.6436  1.0260
 7977SOL    HW235565   0.078   2.586   2.816  1.3924  0.3357 -0.2385
 7978SOL     OW35566   0.971   0.178  12.730  0.1631 -0.2972 -0.1512
 7978SOL    HW135567   0.953   0.110  12.794  0.5866 -0.8682 -0.6384
 7978SOL    HW235568   1.054   0.210  12.765 -1.1020 -0.5311  3.0261
 7979SOL     OW35569   1.901   1.425  15.929  0.4728  0.4913  0.2377
 7979SOL    HW135570   1.859   1.385  15.853 -1.2389  0.5362  1.1561
 7979SOL    HW235571   1.849   1.504  15.916 -1.3540 -1.2879 -3.1315
 7980SOL     OW35572   3.206   2.823  12.504 -0.0685  0.7824 -0.1710
 7980SOL    HW135573   3.265   2.893  12.478 -0.5233  1.3211  0.2327
 7980SOL    HW235574   3.130   2.876  12.530 -0.3780  0.6993 -0.8905
 7981SOL     OW35575   2.467   1.362   4.509 -0.3296 -0.0373  0.4334
 7981SOL    HW135576   2.510   1.305   4.445 -1.2507 -2.0026  1.5528
 7981SOL    HW235577   2.430   1.424   4.446  0.2277  1.5377  1.6892
 7982SOL     OW35578   3.997   2.211   6.436 -0.5125 -0.0615 -0.7970
 7982SOL    HW135579   3.943   2.213   6.357 -0.0039  0.2909 -1.1390
 7982SOL    HW235580   4.034   2.123   6.435  1.2731  0.6851  0.4148
 7983SOL     OW35581   1.569   4.611   4.345  0.1172  0.3700  0.6592
 7983SOL    HW135582   1.598   4.539   4.401 -0.5969 -1.4999 -1.3807
 7983SOL    HW235583   1.531   4.566   4.269  0.9172  2.3776 -0.9674
 7984SOL     OW35584   2.306   0.694   9.413  0.6987 -0.3603 -0.3860
 7984SOL    HW135585   2.400   0.713   9.415  0.7016 -0.1551 -2.7053
 7984SOL    HW235586   2.269   0.779   9.386 -0.6270 -0.5202  0.9618
 7985SOL     OW35587   4.112   3.249   4.555  0.3568 -0.1673  0.3569
 7985SOL    HW135588   4.157   3.269   4.473  0.2561  1.3815  0.6808
 7985SOL    HW235589   4.025   3.225   4.521  1.9192 -2.0643 -2.3060
 7986SOL     OW35590   0.698   0.707   8.799 -0.1244  0.5477 -0.0708
 7986SOL    HW135591   0.639   0.768   8.755  0.9865  1.5052 -0.2398
 7986SOL    HW235592   0.691   0.732   8.892 -0.5550 -0.6812  0.2199
 7987SOL     OW35593   4.373   3.377   3.604 -0.1334 -0.6539  0.9606
 7987SOL    HW135594   4.376   3.457   3.552  1.2372 -1.1344  0.3062
 7987SOL    HW235595   4.321   3.419   3.673  0.0279 -0.2275  0.8208
 7988SOL     OW35596   1.796   0.044   2.080 -0.4139  0.5600 -0.3091
 7988SOL    HW135597   1.813   4.707   2.027 -0.1936 -1.1642  2.2659
 7988SOL    HW235598   1.713   0.022   2.122  0.6473 -1.6230  0.6770
 7989SOL     OW35599   4.080   4.330  15.561  0.3285  0.2962 -0.0921
 7989SOL    HW135600   4.108   4.418  15.588  1.7700 -0.6453  1.4787
 7989SOL    HW235601   4.128   4.272  15.620 -1.3902  0.1486  1.1579
 7990SOL     OW35602   3.501   0.628  16.484 -0.0345 -0.7271  0.0341
 7990SOL    HW135603   3.557   0.700  16.512 -0.7907 -0.3891  0.6741
 7990SOL    HW235604   3.465   0.599  16.568  1.4287  0.7324  1.1626
 7991SOL     OW35605   0.468   1.669  10.906 -0.4587 -0.5356 -0.3491
 7991SOL    HW135606   0.520   1.640  10.981  0.1864 -0.2745 -0.6968
 7991SOL    HW235607   0.514   1.746  10.871 -2.3719  1.2895  1.1231
 7992SOL     OW35608   2.764   4.431   8.499 -0.3582  0.2373 -0.0354
 7992SOL    HW135609   2.788   4.413   8.591 -1.6411  0.8946  0.4231
 7992SOL    HW235610   2.773   4.346   8.457  1.0970  0.8333 -0.9288
 7993SOL     OW35611   0.841   1.193   8.467  0.0705  0.1598 -0.3720
 7993SOL    HW135612   0.777   1.163   8.531 -0.5726  0.9003 -0.6712
 7993SOL    HW235613   0.906   1.247   8.512  0.2051 -0.2229 -0.1086
 7994SOL     OW35614   2.479   4.312   6.674 -0.5174 -0.3583  0.0357
 7994SOL    HW135615   2.566   4.349   6.664 -0.2495 -0.6046  1.4040
 7994SOL    HW235616   2.433   4.373   6.616 -0.3306 -0.6508 -0.4116
 7995SOL     OW35617   0.391   1.700   4.416  0.1569 -0.2733 -0.4593
 7995SOL    HW135618   0.355   1.785   4.443 -2.4106 -1.8778  1.1478
 7995SOL    HW235619   0.423   1.658   4.496 -1.6709  0.1338  0.4799
 7996SOL     OW35620   0.217   1.548   0.715  0.3035  1.0656 -0.4014
 7996SOL    HW135621   0.254   1.635   0.718 -0.3666  1.2459  2.7433
 7996SOL    HW235622   0.290   1.498   0.752 -1.6082 -2.0661 -0.7943
 7997SOL     OW35623   1.076   3.721  17.673  0.8527 -0.3421  0.2213
 7997SOL    HW135624   1.062   3.804  17.628 -4.4704 -0.6499  1.2910
 7997SOL    HW235625   0.987   3.688  17.663  0.3435  1.1470 -0.2180
 7998SOL     OW35626   1.128   3.911  14.244  0.0439  0.0840 -0.1592
 7998SOL    HW135627   1.131   3.954  14.329 -0.9129 -3.2653  1.5759
 7998SOL    HW235628   1.187   3.835  14.249 -2.1860 -1.7745 -1.7574
 7999SOL     OW35629   2.478   0.093   3.339  0.3751  0.1004 -0.0445
 7999SOL    HW135630   2.473   0.170   3.396  0.1193  1.0022 -1.2726
 7999SOL    HW235631   2.562   0.057   3.367  0.3664  0.0028 -0.1455
 8000SOL     OW35632   2.657   1.884  17.023 -0.2516 -0.0385 -0.4802
 8000SOL    HW135633   2.658   1.923  17.111  2.2149 -1.7809  0.2735
 8000SOL    HW235634   2.669   1.792  17.047  0.3832  0.0554 -0.4416
 8001SOL     OW35635   4.162   1.272   5.008 -0.3552  0.2555  0.2708
 8001SOL    HW135636   4.171   1.304   5.098  2.3316 -0.1807  0.1389
 8001SOL    HW235637   4.083   1.218   5.011 -0.4678  0.3256 -1.2678
 8002SOL     OW35638   4.035   3.218   6.938  0.1750 -0.4671  0.3527
 8002SOL    HW135639   4.052   3.139   6.885  0.5200  0.6290 -1.1747
 8002SOL    HW235640   4.061   3.286   6.876  0.9278 -2.8867 -1.9663
 8003SOL     OW35641   0.658   4.186  14.621 -0.2396 -0.2060 -0.0133
 8003SOL    HW135642   0.722   4.125  14.585  0.3947  0.2556  0.3253
 8003SOL    HW235643   0.645   4.139  14.703 -0.7839 -0.1981 -0.0952
 8004SOL     OW35644   4.324   4.499   8.277  0.0909 -0.1440  0.0670
 8004SOL    HW135645   4.275   4.457   8.207  0.7484  2.3238 -1.8507
 8004SOL    HW235646   4.268   4.570   8.308 -0.8310 -1.8785  2.4330
 8005SOL     OW35647   4.632   4.331  11.295 -0.3996  0.0228 -0.7901
 8005SOL    HW135648   4.608   4.410  11.246  0.1610  0.6948  0.0186
 8005SOL    HW235649   4.728   4.334  11.291 -0.3320  0.6515  1.7362
 8006SOL     OW35650   2.260   0.806   8.785 -0.2100  0.1130 -0.1945
 8006SOL    HW135651   2.274   0.713   8.764  0.6361  0.3409 -0.6238
 8006SOL    HW235652   2.349   0.840   8.778  0.8265 -2.3524  0.9963
 8007SOL     OW35653   3.770   1.349   9.836 -0.6856 -0.2969 -0.2529
 8007SOL    HW135654   3.834   1.393   9.780 -0.2621  0.1294  0.5565
 8007SOL    HW235655   3.816   1.323   9.916  0.4070  0.6678 -0.5537
 8008SOL     OW35656   1.796   1.555   4.181  0.3313  0.3251 -0.2892
 8008SOL    HW135657   1.724   1.618   4.184 -0.7394 -0.9175 -0.3310
 8008SOL    HW235658   1.750   1.478   4.215 -0.4206  1.7479  1.9269
 8009SOL     OW35659   3.401   1.142  17.450  0.1312  0.3990 -0.1660
 8009SOL    HW135660   3.424   1.235  17.454 -0.4552  0.5922 -1.3315
 8009SOL    HW235661   3.348   1.135  17.529 -0.9313 -1.5207 -1.0618
 8010SOL     OW35662   3.049   3.100   3.542 -0.0597  1.1326  0.0763
 8010SOL    HW135663   3.028   3.185   3.581  0.9227  0.6224  1.7233
 8010SOL    HW235664   3.022   3.040   3.612  0.3517  0.6100 -0.2075
 8011SOL     OW35665   4.298   1.630   2.948  0.2173 -0.2115 -0.0107
 8011SOL    HW135666   4.234   1.701   2.943  0.3203 -0.2057 -1.3979
 8011SOL    HW235667   4.253   1.573   3.010  1.3842 -0.7572  0.3399
 8012SOL     OW35668   4.388   0.121   3.353  0.4110  0.2139 -0.0747
 8012SOL    HW135669   4.389   0.092   3.261 -0.8052 -3.1652  0.9716
 8012SOL    HW235670   4.461   0.182   3.346 -1.1050  1.8567 -1.5987
 8013SOL     OW35671   4.507   0.872   8.476  0.0290  0.1556 -0.5292
 8013SOL    HW135672   4.602   0.872   8.484 -0.0395 -0.1236  0.3502
 8013SOL    HW235673   4.482   0.780   8.487 -1.3395  0.7352  1.3138
 8014SOL     OW35674   4.524   4.384   3.933 -0.0350  0.3474  0.4663
 8014SOL    HW135675   4.563   4.468   3.958 -1.5981  0.6810  1.7319
 8014SOL    HW235676   4.571   4.365   3.851 -3.3674 -2.6875 -0.7210
 8015SOL     OW35677   0.503   1.131   4.456 -0.0557 -0.4400 -0.2299
 8015SOL    HW135678   0.566   1.081   4.508  1.3143  0.5457 -0.9802
 8015SOL    HW235679   0.426   1.075   4.468 -1.0202  0.8395 -0.4214
 8016SOL     OW35680   1.482   2.860   3.578  0.2662  0.4634 -0.2442
 8016SOL    HW135681   1.476   2.794   3.647  1.5146  1.9892  1.3131
 8016SOL    HW235682   1.514   2.805   3.507 -1.2597  0.1906 -0.7311
 8017SOL     OW35683   4.524   3.284   8.835 -0.1032 -0.4041  0.1748
 8017SOL    HW135684   4.472   3.228   8.777 -0.9433 -0.3557  0.8713
 8017SOL    HW235685   4.455   3.314   8.895 -0.0923 -0.9805  0.4751
 8018SOL     OW35686   2.236   2.853   4.665  0.2713 -0.2623  0.4829
 8018SOL    HW135687   2.295   2.888   4.598 -0.1652 -2.8816 -1.2788
 8018SOL    HW235688   2.289   2.856   4.745  1.3907  1.7768 -0.3400
 8019SOL     OW35689   3.522   2.202   6.759  0.9113  0.7247 -0.6550
 8019SOL    HW135690   3.545   2.197   6.852 -2.3683  1.7574  0.2119
 8019SOL    HW235691   3.536   2.113   6.726  1.2071 -0.2646  2.1544
 8020SOL     OW35692   2.267   0.450   9.524 -0.8304  0.7063 -0.4739
 8020SOL    HW135693   2.271   0.545   9.525  1.1230  0.6491 -2.7324
 8020SOL    HW235694   2.348   0.428   9.478 -0.4318  2.2433 -0.5067
 8021SOL     OW35695   3.417   3.206   4.756 -0.2375  0.0036  0.0975
 8021SOL    HW135696   3.327   3.239   4.756 -0.0783  0.4314  1.3499
 8021SOL    HW235697   3.418   3.146   4.830  1.2220  0.9777  0.8764
 8022SOL     OW35698   1.268   2.992   8.836 -0.0035 -0.2594 -0.4816
 8022SOL    HW135699   1.293   2.972   8.746  0.5426 -3.2297  0.2984
 8022SOL    HW235700   1.341   2.962   8.891 -2.3029 -0.6812  2.3171
 8023SOL     OW35701   0.889   0.799  15.867 -0.1372  0.9439 -0.9892
 8023SOL    HW135702   0.802   0.819  15.832 -0.9744  0.5249  0.8236
 8023SOL    HW235703   0.859   0.752  15.946 -1.6842 -0.1541 -2.2276
 8024SOL     OW35704   1.249   2.696  14.820  0.2566  0.2302  0.2669
 8024SOL    HW135705   1.249   2.609  14.781  1.2744 -0.0789  0.9394
 8024SOL    HW235706   1.342   2.715  14.812  0.3729 -0.1758  0.6530
 8025SOL     OW35707   2.727   2.238   9.304 -0.8020  0.1750  0.3787
 8025SOL    HW135708   2.645   2.286   9.313 -1.1030 -0.3432  0.3824
 8025SOL    HW235709   2.729   2.230   9.208 -1.3097  0.4276  0.3520
 8026SOL     OW35710   2.405   2.929   8.712 -0.1420  0.5469  0.9053
 8026SOL    HW135711   2.453   2.880   8.645  0.4232  0.5593  1.3086
 8026SOL    HW235712   2.425   2.882   8.793  0.5368 -0.2621  0.2539
 8027SOL     OW35713   2.254   3.487   2.977  0.1780  0.2336  0.4958
 8027SOL    HW135714   2.231   3.521   2.890  2.3363 -0.3205 -0.2869
 8027SOL    HW235715   2.312   3.413   2.959  1.5563  1.3680  0.3236
 8028SOL     OW35716   4.669   4.146   7.681  0.0752  0.5252 -0.1480
 8028SOL    HW135717   4.712   4.062   7.691 -0.3698  0.2927 -0.2086
 8028SOL    HW235718   4.581   4.143   7.718  0.1235  1.7045  0.0630
 8029SOL     OW35719   2.866   3.811   0.817 -0.0086 -0.3596 -0.5382
 8029SOL    HW135720   2.933   3.742   0.818  0.5205  0.1660 -0.2043
 8029SOL    HW235721   2.866   3.846   0.906  1.1955  2.8390 -1.8057
 8030SOL     OW35722   0.488   0.216  13.062  0.5133  0.3476 -0.1077
 8030SOL    HW135723   0.520   0.292  13.111  2.4880 -0.3187 -0.3821
 8030SOL    HW235724   0.570   0.172  13.043  0.3278 -0.0474  0.0002
 8031SOL     OW35725   4.177   0.412  11.705 -0.3370 -0.1460  0.1317
 8031SOL    HW135726   4.257   0.446  11.665 -0.7897 -0.0886 -0.7077
 8031SOL    HW235727   4.184   0.462  11.787 -0.2543 -2.1435  1.3351
 8032SOL     OW35728   2.463   4.694  11.345  0.3331 -0.4889 -0.2001
 8032SOL    HW135729   2.408   0.019  11.388  2.5857  1.3264 -0.0924
 8032SOL    HW235730   2.553   4.722  11.362  0.2288  0.1968 -0.7736
 8033SOL     OW35731   0.917   2.660   4.423 -0.3224  0.2924  0.5011
 8033SOL    HW135732   0.907   2.670   4.517  0.3042  0.0558  0.5915
 8033SOL    HW235733   0.831   2.666   4.382  0.1211 -1.0045 -0.6511
 8034SOL     OW35734   0.734   3.189   5.734 -0.3683 -0.4838 -0.3226
 8034SOL    HW135735   0.687   3.206   5.815  0.3678 -0.0464  0.0172
 8034SOL    HW235736   0.715   3.267   5.683  3.0622  1.5397  1.5058
 8035SOL     OW35737   1.652   3.382  11.727  0.1241  0.3878 -0.4266
 8035SOL    HW135738   1.732   3.382  11.675 -1.3581  0.2400 -2.7490
 8035SOL    HW235739   1.643   3.290  11.750  0.8560  0.2998 -0.5003
 8036SOL     OW35740   0.069   0.698  17.287 -0.4813  0.1401 -0.5613
 8036SOL    HW135741   0.104   0.610  17.303 -0.1783  0.0841 -1.5476
 8036SOL    HW235742   0.037   0.681  17.198  0.3714 -0.4842 -0.7504
 8037SOL     OW35743   1.736   0.626   8.114  0.2189 -0.1957 -0.4918
 8037SOL    HW135744   1.683   0.661   8.042 -4.5817 -1.3017  2.5384
 8037SOL    HW235745   1.697   0.540   8.128  0.7623 -0.3689 -0.0484
 8038SOL     OW35746   1.523   4.621  15.055 -0.1952  0.4817 -0.4738
 8038SOL    HW135747   1.533   4.527  15.043  1.1363  0.2902  2.2268
 8038SOL    HW235748   1.485   4.633  15.142 -0.0707 -0.4279 -0.2986
 8039SOL     OW35749   0.344   1.415  14.989 -0.2202  0.4535 -0.1547
 8039SOL    HW135750   0.349   1.456  14.903 -1.6207  2.0551  0.5206
 8039SOL    HW235751   0.434   1.413  15.021 -0.2369 -0.0258 -0.1377
 8040SOL     OW35752   2.561   0.210  17.402  0.6286  0.1202 -0.1364
 8040SOL    HW135753   2.623   0.275  17.370  1.3824 -0.5485 -0.0483
 8040SOL    HW235754   2.608   0.175  17.478 -0.6375 -0.0471  0.5691
 8041SOL     OW35755   4.576   4.154   8.410 -0.6140  0.2155 -0.0981
 8041SOL    HW135756   4.617   4.170   8.495  0.8998  1.0908 -0.9939
 8041SOL    HW235757   4.597   4.061   8.398 -1.0075 -0.0397  1.2484
 8042SOL     OW35758   0.348   4.089   5.171 -0.6051  0.0861  0.4782
 8042SOL    HW135759   0.284   4.117   5.237 -2.0875 -1.8675 -0.1218
 8042SOL    HW235760   0.289   4.070   5.098 -0.4430 -1.4478  0.7536
 8043SOL     OW35761   0.764   4.221  15.491 -0.3355  0.3491 -0.2954
 8043SOL    HW135762   0.741   4.264  15.573 -0.7903 -1.4713  0.5302
 8043SOL    HW235763   0.837   4.275  15.461 -0.3140  1.0447  1.0080
 8044SOL     OW35764   0.383   3.094   2.340  0.1256  0.6927  0.0807
 8044SOL    HW135765   0.421   3.178   2.315 -0.3958  0.3177 -1.9935
 8044SOL    HW235766   0.338   3.074   2.257 -0.6067  0.0420  0.6330
 8045SOL     OW35767   4.026   1.900   2.374 -0.5499  0.2795 -0.2509
 8045SOL    HW135768   3.936   1.930   2.362 -0.3859  1.6446  1.9585
 8045SOL    HW235769   4.040   1.922   2.466  2.1240  0.3552 -0.6760
 8046SOL     OW35770   1.565   1.642   9.856  0.6699  0.0103 -0.4166
 8046SOL    HW135771   1.630   1.702   9.818  0.8882 -0.2516 -0.4518
 8046SOL    HW235772   1.490   1.665   9.800  0.5313  1.1167  0.2326
 8047SOL     OW35773   3.908   4.559   1.075  0.5006  0.3368  0.2592
 8047SOL    HW135774   3.929   4.596   0.990 -0.7510 -1.2999 -0.7740
 8047SOL    HW235775   3.914   4.636   1.132  0.7127  2.0872 -2.1573
 8048SOL     OW35776   0.621   1.087   3.867 -1.0723 -0.3808 -0.2232
 8048SOL    HW135777   0.536   1.044   3.874 -0.1595 -2.1788 -0.2638
 8048SOL    HW235778   0.586   1.174   3.886 -1.7416 -0.4827 -0.9843
 8049SOL     OW35779   0.779   3.435   0.048 -0.1104  0.4550  0.2169
 8049SOL    HW135780   0.732   3.369  17.756  1.9537  0.0240 -1.0663
 8049SOL    HW235781   0.781   3.505  17.743 -0.7311 -1.1515 -1.5198
 8050SOL     OW35782   2.220   4.010   8.834 -0.0523  0.0217 -0.1655
 8050SOL    HW135783   2.169   4.086   8.863 -0.6220 -0.8448  1.1330
 8050SOL    HW235784   2.159   3.994   8.762 -0.5039 -2.5944  0.8012
 8051SOL     OW35785   0.962   3.151   3.532 -0.1688  0.0138  0.1236
 8051SOL    HW135786   0.940   3.136   3.624 -0.5079  2.8101  0.4836
 8051SOL    HW235787   1.007   3.070   3.507 -2.3664 -1.2492  0.1834
 8052SOL     OW35788   1.322   4.262   7.283  0.8778  0.1206  0.4347
 8052SOL    HW135789   1.352   4.217   7.362  1.9982 -2.4443 -1.4597
 8052SOL    HW235790   1.228   4.260   7.300  0.5395 -0.4970 -1.4542
 8053SOL     OW35791   4.463   4.723   8.781 -0.0308 -0.0186 -0.3417
 8053SOL    HW135792   4.514   4.710   8.701 -1.4811 -2.1127 -0.9203
 8053SOL    HW235793   4.394   0.042   8.754 -0.7642 -1.4825 -1.7076
 8054SOL     OW35794   1.358   2.000   2.600 -0.3398  0.6718  0.0484
 8054SOL    HW135795   1.415   2.067   2.563  1.2150  0.5188  2.1679
 8054SOL    HW235796   1.419   1.931   2.629  0.6429  2.6306  2.6645
 8055SOL     OW35797   4.011   1.006   4.236 -0.4294 -0.6600 -0.0793
 8055SOL    HW135798   4.073   0.987   4.307 -0.7669 -0.3745  0.2925
 8055SOL    HW235799   3.974   1.091   4.261  1.4897  0.0561  0.3443
 8056SOL     OW35800   0.977   4.358   2.087  0.2256  0.0232 -0.3637
 8056SOL    HW135801   0.955   4.449   2.069  1.6581  0.2143 -1.1643
 8056SOL    HW235802   0.963   4.323   1.999  0.3930 -0.6194 -0.1342
 8057SOL     OW35803   0.869   0.821  11.246  0.4247 -0.4315 -0.4566
 8057SOL    HW135804   0.889   0.817  11.339 -2.4518  2.7983  0.3483
 8057SOL    HW235805   0.955   0.809  11.207 -0.1058 -0.2433 -1.6800
 8058SOL     OW35806   1.354   2.053   5.888 -0.2655 -0.1967 -0.4251
 8058SOL    HW135807   1.437   2.074   5.847  0.3596  1.2252  1.5820
 8058SOL    HW235808   1.301   2.052   5.808 -2.4388 -1.8862  1.0200
 8059SOL     OW35809   0.125   0.931  16.448  0.1251 -0.3526  0.3511
 8059SOL    HW135810   0.178   1.003  16.414 -1.8429  1.4991  1.2270
 8059SOL    HW235811   0.177   0.855  16.425 -0.7626 -0.8805  0.0891
 8060SOL     OW35812   0.038   1.175   3.227  0.1113  0.0069  0.4120
 8060SOL    HW135813   0.080   1.212   3.149 -1.3294 -1.9071 -1.2576
 8060SOL    HW235814   4.684   1.191   3.221 -0.0009 -0.7584  0.1725
 8061SOL     OW35815   1.647   3.807   6.096  0.1614 -0.0677 -0.1207
 8061SOL    HW135816   1.723   3.836   6.045  0.3060 -1.3667 -0.6422
 8061SOL    HW235817   1.623   3.724   6.055  2.8162 -0.6963 -0.4181
 8062SOL     OW35818   3.200   2.655   4.419 -0.2325  0.1972 -0.0120
 8062SOL    HW135819   3.235   2.576   4.459  0.8881 -0.3917 -2.1667
 8062SOL    HW235820   3.200   2.637   4.325 -3.2114  3.2654 -0.6154
 8063SOL     OW35821   4.128   3.627   8.650  0.0834 -0.0063  0.2814
 8063SOL    HW135822   4.065   3.581   8.705  0.7766 -1.4876 -0.1847
 8063SOL    HW235823   4.141   3.700   8.711 -1.7347 -0.0089  0.6541
 8064SOL     OW35824   2.735   4.272   0.157 -0.3959 -0.4010  0.5755
 8064SOL    HW135825   2.675   4.344   0.175  1.9975  1.7404  0.1229
 8064SOL    HW235826   2.685   4.191   0.149  2.2566 -2.1712  1.7499
 8065SOL     OW35827   3.875   4.731  15.708 -0.3965 -0.1480  0.3404
 8065SOL    HW135828   3.960   4.710  15.671  0.2034  0.7374  1.2171
 8065SOL    HW235829   3.836   4.644  15.716  0.0643 -0.4871 -1.1093
 8066SOL     OW35830   0.557   3.181   4.413 -0.3623 -0.0749  0.5429
 8066SOL    HW135831   0.567   3.139   4.328 -0.9162  0.5507  0.1647
 8066SOL    HW235832   0.590   3.114   4.472  1.9782 -0.3218 -1.0596
 8067SOL     OW35833   2.197   4.067  17.144  0.4645 -0.0852 -0.0617
 8067SOL    HW135834   2.134   4.138  17.138  4.3624  3.3105 -0.6355
 8067SOL    HW235835   2.183   4.031  17.056  0.2114 -1.1550  0.4205
 8068SOL     OW35836   3.766   4.456   3.766 -0.0713 -0.3487  0.1098
 8068SOL    HW135837   3.846   4.421   3.804 -0.3866 -1.1018  0.0891
 8068SOL    HW235838   3.794   4.520   3.701 -0.1720  0.3005  0.7022
 8069SOL     OW35839   0.475   2.392  14.027 -0.1467  0.0227 -0.3753
 8069SOL    HW135840   0.516   2.385  13.941  0.4340  0.4568 -0.1325
 8069SOL    HW235841   0.504   2.307  14.060 -0.5382 -0.4041 -1.1207
 8070SOL     OW35842   3.321   2.146   2.541  0.1169  0.3601  0.2244
 8070SOL    HW135843   3.374   2.159   2.619  0.7158  0.7701 -0.2531
 8070SOL    HW235844   3.251   2.204   2.569 -1.4954 -0.2978 -2.4474
 8071SOL     OW35845   3.955   3.378   8.397 -0.3347 -0.1920  0.2988
 8071SOL    HW135846   3.914   3.427   8.326  2.6406  2.4093  0.3892
 8071SOL    HW235847   4.030   3.433   8.422  0.3295 -0.7384 -0.4872
 8072SOL     OW35848   0.743   3.830   7.914  0.4287 -0.2853 -0.2803
 8072SOL    HW135849   0.761   3.746   7.872  0.2003 -1.2087  1.4408
 8072SOL    HW235850   0.673   3.808   7.976 -2.1570  2.4957 -2.2057
 8073SOL     OW35851   2.317   4.436   9.774 -0.2157  0.5331 -0.6065
 8073SOL    HW135852   2.354   4.438   9.862 -0.0826 -1.8778 -0.5987
 8073SOL    HW235853   2.370   4.492   9.718  1.6301 -0.1402  0.4783
 8074SOL     OW35854   4.534   2.952   2.257 -0.9199  0.0300  0.1523
 8074SOL    HW135855   4.583   2.909   2.188 -1.5718 -0.5439  0.0504
 8074SOL    HW235856   4.601   2.993   2.312 -0.7089  1.7866 -1.4214
 8075SOL     OW35857   3.084   3.489  10.769  0.2989  0.0744  0.8525
 8075SOL    HW135858   3.071   3.431  10.694 -0.6591  2.2633 -0.6844
 8075SOL    HW235859   3.132   3.564  10.734 -1.1288  0.2652 -0.7263
 8076SOL     OW35860   4.031   4.028  10.209 -0.6394 -0.3903 -0.1828
 8076SOL    HW135861   3.980   4.090  10.261 -2.0315 -1.5076 -0.2090
 8076SOL    HW235862   4.053   4.087  10.137 -0.1181  0.3981  0.6301
 8077SOL     OW35863   4.724   2.108  14.254  0.2749 -0.3906  0.6376
 8077SOL    HW135864   0.058   2.161  14.227  0.3486 -0.3270  0.9690
 8077SOL    HW235865   0.011   2.082  14.341  1.0486 -1.6487  0.0053
 8078SOL     OW35866   0.838   1.610   9.586 -0.0055 -0.1814  0.0631
 8078SOL    HW135867   0.926   1.611   9.550  0.6014 -0.1202  1.5691
 8078SOL    HW235868   0.838   1.529   9.637  1.7560  1.0488  1.9823
 8079SOL     OW35869   1.415   1.580   8.951 -0.6766  0.8468  0.7243
 8079SOL    HW135870   1.405   1.521   8.876 -3.5861  3.4547 -0.9342
 8079SOL    HW235871   1.332   1.626   8.955 -0.6965  1.0178 -2.1008
 8080SOL     OW35872   0.669   1.811   3.837  0.1407  0.2571 -0.3773
 8080SOL    HW135873   0.711   1.737   3.794  0.7677  1.1443 -1.2812
 8080SOL    HW235874   0.617   1.765   3.903  1.5313  1.1026  1.2987
 8081SOL     OW35875   0.995   2.958   8.648 -0.2544  0.0179 -0.2082
 8081SOL    HW135876   1.074   2.908   8.628  0.1876  0.7381 -0.2597
 8081SOL    HW235877   0.981   2.926   8.737 -0.8899  4.4401  1.2829
 8082SOL     OW35878   2.137   0.238  15.671  0.4667  0.3329 -0.6301
 8082SOL    HW135879   2.046   0.236  15.644  1.3208  1.9416 -3.6788
 8082SOL    HW235880   2.131   0.186  15.751 -1.4081  0.3137 -0.7882
 8083SOL     OW35881   1.334   2.812   2.285 -0.0349 -0.4605 -0.3546
 8083SOL    HW135882   1.383   2.885   2.323  0.6580  0.6829 -3.4022
 8083SOL    HW235883   1.314   2.857   2.203  2.2611  1.8122  0.3105
 8084SOL     OW35884   0.705   3.484   1.730 -0.1985  0.3131  0.4884
 8084SOL    HW135885   0.794   3.462   1.703 -0.7975 -2.4344  0.7094
 8084SOL    HW235886   0.672   3.529   1.652 -2.6820 -2.9946 -0.3366
 8085SOL     OW35887   0.535   4.466   9.952 -0.4454 -0.0430 -0.3557
 8085SOL    HW135888   0.562   4.483  10.043 -0.6139 -0.7662 -0.1697
 8085SOL    HW235889   0.476   4.391   9.954  0.2979 -0.5417  3.2337
 8086SOL     OW35890   1.955   0.109   7.255  0.3950 -0.5827 -0.2367
 8086SOL    HW135891   1.937   0.022   7.219 -1.7312 -0.5322  0.6950
 8086SOL    HW235892   2.035   0.097   7.307 -0.4907 -0.6569  1.1159
 8087SOL     OW35893   1.125   4.697   5.355 -0.0279 -0.1924 -0.2029
 8087SOL    HW135894   1.035   4.715   5.381  0.1396  0.7972 -0.3434
 8087SOL    HW235895   1.160   0.039   5.386 -1.1252  0.0099  0.4881
 8088SOL     OW35896   2.448   4.374   3.332 -0.3779 -0.6957 -0.4162
 8088SOL    HW135897   2.386   4.440   3.299  2.2523  0.9356 -2.1294
 8088SOL    HW235898   2.398   4.319   3.392 -1.2208 -1.4041 -1.7882
 8089SOL     OW35899   4.477   1.266   1.810 -1.0153 -0.1160 -0.3143
 8089SOL    HW135900   4.493   1.216   1.730  1.2636  1.3589 -0.7698
 8089SOL    HW235901   4.425   1.202   1.859  0.2001 -0.3761  0.6328
 8090SOL     OW35902   3.927   4.190   3.280  0.1546  0.0439 -0.2430
 8090SOL    HW135903   3.849   4.135   3.268 -0.2450  0.7317 -0.7940
 8090SOL    HW235904   3.989   4.119   3.296  0.0234 -0.3483 -1.4135
 8091SOL     OW35905   1.232   0.276   0.114  0.4665  0.1427  0.6314
 8091SOL    HW135906   1.206   0.320   0.195  2.2098  0.8504  0.8131
 8091SOL    HW235907   1.265   0.194   0.152  1.5995  0.9259  1.3644
 8092SOL     OW35908   2.133   2.661  14.880 -0.1347  0.1759  0.7084
 8092SOL    HW135909   2.073   2.602  14.926  0.8242  0.8657  2.8771
 8092SOL    HW235910   2.219   2.626  14.906 -0.4427 -0.4904  0.8445
 8093SOL     OW35911   2.013   2.250  16.096 -0.5089  0.3179  0.4756
 8093SOL    HW135912   1.940   2.252  16.157 -0.4165  0.5402  0.5792
 8093SOL    HW235913   2.065   2.190  16.151 -1.1845 -0.9487 -0.2675
 8094SOL     OW35914   4.503   2.615   5.748 -0.0414 -0.2201 -0.0815
 8094SOL    HW135915   4.470   2.646   5.664 -0.0342 -2.6091 -0.9796
 8094SOL    HW235916   4.428   2.624   5.806  0.1967  0.8167  0.0638
 8095SOL     OW35917   3.276   1.714   1.944 -0.5346 -0.5068  0.1448
 8095SOL    HW135918   3.368   1.715   1.970 -0.8678  2.6774  1.2227
 8095SOL    HW235919   3.261   1.792   1.998  2.8167  0.0992  0.2197
 8096SOL     OW35920   0.105   3.808  16.624 -0.5307 -0.3581 -0.0970
 8096SOL    HW135921   0.192   3.844  16.640 -1.2441  1.6859 -0.8289
 8096SOL    HW235922   0.035   3.868  16.649 -0.7099  0.6306 -2.9829
 8097SOL     OW35923   1.264   3.616   7.686 -0.4833 -0.3488 -0.1849
 8097SOL    HW135924   1.262   3.666   7.604  0.1056  0.2388  0.1616
 8097SOL    HW235925   1.179   3.633   7.726 -0.7634  0.3011 -1.0585
 8098SOL     OW35926   2.093   1.657   6.063  0.7807 -0.1156 -0.0734
 8098SOL    HW135927   2.114   1.697   5.978  1.1764 -0.7180 -0.2598
 8098SOL    HW235928   2.154   1.583   6.054  1.5169  0.2886  1.6612
 8099SOL     OW35929   0.162   4.452   3.110  0.1921  0.8184  0.5583
 8099SOL    HW135930   0.102   4.444   3.037  0.4479  0.8897  0.3397
 8099SOL    HW235931   0.105   4.489   3.177  0.4088 -0.3389  1.3739
 8100SOL     OW35932   3.030   2.138   9.754  0.2450 -0.3073 -0.0499
 8100SOL    HW135933   2.982   2.195   9.695  1.2058  1.4124  0.8141
 8100SOL    HW235934   3.052   2.198   9.825  0.0784 -1.7037  1.1916
 8101SOL     OW35935   1.729   0.229   3.372 -0.2012 -0.3137  0.1722
 8101SOL    HW135936   1.695   0.172   3.441 -0.0463 -2.8785 -1.8458
 8101SOL    HW235937   1.649   0.237   3.319  1.4241  2.3493 -1.8729
 8102SOL     OW35938   1.532   4.081   1.402 -0.5166 -0.1665  0.2218
 8102SOL    HW135939   1.524   4.173   1.427 -0.7817  0.1614 -1.0553
 8102SOL    HW235940   1.564   4.033   1.478  0.9766 -0.2843 -0.4901
 8103SOL     OW35941   1.678   0.796   2.551  0.1389  0.5416 -0.3162
 8103SOL    HW135942   1.582   0.794   2.557  0.2219 -1.0556  0.4388
 8103SOL    HW235943   1.686   0.806   2.456  0.5881  0.2285 -0.3113
 8104SOL     OW35944   1.025   1.811   9.433 -0.2104 -0.4534 -0.1012
 8104SOL    HW135945   0.967   1.813   9.357 -1.4586  0.0017  0.8716
 8104SOL    HW235946   1.111   1.821   9.391  0.5038 -0.6809  1.2943
 8105SOL     OW35947   1.994   3.240   6.497 -0.4111  0.2842  0.8121
 8105SOL    HW135948   2.079   3.205   6.470 -1.7379 -1.2292 -1.3822
 8105SOL    HW235949   2.000   3.208   6.587 -3.3165  0.9769  1.2624
 8106SOL     OW35950   3.326   2.083   7.102  0.3369 -0.0463  0.0307
 8106SOL    HW135951   3.417   2.109   7.094 -0.0867  1.0278 -1.2917
 8106SOL    HW235952   3.279   2.161   7.073  1.7794  0.9098  0.2767
 8107SOL     OW35953   1.020   0.673   3.930  0.4525  0.5698  0.3017
 8107SOL    HW135954   1.007   0.740   3.863 -2.3432 -0.4345 -0.1753
 8107SOL    HW235955   0.975   0.713   4.005 -2.9299 -1.0820 -0.8235
 8108SOL     OW35956   1.508   2.717   2.674  0.3855  0.0123  0.5434
 8108SOL    HW135957   1.435   2.658   2.652  0.3831  0.3642 -0.4172
 8108SOL    HW235958   1.579   2.656   2.656 -0.0337  0.1902 -1.7813
 8109SOL     OW35959   2.721   3.705  13.735 -0.2497  0.0477  0.7175
 8109SOL    HW135960   2.802   3.667  13.702 -0.6279 -1.2205  1.2616
 8109SOL    HW235961   2.768   3.765  13.793  1.5781 -0.6126 -0.0651
 8110SOL     OW35962   2.707   0.087   6.998 -0.2016  0.2285 -0.1191
 8110SOL    HW135963   2.707   0.167   6.945  2.7254  0.3947  0.1110
 8110SOL    HW235964   2.626   0.097   7.048  1.0645  0.1256  1.9324
 8111SOL     OW35965   3.371   1.543  13.281  0.6304 -0.0002 -0.7315
 8111SOL    HW135966   3.340   1.479  13.216 -0.4297 -2.2947  2.0608
 8111SOL    HW235967   3.437   1.582  13.224  1.3232 -1.2586 -0.7784
 8112SOL     OW35968   4.610   1.923   6.831 -0.3909  0.1681  0.2456
 8112SOL    HW135969   4.689   1.968   6.860  0.9383 -1.4730 -0.7982
 8112SOL    HW235970   4.612   1.957   6.741  0.8323  0.5042  0.3966
 8113SOL     OW35971   3.839   0.318  11.999  0.1086  0.3839 -0.1489
 8113SOL    HW135972   3.930   0.295  12.019  0.3213  1.0040 -0.4102
 8113SOL    HW235973   3.796   0.233  12.006 -1.4960  1.1941 -0.2015
 8114SOL     OW35974   0.933   1.114  13.553 -0.0871 -0.1287  0.0432
 8114SOL    HW135975   0.937   1.160  13.636  0.5747 -3.3178  1.7971
 8114SOL    HW235976   0.841   1.089  13.545 -0.2229  0.6311 -0.8321
 8115SOL     OW35977   0.956   4.024   1.751 -0.3173  0.0726  0.1781
 8115SOL    HW135978   0.922   3.943   1.713  1.4592  0.3003 -1.8780
 8115SOL    HW235979   1.004   4.005   1.832 -1.2368 -0.6853  0.5587
 8116SOL     OW35980   1.098   4.434  13.631 -0.2814  0.4125 -0.7947
 8116SOL    HW135981   1.007   4.415  13.654  0.3863 -2.5590 -0.6081
 8116SOL    HW235982   1.137   4.348  13.616 -0.2621  0.4765 -1.1265
 8117SOL     OW35983   2.536   0.878   8.776  0.0027 -0.0980  0.1370
 8117SOL    HW135984   2.620   0.838   8.752 -0.2260  0.5273 -1.7538
 8117SOL    HW235985   2.532   0.938   8.701  0.5366 -1.2473 -0.8142
 8118SOL     OW35986   0.204   4.132   7.494 -0.2744 -0.2232  0.1607
 8118SOL    HW135987   0.154   4.053   7.516 -1.6339  0.7955  0.7159
 8118SOL    HW235988   0.160   4.167   7.416 -0.3148 -0.5066  0.0552
 8119SOL     OW35989   3.299   2.021   8.600  0.0149 -0.0819  0.1008
 8119SOL    HW135990   3.276   2.028   8.693  0.8938  2.5548  0.1276
 8119SOL    HW235991   3.390   1.992   8.608  0.3401  0.5068 -1.4797
 8120SOL     OW35992   1.386   3.453   1.548 -0.1267 -0.2425  0.0313
 8120SOL    HW135993   1.358   3.424   1.635  1.0439 -1.6598 -0.0613
 8120SOL    HW235994   1.309   3.492   1.507 -1.0263 -0.9170  1.0637
 8121SOL     OW35995   1.259   4.255   9.118 -0.0029  0.2907 -0.1210
 8121SOL    HW135996   1.164   4.262   9.122  0.0688  1.3812 -0.3301
 8121SOL    HW235997   1.274   4.230   9.209  1.1146  2.0774  0.1925
 8122SOL     OW35998   4.352   2.270   8.184  0.5315 -0.4202  0.4636
 8122SOL    HW135999   4.285   2.201   8.190 -0.9967  1.0643  0.3161
 8122SOL    HW236000   4.313   2.328   8.119 -1.7739 -2.3946  0.0759
 8123SOL     OW36001   0.375   1.993   6.836 -0.4480  0.2904 -0.7043
 8123SOL    HW136002   0.330   1.981   6.920  0.1392 -0.3700 -0.4913
 8123SOL    HW236003   0.429   1.914   6.837  0.2947  0.7939 -1.5831
 8124SOL     OW36004   4.516   1.283   4.966  0.1237 -0.1777  0.0240
 8124SOL    HW136005   4.516   1.204   4.912 -1.6562 -0.4152  0.3859
 8124SOL    HW236006   4.471   1.254   5.045 -0.7421  1.1198  0.0060
 8125SOL     OW36007   4.005   1.076  13.393 -0.1907  0.7822 -0.1621
 8125SOL    HW136008   4.024   1.091  13.486  0.2844 -0.2590 -0.0888
 8125SOL    HW236009   4.054   0.994  13.384  0.9627  1.1003  3.2638
 8126SOL     OW36010   3.975   1.064  13.880 -0.1123  0.3060  0.1804
 8126SOL    HW136011   3.988   1.106  13.795  0.3863  0.9715  0.5780
 8126SOL    HW236012   3.884   1.035  13.879 -0.0390  0.0451  0.8074
 8127SOL     OW36013   4.021   2.906  17.490  0.4600 -0.3726 -0.3255
 8127SOL    HW136014   4.039   2.981  17.547  1.8505 -0.9633  0.0170
 8127SOL    HW236015   4.022   2.950  17.405  0.7354 -1.4848 -0.8971
 8128SOL     OW36016   0.671   1.447   9.305  0.6466 -0.3544  0.2087
 8128SOL    HW136017   0.615   1.412   9.373  0.4344  1.1240  0.7971
 8128SOL    HW236018   0.761   1.422   9.326  0.8674  0.1235 -0.1529
 8129SOL     OW36019   0.964   0.188  11.863  0.2502 -0.1255  0.4268
 8129SOL    HW136020   0.989   0.121  11.927 -0.7265 -0.6781  0.2336
 8129SOL    HW236021   0.982   0.266  11.915 -0.0676  1.4271 -1.8374
 8130SOL     OW36022   2.164   1.947   2.890  0.3894 -0.6472  0.0741
 8130SOL    HW136023   2.101   1.988   2.831 -0.7170 -0.9073  1.0758
 8130SOL    HW236024   2.182   2.016   2.954  0.8570  0.0138 -0.7726
 8131SOL     OW36025   0.759   1.476   0.718 -0.0020 -0.5101 -0.4742
 8131SOL    HW136026   0.830   1.416   0.695 -0.3593 -1.5362  1.1081
 8131SOL    HW236027   0.709   1.477   0.636  1.3184 -0.5213 -1.2860
 8132SOL     OW36028   0.870   4.216   6.166  0.3097 -0.1031  0.1040
 8132SOL    HW136029   0.807   4.154   6.202 -0.6439  0.6965 -0.1604
 8132SOL    HW236030   0.939   4.208   6.231  0.3707 -3.3608 -0.3935
 8133SOL     OW36031   0.579   2.852   2.725  0.2970 -0.0882  0.0220
 8133SOL    HW136032   0.567   2.757   2.724  0.7533 -0.1537  0.3815
 8133SOL    HW236033   0.674   2.856   2.727  0.2500  1.8854 -1.0896
 8134SOL     OW36034   3.333   3.189   5.549 -0.2367 -0.6426 -0.0254
 8134SOL    HW136035   3.381   3.208   5.630  1.6422  2.7611 -1.9264
 8134SOL    HW236036   3.249   3.228   5.572  0.8259  2.2088 -0.9874
 8135SOL     OW36037   4.273   0.824   8.807 -0.2177 -0.3332 -0.1963
 8135SOL    HW136038   4.335   0.888   8.841  0.3787 -0.7961 -0.4245
 8135SOL    HW236039   4.203   0.828   8.873 -1.0548  1.8697 -1.1921
 8136SOL     OW36040   0.708   4.568   9.561  0.4545 -0.3607 -0.1948
 8136SOL    HW136041   0.633   4.571   9.500 -1.3202 -2.3000  1.9024
 8136SOL    HW236042   0.709   4.658   9.594 -0.3130 -0.6483  0.6252
 8137SOL     OW36043   0.060   4.509   9.300  0.4168 -0.5944 -0.2959
 8137SOL    HW136044   0.097   4.565   9.232  0.4980 -0.0189  0.2161
 8137SOL    HW236045   0.033   4.572   9.367  1.5783 -1.6040  1.1369
 8138SOL     OW36046   2.038   0.889  15.236  0.5176 -0.7882 -0.3815
 8138SOL    HW136047   2.011   0.798  15.228 -2.5469  0.0421  0.7471
 8138SOL    HW236048   2.131   0.885  15.262 -0.1966 -2.3773  1.9212
 8139SOL     OW36049   0.891   4.391   8.445 -0.0167 -0.3690 -0.2463
 8139SOL    HW136050   0.803   4.381   8.409  0.7260 -1.6342 -1.6856
 8139SOL    HW236051   0.931   4.435   8.370  0.6040  1.1838  0.9772
 8140SOL     OW36052   2.863   3.248   8.640  0.1645 -0.2851  0.1765
 8140SOL    HW136053   2.880   3.195   8.562 -1.9012  0.3325 -0.6997
 8140SOL    HW236054   2.949   3.274   8.672  1.6567 -1.4769 -2.9113
 8141SOL     OW36055   0.907   2.677   2.487 -0.3245 -0.2827 -0.4625
 8141SOL    HW136056   0.893   2.627   2.406  0.8755 -0.1526 -0.7585
 8141SOL    HW236057   0.878   2.615   2.554  1.0291 -0.2505  0.1506
 8142SOL     OW36058   4.496   0.596   2.427  0.4818 -0.2030 -0.6107
 8142SOL    HW136059   4.426   0.655   2.398  0.6430 -0.4879 -1.6010
 8142SOL    HW236060   4.541   0.646   2.494 -1.1429  0.6734 -0.1810
 8143SOL     OW36061   4.157   4.734   6.958 -0.2841  0.3230 -0.2275
 8143SOL    HW136062   4.165   4.649   6.916 -0.4211  0.1647  0.0651
 8143SOL    HW236063   4.207   0.050   6.899  0.0426 -0.1062 -0.3537
 8144SOL     OW36064   1.750   4.202   8.709  0.0109  0.1921  0.0917
 8144SOL    HW136065   1.667   4.162   8.735  0.2143  0.9796  1.9127
 8144SOL    HW236066   1.739   4.289   8.746 -0.9551  0.4476 -0.8309
 8145SOL     OW36067   2.339   2.015   8.348  0.0062  0.3785 -0.2576
 8145SOL    HW136068   2.276   1.948   8.376  0.4779 -0.0828 -0.3113
 8145SOL    HW236069   2.283   2.063   8.287 -0.1659  2.2640  1.4001
 8146SOL     OW36070   1.423   0.180   3.346  0.3028 -0.3076  0.6438
 8146SOL    HW136071   1.387   0.107   3.397  0.2722 -1.7647 -1.4933
 8146SOL    HW236072   1.374   0.168   3.265 -0.2938  0.3608  0.9034
 8147SOL     OW36073   0.293   4.253   1.442  0.2682 -0.2984 -0.1802
 8147SOL    HW136074   0.304   4.342   1.409 -1.4353 -0.0790 -0.1246
 8147SOL    HW236075   0.248   4.275   1.523 -1.1808  0.2041 -1.1279
 8148SOL     OW36076   4.005   1.272   3.486 -0.0120 -0.0020  0.3066
 8148SOL    HW136077   4.041   1.279   3.574  0.8718 -0.9042  0.0120
 8148SOL    HW236078   3.998   1.364   3.457 -1.6707 -0.1672  0.1361
 8149SOL     OW36079   0.990   1.199  13.300  0.1296  0.1349  0.5445
 8149SOL    HW136080   0.957   1.178  13.387  0.1211  0.0572  0.5231
 8149SOL    HW236081   1.032   1.281  13.327  0.1742  0.3876 -0.2816
 8150SOL     OW36082   2.213   1.548   8.604  0.0541 -0.5238 -0.3535
 8150SOL    HW136083   2.258   1.593   8.676  0.5054 -0.3377 -0.7446
 8150SOL    HW236084   2.159   1.485   8.652  0.6282 -0.5688  0.2368
 8151SOL     OW36085   3.833   1.815   8.653  0.0315  0.5684 -0.2132
 8151SOL    HW136086   3.904   1.809   8.717 -0.7345 -0.2894  0.5616
 8151SOL    HW236087   3.871   1.786   8.570  1.2182 -1.0167  0.8866
 8152SOL     OW36088   4.260   2.430  12.402  0.0262 -0.1479 -0.5042
 8152SOL    HW136089   4.341   2.387  12.376 -1.3808 -1.9964 -1.9329
 8152SOL    HW236090   4.275   2.469  12.488  2.5481  0.4236 -1.2244
 8153SOL     OW36091   4.197   3.208   8.395  0.1740  0.5763  0.0218
 8153SOL    HW136092   4.192   3.303   8.382 -0.3189  0.1762 -2.6306
 8153SOL    HW236093   4.283   3.188   8.357 -0.9273 -0.4038 -1.9376
 8154SOL     OW36094   0.812   0.164   2.309  0.1033  0.1141 -0.1310
 8154SOL    HW136095   0.736   0.155   2.367 -0.0966  0.2225 -0.3797
 8154SOL    HW236096   0.843   0.253   2.330 -0.0029  0.4654 -1.4879
 8155SOL     OW36097   3.215   3.348   0.962 -0.1397  0.0296  0.0649
 8155SOL    HW136098   3.181   3.434   0.936  2.3371  1.0027 -0.0074
 8155SOL    HW236099   3.285   3.376   1.020 -1.3773  0.5226  1.3145
 8156SOL     OW36100   4.474   2.263   5.216  0.3692 -0.0248  0.5024
 8156SOL    HW136101   4.521   2.347   5.213 -1.2908  0.8091 -1.9704
 8156SOL    HW236102   4.542   2.209   5.175 -2.3688 -2.3037 -0.9627
 8157SOL     OW36103   3.688   3.189   8.126  0.3122  0.4832  0.6357
 8157SOL    HW136104   3.734   3.110   8.155 -1.9968 -1.4606 -0.9979
 8157SOL    HW236105   3.612   3.173   8.181 -0.2414  0.2620 -0.2065
 8158SOL     OW36106   4.102   2.003   4.418 -0.2584  0.5093  0.3596
 8158SOL    HW136107   4.154   1.926   4.442 -1.3430 -0.0245  0.9903
 8158SOL    HW236108   4.039   1.953   4.367 -0.3922  1.2189 -0.1702
 8159SOL     OW36109   0.964   3.134   6.859 -0.0285 -0.4273 -0.0537
 8159SOL    HW136110   0.941   3.062   6.801 -0.3500  2.2107 -3.1694
 8159SOL    HW236111   1.054   3.116   6.887  0.7594  1.9897 -1.0174
 8160SOL     OW36112   2.677   3.971   8.776 -0.0563  0.1532  0.5250
 8160SOL    HW136113   2.604   3.958   8.836  0.2227 -0.8373  0.6481
 8160SOL    HW236114   2.641   3.972   8.687  0.9235  1.6728  0.1412
 8161SOL     OW36115   3.750   4.272   9.276 -1.1284  0.6946  0.0271
 8161SOL    HW136116   3.655   4.255   9.271 -0.6833 -0.9723 -2.6863
 8161SOL    HW236117   3.757   4.327   9.354 -3.8984  0.5005  0.4245
 8162SOL     OW36118   4.632   4.106  14.533 -0.3650 -0.3319  0.2806
 8162SOL    HW136119   4.538   4.125  14.537 -0.1629  0.2564  2.0928
 8162SOL    HW236120   4.639   4.019  14.574  0.8944 -0.8461 -1.0308
 8163SOL     OW36121   3.640   2.682  10.854 -0.2516 -0.0165 -0.5725
 8163SOL    HW136122   3.620   2.594  10.886  0.6492 -0.6231 -1.6647
 8163SOL    HW236123   3.583   2.688  10.777 -1.1878 -0.5827  0.0771
 8164SOL     OW36124   2.278   0.597   3.446 -0.2720 -0.2391 -0.1425
 8164SOL    HW136125   2.220   0.602   3.370  1.5048 -1.2667 -1.5649
 8164SOL    HW236126   2.232   0.529   3.496  0.4253 -0.9201 -0.4205
 8165SOL     OW36127   3.179   3.619   3.734 -0.1861 -0.6489  0.3448
 8165SOL    HW136128   3.093   3.620   3.691 -0.3376  0.0246  0.6656
 8165SOL    HW236129   3.224   3.684   3.680 -1.7052  2.0475  2.2937
 8166SOL     OW36130   0.537   3.066   4.018  0.1419  0.3337  0.0609
 8166SOL    HW136131   0.469   3.089   4.081  1.6211  0.8225  1.4584
 8166SOL    HW236132   0.488   3.045   3.938  0.6207 -1.1795  0.1669
 8167SOL     OW36133   2.952   1.204   2.452  0.6288 -0.4275  0.0937
 8167SOL    HW136134   3.010   1.172   2.383  0.9607  0.2558  0.0526
 8167SOL    HW236135   2.962   1.145   2.527 -0.6472  0.7652  1.2029
 8168SOL     OW36136   4.268   4.199   3.352 -0.5729  0.8411  0.3642
 8168SOL    HW136137   4.191   4.144   3.363 -0.6707  0.9036  0.0021
 8168SOL    HW236138   4.318   4.201   3.434 -1.4186 -0.1438  0.8931
 8169SOL     OW36139   0.743   0.199   2.052 -0.0929  0.0994 -0.5330
 8169SOL    HW136140   0.652   0.171   2.048  0.0026 -0.2684 -0.1473
 8169SOL    HW236141   0.769   0.152   2.132 -1.7725 -0.1806 -0.1655
 8170SOL     OW36142   3.920   1.673   5.794  0.7809  0.3256  0.1729
 8170SOL    HW136143   3.894   1.642   5.881  1.9635 -3.0390 -0.6906
 8170SOL    HW236144   3.963   1.754   5.822  0.1564  0.3399  1.0990
 8171SOL     OW36145   0.973   1.836  11.335 -0.2172  0.1097  0.1209
 8171SOL    HW136146   0.898   1.782  11.360  0.2179 -0.5993 -0.1227
 8171SOL    HW236147   1.045   1.783  11.367  1.4594  3.3190  1.6350
 8172SOL     OW36148   2.558   0.089   3.845  0.0027 -0.0170  0.2828
 8172SOL    HW136149   2.555   0.070   3.939  1.3374  0.0096  0.3238
 8172SOL    HW236150   2.644   0.131   3.839  0.3174 -0.7451 -0.2854
 8173SOL     OW36151   0.477   4.275   7.867 -0.7784  0.5665  0.4526
 8173SOL    HW136152   0.522   4.234   7.941 -2.9495 -1.3421  0.7220
 8173SOL    HW236153   0.391   4.295   7.905 -1.4142 -1.0494 -0.1514
 8174SOL     OW36154   2.446   3.833   5.341  0.5509  0.7361 -0.4870
 8174SOL    HW136155   2.410   3.886   5.270 -1.8626  1.9255  1.6345
 8174SOL    HW236156   2.423   3.882   5.420  0.9623 -0.8443  0.6118
 8175SOL     OW36157   3.913   2.491   6.306 -0.0473 -0.2666  0.4066
 8175SOL    HW136158   3.883   2.402   6.320 -0.5817 -0.3301 -1.1054
 8175SOL    HW236159   3.833   2.530   6.271 -0.7510 -1.3326  0.8519
 8176SOL     OW36160   2.007   4.523  13.448  0.5391  0.8212  0.6450
 8176SOL    HW136161   2.050   4.607  13.434 -1.2315  1.4464 -1.0221
 8176SOL    HW236162   2.013   4.488  13.360  2.5268 -1.2387  1.6079
 8177SOL     OW36163   1.440   2.428  13.789 -0.2205  0.5245  0.5474
 8177SOL    HW136164   1.514   2.426  13.728 -1.6396 -2.4773 -1.0907
 8177SOL    HW236165   1.427   2.334  13.803 -0.5381  0.1702 -2.0610
 8178SOL     OW36166   2.402   1.862   2.126 -0.4550  0.0415 -0.1589
 8178SOL    HW136167   2.399   1.943   2.076 -0.0483 -0.7103 -1.4074
 8178SOL    HW236168   2.427   1.895   2.212  0.9059 -0.0999 -0.4878
 8179SOL     OW36169   0.361   1.039   7.282  0.1224  0.1237 -0.0720
 8179SOL    HW136170   0.300   1.092   7.231 -0.5016  1.1536  1.7483
 8179SOL    HW236171   0.316   1.053   7.366  0.6988  0.3035  0.2072
 8180SOL     OW36172   0.052   4.147   9.127  0.2279 -0.0526  0.4376
 8180SOL    HW136173   0.099   4.166   9.208 -0.1992  0.7209  0.5039
 8180SOL    HW236174   4.718   4.204   9.145 -0.7504 -0.9185 -0.8833
 8181SOL     OW36175   2.601   0.925   9.268  0.0348 -0.3062 -0.6513
 8181SOL    HW136176   2.519   0.941   9.314 -0.7359 -1.5490 -1.5864
 8181SOL    HW236177   2.647   0.865   9.327 -0.3552 -1.3109 -1.3591
 8182SOL     OW36178   1.318   3.055   8.409  0.6084  0.3533 -0.2081
 8182SOL    HW136179   1.382   3.012   8.351  0.6778 -0.0221  0.1486
 8182SOL    HW236180   1.285   2.980   8.459 -1.3900  0.7483 -0.9522
 8183SOL     OW36181   1.147   1.576   7.618 -0.4075 -0.0391  0.0963
 8183SOL    HW136182   1.071   1.518   7.621 -2.5993  2.6816 -2.7546
 8183SOL    HW236183   1.154   1.579   7.522  0.5166 -1.9035  0.0873
 8184SOL     OW36184   2.533   3.052   5.160 -0.2749 -0.6385 -0.0262
 8184SOL    HW136185   2.454   3.017   5.201 -1.3988  2.1059  0.1653
 8184SOL    HW236186   2.500   3.063   5.071 -3.1049  0.8070  1.1902
 8185SOL     OW36187   3.287   3.609   8.247 -0.7964 -0.3251  0.3365
 8185SOL    HW136188   3.331   3.533   8.287 -1.7183  0.1926  2.3250
 8185SOL    HW236189   3.211   3.568   8.207 -0.6202 -0.7153  0.3985
 8186SOL     OW36190   1.494   0.883   5.522 -0.3002 -0.4456  0.1425
 8186SOL    HW136191   1.537   0.918   5.443 -0.2817  0.2803  0.4765
 8186SOL    HW236192   1.438   0.957   5.545  0.9344  0.8772 -1.0551
 8187SOL     OW36193   4.111   3.385   6.753  0.7374  0.0683 -0.2090
 8187SOL    HW136194   4.163   3.393   6.673 -0.3734  1.6745 -0.7640
 8187SOL    HW236195   4.135   3.452   6.817  1.7357  0.4031 -0.9484
 8188SOL     OW36196   0.753   3.454   9.086 -0.0645  0.9636 -0.3826
 8188SOL    HW136197   0.731   3.363   9.104  2.3493  0.6193  0.8185
 8188SOL    HW236198   0.677   3.483   9.035 -0.2748  0.6263 -0.2641
 8189SOL     OW36199   1.130   3.464   6.410  0.3554 -0.0951  0.1804
 8189SOL    HW136200   1.086   3.383   6.386  0.4298 -0.0139 -0.2216
 8189SOL    HW236201   1.146   3.449   6.504 -0.7123  1.0332  0.5446
 8190SOL     OW36202   1.059   3.391   8.442 -0.7180  0.1530  0.6753
 8190SOL    HW136203   0.979   3.442   8.426 -0.9118 -0.7265 -1.1331
 8190SOL    HW236204   1.065   3.407   8.536  2.0280 -1.0750  0.6973
 8191SOL     OW36205   3.796   0.967   7.536  0.0378  0.4092  0.3484
 8191SOL    HW136206   3.786   1.055   7.574 -3.7331 -0.0695  0.4272
 8191SOL    HW236207   3.876   0.976   7.485  1.0303 -0.2669  1.7968
 8192SOL     OW36208   2.915   3.395  13.386  0.5485 -0.7255 -0.0452
 8192SOL    HW136209   2.836   3.376  13.437  0.7906  1.1917  1.0569
 8192SOL    HW236210   2.894   3.482  13.350  1.2130 -1.0285 -1.1498
 8193SOL     OW36211   2.389   3.699   7.951  0.0683 -0.4738  0.0113
 8193SOL    HW136212   2.460   3.636   7.937 -1.5105 -2.3471  0.3929
 8193SOL    HW236213   2.415   3.765   7.887  1.1921 -0.6889  0.2550
 8194SOL     OW36214   4.017   0.885  12.782 -0.0962 -0.1275  0.5196
 8194SOL    HW136215   4.009   0.970  12.824 -3.3720  0.2532 -0.8450
 8194SOL    HW236216   3.945   0.832  12.817  0.4454 -0.7866  0.6532
 8195SOL     OW36217   1.974   2.378  13.747  0.1861  0.5184  0.9019
 8195SOL    HW136218   2.060   2.339  13.730  0.6182  2.0431 -0.3929
 8195SOL    HW236219   1.928   2.312  13.799 -1.2733 -1.3311 -2.7089
 8196SOL     OW36220   2.541   1.383   3.574 -0.3412 -0.4701 -0.3197
 8196SOL    HW136221   2.558   1.291   3.595  1.3817  0.3020  1.6742
 8196SOL    HW236222   2.512   1.380   3.483  0.5127 -0.1316 -0.5992
 8197SOL     OW36223   0.207   0.476   2.781  0.3837  0.9168 -0.0948
 8197SOL    HW136224   0.286   0.421   2.783  0.1626  0.6301  0.9682
 8197SOL    HW236225   0.151   0.429   2.719  0.9600  1.9534 -1.3965
 8198SOL     OW36226   2.410   1.606   9.619  0.4030  0.0223  0.0377
 8198SOL    HW136227   2.395   1.517   9.651 -0.9017  0.3572  0.3626
 8198SOL    HW236228   2.321   1.623   9.588  0.7126 -0.3969 -1.0512
 8199SOL     OW36229   1.870   4.502   4.662  0.5989  0.9038 -0.1445
 8199SOL    HW136230   1.870   4.569   4.731  1.5414  0.4502  0.2971
 8199SOL    HW236231   1.962   4.476   4.657  0.5201  0.7505 -0.7268
 8200SOL     OW36232   3.034   2.624   8.698 -0.1473 -0.1783 -0.0011
 8200SOL    HW136233   2.980   2.550   8.669  0.6605 -1.1976  1.0825
 8200SOL    HW236234   3.066   2.592   8.782  1.0470 -0.9986 -0.7745
 8201SOL     OW36235   3.884   2.208   5.805  0.0810 -0.3870 -0.5112
 8201SOL    HW136236   3.968   2.216   5.850  0.1913  1.3946 -0.9998
 8201SOL    HW236237   3.871   2.300   5.782 -1.8275 -0.0002  2.1197
 8202SOL     OW36238   0.768   0.830   2.355 -0.2297  0.1944 -0.6525
 8202SOL    HW136239   0.840   0.878   2.316  0.2275  1.0340  1.2601
 8202SOL    HW236240   0.693   0.888   2.349  0.6467  1.4874  1.0048
 8203SOL     OW36241   0.982   0.992   7.142  0.8628  0.4948  0.1455
 8203SOL    HW136242   0.983   0.923   7.075 -0.8289 -1.9669  2.6394
 8203SOL    HW236243   1.070   1.028   7.151  0.1420  1.4784  3.3946
 8204SOL     OW36244   4.380   3.292   2.894  0.5545  0.1208  0.4644
 8204SOL    HW136245   4.326   3.349   2.839 -0.1045  0.0491  1.0387
 8204SOL    HW236246   4.454   3.349   2.917  0.3685 -0.1466  1.7341
 8205SOL     OW36247   4.512   0.713   5.994  0.1833 -0.0641  0.0218
 8205SOL    HW136248   4.579   0.778   5.970 -1.1632  1.2369 -0.1834
 8205SOL    HW236249   4.551   0.626   5.985  0.7104  0.0892  0.8346
 8206SOL     OW36250   0.870   3.735   4.948  0.3841 -0.2846 -0.6056
 8206SOL    HW136251   0.907   3.818   4.978  1.7993 -0.6819 -1.2699
 8206SOL    HW236252   0.795   3.722   5.006  1.6557 -0.2091  1.0717
 8207SOL     OW36253   1.531   4.162   5.519  0.2484  0.4766  0.4134
 8207SOL    HW136254   1.545   4.257   5.517  0.1028  0.4592 -1.1271
 8207SOL    HW236255   1.462   4.142   5.582 -1.3088  3.5041 -0.3477
 8208SOL     OW36256   0.314   3.668   6.050  0.2587 -0.2342  0.3266
 8208SOL    HW136257   0.261   3.733   6.097 -0.5246 -0.1345 -0.7189
 8208SOL    HW236258   0.348   3.613   6.121  0.8024  3.5411  3.0638
 8209SOL     OW36259   2.399   2.614   7.373 -0.0895 -0.5186  0.1320
 8209SOL    HW136260   2.307   2.608   7.396 -0.6802  1.7388 -1.6996
 8209SOL    HW236261   2.440   2.615   7.460  1.3799 -2.1414 -0.5360
 8210SOL     OW36262   0.112   3.422  16.989 -0.3360  1.0837 -0.0765
 8210SOL    HW136263   0.110   3.350  16.927  0.0049  0.1497  1.0007
 8210SOL    HW236264   0.152   3.494  16.939  0.1533  0.6488 -0.3114
 8211SOL     OW36265   3.783   2.298   8.046  0.8019  0.2258  0.2080
 8211SOL    HW136266   3.826   2.226   7.999 -1.3904 -0.7176 -0.3714
 8211SOL    HW236267   3.836   2.375   8.028  0.0050  0.8649  0.6252
 8212SOL     OW36268   4.151   0.982   7.673 -0.6507  0.1235 -0.5633
 8212SOL    HW136269   4.221   0.992   7.608  1.1935 -1.3190  1.2111
 8212SOL    HW236270   4.181   1.038   7.744  2.8900 -1.6587 -0.6611
 8213SOL     OW36271   0.949   4.217  17.744  0.2216 -0.3753  0.3766
 8213SOL    HW136272   0.997   4.138  17.720 -1.0289 -0.6823 -1.1012
 8213SOL    HW236273   0.983   4.276  17.678  0.8722  0.4169  1.4201
 8214SOL     OW36274   3.291   2.860  11.271 -0.4028 -0.4485 -0.8341
 8214SOL    HW136275   3.358   2.792  11.257 -0.0399 -0.0709 -0.9272
 8214SOL    HW236276   3.242   2.844  11.191 -0.4032  2.6334 -1.4219
 8215SOL     OW36277   1.541   2.390  15.432 -0.0500  0.3337 -0.0965
 8215SOL    HW136278   1.571   2.472  15.473  0.9415 -0.2352  0.3178
 8215SOL    HW236279   1.535   2.334  15.509  3.1042 -0.9813 -0.8241
 8216SOL     OW36280   4.463   3.153  17.498 -0.3837 -0.1550  0.2115
 8216SOL    HW136281   4.529   3.207  17.541 -1.2274  1.5514 -0.6327
 8216SOL    HW236282   4.407   3.124  17.570 -1.6128  0.9504 -0.2962
 8217SOL     OW36283   3.958   1.178   4.528 -0.1925  0.0593 -0.2303
 8217SOL    HW136284   3.925   1.173   4.618 -1.2545  0.8524 -0.5805
 8217SOL    HW236285   4.031   1.117   4.544  0.9977  1.3449 -0.8144
 8218SOL     OW36286   2.848   0.400   0.427 -0.0707 -0.2085 -0.0823
 8218SOL    HW136287   2.839   0.481   0.377 -1.8631  0.9445  2.1183
 8218SOL    HW236288   2.911   0.349   0.377 -1.2762 -0.2878 -1.5183
 8219SOL     OW36289   0.022   3.093   4.140 -0.1105  0.4319 -0.1932
 8219SOL    HW136290   4.679   3.138   4.150 -0.0455  0.2243  1.3526
 8219SOL    HW236291   0.061   3.083   4.226 -3.2716  2.6291  1.5179
 8220SOL     OW36292   3.442   3.606   8.844  0.1210  0.4130 -0.0351
 8220SOL    HW136293   3.451   3.595   8.749 -0.6033 -1.3929  0.0959
 8220SOL    HW236294   3.455   3.700   8.854 -0.2863  0.3788  0.8280
 8221SOL     OW36295   2.865   0.872   0.817  0.0980 -0.0854  0.2793
 8221SOL    HW136296   2.833   0.879   0.907  1.3111  2.0519  0.5227
 8221SOL    HW236297   2.860   0.776   0.815  2.3321 -0.1868 -0.4254
 8222SOL     OW36298   4.653   3.482   8.301  0.1777 -0.2397 -0.7340
 8222SOL    HW136299   4.713   3.449   8.235  0.9409  1.6975 -1.0223
 8222SOL    HW236300   4.717   3.520   8.361 -0.3614  0.8352 -0.8403
 8223SOL     OW36301   0.097   0.075   1.830  0.6639 -0.7361 -0.0851
 8223SOL    HW136302   0.088   0.029   1.914  0.6205 -1.4479 -0.4793
 8223SOL    HW236303   0.162   0.028   1.777 -0.3482  0.7975 -2.6619
 8224SOL     OW36304   0.408   1.069   9.652 -0.4116  0.1656  0.1476
 8224SOL    HW136305   0.460   1.084   9.731 -0.7886 -2.6635  0.9314
 8224SOL    HW236306   0.477   1.037   9.594 -3.0264 -0.4400 -2.6480
 8225SOL     OW36307   2.886   2.571   8.213 -0.0910 -0.3291  0.3606
 8225SOL    HW136308   2.955   2.559   8.148  0.0531 -3.0547  0.9833
 8225SOL    HW236309   2.873   2.665   8.214 -1.4401 -0.5077 -0.6080
 8226SOL     OW36310   4.207   0.612  16.347 -0.0866  0.9497 -0.2759
 8226SOL    HW136311   4.193   0.603  16.441  2.0512 -3.0998 -0.3702
 8226SOL    HW236312   4.152   0.690  16.337 -1.4851 -0.2802 -2.1957
 8227SOL     OW36313   1.015   2.276   6.138 -0.3293  0.2228  0.2038
 8227SOL    HW136314   1.052   2.349   6.186 -0.2251  0.0818  0.3372
 8227SOL    HW236315   1.075   2.274   6.063 -0.3362  1.4486  0.1681
 8228SOL     OW36316   0.711   3.993   2.918  0.2028 -0.0274 -0.0346
 8228SOL    HW136317   0.727   3.981   2.824 -0.4410 -2.4746  0.1694
 8228SOL    HW236318   0.652   4.068   2.930  1.3798  1.0775 -1.0876
 8229SOL     OW36319   4.023   3.366   9.703 -0.7819  0.1015  0.5576
 8229SOL    HW136320   3.953   3.413   9.658  0.1039  1.5970  0.7253
 8229SOL    HW236321   3.993   3.276   9.694  1.0380 -0.3188 -1.2040
 8230SOL     OW36322   3.956   1.183   2.683 -0.1161 -0.1157  0.4672
 8230SOL    HW136323   3.901   1.260   2.697 -0.4798  0.0591 -1.8264
 8230SOL    HW236324   3.930   1.163   2.593 -0.1597  1.2622  0.1733
 8231SOL     OW36325   1.036   1.267   2.055 -0.0471  0.2738  0.0294
 8231SOL    HW136326   1.062   1.297   2.143 -1.2874  1.8007 -0.1204
 8231SOL    HW236327   0.945   1.240   2.068  0.1234  0.4786  1.6196
 8232SOL     OW36328   2.736   3.974   6.888  0.5883  0.4032 -0.2721
 8232SOL    HW136329   2.731   4.069   6.880  1.5326  0.3215 -1.8472
 8232SOL    HW236330   2.761   3.966   6.980  1.2997 -2.7144 -0.7349
 8233SOL     OW36331   0.337   2.486   5.446 -0.0679 -0.1220  0.0769
 8233SOL    HW136332   0.339   2.424   5.519  1.6384 -1.5213 -1.1465
 8233SOL    HW236333   0.378   2.427   5.383  0.1717  0.4123 -0.2643
 8234SOL     OW36334   3.002   1.232  11.773 -0.4245  0.3238  0.7138
 8234SOL    HW136335   3.068   1.182  11.821  0.1593  0.6305  0.2301
 8234SOL    HW236336   3.013   1.313  11.822  0.5369  1.7254 -1.8300
 8235SOL     OW36337   0.857   4.731   1.280  1.0238  0.5436  0.1374
 8235SOL    HW136338   0.777   4.702   1.324  1.1219 -0.9599 -0.6651
 8235SOL    HW236339   0.912   4.729   1.359  2.0006  2.9115 -0.5053
 8236SOL     OW36340   3.365   1.999   2.050 -0.2587 -0.0585  0.2138
 8236SOL    HW136341   3.342   2.088   2.079 -1.2709  0.1427 -1.2220
 8236SOL    HW236342   3.315   1.994   1.969  1.8579  0.1706 -1.0981
 8237SOL     OW36343   1.358   2.520   7.418  0.1618 -0.2865  0.0495
 8237SOL    HW136344   1.338   2.498   7.327 -3.0301  3.7253 -0.2342
 8237SOL    HW236345   1.298   2.459   7.462 -1.3154  0.8999 -0.3089
 8238SOL     OW36346   2.106   3.978   2.356  0.0053 -0.8486 -0.6002
 8238SOL    HW136347   2.096   3.967   2.261 -2.4483 -0.6836 -0.3664
 8238SOL    HW236348   2.180   3.920   2.374  2.2609  1.8504 -1.1143
 8239SOL     OW36349   3.004   0.402   5.485  0.5594 -0.4881  0.7998
 8239SOL    HW136350   3.080   0.347   5.467  1.5133  1.5224 -1.4010
 8239SOL    HW236351   2.951   0.342   5.538 -0.1858 -0.5576 -0.0333
 8240SOL     OW36352   1.498   3.577   3.452 -0.9676  0.0395 -0.4166
 8240SOL    HW136353   1.486   3.490   3.492  1.4772  0.1980  0.6152
 8240SOL    HW236354   1.413   3.587   3.408 -0.4235  1.4474 -1.1136
 8241SOL     OW36355   3.917   2.545   3.848 -0.3862  0.2417  0.1308
 8241SOL    HW136356   3.974   2.471   3.828 -2.7964 -1.6054  0.0812
 8241SOL    HW236357   3.913   2.542   3.944  1.8303 -0.2673  0.1925
 8242SOL     OW36358   1.171   0.800   5.649  0.5613  0.3078  0.3482
 8242SOL    HW136359   1.217   0.803   5.565 -2.1101  0.4520 -1.0829
 8242SOL    HW236360   1.090   0.842   5.622 -0.0929  0.6965  2.8958
 8243SOL     OW36361   2.448   3.067   7.286 -0.8196  0.0117 -0.2131
 8243SOL    HW136362   2.424   3.055   7.194  1.5948  0.3391 -0.8827
 8243SOL    HW236363   2.520   3.006   7.293 -1.9862 -1.5490 -1.7815
 8244SOL     OW36364   2.150   4.445   5.167 -0.0793  0.9381  0.6224
 8244SOL    HW136365   2.170   4.372   5.226  1.9283  1.0242  0.0468
 8244SOL    HW236366   2.079   4.410   5.113 -0.2928  0.2257  1.3620
 8245SOL     OW36367   4.115   1.878   4.730  0.3230 -0.6201 -0.0006
 8245SOL    HW136368   4.200   1.921   4.739  0.9373 -1.3918 -2.1280
 8245SOL    HW236369   4.068   1.950   4.689 -0.3383 -0.8330  0.3899
 8246SOL     OW36370   2.682   4.217  14.217  0.1543  0.5609  0.2443
 8246SOL    HW136371   2.589   4.231  14.231  0.4348  1.6023  1.0847
 8246SOL    HW236372   2.698   4.252  14.129  1.8720 -0.6651  0.0614
 8247SOL     OW36373   2.406   0.550   6.147  0.2594 -0.0957  0.6342
 8247SOL    HW136374   2.440   0.639   6.151  0.5970 -0.2449  1.0682
 8247SOL    HW236375   2.486   0.507   6.116 -0.1234 -1.1635  1.1174
 8248SOL     OW36376   3.055   1.665   1.581  0.1438 -0.1360  0.1025
 8248SOL    HW136377   3.012   1.582   1.602  0.0689 -0.5241 -1.5589
 8248SOL    HW236378   3.094   1.651   1.495 -0.5676 -1.7364  0.0283
 8249SOL     OW36379   1.946   3.096   9.931 -0.3845  0.0355  0.2864
 8249SOL    HW136380   1.879   3.092   9.863  0.1759 -0.8751 -0.2183
 8249SOL    HW236381   1.942   3.181   9.975 -0.4677 -0.7900  1.8688
 8250SOL     OW36382   4.291   1.869   6.346 -0.1573 -0.0693 -0.5738
 8250SOL    HW136383   4.200   1.894   6.331  0.0938  0.6926 -0.8228
 8250SOL    HW236384   4.270   1.800   6.409 -1.1686  0.1735 -0.6556
 8251SOL     OW36385   0.644   1.235   1.326 -0.3150  0.1717  0.1290
 8251SOL    HW136386   0.720   1.186   1.357  0.1679  1.8698  1.6778
 8251SOL    HW236387   0.630   1.284   1.408 -1.8485  0.0536 -0.0718
 8252SOL     OW36388   4.017   0.417   2.066  0.4951 -0.7222 -0.0250
 8252SOL    HW136389   3.982   0.505   2.082  0.0827 -1.0284  0.7760
 8252SOL    HW236390   4.072   0.435   1.990  0.5697 -0.5108  0.0803
 8253SOL     OW36391   3.449   4.520  11.989  0.0393 -0.2313 -0.7527
 8253SOL    HW136392   3.420   4.464  11.918 -0.7727  0.0436 -0.6318
 8253SOL    HW236393   3.421   4.609  11.968 -2.5080 -0.8120  0.2370
 8254SOL     OW36394   2.315   3.489   4.537 -0.1344 -0.4202  0.1319
 8254SOL    HW136395   2.318   3.585   4.545  3.8750 -0.6014  0.6308
 8254SOL    HW236396   2.405   3.473   4.565  0.2820  0.7001 -0.5433
 8255SOL     OW36397   1.094   1.520   8.795 -0.4632  0.2404  0.2779
 8255SOL    HW136398   1.054   1.582   8.733 -3.1972 -1.1690  0.6223
 8255SOL    HW236399   1.053   1.437   8.770 -0.3413  0.5855 -1.1188
 8256SOL     OW36400   3.340   0.892   9.147 -0.1956 -0.1072  0.0308
 8256SOL    HW136401   3.435   0.890   9.156 -0.2464  1.3848  0.8622
 8256SOL    HW236402   3.316   0.857   9.233 -0.8584 -1.5763 -0.7454
 8257SOL     OW36403   2.207   3.302   4.099 -0.6412 -0.6381 -0.5128
 8257SOL    HW136404   2.238   3.221   4.140  1.7308  0.1287 -0.7824
 8257SOL    HW236405   2.184   3.353   4.177  1.9951 -1.8676  1.0451
 8258SOL     OW36406   2.600   1.541   9.862 -0.2705 -0.0203  0.1772
 8258SOL    HW136407   2.549   1.460   9.869 -1.2552  0.5198 -0.7080
 8258SOL    HW236408   2.586   1.564   9.770 -1.6957 -0.4827  0.2675
 8259SOL     OW36409   3.061   1.773  14.170 -0.1074 -0.4420  0.2369
 8259SOL    HW136410   3.103   1.791  14.086 -1.0850  0.3964 -0.0788
 8259SOL    HW236411   3.139   1.768  14.224 -0.1339 -0.9528  0.2260
 8260SOL     OW36412   3.712   1.693   8.868 -0.2813  0.7505  0.8892
 8260SOL    HW136413   3.739   1.602   8.885  2.2229  1.4681  0.8164
 8260SOL    HW236414   3.747   1.718   8.783  0.2395  0.3675  0.9915
 8261SOL     OW36415   1.326   3.111   8.030 -0.7865 -0.1886 -0.1046
 8261SOL    HW136416   1.270   3.167   8.084  1.0730 -0.0047  1.6751
 8261SOL    HW236417   1.290   3.130   7.944 -0.1407 -0.4994 -0.4407
 8262SOL     OW36418   3.836   0.195  15.128 -0.1980 -0.5357 -0.0296
 8262SOL    HW136419   3.832   0.269  15.067  2.6342 -0.3061  0.0280
 8262SOL    HW236420   3.815   0.125  15.067  0.6964 -2.5256  1.9235
 8263SOL     OW36421   0.371   4.667   5.476 -0.2488 -0.5385  0.2280
 8263SOL    HW136422   0.318   4.707   5.545 -2.2899 -1.8695 -0.5593
 8263SOL    HW236423   0.357   4.731   5.406  0.7557 -0.5862 -0.0131
 8264SOL     OW36424   1.241   2.501   5.666 -0.4678  0.2017 -0.1125
 8264SOL    HW136425   1.263   2.510   5.758 -0.9018  0.8071 -0.0743
 8264SOL    HW236426   1.323   2.520   5.619 -0.6172  1.3821  0.1044
 8265SOL     OW36427   2.230   4.368   7.254 -0.1374  0.3839 -0.2474
 8265SOL    HW136428   2.205   4.459   7.238  1.8252  1.0887  0.6741
 8265SOL    HW236429   2.270   4.376   7.340 -1.7209  2.9446  0.2797
 8266SOL     OW36430   4.261   2.625   9.787 -0.4349  0.0718 -0.0052
 8266SOL    HW136431   4.221   2.705   9.821 -0.4055  0.4489 -0.8571
 8266SOL    HW236432   4.240   2.561   9.856  1.3879 -1.0789 -0.5156
 8267SOL     OW36433   4.307   0.416  13.412 -0.1843  0.0325  0.6227
 8267SOL    HW136434   4.319   0.509  13.393 -2.0052 -0.1896 -1.5933
 8267SOL    HW236435   4.382   0.373  13.372  0.6203  0.5710  1.5460
 8268SOL     OW36436   2.628   0.767   6.713  0.3854  0.0024 -0.3581
 8268SOL    HW136437   2.548   0.776   6.765  0.4432  1.9549 -0.6230
 8268SOL    HW236438   2.621   0.842   6.655  4.1653 -0.1244 -0.9615
 8269SOL     OW36439   3.929   0.836  10.233 -0.1662 -0.5144 -0.1875
 8269SOL    HW136440   3.932   0.748  10.270 -0.2158  0.1248  1.3573
 8269SOL    HW236441   3.932   0.898  10.306  1.7012 -1.1218  0.2621
 8270SOL     OW36442   0.472   0.473  16.301 -0.1656 -0.4019 -0.2707
 8270SOL    HW136443   0.383   0.456  16.271  0.7862 -0.2459 -3.1481
 8270SOL    HW236444   0.481   0.568  16.293  0.4358 -0.2948  1.5654
 8271SOL     OW36445   3.172   2.333  16.888  0.2759  0.4748 -0.3642
 8271SOL    HW136446   3.143   2.280  16.814  0.9081 -0.0205 -0.2624
 8271SOL    HW236447   3.093   2.375  16.923 -0.4948 -0.4975 -0.9373
 8272SOL     OW36448   0.666   3.681   8.726  0.1180 -0.4717 -0.4210
 8272SOL    HW136449   0.719   3.614   8.683 -0.2634  0.1155 -1.8161
 8272SOL    HW236450   0.606   3.630   8.780  0.2588 -0.2375 -0.0394
 8273SOL     OW36451   4.288   1.409   6.212 -0.4923  0.2249 -0.0874
 8273SOL    HW136452   4.194   1.397   6.229 -0.6994  0.2117 -1.2894
 8273SOL    HW236453   4.290   1.482   6.150 -0.8720  1.0839  0.8965
 8274SOL     OW36454   1.869   1.897   5.726  0.1321  0.0725 -0.4810
 8274SOL    HW136455   1.814   1.884   5.648  0.8232  0.1822 -0.9890
 8274SOL    HW236456   1.855   1.823   5.785 -0.6652  1.8428  1.5213
 8275SOL     OW36457   3.057   4.600   7.730 -0.2571  0.4193  0.8071
 8275SOL    HW136458   3.112   4.523   7.744  0.9621  0.9111 -1.2935
 8275SOL    HW236459   3.114   4.676   7.734  0.7642 -0.3348  0.6371
 8276SOL     OW36460   0.405   2.960   1.234  0.4948 -0.0959 -0.6175
 8276SOL    HW136461   0.451   2.906   1.299  1.0076  0.6288 -0.3700
 8276SOL    HW236462   0.396   2.906   1.156 -0.0454  2.3128 -2.2161
 8277SOL     OW36463   2.237   0.594  10.091 -0.0078  0.4986 -0.0027
 8277SOL    HW136464   2.299   0.579  10.162  1.4656 -0.4500 -1.4772
 8277SOL    HW236465   2.158   0.591  10.146  1.7483 -0.1346  2.4979
 8278SOL     OW36466   0.373   0.743   9.331 -0.2647 -0.3344  0.4616
 8278SOL    HW136467   0.359   0.796   9.253 -1.2913  1.1755  1.6751
 8278SOL    HW236468   0.452   0.695   9.307  0.4350 -0.5494  3.2263
 8279SOL     OW36469   3.052   1.555   6.127  0.1455 -0.0188  0.0977
 8279SOL    HW136470   3.088   1.635   6.165  1.7122 -0.4599 -0.4814
 8279SOL    HW236471   2.991   1.583   6.059  1.8251 -0.0202 -1.4045
 8280SOL     OW36472   0.435   2.018   6.415  0.0864 -0.0296  0.8409
 8280SOL    HW136473   0.431   1.981   6.327  0.7655 -0.6297  1.0647
 8280SOL    HW236474   0.514   2.072   6.418 -0.5160  0.8257  1.3245
 8281SOL     OW36475   2.432   2.040   9.453 -0.0381  0.1727  0.4397
 8281SOL    HW136476   2.344   2.032   9.490 -0.6736  0.2804 -1.0249
 8281SOL    HW236477   2.477   1.964   9.489 -0.2906 -0.0514  0.2866
 8282SOL     OW36478   2.890   3.262   5.228 -0.2088 -0.2855 -0.0516
 8282SOL    HW136479   2.848   3.201   5.167 -3.1880 -0.4645  2.1780
 8282SOL    HW236480   2.888   3.343   5.176 -0.3896 -1.0168 -1.1732
 8283SOL     OW36481   3.907   3.243   6.009  0.3779 -0.4097  0.2646
 8283SOL    HW136482   3.917   3.224   6.102 -1.2275  2.6599  1.0544
 8283SOL    HW236483   3.998   3.247   5.980 -0.0382 -0.7730 -1.1118
 8284SOL     OW36484   3.892   1.492   6.946 -0.1481 -0.2936  0.0687
 8284SOL    HW136485   3.798   1.475   6.942 -0.1198 -0.4178 -0.0889
 8284SOL    HW236486   3.886   1.580   6.984 -0.4637 -0.1867 -0.2267
 8285SOL     OW36487   0.601   2.392   7.510  0.0276  0.0235  0.2990
 8285SOL    HW136488   0.536   2.460   7.490 -0.9778 -0.8622  0.6088
 8285SOL    HW236489   0.654   2.426   7.582  0.0253 -0.8811  0.7237
 8286SOL     OW36490   0.061   2.968  10.177 -0.1926 -0.5038  0.3675
 8286SOL    HW136491   0.104   3.042  10.135 -0.1722 -0.2640  0.8168
 8286SOL    HW236492   0.023   2.923  10.101 -2.1211  1.8023 -0.0425
 8287SOL     OW36493   2.756   4.522  12.551  0.4827 -0.0464  0.2918
 8287SOL    HW136494   2.768   4.569  12.469  0.9779 -0.1746  0.2898
 8287SOL    HW236495   2.773   4.587  12.619  0.5636 -0.7502  0.9397
 8288SOL     OW36496   4.724   4.173   0.756  0.3722  0.2053 -0.5104
 8288SOL    HW136497   0.027   4.247   0.714 -0.3152  0.2520 -1.1460
 8288SOL    HW236498   4.681   4.130   0.681 -1.7432 -0.0903  0.8623
 8289SOL     OW36499   2.860   3.974   3.013  0.0546  0.3594  0.3637
 8289SOL    HW136500   2.813   3.980   3.096  0.6250  1.7016  0.5876
 8289SOL    HW236501   2.824   4.051   2.969  0.4634  0.0085 -0.5746
 8290SOL     OW36502   4.698   2.870  13.269 -0.0746 -0.2878 -0.4499
 8290SOL    HW136503   0.046   2.898  13.249 -0.4768 -0.4947 -2.5843
 8290SOL    HW236504   4.685   2.882  13.363 -0.3104  2.4580 -0.8281
 8291SOL     OW36505   0.792   2.010   7.522 -0.5466  0.5146 -0.2644
 8291SOL    HW136506   0.878   1.974   7.546 -0.3333 -0.2693 -2.2323
 8291SOL    HW236507   0.809   2.019   7.429  3.1682  2.1002  0.5634
 8292SOL     OW36508   1.437   3.435  14.318  0.3097  0.6621 -0.1112
 8292SOL    HW136509   1.380   3.378  14.370 -1.7180  2.9309  0.1839
 8292SOL    HW236510   1.371   3.488  14.272 -0.6327 -0.0469  0.4056
 8293SOL     OW36511   3.953   0.326  13.137 -0.6166 -0.6258 -0.5113
 8293SOL    HW136512   3.994   0.412  13.124 -1.1899 -0.3600 -0.5288
 8293SOL    HW236513   3.866   0.351  13.166  0.8791  3.0035  0.9389
 8294SOL     OW36514   4.555   3.164   3.243  0.1078  0.5388 -0.1270
 8294SOL    HW136515   4.492   3.098   3.214 -0.2318 -0.5235  3.0489
 8294SOL    HW236516   4.541   3.146   3.336  0.6216 -1.7608 -0.4894
 8295SOL     OW36517   3.238   3.437   6.876  0.5746  0.4231  0.0191
 8295SOL    HW136518   3.296   3.389   6.935 -0.5452 -0.4893  0.3732
 8295SOL    HW236519   3.153   3.409   6.909  0.6545 -1.5965 -1.5601
 8296SOL     OW36520   4.174   0.806   2.158  0.0902  0.2646 -0.1504
 8296SOL    HW136521   4.152   0.790   2.066 -1.1100 -0.9237  0.3509
 8296SOL    HW236522   4.182   0.720   2.199  0.5494  0.2947 -0.1745
 8297SOL     OW36523   2.163   0.589   3.004  0.2870 -0.2981  0.2591
 8297SOL    HW136524   2.105   0.603   2.929 -0.5317  0.9076  1.0967
 8297SOL    HW236525   2.107   0.634   3.068 -0.6997  0.2127 -0.9596
 8298SOL     OW36526   3.119   3.078   8.900  0.3013 -0.1261  0.2601
 8298SOL    HW136527   3.094   3.160   8.857  0.6455  0.1993  0.6769
 8298SOL    HW236528   3.097   3.017   8.830 -0.2539 -0.1681  0.4705
 8299SOL     OW36529   0.802   4.686  14.387 -0.4375 -0.2198  0.2865
 8299SOL    HW136530   0.805   4.622  14.459  2.5394 -0.3443  0.0727
 8299SOL    HW236531   0.818   4.634  14.309  0.9764 -0.6981  0.8954
 8300SOL     OW36532   3.643   3.772  13.409  0.0593  0.3166  0.6483
 8300SOL    HW136533   3.736   3.788  13.393  0.0399  1.4020  1.6546
 8300SOL    HW236534   3.640   3.679  13.387 -1.4685  0.6865 -0.7921
 8301SOL     OW36535   4.145   2.564   4.621 -0.4154 -0.2655  0.2535
 8301SOL    HW136536   4.160   2.620   4.545  0.2655 -1.8282 -0.7641
 8301SOL    HW236537   4.235   2.569   4.653 -0.1886 -0.3772 -0.3689
 8302SOL     OW36538   3.719   0.663   9.045 -0.1864  0.0987  0.5956
 8302SOL    HW136539   3.671   0.606   8.985 -0.4888  0.4329  0.5143
 8302SOL    HW236540   3.691   0.634   9.132 -2.4712 -0.7399 -0.4224
 8303SOL     OW36541   4.444   4.256  15.387 -0.0701  0.0374  0.2891
 8303SOL    HW136542   4.420   4.329  15.445 -0.3096  1.4366 -1.5833
 8303SOL    HW236543   4.472   4.189  15.449  0.4225 -0.4727 -0.4923
 8304SOL     OW36544   1.747   2.224   4.688 -0.0179 -0.1628  0.2110
 8304SOL    HW136545   1.756   2.257   4.777  1.3179 -0.2875  0.1246
 8304SOL    HW236546   1.815   2.266   4.635  1.3113 -2.3040  0.2299
 8305SOL     OW36547   2.735   3.096   7.054 -0.4735 -0.1782 -0.1942
 8305SOL    HW136548   2.782   3.152   7.116  0.4739 -2.1630  0.8765
 8305SOL    HW236549   2.683   3.040   7.112 -1.6895  2.2628  1.0567
 8306SOL     OW36550   2.771   2.406  12.850 -0.2849 -0.3649  0.0620
 8306SOL    HW136551   2.801   2.431  12.762  0.7440 -1.5850  0.0680
 8306SOL    HW236552   2.726   2.324  12.829 -0.7042 -0.3442  0.9155
 8307SOL     OW36553   3.602   2.886   1.743 -0.9358  0.2888  0.3752
 8307SOL    HW136554   3.606   2.790   1.749 -0.5252  0.2918  0.1356
 8307SOL    HW236555   3.583   2.898   1.650 -1.1310 -1.6085  0.1564
 8308SOL     OW36556   3.248   2.711   2.345 -0.1856 -0.6648 -0.0222
 8308SOL    HW136557   3.186   2.672   2.407  0.7312 -1.7324  0.2211
 8308SOL    HW236558   3.249   2.806   2.354 -0.4663 -0.7145  0.5305
 8309SOL     OW36559   1.001   0.218   7.608  0.0791  0.3268 -0.2660
 8309SOL    HW136560   0.908   0.226   7.585  0.2978 -1.0878 -1.6494
 8309SOL    HW236561   1.028   0.299   7.564  0.6303 -0.8406 -2.0791
 8310SOL     OW36562   3.942   3.799  15.145  0.1686 -0.0365  0.0233
 8310SOL    HW136563   3.969   3.760  15.228  0.4120  0.3245  0.1155
 8310SOL    HW236564   4.001   3.758  15.082 -2.5369 -0.8839 -1.9347
 8311SOL     OW36565   3.033   4.065  17.100 -0.4588 -0.1379 -0.1722
 8311SOL    HW136566   3.061   4.135  17.040  2.7846  0.3074  1.8693
 8311SOL    HW236567   2.957   4.023  17.060 -0.2361  1.2927 -2.1175
 8312SOL     OW36568   3.283   1.791   5.557  0.2620  0.0560  0.3529
 8312SOL    HW136569   3.235   1.872   5.541 -0.4576 -0.3872  0.2718
 8312SOL    HW236570   3.241   1.752   5.633  0.7616  0.5984  0.8991
 8313SOL     OW36571   1.271   0.547   8.061 -0.7624  0.9621  0.2316
 8313SOL    HW136572   1.297   0.573   8.149 -1.6264  0.9240  0.4974
 8313SOL    HW236573   1.246   0.455   8.069  3.0467  0.0175  1.5907
 8314SOL     OW36574   3.817   3.577   1.121  0.3116  0.6605 -0.4995
 8314SOL    HW136575   3.798   3.671   1.115  1.9471  1.0740  0.8052
 8314SOL    HW236576   3.900   3.582   1.169  0.7114 -0.4928 -1.0754
 8315SOL     OW36577   3.933   3.506   8.800 -0.6522 -0.0626  0.3313
 8315SOL    HW136578   3.894   3.545   8.877 -1.6127 -0.5619  0.0994
 8315SOL    HW236579   3.861   3.503   8.736  0.8420  0.4303 -1.3865
 8316SOL     OW36580   0.476   3.449   8.172 -1.0132  0.3705 -0.8255
 8316SOL    HW136581   0.561   3.429   8.134 -1.4714 -2.0363 -0.6004
 8316SOL    HW236582   0.438   3.362   8.166 -3.0169  1.2744 -1.4341
 8317SOL     OW36583   2.046   2.100   6.112  0.1489  0.3169  0.2049
 8317SOL    HW136584   1.966   2.152   6.104  0.5560  0.6091 -2.1344
 8317SOL    HW236585   2.088   2.150   6.181  0.2044 -1.5830  1.5489
 8318SOL     OW36586   3.329   2.677   9.361  0.1671  0.2562 -0.3472
 8318SOL    HW136587   3.243   2.711   9.337  0.2852  0.6912 -0.1696
 8318SOL    HW236588   3.315   2.611   9.428  0.1160 -1.9532 -2.5228
 8319SOL     OW36589   2.473   3.173   9.904  0.0871 -0.5407 -0.0153
 8319SOL    HW136590   2.401   3.142   9.849 -0.0779  1.9299 -1.2337
 8319SOL    HW236591   2.439   3.252   9.947  1.1770  1.1605 -2.2256
 8320SOL     OW36592   0.808   4.276   5.743  0.0453 -0.3368 -0.2301
 8320SOL    HW136593   0.835   4.213   5.809 -0.8957 -0.3584  0.1323
 8320SOL    HW236594   0.733   4.315   5.787  0.2926 -1.6023  1.2946
 8321SOL     OW36595   1.980   3.424  15.789  0.5273 -0.3297 -0.0660
 8321SOL    HW136596   2.073   3.430  15.811  0.4843  0.0200  0.0204
 8321SOL    HW236597   1.973   3.503  15.735 -0.6234  0.0479  0.6412
 8322SOL     OW36598   1.517   2.129   8.115 -0.1818  0.4469  0.0605
 8322SOL    HW136599   1.492   2.216   8.145  0.6662  0.4537  0.7292
 8322SOL    HW236600   1.595   2.103   8.164 -1.2653  0.8958  2.0535
 8323SOL     OW36601   0.971   2.582   5.245 -0.2452  0.2431  0.4967
 8323SOL    HW136602   1.002   2.493   5.267  2.0150  0.9829  0.3448
 8323SOL    HW236603   1.048   2.636   5.265  0.5787 -0.7166 -0.0196
 8324SOL     OW36604   0.692   1.160  11.274  0.1237 -0.0772  0.9970
 8324SOL    HW136605   0.708   1.111  11.355 -2.1053  0.3005  1.6508
 8324SOL    HW236606   0.655   1.243  11.301  0.2940  0.1605  0.4982
 8325SOL     OW36607   3.417   2.240   9.001  0.1699 -0.4382 -0.3954
 8325SOL    HW136608   3.460   2.213   9.082  0.0493 -1.7746 -0.7787
 8325SOL    HW236609   3.413   2.336   9.003  1.1526 -0.3757 -1.1853
 8326SOL     OW36610   3.115   4.427  15.824 -0.1339 -0.6893  0.5560
 8326SOL    HW136611   3.167   4.507  15.829 -0.0527 -0.7103 -0.0181
 8326SOL    HW236612   3.117   4.390  15.912 -1.0070 -1.2606  0.3337
 8327SOL     OW36613   2.414   1.432   7.059 -0.1286  0.4561 -0.3997
 8327SOL    HW136614   2.386   1.518   7.090 -1.9805 -0.2350 -0.1331
 8327SOL    HW236615   2.330   1.386   7.066  0.8781 -1.0832  1.5137
 8328SOL     OW36616   1.446   3.255   2.095  0.0883  0.2085  0.5126
 8328SOL    HW136617   1.484   3.199   2.163 -2.4652  0.6292  2.2523
 8328SOL    HW236618   1.359   3.216   2.098  1.0349 -1.7298  2.7718
 8329SOL     OW36619   0.243   0.832  10.085 -0.0800 -0.1882 -0.5031
 8329SOL    HW136620   0.197   0.907  10.048  2.9457  2.0364  0.2771
 8329SOL    HW236621   0.176   0.795  10.142 -0.0352 -0.0521 -0.3599
 8330SOL     OW36622   3.119   0.348   4.412  0.8315 -0.0231  0.4487
 8330SOL    HW136623   3.193   0.293   4.387  0.8757 -0.5386  1.7570
 8330SOL    HW236624   3.122   0.416   4.345 -1.2459  0.7247  1.1080
 8331SOL     OW36625   3.901   3.577   9.353  0.2865 -0.1891 -0.1884
 8331SOL    HW136626   3.947   3.660   9.349  0.6169 -0.4053 -0.9444
 8331SOL    HW236627   3.966   3.518   9.391 -0.9488 -1.6881 -0.4050
 8332SOL     OW36628   0.848   4.557   8.000  0.3107 -0.0463  0.2880
 8332SOL    HW136629   0.764   4.557   7.955  0.6690  0.7937 -0.3873
 8332SOL    HW236630   0.893   4.608   7.932 -0.5734  0.6143  0.1978
 8333SOL     OW36631   2.175   2.765   2.832  0.7082  0.1116 -1.0956
 8333SOL    HW136632   2.222   2.848   2.821  2.3200 -0.5835  0.4179
 8333SOL    HW236633   2.217   2.719   2.905 -0.7136 -1.3786 -1.2053
 8334SOL     OW36634   0.285   1.246   8.577 -0.4791  0.5215  0.2799
 8334SOL    HW136635   0.242   1.246   8.663 -0.0886 -1.1470  0.4748
 8334SOL    HW236636   0.375   1.266   8.601 -0.5321 -0.4931  1.3372
 8335SOL     OW36637   1.527   0.754   3.924  0.3443 -0.0088  0.5577
 8335SOL    HW136638   1.441   0.718   3.947  0.0822 -0.0071 -0.4274
 8335SOL    HW236639   1.566   0.761   4.012 -0.0580  1.5285  0.5962
 8336SOL     OW36640   2.028   4.618   8.536 -0.9324 -0.6628  0.1388
 8336SOL    HW136641   1.964   4.609   8.465 -0.3524  0.2609 -0.5089
 8336SOL    HW236642   2.116   4.609   8.499 -0.7127 -1.6846  0.9169
 8337SOL     OW36643   1.547   0.927  17.717  0.3077  0.7877 -0.1192
 8337SOL    HW136644   1.494   0.866   0.007  0.2226  1.1576  0.2443
 8337SOL    HW236645   1.623   0.869  17.710 -0.9546 -0.8592 -0.2216
 8338SOL     OW36646   2.689   1.811   5.183  0.0589 -0.1396  0.1693
 8338SOL    HW136647   2.650   1.755   5.251  1.0425  0.2145  1.0234
 8338SOL    HW236648   2.736   1.748   5.129  1.6636  1.2573 -0.0485
 8339SOL     OW36649   2.089   1.366   8.752  0.2230 -0.3382 -0.0726
 8339SOL    HW136650   2.094   1.317   8.670 -0.1707  1.8070 -1.3751
 8339SOL    HW236651   2.164   1.335   8.803  1.1112  1.0614 -0.4958
 8340SOL     OW36652   2.283   2.321  16.808 -0.4502 -0.1480 -0.0408
 8340SOL    HW136653   2.200   2.320  16.760 -0.7257 -3.0039  0.4662
 8340SOL    HW236654   2.324   2.236  16.792  0.2827 -0.2435  2.3945
 8341SOL     OW36655   3.310   4.377   2.438  0.4752  0.0981  0.0091
 8341SOL    HW136656   3.232   4.432   2.451 -1.1130 -1.9312 -0.9583
 8341SOL    HW236657   3.326   4.362   2.531 -2.8515  0.5937  0.6570
 8342SOL     OW36658   2.140   3.347   5.209 -0.2264  0.1449  0.1495
 8342SOL    HW136659   2.144   3.280   5.140  2.4429  0.7745 -0.3166
 8342SOL    HW236660   2.046   3.355   5.227 -0.1714  3.4075 -0.8728
 8343SOL     OW36661   2.503   1.938  11.206 -0.3533  0.1093  0.4165
 8343SOL    HW136662   2.549   1.986  11.275 -1.7986  0.7391  0.9314
 8343SOL    HW236663   2.566   1.958  11.137 -2.0790  3.9381 -0.0679
 8344SOL     OW36664   2.838   2.038   6.599  0.2792 -0.1230  0.2014
 8344SOL    HW136665   2.869   2.070   6.684 -1.8007 -1.6329  1.5065
 8344SOL    HW236666   2.839   1.943   6.610  1.9538 -0.1493 -0.1126
 8345SOL     OW36667   1.061   2.506   7.603 -0.3109  0.2535  0.3054
 8345SOL    HW136668   1.070   2.440   7.534 -0.8438 -2.2404  2.6192
 8345SOL    HW236669   1.143   2.492   7.650 -0.3315  2.8622  1.1237
 8346SOL     OW36670   3.188   0.821   4.771  0.7992 -0.2045 -0.3558
 8346SOL    HW136671   3.142   0.765   4.834  0.5470 -0.7304 -1.0174
 8346SOL    HW236672   3.242   0.866   4.837  1.1038 -1.5486  0.3315
 8347SOL     OW36673   2.650   2.445   8.226 -0.4527 -0.3439 -0.0143
 8347SOL    HW136674   2.685   2.356   8.228 -0.0759 -0.1926  0.2121
 8347SOL    HW236675   2.732   2.491   8.205 -0.7901 -0.8823 -2.5037
 8348SOL     OW36676   4.405   3.295   4.866  0.5070 -0.1320  0.0566
 8348SOL    HW136677   4.347   3.231   4.824  0.5224  0.4537 -0.8501
 8348SOL    HW236678   4.392   3.275   4.959  0.7035  1.3917  0.4035
 8349SOL     OW36679   0.807   1.814   5.150 -0.3110  0.2862  0.0551
 8349SOL    HW136680   0.767   1.765   5.222 -1.3516 -1.4871 -1.7218
 8349SOL    HW236681   0.800   1.750   5.079 -0.3526  0.5812 -0.2066
 8350SOL     OW36682   0.326   1.767   3.447 -0.5134  0.3491 -0.5658
 8350SOL    HW136683   0.266   1.803   3.382 -1.3590 -0.3843 -0.1835
 8350SOL    HW236684   0.367   1.697   3.396  2.0883  1.7688 -0.4530
 8351SOL     OW36685   2.017   0.887   0.515 -0.2086  0.4490  0.0648
 8351SOL    HW136686   2.055   0.826   0.452 -1.8879  0.4485 -0.9670
 8351SOL    HW236687   1.928   0.852   0.509 -0.2358  0.4263  0.6504
 8352SOL     OW36688   2.918   0.876   3.342  0.1926  0.4053 -0.0246
 8352SOL    HW136689   2.912   0.811   3.272 -2.3408  0.5312  0.0493
 8352SOL    HW236690   2.832   0.873   3.385  0.4428 -1.4500  0.3357
 8353SOL     OW36691   1.631   3.953   1.633  0.1410  0.1818  0.3592
 8353SOL    HW136692   1.575   3.882   1.603  0.3719 -0.1549  0.7284
 8353SOL    HW236693   1.580   3.980   1.710 -0.7810 -0.1398 -0.1487
 8354SOL     OW36694   4.563   0.014   1.786  0.1189  0.1449 -0.1708
 8354SOL    HW136695   4.650   0.028   1.749 -0.7185  0.6246 -1.9433
 8354SOL    HW236696   4.580   0.009   1.880 -0.4795  0.6701 -0.0358
 8355SOL     OW36697   4.165   0.475  13.651 -0.0063  0.6297 -0.7884
 8355SOL    HW136698   4.231   0.450  13.586  2.4136  2.8490  0.7990
 8355SOL    HW236699   4.095   0.490  13.588 -2.1703  0.2446  1.5216
 8356SOL     OW36700   2.909   4.458   4.854 -0.7127 -0.4534  0.1651
 8356SOL    HW136701   2.848   4.385   4.869  0.1169 -0.4644  3.3627
 8356SOL    HW236702   2.993   4.412   4.855  0.2014  1.2013 -0.3918
 8357SOL     OW36703   2.230   4.260   5.365  0.0711 -0.0253 -0.0300
 8357SOL    HW136704   2.256   4.175   5.401 -2.8126 -0.8631  0.0509
 8357SOL    HW236705   2.164   4.284   5.429 -0.6374  2.8067 -1.8338
 8358SOL     OW36706   2.184   3.176   7.542  0.1926  0.1188 -0.8083
 8358SOL    HW136707   2.088   3.172   7.538  0.0403  1.1047  1.6866
 8358SOL    HW236708   2.198   3.271   7.534  0.2000  0.1884  0.0512
 8359SOL     OW36709   2.415   3.413  13.253  0.2805  0.2920  0.1252
 8359SOL    HW136710   2.416   3.393  13.347 -2.7657  2.9238  0.7508
 8359SOL    HW236711   2.421   3.509  13.246  0.9414  0.1629 -0.9940
 8360SOL     OW36712   4.058   4.425  14.666  0.2183  0.1044 -0.4417
 8360SOL    HW136713   4.034   4.344  14.712 -0.5272  0.3700 -0.3753
 8360SOL    HW236714   4.023   4.404  14.579  0.3501 -1.6601 -0.0855
 8361SOL     OW36715   0.657   3.555   3.157 -0.5809  0.7545 -0.1001
 8361SOL    HW136716   0.642   3.597   3.072 -0.4355 -0.1208 -0.5580
 8361SOL    HW236717   0.717   3.617   3.197 -0.8359  1.6451 -1.1077
 8362SOL     OW36718   1.040   3.406   0.055  0.5980 -0.5530  0.1108
 8362SOL    HW136719   0.945   3.395   0.064  0.8305 -0.0517  3.0774
 8362SOL    HW236720   1.062   3.446   0.139 -0.5779  0.2109  0.0603
 8363SOL     OW36721   2.584   3.898   2.675  0.1358  0.0873  0.4162
 8363SOL    HW136722   2.666   3.858   2.706  0.2834  2.3087  2.9356
 8363SOL    HW236723   2.615   3.977   2.630 -0.7345  1.6864  2.6576
 8364SOL     OW36724   0.249   4.517   6.940 -0.9619  0.3009  0.2848
 8364SOL    HW136725   0.329   4.465   6.946 -0.6652  0.7591  0.3062
 8364SOL    HW236726   0.293   4.602   6.941 -0.2153 -0.0817 -0.5382
 8365SOL     OW36727   1.868   2.219   8.916 -0.1567  0.2876  0.0487
 8365SOL    HW136728   1.780   2.250   8.895  0.1312  0.8203 -0.3994
 8365SOL    HW236729   1.891   2.153   8.851  0.1753  1.0199 -0.5765
 8366SOL     OW36730   3.507   1.398   8.505 -0.0323 -0.3416 -0.5611
 8366SOL    HW136731   3.512   1.487   8.539  0.5869 -0.7762  0.5250
 8366SOL    HW236732   3.591   1.357   8.527 -0.5105 -2.2284 -2.2428
 8367SOL     OW36733   4.264   0.125   6.726 -0.6323 -0.1352 -0.1660
 8367SOL    HW136734   4.352   0.095   6.752 -0.2425  0.7820 -0.4360
 8367SOL    HW236735   4.281   0.218   6.736 -2.2359  0.2753 -1.2785
 8368SOL     OW36736   0.565   2.539  15.395  0.3234 -0.5829 -0.1882
 8368SOL    HW136737   0.474   2.509  15.389  0.3823 -0.7254 -0.3406
 8368SOL    HW236738   0.594   2.478  15.462  0.5222  1.1338  1.3002
 8369SOL     OW36739   2.570   1.964   8.258 -0.3098 -0.2765 -0.0312
 8369SOL    HW136740   2.492   2.013   8.282  0.6666  1.3186 -0.1192
 8369SOL    HW236741   2.554   1.899   8.326 -2.0562  0.1701 -0.0213
 8370SOL     OW36742   0.146   2.171   6.408 -0.3441  0.3912 -0.3148
 8370SOL    HW136743   0.229   2.214   6.385 -0.2371  1.1055  1.3373
 8370SOL    HW236744   0.121   2.147   6.319 -0.0012 -0.9272 -0.0496
 8371SOL     OW36745   3.909   0.892   9.284  0.1758  0.5756 -0.0879
 8371SOL    HW136746   3.866   0.813   9.317  1.5308 -0.5213 -0.9143
 8371SOL    HW236747   3.844   0.918   9.218  2.2121  0.8981 -1.9747
 8372SOL     OW36748   2.949   0.983  16.439  0.1416 -0.5551 -0.5863
 8372SOL    HW136749   2.895   0.914  16.478 -1.1930  0.8551  0.0330
 8372SOL    HW236750   3.000   1.009  16.516 -1.9999  1.2940  0.2058
 8373SOL     OW36751   0.731   3.983  10.580 -0.1273  0.0517  0.1441
 8373SOL    HW136752   0.686   3.992  10.664 -1.6586  0.7470 -0.7450
 8373SOL    HW236753   0.813   3.943  10.609  0.3002  0.1370 -0.9363
 8374SOL     OW36754   2.150   0.997   3.000 -0.0875 -0.1924  0.5514
 8374SOL    HW136755   2.171   1.077   2.950 -1.7710 -0.0375  0.0679
 8374SOL    HW236756   2.118   0.949   2.924  1.6961 -0.5017 -0.0087
 8375SOL     OW36757   4.283   3.310   9.770 -0.7584 -0.8997 -0.2255
 8375SOL    HW136758   4.253   3.221   9.751  0.3142 -0.5321 -3.5613
 8375SOL    HW236759   4.204   3.356   9.742 -0.3411  0.1355  0.2789
 8376SOL     OW36760   4.681   4.259   6.806  0.1360 -0.3509  0.6007
 8376SOL    HW136761   4.630   4.304   6.739 -0.4570 -3.6509 -1.1629
 8376SOL    HW236762   4.609   4.208   6.843  1.5318 -1.0636  2.3610
 8377SOL     OW36763   3.301   1.005   3.161 -0.1366 -0.3258 -0.8785
 8377SOL    HW136764   3.288   0.910   3.151 -0.4056  0.1110 -4.4429
 8377SOL    HW236765   3.329   1.011   3.252 -0.5132 -2.6229 -0.5994
 8378SOL     OW36766   0.694   1.821   5.602  0.1333 -0.2180 -0.2488
 8378SOL    HW136767   0.600   1.821   5.619 -0.5860  0.3888 -4.1625
 8378SOL    HW236768   0.718   1.887   5.667  2.5196 -0.2457 -1.0967
 8379SOL     OW36769   3.126   1.183   0.614  0.5390  0.4654  0.1135
 8379SOL    HW136770   3.126   1.252   0.680 -1.7482 -2.3473  3.0963
 8379SOL    HW236771   3.216   1.190   0.584  0.3480  1.5844 -0.2030
 8380SOL     OW36772   3.886   4.369  12.210 -0.0257 -0.5606  0.2753
 8380SOL    HW136773   3.805   4.407  12.177 -1.4352 -3.4392  0.3672
 8380SOL    HW236774   3.937   4.391  12.132 -2.1703  0.4312 -0.8538
 8381SOL     OW36775   3.631   3.899   1.838 -0.2421  0.5114 -0.1264
 8381SOL    HW136776   3.626   3.972   1.899 -2.7163  0.5946 -0.4097
 8381SOL    HW236777   3.536   3.892   1.827 -0.2446  0.5595 -0.1374
 8382SOL     OW36778   3.808   3.727   5.655 -0.3193 -0.5012 -0.4434
 8382SOL    HW136779   3.768   3.662   5.598 -0.3827 -0.1025 -0.8601
 8382SOL    HW236780   3.774   3.813   5.630 -0.4252 -0.2785  0.4691
 8383SOL     OW36781   1.548   1.564  11.346 -0.2048 -0.4235 -0.3670
 8383SOL    HW136782   1.469   1.572  11.291  0.2488 -0.4431 -1.0240
 8383SOL    HW236783   1.599   1.637  11.311 -3.7431  2.0462 -0.4801
 8384SOL     OW36784   0.486   2.199   5.574 -0.0873  0.0971  0.5320
 8384SOL    HW136785   0.580   2.201   5.553  0.1038  1.6263  1.4603
 8384SOL    HW236786   0.478   2.258   5.650  1.5281 -0.2961  1.0076
 8385SOL     OW36787   2.569   1.322  11.750 -0.0268 -0.2497  0.1205
 8385SOL    HW136788   2.522   1.360  11.676 -0.9866 -0.3433  0.6891
 8385SOL    HW236789   2.636   1.269  11.706 -1.1380 -2.5836  1.2054
 8386SOL     OW36790   1.090   0.832   8.433 -0.0191  0.3044  0.1641
 8386SOL    HW136791   1.035   0.766   8.475  0.1502  0.8399  1.2294
 8386SOL    HW236792   1.166   0.838   8.492 -0.5183  0.4745  0.7951
 8387SOL     OW36793   1.836   0.158   4.701  0.3825 -0.1479 -0.6081
 8387SOL    HW136794   1.795   0.161   4.615 -0.9125  2.3580  0.0938
 8387SOL    HW236795   1.847   0.067   4.728 -0.7871  0.1280  0.7844
 8388SOL     OW36796   1.307   2.453   7.713 -0.5000  0.2347 -0.5583
 8388SOL    HW136797   1.293   2.364   7.745 -1.0557  0.1832 -0.9448
 8388SOL    HW236798   1.400   2.452   7.694  0.0815 -0.5811  2.2633
 8389SOL     OW36799   1.339   0.840   3.216 -0.5037 -0.4075  0.1391
 8389SOL    HW136800   1.291   0.828   3.298 -0.1503  2.4074  0.7363
 8389SOL    HW236801   1.431   0.828   3.239 -0.1948 -0.7375 -1.2723
 8390SOL     OW36802   2.466   2.566  17.357  0.2525 -0.2823 -0.4603
 8390SOL    HW136803   2.445   2.600  17.444 -2.1728  2.4378 -2.1448
 8390SOL    HW236804   2.556   2.599  17.350  0.0730 -0.0301 -1.4936
 8391SOL     OW36805   3.386   0.482   9.102  0.1425 -0.4177 -0.0162
 8391SOL    HW136806   3.410   0.396   9.138  0.9379  0.2848  1.1529
 8391SOL    HW236807   3.421   0.549   9.160 -1.7843  1.3515 -0.9225
 8392SOL     OW36808   2.963   1.361   4.179  0.5758 -0.4917 -0.2094
 8392SOL    HW136809   2.948   1.326   4.266 -0.2065  1.9180  0.6233
 8392SOL    HW236810   2.957   1.293   4.112  3.0112 -0.0952 -0.8251
 8393SOL     OW36811   0.754   2.082  13.689  0.0753  0.1205  0.1813
 8393SOL    HW136812   0.671   2.039  13.666 -1.7134  2.8694  1.4712
 8393SOL    HW236813   0.727   2.086  13.781  1.0036  1.3245  0.3973
 8394SOL     OW36814   0.121   1.261   5.641 -0.0886 -0.3720  0.0635
 8394SOL    HW136815   0.134   1.207   5.718  0.9891  1.1629  0.9634
 8394SOL    HW236816   0.136   1.350   5.672 -1.3649 -0.0459 -0.2439
 8395SOL     OW36817   2.265   3.539   9.814  0.1389  0.2958 -0.1376
 8395SOL    HW136818   2.191   3.571   9.763  0.4330  1.3915  0.1405
 8395SOL    HW236819   2.232   3.572   9.898 -2.3013  3.2085 -2.2742
 8396SOL     OW36820   4.314   1.924   5.127  0.4744 -0.0151  0.3324
 8396SOL    HW136821   4.259   2.002   5.131 -1.3752 -1.1610 -3.1045
 8396SOL    HW236822   4.389   1.958   5.077  0.5882 -1.3658 -0.4142
 8397SOL     OW36823   1.043   0.722   9.292  0.3431  0.2039 -0.7060
 8397SOL    HW136824   1.129   0.765   9.290  1.2441 -1.6091 -0.4002
 8397SOL    HW236825   1.004   0.773   9.363  2.5424  2.4135 -1.0648
 8398SOL     OW36826   2.330   2.791  14.686  0.2421  0.4534 -0.2882
 8398SOL    HW136827   2.348   2.743  14.605 -0.3674 -0.0979 -0.0995
 8398SOL    HW236828   2.267   2.734  14.732 -0.4482  0.7963 -0.8087
 8399SOL     OW36829   3.563   3.930  14.941  0.8073  0.6589  0.0890
 8399SOL    HW136830   3.585   3.859  14.881  0.7363 -0.5605  1.4911
 8399SOL    HW236831   3.648   3.958  14.976 -0.2706  1.4919  2.0837
 8400SOL     OW36832   0.196   4.047  13.990 -0.4168  0.0162 -0.4973
 8400SOL    HW136833   0.272   4.094  13.958 -0.0876  0.8161  1.4501
 8400SOL    HW236834   0.146   4.120  14.026  0.2155 -0.1215  0.6493
 8401SOL     OW36835   2.504   0.918   7.114  0.2981 -0.8785  0.3432
 8401SOL    HW136836   2.526   0.974   7.039  1.9113 -1.9545  0.0143
 8401SOL    HW236837   2.416   0.893   7.087  1.1089 -1.8877 -1.3186
 8402SOL     OW36838   3.938   2.686   9.749  0.3289  0.0123 -0.2461
 8402SOL    HW136839   4.013   2.737   9.779  0.7929 -0.5730 -0.4080
 8402SOL    HW236840   3.912   2.641   9.830 -0.1466  0.2880 -0.2406
 8403SOL     OW36841   4.183   1.775   9.478 -0.3246 -0.2689  0.3777
 8403SOL    HW136842   4.134   1.853   9.505 -1.3430  0.0780 -2.4166
 8403SOL    HW236843   4.114   1.711   9.459 -1.4908  1.0933  0.0151
 8404SOL     OW36844   0.397   3.923   8.000 -0.0253  0.0708  0.6969
 8404SOL    HW136845   0.317   3.970   7.977  1.1328  1.8229  0.2496
 8404SOL    HW236846   0.411   3.875   7.918  1.5933  1.2269  0.3063
 8405SOL     OW36847   3.335   0.999  11.563  0.1660 -0.1907  0.4489
 8405SOL    HW136848   3.268   1.016  11.497 -0.6371  0.5639  1.4684
 8405SOL    HW236849   3.360   1.090  11.579  2.6478 -0.6395 -0.9531
 8406SOL     OW36850   2.998   4.591   1.767 -0.3317 -0.1723  0.0763
 8406SOL    HW136851   2.912   4.582   1.725  0.6078 -2.8733 -1.2326
 8406SOL    HW236852   3.054   4.531   1.720 -0.0531  0.9361 -1.0082
 8407SOL     OW36853   3.451   4.156   0.120 -0.1425  0.7246 -0.0212
 8407SOL    HW136854   3.433   4.119   0.206  1.4164  1.1217  0.4685
 8407SOL    HW236855   3.360   4.160   0.090 -0.7762 -2.1079  1.5813
 8408SOL     OW36856   1.489   0.491   2.969  0.1474  0.2288 -0.3442
 8408SOL    HW136857   1.473   0.585   2.958  0.9072  0.2079 -1.5707
 8408SOL    HW236858   1.544   0.489   3.047 -2.0872 -2.2650  1.1686
 8409SOL     OW36859   1.037   1.128  12.834  0.6019  0.1902 -0.6723
 8409SOL    HW136860   1.059   1.214  12.870  0.7397 -0.0159 -0.2651
 8409SOL    HW236861   1.046   1.148  12.741 -0.8374 -0.1898 -0.8789
 8410SOL     OW36862   1.486   0.707  10.881 -0.0779 -0.0819 -0.8409
 8410SOL    HW136863   1.468   0.661  10.799 -0.0261 -1.7469  0.0823
 8410SOL    HW236864   1.471   0.639  10.946  2.3803 -1.6912 -1.9609
 8411SOL     OW36865   2.482   4.685  17.534 -0.1487  0.8011  0.2762
 8411SOL    HW136866   2.571   4.718  17.547 -0.4436  1.3850  0.8041
 8411SOL    HW236867   2.447   4.737  17.606  0.0406  0.2492  0.7650
 8412SOL     OW36868   0.832   3.301   2.068  0.4214 -0.4688 -0.4303
 8412SOL    HW136869   0.876   3.216   2.077 -0.0419 -0.9294 -2.5187
 8412SOL    HW236870   0.775   3.278   1.995 -1.4665 -0.0367  0.9335
 8413SOL     OW36871   2.043   1.873   2.314  0.2904 -0.4668 -0.0249
 8413SOL    HW136872   2.104   1.818   2.265  2.2376  1.5703  0.1210
 8413SOL    HW236873   2.001   1.931   2.249 -1.4589 -0.5167  1.0667
 8414SOL     OW36874   3.657   4.183   1.742 -0.1691 -0.6367 -0.1649
 8414SOL    HW136875   3.720   4.194   1.670  2.0848 -0.2511  1.8866
 8414SOL    HW236876   3.717   4.157   1.812  0.9250  0.1394 -0.8053
 8415SOL     OW36877   4.698   2.291   4.094  0.0821  0.5713 -0.4960
 8415SOL    HW136878   4.636   2.219   4.080 -0.1437  0.4181  1.2109
 8415SOL    HW236879   0.033   2.263   4.042  0.3210  1.7124 -0.7558
 8416SOL     OW36880   0.589   0.440   2.464  0.1626  0.4679  0.3898
 8416SOL    HW136881   0.539   0.511   2.504  2.7875  2.5515 -0.0826
 8416SOL    HW236882   0.530   0.367   2.483 -0.5837  0.8724 -0.3505
 8417SOL     OW36883   3.523   2.322   5.282 -0.6008 -0.3627  0.0102
 8417SOL    HW136884   3.501   2.370   5.203 -0.1849 -0.6726 -0.2963
 8417SOL    HW236885   3.592   2.260   5.258  2.3659  3.0504 -0.3185
 8418SOL     OW36886   1.554   1.562  16.306 -0.0459  0.4914  0.7628
 8418SOL    HW136887   1.593   1.544  16.221 -1.7647 -0.4137  0.1607
 8418SOL    HW236888   1.467   1.523  16.296  1.1123 -1.2399 -2.4359
 8419SOL     OW36889   3.999   1.344   2.396  0.1853  0.0902  0.1447
 8419SOL    HW136890   3.907   1.320   2.407 -0.3429  2.2553  0.3803
 8419SOL    HW236891   4.003   1.431   2.435 -0.3191  0.7356 -1.2428
 8420SOL     OW36892   0.146   3.637   0.510  0.2967 -0.1193 -0.1028
 8420SOL    HW136893   0.207   3.570   0.541  0.9532  0.6883  0.3401
 8420SOL    HW236894   0.140   3.702   0.580  1.7369  1.2609 -1.2642
 8421SOL     OW36895   4.468   3.732   2.600 -0.3628  0.1660  0.0270
 8421SOL    HW136896   4.561   3.718   2.619 -0.4717  0.2099  0.6036
 8421SOL    HW236897   4.435   3.751   2.689 -1.5527  2.8244 -0.9712
 8422SOL     OW36898   3.790   3.096   3.150 -0.2683 -0.0092  0.2180
 8422SOL    HW136899   3.719   3.063   3.095  0.7853 -1.4869 -0.2617
 8422SOL    HW236900   3.800   3.022   3.209  2.3463  1.3462  1.5099
 8423SOL     OW36901   4.334   2.508  12.655  0.0860  0.7687  0.1274
 8423SOL    HW136902   4.293   2.563  12.721 -0.1428  0.4867  0.2181
 8423SOL    HW236903   4.416   2.557  12.644  0.9153 -0.0709  2.6588
 8424SOL     OW36904   0.620   1.807   4.293 -0.0063  0.4656  0.3148
 8424SOL    HW136905   0.653   1.854   4.369  1.0794  0.0214  0.1076
 8424SOL    HW236906   0.535   1.777   4.325 -0.7571  2.5277  0.2527
 8425SOL     OW36907   3.657   4.724   4.782 -0.2092 -0.0730  0.6213
 8425SOL    HW136908   3.648   4.722   4.686  2.6146  0.4861  0.3503
 8425SOL    HW236909   3.605   0.064   4.791  0.2089  0.2785 -0.0975
 8426SOL     OW36910   0.036   1.445   1.181  0.4113 -0.2515  0.1065
 8426SOL    HW136911   0.110   1.493   1.143  0.0582 -0.8208 -1.2912
 8426SOL    HW236912   4.706   1.508   1.165  1.6574  1.5206  1.4862
 8427SOL     OW36913   0.504   2.723   1.437  0.7259 -0.2102  0.3869
 8427SOL    HW136914   0.583   2.719   1.491  0.0197  0.8260  1.4989
 8427SOL    HW236915   0.545   2.725   1.351 -2.4763  1.9093 -1.0861
 8428SOL     OW36916   0.211   4.474  15.353 -0.0505 -0.0795  0.6764
 8428SOL    HW136917   0.202   4.553  15.301  1.1196  0.4238  1.2284
 8428SOL    HW236918   0.182   4.402  15.298 -0.8451  0.2901  0.6061
 8429SOL     OW36919   4.097   2.641   8.321  0.7031  0.1800  0.5650
 8429SOL    HW136920   4.185   2.652   8.285  0.8159 -1.5985  0.2987
 8429SOL    HW236921   4.072   2.733   8.318 -0.7457 -0.3549 -3.6364
 8430SOL     OW36922   3.805   4.099   1.956 -0.3654  0.0004  0.5768
 8430SOL    HW136923   3.857   4.065   2.029 -1.3504  1.0498  1.7639
 8430SOL    HW236924   3.734   4.132   2.011 -2.0466 -1.9689 -0.3974
 8431SOL     OW36925   0.852   2.472  15.177 -0.9842 -0.0742  0.0621
 8431SOL    HW136926   0.875   2.504  15.264 -1.8129 -1.5427  0.8190
 8431SOL    HW236927   0.778   2.530  15.157 -2.8394 -2.4443 -0.0194
 8432SOL     OW36928   2.225   2.128   8.122 -0.0164 -0.5233  0.2962
 8432SOL    HW136929   2.158   2.193   8.137 -2.8299 -2.7326 -2.6955
 8432SOL    HW236930   2.297   2.188   8.101 -1.9571  1.7399  0.1188
 8433SOL     OW36931   3.252   3.426   7.569 -0.2660  0.1112 -0.0786
 8433SOL    HW136932   3.346   3.421   7.586 -0.2607 -0.6743 -0.3322
 8433SOL    HW236933   3.230   3.361   7.635 -0.6581  1.0954  0.7599
 8434SOL     OW36934   0.241   2.768  13.490  0.1248 -0.9561 -0.2724
 8434SOL    HW136935   0.282   2.850  13.463  0.8173 -1.3837 -0.5427
 8434SOL    HW236936   0.239   2.763  13.586  0.2901 -1.2297 -0.2817
 8435SOL     OW36937   1.947   1.412   3.003 -0.4631 -0.3759 -0.0406
 8435SOL    HW136938   1.914   1.372   2.923  0.6537 -0.7116 -0.3246
 8435SOL    HW236939   1.954   1.504   2.978  0.1029 -0.1012  1.1289
 8436SOL     OW36940   4.140   1.287   2.160  0.0408  0.1613 -0.0332
 8436SOL    HW136941   4.172   1.373   2.132  0.8401 -0.1599 -0.1269
 8436SOL    HW236942   4.080   1.304   2.232 -0.0174  2.2567 -0.5779
 8437SOL     OW36943   2.450   2.563   2.461 -0.0738  0.0911  0.2546
 8437SOL    HW136944   2.458   2.580   2.555  2.4229  1.8599 -0.2902
 8437SOL    HW236945   2.451   2.467   2.463 -1.9944  0.0622  0.1694
 8438SOL     OW36946   1.206   2.819   8.553  0.6526  1.0638 -0.7554
 8438SOL    HW136947   1.253   2.780   8.627 -1.4604  0.3269  0.2067
 8438SOL    HW236948   1.170   2.748   8.499 -1.7496  1.2488  0.6285
 8439SOL     OW36949   1.831   3.805   2.545  0.1459  0.4226 -0.1819
 8439SOL    HW136950   1.902   3.852   2.589 -0.3137  0.0139  0.9776
 8439SOL    HW236951   1.848   3.837   2.456  0.4601  0.1444 -0.2203
 8440SOL     OW36952   3.401   3.571  13.476  0.9484  0.3817  0.2988
 8440SOL    HW136953   3.450   3.558  13.395  1.4628 -1.5708  0.9199
 8440SOL    HW236954   3.473   3.560  13.538  0.4798  1.9323  1.1126
 8441SOL     OW36955   2.622   3.646   5.280 -0.7293  0.4748 -0.3786
 8441SOL    HW136956   2.572   3.723   5.308  2.4041  1.6851  2.0291
 8441SOL    HW236957   2.562   3.573   5.290  1.7059 -0.8565  4.4251
 8442SOL     OW36958   1.848   1.820   9.329 -0.4272 -0.1128  0.4713
 8442SOL    HW136959   1.770   1.860   9.369 -1.5037 -0.4077 -1.3053
 8442SOL    HW236960   1.866   1.889   9.265  2.7471 -0.3571  1.1247
 8443SOL     OW36961   3.295   1.476  13.533 -0.7808  0.4036 -0.0479
 8443SOL    HW136962   3.340   1.392  13.537  0.1031  0.9029  0.5219
 8443SOL    HW236963   3.294   1.487  13.438  0.3107  1.4647  0.0703
 8444SOL     OW36964   0.819   3.047   0.572  0.2239 -0.4787  0.4955
 8444SOL    HW136965   0.800   3.091   0.489 -1.1619  0.8862  1.5347
 8444SOL    HW236966   0.914   3.057   0.580  0.5009 -0.9673 -2.2841
 8445SOL     OW36967   3.977   1.139   8.229  0.3789  0.0695 -0.1974
 8445SOL    HW136968   4.033   1.078   8.182  0.0028 -0.0022 -0.5562
 8445SOL    HW236969   3.947   1.192   8.154  0.4990  1.1309  0.5054
 8446SOL     OW36970   2.329   4.010   1.831  0.4630 -0.5161  0.2466
 8446SOL    HW136971   2.384   3.937   1.859  0.3547 -0.9475 -0.6482
 8446SOL    HW236972   2.240   3.976   1.820  0.5239 -0.1573 -1.3867
 8447SOL     OW36973   3.170   0.150   8.398  0.0513  0.1015  0.0170
 8447SOL    HW136974   3.082   0.169   8.365  0.0262 -0.3863 -0.2008
 8447SOL    HW236975   3.203   0.235   8.427  0.8366 -0.9003  1.9767
 8448SOL     OW36976   2.679   0.342   7.914 -0.1245 -0.7393  0.5148
 8448SOL    HW136977   2.654   0.334   7.822 -0.3322 -0.3474  0.5389
 8448SOL    HW236978   2.597   0.389   7.931 -0.4109 -1.6336  1.6896
 8449SOL     OW36979   0.522   4.737  14.259  0.0147  0.0648  0.4722
 8449SOL    HW136980   0.475   0.079  14.268 -1.4725 -0.6681 -0.4551
 8449SOL    HW236981   0.592   4.739  14.323  1.0231 -1.2873 -0.5859
 8450SOL     OW36982   1.390   1.384   6.311 -0.2023 -0.3527  0.0936
 8450SOL    HW136983   1.473   1.354   6.347  0.3389  1.3083  0.2378
 8450SOL    HW236984   1.388   1.474   6.344  1.1745 -0.4427  0.3956
 8451SOL     OW36985   2.742   4.510   1.676 -0.3900  0.3385 -0.4165
 8451SOL    HW136986   2.649   4.529   1.663 -0.6659 -0.1986  0.7761
 8451SOL    HW236987   2.738   4.415   1.670 -1.1148  0.1847  2.2996
 8452SOL     OW36988   4.604   4.010   6.055 -0.1786 -0.3999 -0.6561
 8452SOL    HW136989   4.634   4.085   6.004  0.2182  0.8426  1.3841
 8452SOL    HW236990   4.560   3.963   5.984 -0.9464  0.1055 -0.5160
 8453SOL     OW36991   4.523   0.953   6.235 -0.0892  0.3444  0.2292
 8453SOL    HW136992   4.462   1.026   6.235 -1.4906 -0.8277  0.6090
 8453SOL    HW236993   4.486   0.888   6.175 -2.2879  1.5050  0.3321
 8454SOL     OW36994   3.926   1.658   9.705 -0.4039  0.1302  0.3386
 8454SOL    HW136995   3.946   1.583   9.761  0.7118  0.2491  0.1126
 8454SOL    HW236996   3.931   1.608   9.624  2.3704  1.7977 -0.5324
 8455SOL     OW36997   3.252   1.423  17.710  0.1205  0.3850 -0.2203
 8455SOL    HW136998   3.174   1.369  17.721  1.2052 -1.2337 -0.4933
 8455SOL    HW236999   3.289   1.423   0.038  0.9020 -2.5596 -0.5405
 8456SOL     OW37000   4.701   3.933   0.599 -0.4382 -0.4841  0.0173
 8456SOL    HW137001   0.024   3.984   0.548  1.9666 -0.4725  3.0599
 8456SOL    HW237002   4.622   3.962   0.554 -1.6955  0.2866  2.7399
 8457SOL     OW37003   4.263   3.242   0.561  0.1983 -0.3769  0.6735
 8457SOL    HW137004   4.222   3.172   0.611 -0.6404  0.9480  1.8536
 8457SOL    HW237005   4.203   3.315   0.576  0.1734 -0.8253  2.7131
 8458SOL     OW37006   1.172   0.960   3.997  0.5422 -0.1881 -0.3650
 8458SOL    HW137007   1.230   1.034   3.986 -2.7486  2.0009 -3.1858
 8458SOL    HW237008   1.223   0.896   4.047  0.5495  1.4470  1.7169
 8459SOL     OW37009   1.023   2.546   7.125  0.2493 -0.3784  0.6119
 8459SOL    HW137010   1.008   2.487   7.199  1.6741 -2.9450 -1.1876
 8459SOL    HW237011   1.099   2.505   7.085  1.2173 -0.2916  2.3310
 8460SOL     OW37012   0.612   4.310   5.132 -0.3484  0.6422  0.5490
 8460SOL    HW137013   0.655   4.367   5.068  1.1890  0.7189  1.6482
 8460SOL    HW237014   0.537   4.363   5.159  1.7388  3.2647  1.2289
 8461SOL     OW37015   0.138   2.226   3.899 -0.0563 -0.2917  0.0695
 8461SOL    HW137016   0.152   2.222   3.804  1.0813 -2.1156  0.3057
 8461SOL    HW237017   0.219   2.186   3.930 -0.2280 -1.2353 -0.6747
 8462SOL     OW37018   2.046   2.879   6.522 -0.1367  0.1282  0.4928
 8462SOL    HW137019   2.069   2.846   6.435  0.6931  1.0636  0.3542
 8462SOL    HW237020   2.023   2.969   6.503 -0.3049  0.0342  0.2591
 8463SOL     OW37021   4.718   2.131   6.171  0.1788  0.3196 -0.2160
 8463SOL    HW137022   0.065   2.157   6.142 -0.1552 -0.4550 -1.8909
 8463SOL    HW237023   4.670   2.123   6.089  0.2448  2.8261 -0.4913
 8464SOL     OW37024   2.132   1.856  14.993  0.3679  0.5179 -0.5091
 8464SOL    HW137025   2.140   1.951  15.004  1.5967  0.3868 -0.2700
 8464SOL    HW237026   2.061   1.839  14.932 -1.6289  2.5268  1.2309
 8465SOL     OW37027   1.243   3.462   5.741  0.2889 -0.2056  0.0559
 8465SOL    HW137028   1.213   3.394   5.680  0.8907 -1.4834  1.1889
 8465SOL    HW237029   1.235   3.422   5.827  2.1349 -0.5123  0.0890
 8466SOL     OW37030   4.481   2.729  10.794 -0.3855 -0.6087  0.6910
 8466SOL    HW137031   4.475   2.775  10.878  2.3736  0.0935  0.5397
 8466SOL    HW237032   4.486   2.811  10.744 -1.0280  1.1230  3.4587
 8467SOL     OW37033   1.277   1.058   8.290  0.0328  0.0327  0.2804
 8467SOL    HW137034   1.319   1.021   8.213  0.1561  0.8055 -0.0188
 8467SOL    HW237035   1.193   1.012   8.300 -0.1448  0.8021  2.4522
 8468SOL     OW37036   1.115   4.010   7.539 -0.8057  0.3801  0.0802
 8468SOL    HW137037   1.053   4.037   7.472  0.0568  1.3765 -0.3061
 8468SOL    HW237038   1.071   4.045   7.616 -2.0161 -2.0101  0.4913
 8469SOL     OW37039   0.375   3.582   7.881  0.3922  0.0424 -0.6162
 8469SOL    HW137040   0.396   3.531   7.802  0.0875 -1.0612  0.0137
 8469SOL    HW237041   0.447   3.643   7.867  1.2536 -1.0419 -0.9582
 8470SOL     OW37042   0.991   2.372   5.685 -0.1461 -0.4564 -0.2814
 8470SOL    HW137043   0.925   2.425   5.641  0.2512  0.4100  0.1730
 8470SOL    HW237044   1.068   2.418   5.652 -0.2374 -1.4377 -1.8427
 8471SOL     OW37045   1.459   2.540   4.498 -0.7138  0.5078  0.2635
 8471SOL    HW137046   1.525   2.525   4.430 -0.5063 -1.2857  0.8479
 8471SOL    HW237047   1.461   2.454   4.540  1.1318  0.3166 -0.2175
 8472SOL     OW37048   2.041   1.494  16.823 -0.4298 -0.0726 -0.1760
 8472SOL    HW137049   1.973   1.476  16.888  0.0958 -3.0144 -0.4208
 8472SOL    HW237050   2.002   1.567  16.776 -0.1652 -0.6432 -1.2828
 8473SOL     OW37051   0.448   0.011  17.072  0.0631  0.3213 -1.0298
 8473SOL    HW137052   0.543   0.009  17.061  0.2023 -2.3199  0.4261
 8473SOL    HW237053   0.433   0.071  17.144  0.0544 -2.1197  1.0099
 8474SOL     OW37054   3.122   0.515   8.973 -0.7477  0.4547  0.0660
 8474SOL    HW137055   3.201   0.492   9.022 -2.1762 -0.2234  2.0411
 8474SOL    HW237056   3.095   0.427   8.948  0.3240 -0.5244  2.3751
 8475SOL     OW37057   0.421   4.129   6.882  0.3272 -0.1812  0.1765
 8475SOL    HW137058   0.334   4.124   6.921 -0.7913  2.4491 -2.0161
 8475SOL    HW237059   0.417   4.068   6.808  0.0895 -1.0215  0.8857
 8476SOL     OW37060   3.710   4.395   4.419  0.1383  0.6658  0.4903
 8476SOL    HW137061   3.700   4.425   4.509  1.3437 -0.2745  0.9315
 8476SOL    HW237062   3.647   4.439   4.361  1.6638  1.4754 -0.5419
 8477SOL     OW37063   0.644   4.603   7.813 -0.9040 -0.4630  0.3234
 8477SOL    HW137064   0.549   4.614   7.803 -1.1090 -1.2120  1.3953
 8477SOL    HW237065   0.665   4.564   7.728  0.7250 -1.5969  1.2433
 8478SOL     OW37066   3.167   0.149   9.507 -0.1510 -0.1148  0.0146
 8478SOL    HW137067   3.179   0.073   9.564  2.1144  0.3494  0.1568
 8478SOL    HW237068   3.073   0.161   9.501 -0.7175 -3.0648  3.0840
 8479SOL     OW37069   0.120   4.579   5.290 -0.1446  0.5028 -0.0160
 8479SOL    HW137070   0.036   4.536   5.304  0.3254 -1.0721 -2.1614
 8479SOL    HW237071   0.103   4.615   5.203  0.8957 -0.8129 -0.7532
 8480SOL     OW37072   3.680   2.160  12.502 -0.8469 -0.5225 -0.1353
 8480SOL    HW137073   3.666   2.068  12.525  0.3448 -1.1692 -1.9165
 8480SOL    HW237074   3.729   2.148  12.421  2.0569 -1.4427  1.7386
 8481SOL     OW37075   0.192   3.595   8.101 -0.0705 -0.0051  0.0677
 8481SOL    HW137076   0.274   3.603   8.053  0.3724 -0.9845  0.6627
 8481SOL    HW237077   0.212   3.514   8.147  1.5895 -0.1754 -0.9434
 8482SOL     OW37078   4.108   4.329   7.080 -0.0357 -0.1413  0.4335
 8482SOL    HW137079   4.123   4.394   7.012  1.1975  1.5452  2.3338
 8482SOL    HW237080   4.022   4.295   7.054 -0.3876  2.2681 -1.5757
 8483SOL     OW37081   2.628   2.559   1.377  0.8339 -0.2797 -0.7174
 8483SOL    HW137082   2.596   2.511   1.454  0.8172  0.8769  0.0009
 8483SOL    HW237083   2.717   2.524   1.374  0.9870  0.1969 -1.6199
 8484SOL     OW37084   2.681   0.025   6.268 -0.6364  0.3262 -0.0825
 8484SOL    HW137085   2.640   0.105   6.302  0.5864  0.3053  1.4621
 8484SOL    HW237086   2.662   4.709   6.343  0.6784 -0.1087 -0.0818
 8485SOL     OW37087   1.314   2.478   3.287  0.1332  0.5592 -0.1846
 8485SOL    HW137088   1.328   2.434   3.370 -1.1286  1.0166  0.2740
 8485SOL    HW237089   1.220   2.486   3.267 -0.1023  1.5550  1.2689
 8486SOL     OW37090   2.806   1.520  13.004  0.4198 -0.1251 -0.0821
 8486SOL    HW137091   2.764   1.476  13.078 -0.7835 -1.8033 -1.7544
 8486SOL    HW237092   2.747   1.593  12.985 -0.1113  0.0696  2.3095
 8487SOL     OW37093   3.149   3.223   9.417  0.1426 -0.4435 -0.4144
 8487SOL    HW137094   3.055   3.240   9.421  0.0876 -1.2268  1.3872
 8487SOL    HW237095   3.165   3.260   9.330  0.8372  0.1433 -0.0338
 8488SOL     OW37096   4.546   2.161   9.620 -0.2738 -0.5216 -0.3396
 8488SOL    HW137097   4.512   2.094   9.679 -0.6868 -1.4845 -1.6529
 8488SOL    HW237098   4.469   2.217   9.608  0.0186 -0.1553 -0.4949
 8489SOL     OW37099   0.176   2.980   5.059 -0.7765  0.3427  0.0956
 8489SOL    HW137100   0.214   2.895   5.083  1.6243  1.5108  0.4112
 8489SOL    HW237101   0.252   3.034   5.077 -0.9796  0.2070  1.3580
 8490SOL     OW37102   3.787   2.987   7.920 -0.4830 -0.1072 -0.4495
 8490SOL    HW137103   3.753   2.911   7.968  0.7110  0.4503  1.2893
 8490SOL    HW237104   3.747   3.054   7.975 -0.3873  0.9486 -1.6705
 8491SOL     OW37105   3.068   4.036   8.969 -0.0602 -0.3838  0.2687
 8491SOL    HW137106   3.061   4.077   8.882 -1.5979 -2.0631 -0.4045
 8491SOL    HW237107   3.052   3.944   8.950  0.2389 -0.0355 -1.7159
 8492SOL     OW37108   1.307   0.410   9.316 -0.3969  0.2832  0.2934
 8492SOL    HW137109   1.214   0.398   9.297 -0.5405 -0.0704  1.2491
 8492SOL    HW237110   1.329   0.323   9.349 -1.1205 -0.4487 -1.1687
 8493SOL     OW37111   3.199   4.241   1.923 -0.1912  0.1196 -0.6086
 8493SOL    HW137112   3.268   4.291   1.879 -0.5578  0.4803 -0.7788
 8493SOL    HW237113   3.226   4.248   2.014 -0.3642  0.7753 -0.6042
 8494SOL     OW37114   3.539   3.863   7.119 -0.5856  0.3610  0.2526
 8494SOL    HW137115   3.623   3.906   7.133  0.5170 -2.2016  1.3599
 8494SOL    HW237116   3.522   3.843   7.211  2.4164  0.6631  0.8710
 8495SOL     OW37117   4.182   1.644   7.764  0.2233  0.2664 -0.1119
 8495SOL    HW137118   4.160   1.597   7.844  0.0515 -0.5803 -0.6610
 8495SOL    HW237119   4.124   1.720   7.762 -0.2898 -0.0813  1.8919
 8496SOL     OW37120   2.192   2.852   3.162  0.0113  0.0912 -0.3909
 8496SOL    HW137121   2.106   2.865   3.122  0.1206 -0.7199 -0.8994
 8496SOL    HW237122   2.259   2.863   3.094 -0.1495  0.8258 -0.4308
 8497SOL     OW37123   4.024   4.449   4.685  0.2959 -0.0749  0.6288
 8497SOL    HW137124   3.966   4.403   4.745 -2.2045  0.2716 -1.4855
 8497SOL    HW237125   3.985   4.537   4.686  0.6279  0.0872 -0.2844
 8498SOL     OW37126   2.616   0.932  10.697 -0.1372  0.8629 -0.3046
 8498SOL    HW137127   2.596   1.012  10.649 -0.8674  1.4557  0.9806
 8498SOL    HW237128   2.532   0.893  10.722 -0.0464  0.4317 -0.6808
 8499SOL     OW37129   1.788   1.027  11.063 -0.6975 -0.3216  0.0729
 8499SOL    HW137130   1.821   1.101  11.013  0.4944 -2.3732 -2.2003
 8499SOL    HW237131   1.794   1.061  11.153  1.3496 -3.7259  1.2253
 8500SOL     OW37132   4.267   3.067   0.830 -0.0501  0.1547  0.3738
 8500SOL    HW137133   4.339   3.033   0.776  0.6664 -2.6418  3.1340
 8500SOL    HW237134   4.190   3.028   0.788  0.3199 -0.5412  0.3333
 8501SOL     OW37135   0.200   1.756   8.823 -0.3912  0.2550  0.6192
 8501SOL    HW137136   0.204   1.726   8.914  2.1163 -2.2498 -0.3275
 8501SOL    HW237137   0.105   1.760   8.809 -0.1957  0.1646 -0.6737
 8502SOL     OW37138   3.756   4.076   8.784  0.1052  0.3211 -0.7550
 8502SOL    HW137139   3.839   4.115   8.814  0.1982 -1.3520  1.1972
 8502SOL    HW237140   3.701   4.086   8.862  2.0315 -0.0092  0.6643
 8503SOL     OW37141   3.940   1.467  16.790  0.1929 -0.5638  0.1804
 8503SOL    HW137142   3.846   1.465  16.768  0.1707 -2.4106  0.5107
 8503SOL    HW237143   3.929   1.426  16.876  0.4681  2.3993  1.6615
 8504SOL     OW37144   0.012   3.113  11.586 -0.4608 -0.4999  0.1053
 8504SOL    HW137145   4.680   3.112  11.524 -0.2742 -2.2403 -0.0788
 8504SOL    HW237146   0.038   3.205  11.593 -0.5072 -0.5664  1.1331
 8505SOL     OW37147   3.751   2.592   7.053 -0.1370  0.1705 -0.0827
 8505SOL    HW137148   3.816   2.662   7.056 -1.3233  1.2440  0.7071
 8505SOL    HW237149   3.802   2.518   7.086  0.4006 -0.1763 -1.6809
 8506SOL     OW37150   4.213   2.815   0.494  0.3417 -0.0198 -0.0440
 8506SOL    HW137151   4.282   2.817   0.428  1.5085  0.4539  1.1944
 8506SOL    HW237152   4.208   2.722   0.513 -1.5498 -0.0773 -0.8166
 8507SOL     OW37153   1.267   1.577   8.427  0.4223 -0.0634 -0.3867
 8507SOL    HW137154   1.236   1.507   8.369  0.0039  1.3281 -1.8451
 8507SOL    HW237155   1.338   1.528   8.469  0.4509  0.5558  0.2867
 8508SOL     OW37156   0.193   2.788   4.236  0.0959  0.1171 -0.7092
 8508SOL    HW137157   0.236   2.784   4.151 -1.8048  1.8237 -1.7405
 8508SOL    HW237158   0.194   2.694   4.255 -0.4309  0.0224 -1.1314
 8509SOL     OW37159   0.310   0.781  14.820  0.2236 -0.3121 -0.0400
 8509SOL    HW137160   0.236   0.842  14.825  2.0652  2.0455 -1.7328
 8509SOL    HW237161   0.317   0.773  14.725 -0.1201 -1.1732  0.0070
 8510SOL     OW37162   4.459   4.144   3.562 -0.4436  0.1217 -0.0484
 8510SOL    HW137163   4.462   4.184   3.649 -3.4661 -0.8389  0.4935
 8510SOL    HW237164   4.450   4.052   3.584 -0.5215 -0.1290 -1.1300
 8511SOL     OW37165   0.936   2.814  12.867 -0.0901  0.1458  0.3188
 8511SOL    HW137166   0.998   2.813  12.793  0.3125  2.4138  0.6286
 8511SOL    HW237167   0.888   2.731  12.858 -1.6821  1.0635  0.2864
 8512SOL     OW37168   2.549   2.309  16.262  0.3835  0.1277  0.7758
 8512SOL    HW137169   2.482   2.320  16.194 -0.6987 -0.3891  1.7505
 8512SOL    HW237170   2.591   2.230  16.228  1.9361  2.1189 -1.9710
 8513SOL     OW37171   0.136   2.490   6.852 -0.5968  0.2902  0.0310
 8513SOL    HW137172   0.110   2.451   6.769  1.0976 -1.6512  0.4278
 8513SOL    HW237173   0.225   2.460   6.867 -0.0729  1.8338  0.0055
 8514SOL     OW37174   1.427   1.778   7.348  0.5861  0.3012  0.0288
 8514SOL    HW137175   1.475   1.796   7.267 -0.5269  0.7585 -0.5378
 8514SOL    HW237176   1.458   1.852   7.399  0.5438 -1.3100  2.3646
 8515SOL     OW37177   2.534   2.551   7.597  0.1527  0.4310 -0.2357
 8515SOL    HW137178   2.540   2.479   7.535 -0.1739  0.0623  0.1613
 8515SOL    HW237179   2.608   2.547   7.657  0.2965  1.1641 -0.3544
 8516SOL     OW37180   3.294   1.346   8.364  0.1172  0.6126 -0.0779
 8516SOL    HW137181   3.372   1.371   8.413  0.0938  0.9020 -0.1890
 8516SOL    HW237182   3.330   1.259   8.349 -1.1211  0.4249 -1.9508
 8517SOL     OW37183   0.179   0.268  17.603  0.0157 -0.3571  0.0335
 8517SOL    HW137184   0.228   0.187  17.619  0.1482  0.2534  2.7838
 8517SOL    HW237185   0.098   0.249  17.650 -0.2017  0.1126 -0.1591
 8518SOL     OW37186   2.659   3.217   1.864  0.2003 -0.0551  0.7492
 8518SOL    HW137187   2.755   3.221   1.863  0.0881  2.6483  2.1316
 8518SOL    HW237188   2.647   3.123   1.850  0.3235  0.2883 -1.6136
 8519SOL     OW37189   2.258   0.517   2.057  0.2318 -0.6565 -0.2249
 8519SOL    HW137190   2.231   0.608   2.039 -1.3460 -0.8239  1.2971
 8519SOL    HW237191   2.182   0.462   2.073 -2.1158  2.5913 -0.2809
 8520SOL     OW37192   0.179   4.339   1.674 -0.1285 -0.2927 -0.6493
 8520SOL    HW137193   0.218   4.426   1.682 -2.8751  0.9327 -0.7685
 8520SOL    HW237194   0.101   4.361   1.623 -0.1557 -0.1589 -0.5498
 8521SOL     OW37195   0.159   4.265  11.271  0.6989 -0.1827  0.3273
 8521SOL    HW137196   0.196   4.300  11.352 -3.0914 -0.3706  2.1517
 8521SOL    HW237197   0.241   4.261  11.223  1.4315 -1.2124  1.6656
 8522SOL     OW37198   2.742   3.313   5.798  0.1525 -0.1066  0.3840
 8522SOL    HW137199   2.724   3.401   5.766 -0.3364  0.0991  1.2411
 8522SOL    HW237200   2.774   3.340   5.884 -1.7637 -1.7264  1.5881
 8523SOL     OW37201   0.168   2.004   8.059  0.2637  0.0184 -0.1392
 8523SOL    HW137202   0.172   2.013   7.963  1.1565 -0.4865 -0.1398
 8523SOL    HW237203   0.254   1.980   8.092  0.4350  1.3119  0.3594
 8524SOL     OW37204   3.500   4.719   5.581  0.2677  0.4156  0.2213
 8524SOL    HW137205   3.582   0.028   5.573 -0.3030  1.1875 -0.8249
 8524SOL    HW237206   3.488   4.693   5.490  0.6086  0.6028  0.1242
 8525SOL     OW37207   3.546   3.159   8.422  0.1586 -0.1401 -0.1684
 8525SOL    HW137208   3.641   3.159   8.438 -0.0937 -3.0788  1.2777
 8525SOL    HW237209   3.531   3.113   8.504 -1.5370 -0.3431 -0.5970
 8526SOL     OW37210   4.514   4.716   6.178  0.1138 -0.4840 -0.8591
 8526SOL    HW137211   4.500   0.021   6.261 -0.7325  2.6468 -2.7099
 8526SOL    HW237212   4.431   4.669   6.181 -1.3942  2.2790  0.7344
 8527SOL     OW37213   0.459   3.697   1.231  0.1108 -0.6482 -0.0752
 8527SOL    HW137214   0.548   3.712   1.199  0.3143 -1.1248  0.2694
 8527SOL    HW237215   0.453   3.601   1.226 -0.2820 -0.5991 -0.6286
 8528SOL     OW37216   4.126   1.257   7.286  0.0516 -0.0982 -0.8279
 8528SOL    HW137217   4.187   1.189   7.259  0.1548 -0.3404  0.0319
 8528SOL    HW237218   4.071   1.267   7.208  0.5682 -1.4169 -1.3557
 8529SOL     OW37219   3.225   2.948   4.985 -0.4758  0.1883  0.0614
 8529SOL    HW137220   3.164   2.916   5.051 -0.6942 -2.3641 -1.3626
 8529SOL    HW237221   3.167   2.990   4.921  0.3817 -2.4086 -2.4355
 8530SOL     OW37222   4.137   1.722   5.120  0.1755 -0.0393 -0.5680
 8530SOL    HW137223   4.184   1.805   5.125  1.5799 -0.9076  0.8231
 8530SOL    HW237224   4.194   1.662   5.168  0.7698 -2.5711 -4.4454
 8531SOL     OW37225   0.211   3.808   1.534 -0.2360  0.2550 -0.5196
 8531SOL    HW137226   0.177   3.883   1.583 -1.4231 -0.0882 -0.8150
 8531SOL    HW237227   0.261   3.849   1.463  0.6140  1.3817  0.7149
 8532SOL     OW37228   2.719   0.113   8.847 -0.3401 -0.2705  0.1856
 8532SOL    HW137229   2.680   0.032   8.815 -2.1040  0.6198  0.0951
 8532SOL    HW237230   2.644   0.159   8.884 -0.8057 -0.6827 -0.2484
 8533SOL     OW37231   3.320   4.495   4.772  0.3005  0.0621  0.2633
 8533SOL    HW137232   3.267   4.531   4.701 -1.0820 -0.9055  0.8018
 8533SOL    HW237233   3.270   4.421   4.807  1.7502 -0.9193  0.2548
 8534SOL     OW37234   1.403   2.055   7.048  0.0096  0.0087  0.7222
 8534SOL    HW137235   1.352   1.994   6.993 -0.0275  2.7534 -2.2761
 8534SOL    HW237236   1.472   2.086   6.989  0.8391 -3.0040  0.1053
 8535SOL     OW37237   1.070   2.283   8.310  0.1551  0.1137 -0.5323
 8535SOL    HW137238   1.009   2.233   8.364 -0.6267 -0.3458 -1.8323
 8535SOL    HW237239   1.123   2.322   8.379 -0.4668 -0.3766  0.2159
 8536SOL     OW37240   3.645   1.018  12.835  0.1867  0.2099 -0.5806
 8536SOL    HW137241   3.588   1.094  12.845 -0.0884 -0.2738  1.4036
 8536SOL    HW237242   3.727   1.068  12.830 -0.0071  0.6159  0.3914
 8537SOL     OW37243   2.514   3.433  17.395  0.3453 -0.0435  0.0056
 8537SOL    HW137244   2.572   3.357  17.398  1.4797  0.6627 -3.1272
 8537SOL    HW237245   2.569   3.485  17.336 -0.0414 -1.1360 -1.3204
 8538SOL     OW37246   4.409   1.383  12.292  0.4975  0.4062  0.0883
 8538SOL    HW137247   4.346   1.429  12.347  1.9492  0.1229  2.0134
 8538SOL    HW237248   4.355   1.331  12.232  2.2658 -0.8624 -0.4267
 8539SOL     OW37249   0.706   2.529  12.863 -0.8862 -0.1273 -0.9878
 8539SOL    HW137250   0.736   2.533  12.954  0.3566 -0.1788 -1.3955
 8539SOL    HW237251   0.729   2.438  12.848  0.2815 -0.1533  1.0473
 8540SOL     OW37252   2.735   2.248   9.021 -0.1827 -0.0407  0.3285
 8540SOL    HW137253   2.788   2.244   8.941 -1.3030 -0.2542 -0.4073
 8540SOL    HW237254   2.654   2.212   8.985 -0.2552  0.9784 -0.5275
 8541SOL     OW37255   1.348   2.980   6.612  0.1715 -0.6187 -0.6632
 8541SOL    HW137256   1.335   3.069   6.646 -2.0180  0.3317 -4.0646
 8541SOL    HW237257   1.281   2.923   6.651  0.1044 -0.6633 -0.8432
 8542SOL     OW37258   0.054   2.470   0.560  0.1482 -0.3149  0.0523
 8542SOL    HW137259   0.016   2.550   0.598 -0.1485 -1.7650  2.8468
 8542SOL    HW237260   0.101   2.500   0.482  0.0826 -1.4932 -0.4295
 8543SOL     OW37261   4.517   3.624  10.117 -0.1909 -0.4700 -0.3183
 8543SOL    HW137262   4.448   3.586  10.062 -0.9824  1.0763 -0.4045
 8543SOL    HW237263   4.576   3.549  10.107  1.5318  0.8106  0.3110
 8544SOL     OW37264   2.875   3.351   6.554  0.3046 -0.4237 -0.5530
 8544SOL    HW137265   2.966   3.378   6.569 -0.2520  0.5088  1.2234
 8544SOL    HW237266   2.892   3.299   6.476  2.0003  0.0196 -0.4940
 8545SOL     OW37267   0.712   3.750   1.115  0.4307  0.9101  0.2295
 8545SOL    HW137268   0.787   3.709   1.071 -0.3740 -0.3493  0.0215
 8545SOL    HW237269   0.678   3.801   1.041 -2.6955  0.2221  1.1634
 8546SOL     OW37270   4.426   3.498  15.400 -0.5714 -0.9680  0.4881
 8546SOL    HW137271   4.399   3.583  15.437 -0.5537 -1.0281  0.6396
 8546SOL    HW237272   4.518   3.516  15.421 -0.9867  0.1785  1.3470
 8547SOL     OW37273   3.268   2.457   4.587  0.0028 -0.0635  0.1420
 8547SOL    HW137274   3.235   2.389   4.529  1.9291 -0.0150 -1.0164
 8547SOL    HW237275   3.363   2.448   4.584  0.4280  4.2545  0.3142
 8548SOL     OW37276   1.264   1.247   7.335  0.7258 -0.4762  0.1528
 8548SOL    HW137277   1.278   1.182   7.405  0.3785 -0.3236  0.3612
 8548SOL    HW237278   1.244   1.189   7.261 -0.4434 -0.3605  0.3763
 8549SOL     OW37279   4.548   4.136   4.473 -0.2666  0.0662 -0.1449
 8549SOL    HW137280   4.457   4.124   4.500  0.4263  1.8109  2.9861
 8549SOL    HW237281   4.549   4.161   4.381 -2.5030 -0.2174 -0.2575
 8550SOL     OW37282   1.769   3.720   9.418  0.6442 -0.2658  0.2473
 8550SOL    HW137283   1.768   3.795   9.478 -0.3733 -1.0142  1.1747
 8550SOL    HW237284   1.763   3.761   9.332 -0.6357  0.3663  0.6365
 8551SOL     OW37285   3.755   0.216   9.114 -0.0281  0.0088  0.3433
 8551SOL    HW137286   3.847   0.237   9.131  0.3630 -2.5412  1.3805
 8551SOL    HW237287   3.719   0.304   9.129 -1.0530 -0.5778  1.3128
 8552SOL     OW37288   3.487   0.037  12.634 -0.0530 -0.0317 -0.3567
 8552SOL    HW137289   3.579   0.041  12.661 -0.5485  0.8348  1.2015
 8552SOL    HW237290   3.482   4.691  12.595  1.0304 -0.0398 -0.4653
 8553SOL     OW37291   1.529   0.021  13.323 -0.4249 -0.1756  0.1907
 8553SOL    HW137292   1.552   4.729  13.410 -4.1051 -0.9491  0.9115
 8553SOL    HW237293   1.535   0.116  13.330 -1.1677  0.1851 -4.5112
 8554SOL     OW37294   3.723   3.765   3.802  0.1920 -0.2677 -0.1097
 8554SOL    HW137295   3.815   3.746   3.817  0.1118 -0.5584  0.0305
 8554SOL    HW237296   3.683   3.679   3.788 -1.2347  0.6141 -1.4400
 8555SOL     OW37297   0.258   0.861   2.915  0.0120 -0.0853 -0.0882
 8555SOL    HW137298   0.266   0.955   2.930  0.0509 -0.0769 -0.1616
 8555SOL    HW237299   0.279   0.864   2.821  0.3993 -0.6957 -0.0230
 8556SOL     OW37300   1.824   2.035   3.783 -0.4250  0.7089  0.0180
 8556SOL    HW137301   1.902   2.020   3.729 -0.3861 -0.2014  0.3140
 8556SOL    HW237302   1.752   2.024   3.721  0.2659  0.0382 -0.6825
 8557SOL     OW37303   4.521   2.288   4.851  0.6552  0.7161  0.1536
 8557SOL    HW137304   4.510   2.336   4.769 -0.5068  2.1763  1.1827
 8557SOL    HW237305   4.614   2.265   4.841  0.7032  0.8846  0.2009
 8558SOL     OW37306   3.979   2.251   2.900 -0.4183  0.1084 -0.7273
 8558SOL    HW137307   3.917   2.317   2.932  1.9252  0.7964  2.4485
 8558SOL    HW237308   3.942   2.236   2.813  1.0146 -0.6641 -1.2117
 8559SOL     OW37309   1.942   3.624   8.220 -0.5047 -0.1090 -0.4330
 8559SOL    HW137310   1.906   3.680   8.289  0.4212  0.3058 -0.2914
 8559SOL    HW237311   2.011   3.684   8.194  0.6194 -0.7298  1.1855
 8560SOL     OW37312   0.435   1.872   6.171  0.1423  0.4528 -0.2170
 8560SOL    HW137313   0.359   1.825   6.137  0.5078  0.1131 -0.5616
 8560SOL    HW237314   0.488   1.797   6.194  0.8068  1.1451  0.5041
 8561SOL     OW37315   1.886   0.371   8.468 -0.1407 -0.0205 -0.4671
 8561SOL    HW137316   1.827   0.384   8.541  1.0152  2.1160  0.0972
 8561SOL    HW237317   1.842   0.306   8.413  0.6222 -0.3687 -0.6731
 8562SOL     OW37318   2.044   0.317   6.420  0.0347  0.1846  0.9843
 8562SOL    HW137319   1.971   0.318   6.482  0.1303  3.6431  1.0192
 8562SOL    HW237320   2.015   0.382   6.356 -0.3841 -1.5303 -0.5708
 8563SOL     OW37321   2.398   3.816  14.482  0.1904 -0.1007  0.3267
 8563SOL    HW137322   2.323   3.765  14.450  0.8767 -0.9879  0.1185
 8563SOL    HW237323   2.406   3.779  14.570  1.5726  1.3191  0.7914
 8564SOL     OW37324   0.147   4.053   4.996 -0.5696 -0.3333  0.1436
 8564SOL    HW137325   0.151   3.957   4.997  1.1356 -0.2774 -0.6891
 8564SOL    HW237326   0.068   4.073   4.947 -0.7241 -2.4017 -0.4575
 8565SOL     OW37327   0.502   3.389  11.130  0.3182  0.1795  0.2494
 8565SOL    HW137328   0.500   3.387  11.035  0.4372  0.8220  0.2314
 8565SOL    HW237329   0.448   3.466  11.147  1.5742  0.5192  2.7978
 8566SOL     OW37330   2.893   4.713   6.091  0.0908  0.7530  0.2318
 8566SOL    HW137331   2.838   0.012   6.159 -0.0758  0.9781 -0.0363
 8566SOL    HW237332   2.939   4.644   6.138  1.6347  0.5538 -1.5890
 8567SOL     OW37333   1.912   2.580  16.077 -0.4346  0.1075  0.8681
 8567SOL    HW137334   1.834   2.525  16.067 -0.3130  0.0969 -0.0356
 8567SOL    HW237335   1.902   2.656  16.020 -0.5619  0.3199  1.1720
 8568SOL     OW37336   4.091   3.922   2.590 -0.1299  0.9575 -0.1505
 8568SOL    HW137337   4.025   3.852   2.591  1.3636 -0.4103  1.8297
 8568SOL    HW237338   4.136   3.891   2.668 -0.3752 -0.5661 -0.6107
 8569SOL     OW37339   2.008   2.353  12.702 -0.2223 -0.4890 -0.0730
 8569SOL    HW137340   1.921   2.314  12.691 -1.4740  1.8639  1.3860
 8569SOL    HW237341   2.023   2.395  12.618  1.5181 -1.1447 -0.0739
 8570SOL     OW37342   0.887   1.127   4.979 -0.3062 -0.1634 -0.4867
 8570SOL    HW137343   0.897   1.048   5.031  1.4100 -0.6557 -1.5784
 8570SOL    HW237344   0.893   1.099   4.888  2.6057  2.3719 -1.0624
 8571SOL     OW37345   3.427   1.227   5.635 -0.4901 -0.1887 -0.4711
 8571SOL    HW137346   3.492   1.269   5.578 -2.4434  2.0215 -1.0951
 8571SOL    HW237347   3.454   1.136   5.631  0.2409 -0.0289  0.7973
 8572SOL     OW37348   1.097   0.874   8.806  0.3759 -0.3408  0.1068
 8572SOL    HW137349   1.057   0.858   8.892 -1.2724  1.5844 -0.3200
 8572SOL    HW237350   1.033   0.834   8.747 -1.5666  2.3201  0.4393
 8573SOL     OW37351   2.523   3.289   7.068 -0.2327 -0.0598  0.1887
 8573SOL    HW137352   2.513   3.292   6.973  4.5700 -0.4720 -0.3386
 8573SOL    HW237353   2.569   3.205   7.074  1.2086  0.6028 -2.0228
 8574SOL     OW37354   0.819   2.644   5.627  0.2815 -0.3785 -0.0887
 8574SOL    HW137355   0.894   2.702   5.615  1.4143 -1.6373  0.9827
 8574SOL    HW237356   0.765   2.696   5.686  1.3740 -1.2675  1.6822
 8575SOL     OW37357   2.128   1.153   3.394 -0.1970 -0.0354 -0.0873
 8575SOL    HW137358   2.103   1.159   3.302  1.5601 -2.3276 -0.7204
 8575SOL    HW237359   2.058   1.204   3.435 -1.2410 -1.2679 -0.3650
 8576SOL     OW37360   1.289   4.023   2.857  0.0819  0.3471 -0.1068
 8576SOL    HW137361   1.267   3.980   2.775 -1.3034  1.7620 -0.4772
 8576SOL    HW237362   1.221   3.993   2.917  1.0704  1.6629  1.6897
 8577SOL     OW37363   2.645   4.715   6.527 -0.1650 -0.2759  0.2954
 8577SOL    HW137364   2.563   0.012   6.494  0.1765  0.8629  0.7441
 8577SOL    HW237365   2.694   0.043   6.572 -0.8001  1.1560 -1.2074
 8578SOL     OW37366   1.205   2.658   5.390 -0.0069 -0.0870  0.0330
 8578SOL    HW137367   1.258   2.737   5.405 -0.0380 -0.0430 -0.0838
 8578SOL    HW237368   1.276   2.596   5.402 -1.0661 -1.6641 -1.8660
 8579SOL     OW37369   0.979   2.339   0.185 -0.4944  0.9540  0.7884
 8579SOL    HW137370   0.960   2.254   0.146  0.2358  2.3513 -2.6064
 8579SOL    HW237371   1.021   2.386   0.114  0.6591  1.3068  1.7027
 8580SOL     OW37372   1.651   2.424   1.718  0.0431 -0.1553 -0.2501
 8580SOL    HW137373   1.672   2.498   1.776 -1.7339  0.7127 -0.7220
 8580SOL    HW237374   1.730   2.412   1.665  0.1226 -5.2644  1.0487
 8581SOL     OW37375   0.086   3.472   8.734 -0.1109  0.4782 -0.1563
 8581SOL    HW137376   0.176   3.450   8.708  0.0374  0.1873  0.6022
 8581SOL    HW237377   0.067   3.397   8.791 -0.5181  0.5708 -0.1694
 8582SOL     OW37378   3.077   3.507   4.535 -0.1794  0.3157  0.0659
 8582SOL    HW137379   3.085   3.471   4.623 -1.0638 -1.5755 -0.6299
 8582SOL    HW237380   3.170   3.527   4.523 -0.1705 -1.1074 -2.2403
 8583SOL     OW37381   4.623   4.347  16.835  0.4530 -0.4713  0.3148
 8583SOL    HW137382   4.629   4.280  16.902 -0.3096 -1.1312 -0.2679
 8583SOL    HW237383   4.708   4.344  16.791 -0.0424 -0.9881 -0.5979
 8584SOL     OW37384   1.125   3.163   2.496 -0.3943  0.4250  0.2540
 8584SOL    HW137385   1.113   3.077   2.457 -1.2986  0.5471  0.2515
 8584SOL    HW237386   1.112   3.145   2.589 -0.0627  0.1503  0.2445
 8585SOL     OW37387   0.309   2.730   3.974 -0.0351 -0.1099  0.0656
 8585SOL    HW137388   0.309   2.637   3.954  0.8523 -0.2175  0.5701
 8585SOL    HW237389   0.403   2.750   3.974 -0.0243 -0.1880 -2.0866
 8586SOL     OW37390   1.125   1.992   5.084 -0.1744 -0.1952 -0.3069
 8586SOL    HW137391   1.121   2.050   5.008  0.3200 -1.7399 -1.5248
 8586SOL    HW237392   1.032   1.969   5.085 -0.1195 -0.4573 -1.1446
 8587SOL     OW37393   3.678   1.500   0.956 -0.2059 -0.0112  0.5879
 8587SOL    HW137394   3.717   1.456   1.032 -0.7555  0.8782  1.3884
 8587SOL    HW237395   3.750   1.555   0.924 -1.7289  1.4869 -0.2192
 8588SOL     OW37396   3.074   2.236  13.665  0.2088  0.3849  0.0169
 8588SOL    HW137397   2.981   2.216  13.674 -0.1320  2.1621  0.4502
 8588SOL    HW237398   3.066   2.326  13.695  0.8569  0.8635 -1.2655
 8589SOL     OW37399   4.354   4.603   3.437  0.1717 -0.1503  0.1095
 8589SOL    HW137400   4.353   4.699   3.428  1.0724  0.0007  1.6689
 8589SOL    HW237401   4.421   4.581   3.373  2.2087  0.1601  2.1461
 8590SOL     OW37402   1.066   1.032   2.903 -0.0733 -0.4202  0.1274
 8590SOL    HW137403   1.009   0.978   2.849 -0.7314 -1.8027  2.1750
 8590SOL    HW237404   1.148   0.991   2.877  1.2806  2.0127  0.5606
 8591SOL     OW37405   3.113   2.629   8.980 -0.0759  0.0068  0.0062
 8591SOL    HW137406   3.045   2.567   9.006  0.7911 -1.4953 -1.2494
 8591SOL    HW237407   3.046   2.695   8.964 -0.4718 -0.3051  0.3580
 8592SOL     OW37408   0.565   1.402  10.710 -0.1552 -0.1321 -0.3965
 8592SOL    HW137409   0.504   1.433  10.776  0.6728 -1.5311  1.0604
 8592SOL    HW237410   0.638   1.376  10.768  0.3660  3.3409  0.5118
 8593SOL     OW37411   0.276   4.119   6.297 -0.1584  0.7834  0.0388
 8593SOL    HW137412   0.323   4.117   6.381 -0.8546 -1.0869  0.3914
 8593SOL    HW237413   0.182   4.126   6.316  0.1714  2.9333  0.8931
 8594SOL     OW37414   3.738   4.492  12.457 -0.4020  0.3208  0.2063
 8594SOL    HW137415   3.712   4.471  12.367  0.0142 -0.9600  0.3856
 8594SOL    HW237416   3.655   4.521  12.495 -1.2124 -0.3618 -1.0251
 8595SOL     OW37417   2.611   1.277   7.220 -0.2901 -0.1267 -0.1738
 8595SOL    HW137418   2.589   1.311   7.133 -1.5532 -0.8708 -0.1361
 8595SOL    HW237419   2.536   1.312   7.267  0.2046 -0.0126  0.5384
 8596SOL     OW37420   2.830   3.043   3.712 -0.6511  0.1567  0.0394
 8596SOL    HW137421   2.819   3.073   3.802  1.3460 -1.9108  0.9814
 8596SOL    HW237422   2.827   3.131   3.674 -0.1986 -0.2034 -0.8093
 8597SOL     OW37423   3.923   2.828   3.826  0.6366 -0.2127 -0.3353
 8597SOL    HW137424   3.896   2.739   3.850 -1.7689  0.7306  0.4177
 8597SOL    HW237425   3.963   2.820   3.739  2.8161  1.8141  0.4798
 8598SOL     OW37426   1.903   3.491   7.000 -0.0729 -0.2090  0.7115
 8598SOL    HW137427   1.981   3.528   7.043  0.3861  1.0245 -1.1580
 8598SOL    HW237428   1.913   3.525   6.911  2.3197 -1.6534  0.4220
 8599SOL     OW37429   3.251   0.775   7.770  0.8948 -0.1812  0.1958
 8599SOL    HW137430   3.259   0.745   7.679 -0.7612 -0.4314  0.1310
 8599SOL    HW237431   3.321   0.839   7.779  1.4511 -0.9060  1.0228
 8600SOL     OW37432   3.916   4.227   6.125  0.3082 -0.2032 -0.5540
 8600SOL    HW137433   3.827   4.195   6.137  0.3978  0.5288  2.0972
 8600SOL    HW237434   3.936   4.180   6.045 -0.3047  0.6484 -1.2091
 8601SOL     OW37435   1.096   3.592  12.912  0.3534  0.0109 -0.3071
 8601SOL    HW137436   1.155   3.601  12.837 -0.5283  1.4552 -0.8260
 8601SOL    HW237437   1.113   3.505  12.947  1.0018  0.1774 -0.2024
 8602SOL     OW37438   0.006   4.460  16.125  0.0669 -1.0221  0.2436
 8602SOL    HW137439   4.667   4.492  16.082 -0.1682 -1.0002  0.7023
 8602SOL    HW237440   0.008   4.511  16.205  1.8734 -0.8277  0.0664
 8603SOL     OW37441   0.838   3.223   1.429 -0.6958 -0.7373 -1.0049
 8603SOL    HW137442   0.856   3.148   1.486  1.3997 -0.8439 -1.8079
 8603SOL    HW237443   0.753   3.258   1.456  0.3185  0.6648  0.3134
 8604SOL     OW37444   1.356   2.208   3.162 -0.4448  0.1471 -0.1239
 8604SOL    HW137445   1.309   2.154   3.099 -0.2343 -0.6716  0.4222
 8604SOL    HW237446   1.319   2.295   3.148 -1.0441  0.1779  1.6278
 8605SOL     OW37447   1.223   2.555   0.461 -0.5141  0.1076  0.4933
 8605SOL    HW137448   1.242   2.553   0.367  2.1589 -0.1753  1.0410
 8605SOL    HW237449   1.192   2.465   0.470  1.8226 -0.4311  3.0139
 8606SOL     OW37450   2.876   2.725  12.603 -0.6007 -0.1969 -0.4598
 8606SOL    HW137451   2.791   2.750  12.639 -1.6321 -2.8740 -0.9853
 8606SOL    HW237452   2.914   2.810  12.584 -0.8655 -0.1927 -0.9679
 8607SOL     OW37453   3.611   1.275   6.098 -0.2609 -0.4962  0.2016
 8607SOL    HW137454   3.639   1.319   6.178 -0.4522 -2.2034  1.2073
 8607SOL    HW237455   3.585   1.349   6.043 -0.0280 -0.1612  0.5382
 8608SOL     OW37456   0.881   4.611   4.911  0.2469  0.0072  0.0745
 8608SOL    HW137457   0.950   4.552   4.941 -0.3996 -1.7347 -1.8842
 8608SOL    HW237458   0.926   4.696   4.910 -2.3879  1.4284 -0.0278
 8609SOL     OW37459   1.022   3.601  16.548 -0.0732 -0.4346  0.1424
 8609SOL    HW137460   0.941   3.652  16.545  0.0284 -0.1826  1.7736
 8609SOL    HW237461   1.050   3.640  16.631  1.3132 -4.7814  1.7420
 8610SOL     OW37462   0.406   4.719   3.597 -0.0305  0.1578  0.1414
 8610SOL    HW137463   0.469   0.034   3.551  0.7628  0.8061  1.9921
 8610SOL    HW237464   0.433   0.013   3.683  4.7154 -4.6521  0.6028
 8611SOL     OW37465   3.919   1.614   2.141  0.2964  0.0697  0.8252
 8611SOL    HW137466   4.004   1.630   2.182  0.3148  3.1323 -0.4187
 8611SOL    HW237467   3.880   1.702   2.144  0.2968  0.1329 -1.7544
 8612SOL     OW37468   3.794   3.053  12.294  0.1991 -0.3840 -0.1669
 8612SOL    HW137469   3.777   2.973  12.244  0.8954 -0.6777  0.0762
 8612SOL    HW237470   3.740   3.117  12.247  0.2376  1.6165  2.4819
 8613SOL     OW37471   1.519   4.711   7.421  0.0491  0.6075  0.5299
 8613SOL    HW137472   1.582   0.024   7.373 -2.1521 -0.4890 -3.5730
 8613SOL    HW237473   1.451   0.037   7.429 -1.6900 -1.4038  2.7762
 8614SOL     OW37474   1.598   4.516   3.116  0.1118 -0.3123 -0.0899
 8614SOL    HW137475   1.607   4.425   3.143  0.3159  0.0001  0.9027
 8614SOL    HW237476   1.683   4.554   3.138 -0.4944  0.8976  0.1773
 8615SOL     OW37477   4.541   1.980   5.431 -0.4338 -0.0325  0.1969
 8615SOL    HW137478   4.529   1.911   5.497  2.6017  1.0487  1.9206
 8615SOL    HW237479   4.536   1.920   5.357 -0.4577 -0.4175  0.5077
 8616SOL     OW37480   3.671   0.199  11.707  0.1557  0.1376  0.2163
 8616SOL    HW137481   3.583   0.229  11.729  0.7191  1.5179  0.5955
 8616SOL    HW237482   3.723   0.219  11.785  3.3420  1.1435 -2.1236
 8617SOL     OW37483   2.611   0.181   9.566 -0.2805  0.1984  0.0629
 8617SOL    HW137484   2.661   0.236   9.625 -2.2734 -1.6005  3.4202
 8617SOL    HW237485   2.543   0.152   9.627 -0.1173 -2.8538 -1.2186
 8618SOL     OW37486   1.469   3.926   9.263 -0.1071  0.1215  0.0780
 8618SOL    HW137487   1.544   3.880   9.225 -2.3468 -3.3612 -0.0704
 8618SOL    HW237488   1.402   3.860   9.280  0.4557 -0.1995  1.0199
 8619SOL     OW37489   3.473   0.176  10.098 -0.4401  0.0633 -0.4803
 8619SOL    HW137490   3.536   0.188  10.169 -0.7733  0.8927 -0.3228
 8619SOL    HW237491   3.420   0.112  10.147  0.5503 -1.9832 -2.1115
 8620SOL     OW37492   0.688   3.945  17.342 -0.1327  0.0559 -0.4907
 8620SOL    HW137493   0.617   4.006  17.323  0.6690  0.8079 -1.1093
 8620SOL    HW237494   0.692   3.886  17.267 -1.4787  0.7516 -1.0987
 8621SOL     OW37495   3.122   2.131   2.253  0.2604 -0.1099  0.0627
 8621SOL    HW137496   3.087   2.120   2.342  0.0961  2.7027  0.3247
 8621SOL    HW237497   3.042   2.114   2.203  0.5405  0.4205 -0.5673
 8622SOL     OW37498   0.099   2.658  15.227 -0.1489 -0.4961 -0.1839
 8622SOL    HW137499   0.015   2.695  15.201 -1.3434 -1.4383  2.2310
 8622SOL    HW237500   0.098   2.647  15.322 -0.1241  0.7536 -0.0430
 8623SOL     OW37501   3.023   1.057   8.108 -0.0918 -0.0576 -0.3869
 8623SOL    HW137502   3.033   1.055   8.013 -0.4098 -0.5971 -0.4080
 8623SOL    HW237503   3.057   0.971   8.132 -0.7891  0.4203  2.3148
 8624SOL     OW37504   1.227   0.507  13.374 -0.2850  0.3888  0.4253
 8624SOL    HW137505   1.305   0.474  13.419  0.6055 -0.6207 -1.8394
 8624SOL    HW237506   1.249   0.600  13.366  3.5178 -0.4372  1.3146
 8625SOL     OW37507   1.271   0.620  12.154  1.4692  0.1403  0.3659
 8625SOL    HW137508   1.351   0.666  12.127  0.3987  0.8201 -1.7106
 8625SOL    HW237509   1.206   0.690  12.149 -0.7611 -1.8668  1.7660
 8626SOL     OW37510   0.478   3.539  12.367 -0.7322  0.3784 -0.4733
 8626SOL    HW137511   0.401   3.485  12.352 -0.8281 -0.1241  1.8552
 8626SOL    HW237512   0.519   3.479  12.429 -1.0850 -0.3977 -0.9948
 8627SOL     OW37513   3.416   2.820  13.150 -0.0149  0.4168 -0.3306
 8627SOL    HW137514   3.449   2.797  13.064  0.6551 -0.2458  0.1052
 8627SOL    HW237515   3.447   2.910  13.158  2.0571 -0.5001  1.7612
 8628SOL     OW37516   3.990   3.303   5.424 -0.0796 -0.1094  0.3025
 8628SOL    HW137517   3.986   3.373   5.359  1.0923 -0.8333 -0.5397
 8628SOL    HW237518   3.933   3.347   5.488  1.2494 -0.7735  1.9505
 8629SOL     OW37519   3.006   1.954   7.968 -0.3535  0.0070 -0.3590
 8629SOL    HW137520   2.935   1.970   8.030 -1.1590 -0.1846 -1.2240
 8629SOL    HW237521   2.961   1.984   7.888 -1.6441 -0.6012  0.1398
 8630SOL     OW37522   1.429   2.295   2.846  0.5164  0.0365  0.2799
 8630SOL    HW137523   1.523   2.276   2.848 -0.0556 -2.7380  1.1143
 8630SOL    HW237524   1.388   2.218   2.885 -1.6075  0.2477 -1.5085
 8631SOL     OW37525   2.910   2.778   2.810  0.1306 -0.7922  0.0485
 8631SOL    HW137526   3.002   2.779   2.783 -0.3489 -1.1956 -1.6258
 8631SOL    HW237527   2.879   2.711   2.749 -1.7376 -0.2047  0.3820
 8632SOL     OW37528   0.592   3.341   1.476  0.1342  0.3123  0.0051
 8632SOL    HW137529   0.579   3.396   1.399  1.0452 -0.0418 -0.3999
 8632SOL    HW237530   0.538   3.387   1.540 -0.2596 -0.7086  0.4172
 8633SOL     OW37531   4.624   0.516   7.102 -0.0589 -0.3597  0.6786
 8633SOL    HW137532   4.656   0.425   7.104  1.1469  0.0676  0.9310
 8633SOL    HW237533   4.651   0.532   7.193  0.8778 -0.7148  0.4595
 8634SOL     OW37534   0.982   3.293   4.132 -0.4582 -0.6338 -0.5047
 8634SOL    HW137535   0.917   3.363   4.133 -0.0568 -0.2653  1.9134
 8634SOL    HW237536   0.922   3.219   4.128  1.1789 -2.0769  1.8456
 8635SOL     OW37537   3.974   3.082  17.286  0.2326 -0.5939  0.1325
 8635SOL    HW137538   3.971   3.072  17.191  0.5075 -1.0875  0.1763
 8635SOL    HW237539   4.058   3.128  17.284 -0.0476 -0.1038 -0.3559
 8636SOL     OW37540   1.192   2.877   3.776 -0.1637 -0.1965  0.2021
 8636SOL    HW137541   1.267   2.915   3.821 -1.5952 -0.6720  2.9585
 8636SOL    HW237542   1.189   2.788   3.811 -3.0613 -0.3397 -0.3416
 8637SOL     OW37543   1.178   4.232  12.135  0.1994  0.7515  0.1404
 8637SOL    HW137544   1.203   4.325  12.134  1.1751  0.5134  3.2341
 8637SOL    HW237545   1.204   4.216  12.225 -0.6937 -0.5428  0.1667
 8638SOL     OW37546   2.046   2.510  15.767 -0.0581  0.7792 -0.0374
 8638SOL    HW137547   2.082   2.438  15.820  1.3613  1.3701 -0.2093
 8638SOL    HW237548   1.953   2.489  15.771 -0.2484  1.7916  0.6767
 8639SOL     OW37549   3.596   3.016   4.264  0.0681  0.9273  0.2970
 8639SOL    HW137550   3.621   2.974   4.181 -0.7826 -0.6325  0.8300
 8639SOL    HW237551   3.598   2.938   4.319 -1.6318  2.0214  1.8786
 8640SOL     OW37552   4.527   3.752   2.943 -0.6333 -0.3184  0.1392
 8640SOL    HW137553   4.580   3.673   2.937  0.7488  0.6522 -0.5923
 8640SOL    HW237554   4.592   3.820   2.960  0.6612 -1.8225  1.1685
 8641SOL     OW37555   0.399   1.616   7.758 -0.0168  0.2500 -0.1844
 8641SOL    HW137556   0.435   1.562   7.829 -1.6963 -0.4641  0.1261
 8641SOL    HW237557   0.477   1.640   7.708  0.2431  0.4065  0.3010
 8642SOL     OW37558   3.331   3.778   5.271 -0.4243 -0.2268 -0.2921
 8642SOL    HW137559   3.277   3.841   5.223 -0.4668 -0.7178 -0.8900
 8642SOL    HW237560   3.266   3.708   5.276  0.0339 -0.6374 -0.1742
 8643SOL     OW37561   4.330   0.968   4.075  0.4283  0.4549  0.6683
 8643SOL    HW137562   4.273   0.898   4.109  0.5185  2.0732  4.1900
 8643SOL    HW237563   4.415   0.938   4.109  1.3027 -0.5590 -2.4051
 8644SOL     OW37564   1.580   0.188   8.318  0.5823  0.8723 -0.4157
 8644SOL    HW137565   1.668   0.158   8.295  0.5225  0.9981 -0.8059
 8644SOL    HW237566   1.567   0.132   8.395 -1.4383  3.0327  0.8253
 8645SOL     OW37567   4.575   3.343   1.462  0.3753 -0.1770  0.0265
 8645SOL    HW137568   4.516   3.379   1.395 -1.2685  0.7807  1.9760
 8645SOL    HW237569   4.623   3.426   1.468 -0.4578  0.4113 -1.3603
 8646SOL     OW37570   4.666   0.491  17.591  0.2787 -0.3857 -0.0975
 8646SOL    HW137571   4.627   0.543  17.660 -3.0476 -3.6138  0.4277
 8646SOL    HW237572   4.659   0.407  17.637 -1.4658 -0.7945 -1.1222
 8647SOL     OW37573   4.151   0.631   1.739  0.4450  0.3427 -0.1517
 8647SOL    HW137574   4.144   0.609   1.646  1.2773 -1.1104  0.1331
 8647SOL    HW237575   4.242   0.615   1.763  0.9141 -0.0553 -2.1540
 8648SOL     OW37576   2.821   4.596   8.284  0.5318 -0.0641 -0.6595
 8648SOL    HW137577   2.830   4.564   8.373 -1.9563 -1.6151 -0.9716
 8648SOL    HW237578   2.807   4.687   8.309  2.9954  0.1055  0.0929
 8649SOL     OW37579   4.580   0.703   6.423  0.5068 -0.0140  0.1537
 8649SOL    HW137580   4.586   0.797   6.409 -0.5985 -0.4727 -3.3634
 8649SOL    HW237581   4.673   0.678   6.423  0.7218  0.7667  1.1829
 8650SOL     OW37582   0.025   2.330  17.418 -0.2458 -0.1361  0.2911
 8650SOL    HW137583   4.678   2.364  17.400  0.0562  1.2972  1.5442
 8650SOL    HW237584   0.013   2.235  17.413 -2.1126  0.1758 -0.9358
 8651SOL     OW37585   3.680   3.634   7.985  0.3831  0.0300  0.2781
 8651SOL    HW137586   3.589   3.661   7.971  0.5630  0.0914 -0.8406
 8651SOL    HW237587   3.680   3.554   7.932  0.0129 -0.2389  0.6881
 8652SOL     OW37588   3.156   3.586   2.767  1.1231  0.0548 -0.2929
 8652SOL    HW137589   3.107   3.531   2.828  4.2572  1.4488  3.5138
 8652SOL    HW237590   3.228   3.525   2.749  2.7472  1.2142  2.2874
 8653SOL     OW37591   0.196   1.112   4.303  0.1304 -0.5447  0.2758
 8653SOL    HW137592   0.286   1.144   4.295  0.1092 -0.2511  1.2686
 8653SOL    HW237593   0.213   1.036   4.357  1.8615  0.3927  1.0720
 8654SOL     OW37594   3.183   2.620   5.959  0.0113  0.2257 -0.1902
 8654SOL    HW137595   3.145   2.650   5.877 -1.1192  1.5251  0.7877
 8654SOL    HW237596   3.232   2.549   5.919  0.3144  0.2781  0.0872
 8655SOL     OW37597   1.163   3.510   2.150 -0.4899 -0.4474  0.2605
 8655SOL    HW137598   1.084   3.497   2.097  0.6584 -2.1197 -0.9992
 8655SOL    HW237599   1.225   3.501   2.077  1.0172 -3.0046  1.8796
 8656SOL     OW37600   2.551   4.686   5.858  0.0633 -0.0494  0.4712
 8656SOL    HW137601   2.504   0.027   5.842  2.4016  1.6137  2.1679
 8656SOL    HW237602   2.540   4.648   5.770 -0.3138 -0.4950  0.7090
 8657SOL     OW37603   1.197   1.907   1.967 -0.0785 -0.3878 -0.6982
 8657SOL    HW137604   1.262   1.852   1.924  1.6630  1.3149 -0.2666
 8657SOL    HW237605   1.217   1.901   2.060  1.4359  1.1753 -0.9300
 8658SOL     OW37606   0.966   2.778   1.946  0.2080  0.0999 -0.1375
 8658SOL    HW137607   0.957   2.696   1.897 -0.8547  1.0803 -1.5745
 8658SOL    HW237608   0.874   2.804   1.957  0.5404  2.0538 -2.1093
 8659SOL     OW37609   3.334   4.394   5.651 -0.2691  0.5423  0.0539
 8659SOL    HW137610   3.316   4.351   5.567  1.7386  0.2376 -0.2146
 8659SOL    HW237611   3.429   4.405   5.646 -0.0670 -1.1423  0.2228
 8660SOL     OW37612   0.231   3.267  13.483 -0.5453 -0.2700  0.3788
 8660SOL    HW137613   0.297   3.210  13.523  1.2627 -0.1157 -2.3623
 8660SOL    HW237614   0.277   3.350  13.495  0.0128 -0.0920 -2.8718
 8661SOL     OW37615   3.547   0.817  13.283  0.0014 -0.0729 -0.2820
 8661SOL    HW137616   3.473   0.845  13.229 -0.4541 -1.4947 -0.3805
 8661SOL    HW237617   3.592   0.901  13.298 -0.7932  0.2419  0.3201
 8662SOL     OW37618   3.166   4.000   3.045  0.5610 -0.1356  0.0707
 8662SOL    HW137619   3.086   3.957   3.013 -0.0114  1.2346 -0.3229
 8662SOL    HW237620   3.126   4.083   3.070 -1.4669 -1.1112  0.0628
 8663SOL     OW37621   1.714   3.990  14.936 -0.0010  0.2686  0.1723
 8663SOL    HW137622   1.658   3.963  14.863  1.2631  0.1567 -0.7474
 8663SOL    HW237623   1.695   3.924  15.002 -1.0532  0.3497 -0.0407
 8664SOL     OW37624   2.509   2.091   8.982  0.4339  0.6191  0.1052
 8664SOL    HW137625   2.540   2.055   9.065 -0.9009 -2.6815 -0.8453
 8664SOL    HW237626   2.416   2.098   9.002 -0.1893  2.4021 -3.2626
 8665SOL     OW37627   3.805   3.970   5.318  0.0327 -0.2118  0.7465
 8665SOL    HW137628   3.811   3.902   5.384 -0.3343  0.5797  1.5863
 8665SOL    HW237629   3.890   4.015   5.318 -0.5690  0.9172  0.8532
 8666SOL     OW37630   1.636   1.139  17.333  0.2079 -0.3548 -0.3624
 8666SOL    HW137631   1.707   1.145  17.396  0.3766  1.3392 -0.7247
 8666SOL    HW237632   1.581   1.217  17.341 -0.2057 -0.8720  1.7673
 8667SOL     OW37633   4.198   2.867   7.877 -0.0102  0.1354  0.7690
 8667SOL    HW137634   4.225   2.883   7.968  0.8831  2.4795  0.1024
 8667SOL    HW237635   4.275   2.899   7.831 -0.9971  0.7897 -0.4184
 8668SOL     OW37636   2.028   3.963   2.626 -0.4308 -0.0864  0.3896
 8668SOL    HW137637   2.068   3.997   2.546  0.0148 -2.4009 -0.3555
 8668SOL    HW237638   2.090   3.997   2.691 -1.1348 -1.7268  1.9087
 8669SOL     OW37639   3.533   3.712   5.094  0.7016 -0.1565 -0.1655
 8669SOL    HW137640   3.475   3.717   5.170 -0.5863  2.6068 -1.3240
 8669SOL    HW237641   3.589   3.638   5.117  0.1135 -0.3898  0.4994
 8670SOL     OW37642   0.365   4.254  11.096 -0.2527 -0.2294  0.3290
 8670SOL    HW137643   0.454   4.251  11.130 -0.1348 -2.4129 -0.1998
 8670SOL    HW237644   0.370   4.282  11.005 -0.1671 -0.5796  0.2295
 8671SOL     OW37645   1.324   1.841   8.793  0.3127  0.7924 -0.4381
 8671SOL    HW137646   1.309   1.811   8.703 -0.3727  1.1527 -0.4455
 8671SOL    HW237647   1.418   1.858   8.793  0.4068  0.2728  0.7148
 8672SOL     OW37648   2.967   4.056   4.298  0.0813  0.5044 -0.1842
 8672SOL    HW137649   2.978   3.962   4.280  2.0109  0.8174 -0.6901
 8672SOL    HW237650   2.980   4.095   4.212 -2.3448  3.6789  0.9056
 8673SOL     OW37651   2.843   2.327   3.624 -0.1524 -0.0048 -0.1308
 8673SOL    HW137652   2.777   2.305   3.558  0.3591 -0.7812 -0.3948
 8673SOL    HW237653   2.900   2.383   3.571 -1.6404  1.5420 -0.0909
 8674SOL     OW37654   4.400   1.328   5.458 -0.3209  0.0074 -0.2854
 8674SOL    HW137655   4.371   1.245   5.419 -1.1658 -0.1306  0.6347
 8674SOL    HW237656   4.325   1.352   5.512 -1.4640 -0.4658 -1.6459
 8675SOL     OW37657   2.934   4.654   8.009 -0.2744 -0.5109  0.0552
 8675SOL    HW137658   2.951   0.007   8.013 -2.8333 -0.1819  3.1383
 8675SOL    HW237659   2.869   4.648   8.078 -0.9156  1.5963 -0.3659
 8676SOL     OW37660   1.323   0.601   2.068 -0.8306  0.2449 -0.2031
 8676SOL    HW137661   1.270   0.523   2.052 -0.2654 -0.0717 -0.5201
 8676SOL    HW237662   1.331   0.638   1.981  0.8751  2.7483  1.0247
 8677SOL     OW37663   3.411   2.185   2.795 -0.2638  0.2709 -0.7043
 8677SOL    HW137664   3.343   2.134   2.840  0.9609  1.4398  2.4300
 8677SOL    HW237665   3.382   2.269   2.830 -1.9127  0.0143 -1.4387
 8678SOL     OW37666   1.856   2.313   8.421 -0.3803  0.0562  0.3492
 8678SOL    HW137667   1.875   2.380   8.487  0.8446 -0.5064  0.5763
 8678SOL    HW237668   1.917   2.249   8.459  1.0116  0.3573 -1.3940
 8679SOL     OW37669   3.802   2.197   3.196 -0.5311 -1.0403 -0.1118
 8679SOL    HW137670   3.728   2.210   3.137 -0.7820 -1.1592  0.1765
 8679SOL    HW237671   3.801   2.284   3.234  1.5296 -0.5949 -1.0459
 8680SOL     OW37672   2.118   1.602   5.723 -0.5367 -0.4312  0.2778
 8680SOL    HW137673   2.084   1.587   5.634 -1.7776 -2.1888  1.0498
 8680SOL    HW237674   2.117   1.512   5.756  2.7218 -1.0874 -1.4646
 8681SOL     OW37675   0.228   4.043  17.146  0.2694 -0.0282 -0.7045
 8681SOL    HW137676   0.221   3.983  17.071 -2.4435 -0.3022 -0.2339
 8681SOL    HW237677   0.171   4.114  17.116 -1.4251 -0.8508  0.5478
 8682SOL     OW37678   3.785   4.103   2.731  0.2702  0.4757  0.1493
 8682SOL    HW137679   3.712   4.043   2.716  3.0446 -3.2313  1.3251
 8682SOL    HW237680   3.818   4.063   2.811 -0.0456  0.4427  0.2626
 8683SOL     OW37681   1.428   0.394  13.522 -0.1216 -0.0757  0.4626
 8683SOL    HW137682   1.359   0.420  13.584  0.5750 -0.4072  1.3640
 8683SOL    HW237683   1.476   0.347  13.589  1.7655  0.1651 -0.7195
 8684SOL     OW37684   4.543   1.776   6.331  0.1388 -0.2705  0.0220
 8684SOL    HW137685   4.461   1.823   6.349  2.8380  4.4519  0.0075
 8684SOL    HW237686   4.520   1.684   6.335 -2.0523  0.2658  0.1423
 8685SOL     OW37687   2.689   0.693  11.546 -0.2140  0.4752 -0.4683
 8685SOL    HW137688   2.694   0.670  11.639  1.4658 -2.1166 -1.1992
 8685SOL    HW237689   2.632   0.630  11.501 -0.3041  0.7105 -0.6793
 8686SOL     OW37690   4.205   4.330   8.043 -0.1422  0.2909  0.5310
 8686SOL    HW137691   4.166   4.288   7.967  0.5470 -1.9169  1.3713
 8686SOL    HW237692   4.261   4.259   8.075 -0.9089 -0.1553  0.8864
 8687SOL     OW37693   4.506   4.109  13.409  0.0410 -0.2191  0.0825
 8687SOL    HW137694   4.590   4.069  13.432 -1.1725 -1.7565  1.8144
 8687SOL    HW237695   4.489   4.048  13.337 -0.2542  2.4423 -2.0941
 8688SOL     OW37696   3.162   1.190   4.831 -0.1623  0.3434 -0.0868
 8688SOL    HW137697   3.190   1.222   4.917  0.8162  0.5404 -0.4800
 8688SOL    HW237698   3.197   1.102   4.838  4.0394  1.9906 -0.7021
 8689SOL     OW37699   0.430   2.584   4.521 -0.0979 -0.2726  0.3957
 8689SOL    HW137700   0.377   2.546   4.451 -0.2590  0.1776  0.2723
 8689SOL    HW237701   0.419   2.520   4.590  3.5814 -3.2258 -1.7764
 8690SOL     OW37702   1.562   2.304   6.700 -0.0267 -0.1494  0.5165
 8690SOL    HW137703   1.491   2.266   6.647  1.2974 -1.2865 -0.4469
 8690SOL    HW237704   1.578   2.377   6.641 -3.5026 -0.2212 -0.5332
 8691SOL     OW37705   2.111   1.895  11.064 -0.1997  0.0308  0.4706
 8691SOL    HW137706   2.020   1.885  11.037 -0.9377  1.1581  2.5123
 8691SOL    HW237707   2.144   1.955  10.997 -3.5587  2.3665  0.8426
 8692SOL     OW37708   3.689   1.862   2.960  0.6455 -0.1858  0.2656
 8692SOL    HW137709   3.712   1.786   3.014  2.1717 -0.1688 -0.3730
 8692SOL    HW237710   3.766   1.860   2.904  0.1420 -1.6678 -0.3632
 8693SOL     OW37711   0.885   2.811   6.383 -0.1738 -0.3302  0.1118
 8693SOL    HW137712   0.922   2.886   6.430  0.7567 -1.9369  1.9420
 8693SOL    HW237713   0.795   2.845   6.383  0.5099  1.4538  0.4382
 8694SOL     OW37714   0.030   0.783  10.522  0.0015 -0.6296  0.1552
 8694SOL    HW137715   4.722   0.837  10.584  1.3964  0.7682  0.0267
 8694SOL    HW237716   4.703   0.774  10.454  0.4102  0.7846 -0.4436
 8695SOL     OW37717   2.127   0.927   2.709  0.1748 -0.4662 -0.0156
 8695SOL    HW137718   2.220   0.907   2.707 -0.1453 -1.8765 -0.7402
 8695SOL    HW237719   2.100   0.908   2.619 -3.1138  2.5448  0.3281
 8696SOL     OW37720   0.143   4.400   0.690  0.3317  0.1531 -0.1562
 8696SOL    HW137721   0.071   4.456   0.716  1.4801  1.8934 -0.7015
 8696SOL    HW237722   0.219   4.457   0.703  0.6970  0.2118 -2.4466
 8697SOL     OW37723   3.254   4.165  10.622 -0.5736 -0.4386  0.1276
 8697SOL    HW137724   3.203   4.098  10.668 -1.5742  0.9120  0.9978
 8697SOL    HW237725   3.342   4.148  10.655 -0.5062  0.4763  0.4062
 8698SOL     OW37726   4.286   4.492   1.754  0.1700  0.2833 -0.3184
 8698SOL    HW137727   4.228   4.419   1.731 -0.5493  1.3111 -1.7351
 8698SOL    HW237728   4.314   4.460   1.840 -2.9066 -1.5156 -0.0030
 8699SOL     OW37729   0.761   2.217   9.776  0.3886 -0.0519  0.8596
 8699SOL    HW137730   0.797   2.279   9.713  0.4282 -0.1208  0.8140
 8699SOL    HW237731   0.666   2.226   9.763  0.6794  0.4288 -1.0315
 8700SOL     OW37732   0.958   3.411   1.614 -0.1721  0.4089 -0.5189
 8700SOL    HW137733   0.927   3.354   1.543  1.2296  1.8706 -2.3083
 8700SOL    HW237734   0.999   3.345   1.670 -0.4798  0.2698 -0.4575
 8701SOL     OW37735   0.736   1.689   7.781  0.2201  0.0139 -0.4652
 8701SOL    HW137736   0.770   1.611   7.825  0.3076 -0.6064 -1.6432
 8701SOL    HW237737   0.793   1.764   7.801 -0.7059  0.3634  0.9005
 8702SOL     OW37738   2.841   2.489  13.946 -0.4634 -0.3165  0.3661
 8702SOL    HW137739   2.928   2.494  13.906 -1.1304 -2.0771 -1.3025
 8702SOL    HW237740   2.795   2.499  13.862  1.1118  1.4425 -0.2854
 8703SOL     OW37741   3.588   2.485   5.775  0.0756 -0.1764  0.1279
 8703SOL    HW137742   3.528   2.550   5.812  0.7649  1.1717 -1.1036
 8703SOL    HW237743   3.568   2.500   5.683 -0.2276  1.4948  0.4700
 8704SOL     OW37744   1.368   2.470   7.146 -0.0847 -0.1359  0.4377
 8704SOL    HW137745   1.406   2.558   7.144 -0.2024 -0.1009 -0.2886
 8704SOL    HW237746   1.333   2.458   7.057  1.0984  1.4143 -0.2378
 8705SOL     OW37747   0.166   0.069   6.867 -0.2407  0.1785 -0.0762
 8705SOL    HW137748   0.155   0.028   6.953  0.0483 -0.8222 -0.5250
 8705SOL    HW237749   0.100   0.027   6.811 -0.7279  0.4218  0.3102
 8706SOL     OW37750   2.589   1.997   6.504 -0.1293  0.0102 -0.7508
 8706SOL    HW137751   2.574   1.969   6.594  1.1644  0.9227 -0.2487
 8706SOL    HW237752   2.677   2.034   6.513 -0.5226  0.1665  2.3643
 8707SOL     OW37753   0.114   1.648   7.890 -0.1289  0.2542 -0.0093
 8707SOL    HW137754   0.041   1.703   7.921  0.0488  1.5376 -1.8765
 8707SOL    HW237755   0.157   1.720   7.844  1.6485  0.1189  1.4599
 8708SOL     OW37756   2.513   2.628   2.727  0.3389  0.0099 -1.2978
 8708SOL    HW137757   2.470   2.627   2.812 -0.4583  3.2295 -1.6587
 8708SOL    HW237758   2.501   2.721   2.708 -0.6424 -0.0362 -0.9052
 8709SOL     OW37759   1.433   1.168  10.050  0.1128 -0.2850  0.1925
 8709SOL    HW137760   1.427   1.228  10.125 -1.4029 -0.6214  0.3447
 8709SOL    HW237761   1.406   1.089  10.097 -0.7168 -0.0397  0.1370
 8710SOL     OW37762   0.902   3.871   4.522  0.0775  0.7600  0.7361
 8710SOL    HW137763   0.922   3.919   4.442 -0.4045 -2.7619 -1.4566
 8710SOL    HW237764   0.883   3.781   4.495  0.9052  0.6531  0.4908
 8711SOL     OW37765   3.573   3.411   9.812 -0.1229 -0.7688  0.3583
 8711SOL    HW137766   3.506   3.392   9.746 -0.4475  2.1112 -0.1479
 8711SOL    HW237767   3.531   3.483   9.859  1.1260 -0.3464  0.8223
 8712SOL     OW37768   3.094   4.556   2.473  0.5732  0.3574  0.0757
 8712SOL    HW137769   3.146   4.626   2.513  0.7164 -0.7629  1.8477
 8712SOL    HW237770   3.006   4.578   2.503  0.8236  0.8956  0.4277
 8713SOL     OW37771   1.837   1.986   2.559 -0.0194  0.4610 -0.8481
 8713SOL    HW137772   1.765   1.923   2.567  0.4890  0.3248  2.5383
 8713SOL    HW237773   1.872   1.973   2.471 -0.7481 -0.6069 -0.9855
 8714SOL     OW37774   3.978   1.148   8.644  0.5069  0.6791  0.4361
 8714SOL    HW137775   3.912   1.098   8.692 -0.1917  1.6582  0.4766
 8714SOL    HW237776   4.036   1.082   8.606 -0.0758  0.4843 -0.1280
 8715SOL     OW37777   4.329   3.066   0.233 -0.6564 -0.1001 -0.6603
 8715SOL    HW137778   4.389   3.000   0.197  0.6076  0.7467 -0.0876
 8715SOL    HW237779   4.385   3.100   0.303  0.1483  0.2701 -1.4862
 8716SOL     OW37780   2.841   1.370  11.366  0.2027 -0.7299  0.1652
 8716SOL    HW137781   2.769   1.329  11.319 -0.5508 -0.3834  1.0130
 8716SOL    HW237782   2.817   1.325  11.447  0.1179  1.1866  1.2140
 8717SOL     OW37783   3.050   2.822   2.031  0.5349  0.4517  0.3610
 8717SOL    HW137784   3.026   2.733   2.058  2.7682 -0.4462 -0.6660
 8717SOL    HW237785   3.125   2.810   1.973  0.4844  0.4609  0.2924
 8718SOL     OW37786   1.253   4.683   9.487 -0.4307  0.4056 -0.0102
 8718SOL    HW137787   1.272   4.592   9.511  2.0338  0.8663 -0.2181
 8718SOL    HW237788   1.284   4.680   9.397  0.5246  0.2909  0.3264
 8719SOL     OW37789   0.488   0.173   8.329  0.1312 -0.3885 -0.3950
 8719SOL    HW137790   0.430   0.247   8.311 -1.4897 -1.1737  1.6003
 8719SOL    HW237791   0.437   0.094   8.311 -1.8348  0.9021 -0.4211
 8720SOL     OW37792   0.447   3.116   7.340 -0.4152 -0.3627  0.2600
 8720SOL    HW137793   0.450   3.100   7.435 -0.9946  1.4349  0.5873
 8720SOL    HW237794   0.537   3.148   7.334 -0.0305 -0.9916  2.4791
 8721SOL     OW37795   2.812   2.929  15.650 -0.4059 -0.0887 -0.2049
 8721SOL    HW137796   2.723   2.961  15.664 -0.3151  0.4277 -0.7992
 8721SOL    HW237797   2.851   3.016  15.639  0.9685 -0.6103  0.5572
 8722SOL     OW37798   4.217   0.393  10.556  0.1609 -0.4203 -0.5497
 8722SOL    HW137799   4.171   0.448  10.619  2.9108  1.8954 -0.5391
 8722SOL    HW237800   4.310   0.414  10.572  0.3780  0.2394 -2.6711
 8723SOL     OW37801   0.435   0.169   1.735 -0.0106 -0.4175 -0.0542
 8723SOL    HW137802   0.436   0.175   1.830  1.8961 -0.1703 -0.0877
 8723SOL    HW237803   0.488   0.090   1.720 -1.0574 -0.8905 -1.2648
 8724SOL     OW37804   1.591   3.553  12.582  0.3259  0.0276  0.2315
 8724SOL    HW137805   1.662   3.617  12.587  0.1070 -0.0001  3.2299
 8724SOL    HW237806   1.645   3.477  12.601  1.4494  0.1567 -2.4639
 8725SOL     OW37807   3.965   1.075   9.021 -0.6341  0.3399  0.5424
 8725SOL    HW137808   4.008   0.997   8.984 -0.2770  0.3435  0.9425
 8725SOL    HW237809   3.882   1.032   9.041 -0.1752 -0.9647 -0.3325
 8726SOL     OW37810   4.234   3.493   4.779 -0.0297 -0.5203  0.4854
 8726SOL    HW137811   4.278   3.559   4.831 -0.1853  0.2086 -0.3085
 8726SOL    HW237812   4.290   3.419   4.802 -0.7972 -0.5039  2.4264
 8727SOL     OW37813   2.450   3.278   1.381  0.4501  0.8778  0.5457
 8727SOL    HW137814   2.507   3.350   1.409  2.2887  0.5418 -2.3994
 8727SOL    HW237815   2.373   3.329   1.358 -0.1811  1.1276  3.1774
 8728SOL     OW37816   4.465   4.454  10.516  0.3095  0.2860  0.2657
 8728SOL    HW137817   4.538   4.396  10.495 -0.2954  0.1637 -1.5206
 8728SOL    HW237818   4.494   4.502  10.593 -1.4559  1.0102  0.4683
 8729SOL     OW37819   4.647   1.748  12.044  0.0151  0.2983 -0.3177
 8729SOL    HW137820   4.712   1.739  11.975  1.6736  2.0226  1.0379
 8729SOL    HW237821   4.677   1.676  12.100  1.9536 -0.4369 -2.3430
 8730SOL     OW37822   3.692   0.786   5.991  0.2156 -0.3184 -0.1844
 8730SOL    HW137823   3.774   0.739   6.004  0.0391 -0.5831 -0.0459
 8730SOL    HW237824   3.624   0.720   6.001  0.2577 -0.6703 -2.2854
 8731SOL     OW37825   4.709   3.941   4.592  0.2969  0.2825 -0.2378
 8731SOL    HW137826   4.651   4.014   4.571 -1.7417 -0.4002  2.9514
 8731SOL    HW237827   4.649   3.878   4.632 -0.4755  0.7792 -0.6192
 8732SOL     OW37828   0.258   1.311  13.845 -0.4202 -0.1255 -0.7196
 8732SOL    HW137829   0.163   1.308  13.832 -0.1820 -0.9467 -2.3395
 8732SOL    HW237830   0.260   1.288  13.937  1.4348  2.0016 -0.2420
 8733SOL     OW37831   2.129   1.424   4.782 -0.7626 -0.0174 -0.2580
 8733SOL    HW137832   2.078   1.405   4.703  0.1795 -0.6024 -0.7279
 8733SOL    HW237833   2.114   1.352   4.843 -0.0274 -1.4279 -1.7626
 8734SOL     OW37834   3.388   4.385   7.948 -0.2309 -0.4522 -0.0417
 8734SOL    HW137835   3.420   4.473   7.969  0.3145  0.1742 -3.4001
 8734SOL    HW237836   3.309   4.376   8.001 -0.6302  3.3105  0.0138
 8735SOL     OW37837   2.505   0.372   9.396 -0.4030  0.4457  0.0902
 8735SOL    HW137838   2.493   0.328   9.312  0.0587  1.6400 -0.6059
 8735SOL    HW237839   2.526   0.294   9.446  0.5048  1.3364  1.1066
 8736SOL     OW37840   0.916   4.186  11.380  0.4639  0.3263  0.1499
 8736SOL    HW137841   1.000   4.146  11.400  0.8708  0.8160 -0.5679
 8736SOL    HW237842   0.856   4.113  11.369 -1.3415  1.6731  1.0068
 8737SOL     OW37843   3.121   4.487   9.856  0.5052  0.2120 -0.5638
 8737SOL    HW137844   3.211   4.457   9.845  0.2472 -0.7306 -0.1657
 8737SOL    HW237845   3.076   4.402   9.852 -0.7707  0.9462 -1.4828
 8738SOL     OW37846   4.399   3.355   7.383 -0.5634  0.0519  0.2936
 8738SOL    HW137847   4.325   3.405   7.349 -0.4557  0.6620  0.9486
 8738SOL    HW237848   4.409   3.285   7.319 -4.3629 -0.6382  0.4261
 8739SOL     OW37849   1.963   3.480   9.283 -0.0607  0.3192 -0.2730
 8739SOL    HW137850   2.010   3.515   9.358 -1.6199 -0.8168  1.2291
 8739SOL    HW237851   1.890   3.430   9.320 -1.8553  1.3168 -2.3819
 8740SOL     OW37852   2.202   1.224   2.747 -0.1677 -0.4260 -0.0168
 8740SOL    HW137853   2.215   1.132   2.724  0.8277  0.1443 -1.7691
 8740SOL    HW237854   2.134   1.245   2.684  0.5426  1.0213 -0.2930
 8741SOL     OW37855   4.317   4.082   8.065  0.0150 -0.6223 -0.6552
 8741SOL    HW137856   4.390   4.028   8.096 -0.0835  0.6889  1.8719
 8741SOL    HW237857   4.249   4.024   8.099  0.3466 -0.4254  0.3335
 8742SOL     OW37858   1.413   1.869   0.082 -0.4035  0.1760 -0.5452
 8742SOL    HW137859   1.448   1.946   0.127  0.1105  0.2750 -1.1167
 8742SOL    HW237860   1.323   1.861   0.114 -0.9473 -0.7192 -2.2971
 8743SOL     OW37861   2.318   2.412   9.641 -0.3351  0.1586 -0.2429
 8743SOL    HW137862   2.308   2.386   9.733 -1.6191  2.0996  0.1759
 8743SOL    HW237863   2.354   2.500   9.653 -0.2731  0.1209 -0.1521
 8744SOL     OW37864   0.021   4.064   2.691 -0.0112 -0.2155  0.0931
 8744SOL    HW137865   0.031   4.153   2.657 -1.2628 -0.9448 -2.1822
 8744SOL    HW237866   0.001   4.086   2.782  0.2779  0.3475  0.0241
 8745SOL     OW37867   1.237   0.262  14.473 -0.4259 -0.7073 -0.1016
 8745SOL    HW137868   1.326   0.229  14.487 -0.8363 -1.6564  0.3130
 8745SOL    HW237869   1.207   0.185  14.424  0.2818 -0.0208 -1.5963
 8746SOL     OW37870   1.757   0.076   6.964  0.0939  0.4217  0.1578
 8746SOL    HW137871   1.804   0.023   7.028 -0.5198  1.2293  1.2860
 8746SOL    HW237872   1.674   0.030   6.964  0.3427 -0.0458  1.4314
 8747SOL     OW37873   4.418   1.099   8.617 -0.2545 -0.2295  0.8292
 8747SOL    HW137874   4.339   1.055   8.586 -0.5606  1.7308 -1.1807
 8747SOL    HW237875   4.474   1.032   8.578 -1.5361 -0.2434 -0.9722
 8748SOL     OW37876   3.732   1.429   2.049  0.8131 -0.2968  0.6572
 8748SOL    HW137877   3.803   1.489   2.070  0.5803 -0.8417  3.0729
 8748SOL    HW237878   3.688   1.438   2.134 -0.7492  0.7890 -0.2663
 8749SOL     OW37879   4.614   2.639   2.313 -0.1190  0.1109  0.5764
 8749SOL    HW137880   4.578   2.558   2.278 -0.5055  0.5927 -0.1305
 8749SOL    HW237881   4.640   2.683   2.233 -1.6005  0.5289  0.3258
 8750SOL     OW37882   4.141   1.084   3.921 -0.4133 -0.6568 -0.0085
 8750SOL    HW137883   4.224   1.061   3.962 -0.4045 -0.6165 -0.0040
 8750SOL    HW237884   4.089   1.107   3.998  1.0310  1.9376  0.1736
 8751SOL     OW37885   4.643   2.382   0.151  0.6286 -0.0332  0.3188
 8751SOL    HW137886   4.738   2.384   0.137  0.3989  0.0160 -1.2631
 8751SOL    HW237887   4.628   2.288   0.144  1.3641 -0.3494  3.0264
 8752SOL     OW37888   2.363   4.686  16.675  0.7159  0.5207 -0.0989
 8752SOL    HW137889   2.427   0.016  16.682 -0.8136  1.8771  0.0072
 8752SOL    HW237890   2.296   4.716  16.736 -0.3431  1.3319 -1.6639
 8753SOL     OW37891   4.588   4.644   5.291  0.4641  0.1200 -0.3189
 8753SOL    HW137892   4.537   4.599   5.358  1.2540 -1.9878 -1.1181
 8753SOL    HW237893   4.554   4.605   5.211  0.2736  1.1276 -0.7303
 8754SOL     OW37894   4.660   0.840   0.368 -0.3748  0.2707 -0.1488
 8754SOL    HW137895   4.612   0.898   0.427 -1.0746 -0.8359  0.3763
 8754SOL    HW237896   4.672   0.892   0.288  1.0606 -1.7985 -1.2955
 8755SOL     OW37897   3.737   0.192  16.159 -0.9766 -0.3218  0.1036
 8755SOL    HW137898   3.716   0.108  16.200  1.2915 -1.1272 -0.3922
 8755SOL    HW237899   3.737   0.166  16.066 -1.0689 -2.3560  0.6604
 8756SOL     OW37900   1.140   2.274   4.518  0.1989 -0.2705 -0.0447
 8756SOL    HW137901   1.132   2.369   4.527 -0.0785 -0.3564  0.6446
 8756SOL    HW237902   1.189   2.266   4.436 -0.6028  0.6623 -0.6255
 8757SOL     OW37903   1.148   3.476   5.120 -0.0355 -0.3508  0.0061
 8757SOL    HW137904   1.095   3.480   5.200 -0.2022  0.9465 -0.1615
 8757SOL    HW237905   1.113   3.544   5.062 -0.3061 -0.0494  0.5229
 8758SOL     OW37906   3.733   2.468   6.010  0.4163 -0.0503 -0.1732
 8758SOL    HW137907   3.678   2.445   5.934 -1.5189  0.8344  0.9407
 8758SOL    HW237908   3.666   2.487   6.076 -0.0166 -1.7913 -0.1183
 8759SOL     OW37909   1.668   0.723  11.208  0.4738 -0.3594 -0.7363
 8759SOL    HW137910   1.657   0.744  11.301  2.7231 -0.7015 -0.3815
 8759SOL    HW237911   1.744   0.777  11.189 -0.9676  1.2899 -1.7343
 8760SOL     OW37912   2.993   3.514   8.159  0.2017  1.0165  0.2951
 8760SOL    HW137913   2.905   3.516   8.122  0.1372 -0.2568  0.3812
 8760SOL    HW237914   3.036   3.443   8.111 -0.6562  0.3512  0.5130
 8761SOL     OW37915   0.807   4.531  14.152  0.5032  0.5359 -0.1200
 8761SOL    HW137916   0.805   4.546  14.057 -1.3973 -1.5963 -0.4208
 8761SOL    HW237917   0.716   4.510  14.171 -0.1305  0.6356 -2.9641
 8762SOL     OW37918   1.281   4.085   1.982  0.0204 -0.1966 -0.3261
 8762SOL    HW137919   1.246   4.091   2.071  0.9520 -1.2291  0.1101
 8762SOL    HW237920   1.236   4.159   1.942  1.8671  1.4869  0.6904
 8763SOL     OW37921   0.046   3.615  11.190  0.1597 -0.0531 -0.1668
 8763SOL    HW137922   4.740   3.539  11.225  0.1040  0.6509  1.2863
 8763SOL    HW237923   4.733   3.631  11.113  0.9286  2.2569 -0.2291
 8764SOL     OW37924   2.744   0.951  11.563 -0.0850 -0.2828 -0.2919
 8764SOL    HW137925   2.716   0.859  11.563 -1.3669  0.1167  0.1922
 8764SOL    HW237926   2.819   0.938  11.504 -1.3914 -0.3608 -1.9257
 8765SOL     OW37927   2.686   3.313  14.956 -0.4263  0.0429 -0.2606
 8765SOL    HW137928   2.640   3.230  14.963  0.1043 -0.1541  0.9363
 8765SOL    HW237929   2.654   3.364  14.881 -0.7153 -0.9592 -0.8185
 8766SOL     OW37930   2.776   2.771   3.967 -0.1455  0.1097 -0.1688
 8766SOL    HW137931   2.843   2.741   3.906 -0.0213  0.2419 -0.0958
 8766SOL    HW237932   2.773   2.699   4.030  1.4049 -1.9790 -2.5022
 8767SOL     OW37933   0.272   2.502   4.305 -0.2688 -0.1460 -0.0347
 8767SOL    HW137934   0.202   2.446   4.338 -1.5710  0.5925 -1.6014
 8767SOL    HW237935   0.288   2.458   4.222 -1.7182 -5.9497  2.7496
 8768SOL     OW37936   3.051   2.877   8.709  0.1026  0.2917  0.2458
 8768SOL    HW137937   2.958   2.896   8.703 -0.1258 -0.2004  2.1050
 8768SOL    HW237938   3.048   2.781   8.705  0.3051  0.2485  1.1569
 8769SOL     OW37939   4.244   2.417   4.163 -0.0544 -0.3450 -0.3699
 8769SOL    HW137940   4.287   2.374   4.237  0.8163  0.2583 -0.5293
 8769SOL    HW237941   4.173   2.353   4.156  0.4212 -1.0123  0.9220
 8770SOL     OW37942   0.335   3.734  16.402 -0.1249 -0.0410 -0.1889
 8770SOL    HW137943   0.263   3.728  16.464  0.3587 -0.1287  0.3693
 8770SOL    HW237944   0.284   3.717  16.323  0.5868 -1.7750 -0.2837
 8771SOL     OW37945   3.377   0.858  13.935 -0.9006 -0.2599  0.6483
 8771SOL    HW137946   3.376   0.773  13.979 -0.5067 -1.1497 -1.0368
 8771SOL    HW237947   3.433   0.918  13.985  1.7849 -0.3592 -2.1937
 8772SOL     OW37948   1.275   3.974   5.349 -0.5285 -0.0696 -0.5035
 8772SOL    HW137949   1.253   3.882   5.364 -2.1149  0.5558  1.0609
 8772SOL    HW237950   1.192   4.015   5.372 -0.2937  0.4302 -0.5551
 8773SOL     OW37951   4.645   2.619   0.309 -0.0001 -0.5163 -0.2077
 8773SOL    HW137952   4.734   2.652   0.293 -0.3339  0.0419 -0.9267
 8773SOL    HW237953   4.649   2.534   0.266 -1.2882 -0.7901  0.2122
 8774SOL     OW37954   2.392   3.912   2.181  0.7083 -0.2715  0.2546
 8774SOL    HW137955   2.313   3.858   2.179  1.2822 -1.0462 -1.7805
 8774SOL    HW237956   2.418   3.895   2.091 -0.3744 -2.3224  0.3106
 8775SOL     OW37957   1.077   2.927   4.632 -0.2823 -0.1844  0.0117
 8775SOL    HW137958   1.036   2.946   4.547 -1.4327 -0.9941  0.3922
 8775SOL    HW237959   1.027   2.849   4.656 -2.0564  1.2206  0.8953
 8776SOL     OW37960   4.199   0.871   3.185  0.4234 -0.2048 -0.0868
 8776SOL    HW137961   4.154   0.843   3.264  0.2359 -0.0003 -0.1191
 8776SOL    HW237962   4.175   0.796   3.130 -0.4837 -1.7182  2.4158
 8777SOL     OW37963   2.905   3.469   4.891 -0.0717 -0.3117  0.3071
 8777SOL    HW137964   2.983   3.525   4.893  0.1718 -0.6463  0.1314
 8777SOL    HW237965   2.851   3.536   4.933 -0.1525  0.9659 -1.8765
 8778SOL     OW37966   4.179   2.273   7.939 -0.8052 -0.5698  0.2110
 8778SOL    HW137967   4.243   2.335   7.904 -0.1743 -1.4923 -0.2819
 8778SOL    HW237968   4.095   2.288   7.896  0.2381  0.8471 -1.3299
 8779SOL     OW37969   0.942   3.389   5.335 -1.0030  0.1058  0.1642
 8779SOL    HW137970   0.875   3.437   5.385  0.1793  2.2840 -0.3285
 8779SOL    HW237971   1.011   3.380   5.400 -1.6628  0.6501  0.9321
 8780SOL     OW37972   3.385   1.677   6.872 -0.4137 -0.2522  0.5748
 8780SOL    HW137973   3.337   1.619   6.812 -1.3015  1.7206 -0.6266
 8780SOL    HW237974   3.327   1.753   6.867 -0.1697 -0.1590 -0.8123
 8781SOL     OW37975   0.089   4.522  13.965  0.5921  0.1885  0.6677
 8781SOL    HW137976   0.034   4.445  13.973  0.2002  0.5267  1.2191
 8781SOL    HW237977   0.088   4.528  13.869  0.5791  0.6597  0.6958
 8782SOL     OW37978   1.459   1.310  16.628 -0.2526  0.1281  0.0234
 8782SOL    HW137979   1.451   1.214  16.627 -0.0542  0.1151 -0.4322
 8782SOL    HW237980   1.369   1.335  16.611 -0.0880 -0.3299 -1.5441
 8783SOL     OW37981   1.076   1.727   1.679 -0.2784  0.2446  0.0458
 8783SOL    HW137982   1.137   1.721   1.753  1.0337  1.2493 -0.9716
 8783SOL    HW237983   1.129   1.693   1.607 -0.4428  0.6119 -0.2497
 8784SOL     OW37984   4.178   0.955   9.626  0.0779  0.0708  0.2049
 8784SOL    HW137985   4.255   0.950   9.568  1.9219  0.3987  2.6261
 8784SOL    HW237986   4.216   0.903   9.696 -0.5753  1.3022  1.4828
 8785SOL     OW37987   3.729   0.116   5.706  0.1182 -0.2031 -0.0155
 8785SOL    HW137988   3.784   0.158   5.640  1.5305  0.4374  1.5739
 8785SOL    HW237989   3.776   0.034   5.721  0.3063 -0.2524 -0.8732
 8786SOL     OW37990   3.267   2.477   2.766 -0.0676  0.0434  0.1499
 8786SOL    HW137991   3.246   2.461   2.674  0.0025 -0.9451  0.3113
 8786SOL    HW237992   3.178   2.465   2.799 -0.4922  0.9121 -0.6679
 8787SOL     OW37993   3.787   2.850  12.120 -0.3389 -0.1365 -0.1753
 8787SOL    HW137994   3.881   2.862  12.106 -0.6612 -0.6687 -2.8399
 8787SOL    HW237995   3.788   2.756  12.136 -0.2186  0.0890  1.1420
 8788SOL     OW37996   3.264   0.916   7.170 -0.1517 -0.2364  0.5482
 8788SOL    HW137997   3.275   0.837   7.118  0.5945 -0.6047  1.2619
 8788SOL    HW237998   3.278   0.883   7.259 -2.4398  0.4123  1.1663
 8789SOL     OW37999   0.482   0.904  11.725 -0.0531 -0.1187 -0.1233
 8789SOL    HW138000   0.552   0.956  11.765  0.2920 -0.4997 -0.2266
 8789SOL    HW238001   0.407   0.929  11.779  0.5240  3.5471 -1.0331
 8790SOL     OW38002   4.115   1.297   5.994 -0.0700  0.4129 -0.0341
 8790SOL    HW138003   4.023   1.291   5.969  0.4057 -0.4106 -1.6038
 8790SOL    HW238004   4.142   1.207   6.015 -3.0276 -0.5023 -0.0590
 8791SOL     OW38005   3.383   1.084   3.446 -0.6826 -0.2834  0.4121
 8791SOL    HW138006   3.368   1.177   3.465 -1.6344 -0.5189  0.8122
 8791SOL    HW238007   3.312   1.054   3.503 -0.2689  0.3363  1.2593
 8792SOL     OW38008   0.354   3.202  17.431  0.6436  0.1979 -0.0672
 8792SOL    HW138009   0.356   3.298  17.428  0.4683  0.1622 -1.5521
 8792SOL    HW238010   0.328   3.172  17.343  0.4203  1.8342 -0.5585
 8793SOL     OW38011   1.360   0.704  10.030 -0.0407  0.8430  0.2860
 8793SOL    HW138012   1.445   0.662  10.045 -0.3861  0.7655  1.9898
 8793SOL    HW238013   1.318   0.704  10.115 -0.1255  0.3137  0.2458
 8794SOL     OW38014   0.164   2.493   0.140  0.0562  0.4534  0.5939
 8794SOL    HW138015   0.163   2.508   0.045 -0.2272 -0.2999  0.4820
 8794SOL    HW238016   0.204   2.578   0.161  0.5226  0.0893  1.1509
 8795SOL     OW38017   3.989   4.711  11.936 -0.4011  0.6472 -0.1881
 8795SOL    HW138018   4.053   0.014  11.993  1.7094 -1.2518 -1.0987
 8795SOL    HW238019   4.039   4.689  11.857 -1.1964 -0.6814 -0.3258
 8796SOL     OW38020   2.114   3.752   7.756  0.0669 -0.2451 -0.5018
 8796SOL    HW138021   2.149   3.812   7.822 -1.2705 -2.4277  2.1962
 8796SOL    HW238022   2.183   3.687   7.749  0.0182 -0.1916 -1.3735
 8797SOL     OW38023   3.016   4.268   9.552  0.1247  0.2466 -0.1496
 8797SOL    HW138024   3.105   4.245   9.580  0.5777  2.0811 -0.0180
 8797SOL    HW238025   3.015   4.263   9.457  0.8508 -0.1756 -0.1352
 8798SOL     OW38026   2.188   2.138   3.078 -0.5538 -0.4753  0.0184
 8798SOL    HW138027   2.098   2.166   3.065 -1.0764 -1.2904  1.9241
 8798SOL    HW238028   2.230   2.219   3.050 -0.2097 -0.7042 -0.1312
 8799SOL     OW38029   3.580   4.466   4.748 -0.1661  0.2647 -0.0021
 8799SOL    HW138030   3.488   4.488   4.734 -0.1909  0.7261  0.9664
 8799SOL    HW238031   3.624   4.544   4.780  1.9381 -0.2622 -1.5494
 8800SOL     OW38032   2.976   3.909   6.791 -0.2018 -0.3125  0.2748
 8800SOL    HW138033   2.889   3.943   6.813 -0.2771 -0.0240 -0.4798
 8800SOL    HW238034   2.991   3.933   6.700  0.6675 -0.4214  0.3862
 8801SOL     OW38035   2.265   1.467   6.005 -0.0742 -0.0971 -0.1732
 8801SOL    HW138036   2.266   1.392   6.065 -0.8235  0.6796  0.8062
 8801SOL    HW238037   2.356   1.472   5.976  0.0521  1.6825  0.5418
 8802SOL     OW38038   4.416   1.818   7.830 -0.1194 -0.2355  0.2679
 8802SOL    HW138039   4.361   1.893   7.853  1.1505  0.6979  0.2096
 8802SOL    HW238040   4.352   1.755   7.796 -0.4997 -0.0419  0.6104
 8803SOL     OW38041   4.313   1.293   6.756  0.3718  0.2645  0.1502
 8803SOL    HW138042   4.228   1.317   6.719  0.6718  1.9832  0.5422
 8803SOL    HW238043   4.359   1.261   6.678 -1.3124  1.5619 -1.3793
 8804SOL     OW38044   2.285   0.145  11.424 -0.4993  0.1731  0.3209
 8804SOL    HW138045   2.255   0.229  11.457 -1.2641 -0.5947  1.5816
 8804SOL    HW238046   2.207   0.090  11.412 -1.0135  0.6210  1.6232
 8805SOL     OW38047   2.172   2.155   4.905  0.6912  0.0617  0.5423
 8805SOL    HW138048   2.078   2.167   4.888  0.6554  0.5405  1.0586
 8805SOL    HW238049   2.194   2.111   4.823  0.9801 -0.2813  0.8093
 8806SOL     OW38050   0.721   3.395   8.085  0.3713 -0.3352 -0.0418
 8806SOL    HW138051   0.764   3.309   8.076  2.3388  0.3533  2.4994
 8806SOL    HW238052   0.792   3.457   8.071 -0.2491  0.2820 -0.4209
 8807SOL     OW38053   0.142   4.635  16.624  0.2490  0.3403  0.4159
 8807SOL    HW138054   0.213   4.678  16.671  1.2750 -1.0899  0.1639
 8807SOL    HW238055   0.074   4.646  16.690  0.9736 -0.2936  1.2594
 8808SOL     OW38056   0.525   2.423   8.389 -0.2271  0.3854 -0.3007
 8808SOL    HW138057   0.519   2.340   8.438 -0.7473  0.5263 -0.1250
 8808SOL    HW238058   0.442   2.466   8.412  1.0558  1.6945  1.8224
 8809SOL     OW38059   3.101   1.284   5.409  0.3653  0.4621  0.4046
 8809SOL    HW138060   3.184   1.253   5.374  0.5381  0.3462  0.9129
 8809SOL    HW238061   3.101   1.251   5.499  0.6561  0.9270  0.5781
 8810SOL     OW38062   2.397   0.486   7.915  0.3005 -1.0531  0.4630
 8810SOL    HW138063   2.394   0.481   7.820  0.8106 -0.0132  0.3841
 8810SOL    HW238064   2.393   0.580   7.932 -0.9318 -0.9377 -0.4448
 8811SOL     OW38065   1.453   1.990   3.358  0.1508 -0.1659 -0.2918
 8811SOL    HW138066   1.421   2.068   3.313  0.2529  1.1745  1.9537
 8811SOL    HW238067   1.372   1.952   3.392  0.5107  0.7285  1.6015
 8812SOL     OW38068   4.737   2.129   9.415  0.5393 -0.1937  0.6974
 8812SOL    HW138069   0.051   2.086   9.482  0.8899 -0.9503 -0.0678
 8812SOL    HW238070   4.662   2.157   9.466  0.9305  1.7760  0.1711
 8813SOL     OW38071   0.473   2.963   5.782 -0.0296  0.0521  0.1078
 8813SOL    HW138072   0.437   2.899   5.721 -2.4212  1.9001 -0.4070
 8813SOL    HW238073   0.455   2.925   5.868  1.3467 -1.9061 -0.4775
 8814SOL     OW38074   4.731   2.681  11.073 -0.5845  0.0546  0.9507
 8814SOL    HW138075   0.052   2.634  11.128  1.3261  0.7932 -0.5602
 8814SOL    HW238076   0.025   2.669  10.985 -2.4173  1.3944  0.0268
 8815SOL     OW38077   0.005   4.075   6.288 -0.5620  0.5675 -1.1782
 8815SOL    HW138078   0.006   4.019   6.366  1.4243  0.7783 -1.0405
 8815SOL    HW238079   4.693   4.031   6.222  0.6337 -0.5667 -1.3814
 8816SOL     OW38080   2.508   1.417   3.268  0.3695  0.1753  0.0511
 8816SOL    HW138081   2.465   1.460   3.194  1.6348  1.1580 -0.0993
 8816SOL    HW238082   2.587   1.384   3.227  1.0084 -0.6260  1.9224
 8817SOL     OW38083   3.966   0.277  11.498  0.0765 -0.0969 -0.7602
 8817SOL    HW138084   3.986   0.304  11.588 -0.3824 -1.9337 -0.1098
 8817SOL    HW238085   4.054   0.295  11.466  0.4270  1.7611  1.2083
 8818SOL     OW38086   1.168   2.094   4.695 -0.5958 -0.1424  0.1584
 8818SOL    HW138087   1.155   2.165   4.632  0.9844 -0.7702 -0.8751
 8818SOL    HW238088   1.227   2.136   4.758 -3.0583  0.8033  1.8784
 8819SOL     OW38089   3.420   1.632   7.474  0.0850 -0.5430  0.2589
 8819SOL    HW138090   3.414   1.539   7.495  0.7103 -0.7388 -0.4067
 8819SOL    HW238091   3.351   1.663   7.533  1.9830  3.1752  0.5704
 8820SOL     OW38092   0.408   2.591  15.158 -0.6166  0.1385  0.1625
 8820SOL    HW138093   0.386   2.558  15.071 -0.1398 -0.8012  0.3955
 8820SOL    HW238094   0.402   2.518  15.220 -0.5285 -0.9379 -1.1140
 8821SOL     OW38095   1.927   0.025   6.634  0.0621 -0.2037 -0.6123
 8821SOL    HW138096   1.888   0.112   6.622 -1.1840 -0.9825 -2.2462
 8821SOL    HW238097   1.849   4.720   6.602 -1.0813  1.1764  0.1657
 8822SOL     OW38098   1.602   4.402   8.817  0.1043 -0.2005 -0.4957
 8822SOL    HW138099   1.510   4.380   8.828  0.4404 -1.4646 -0.2092
 8822SOL    HW238100   1.626   4.446   8.898  0.0040 -1.2413  0.0911
 8823SOL     OW38101   3.840   3.715   1.449 -0.1722  0.3480 -0.2920
 8823SOL    HW138102   3.860   3.768   1.526 -2.3010 -0.7697  1.0450
 8823SOL    HW238103   3.925   3.701   1.406  0.0381 -2.9259  1.1421
 8824SOL     OW38104   1.368   1.324   4.277  0.0519  0.0343 -0.4158
 8824SOL    HW138105   1.416   1.255   4.231  1.6620  1.9192 -1.5685
 8824SOL    HW238106   1.356   1.392   4.211 -2.5768  1.0337  1.0955
 8825SOL     OW38107   0.465   3.854   2.304  0.6714 -0.5636 -0.4723
 8825SOL    HW138108   0.510   3.917   2.361  0.4567 -0.3536 -0.5377
 8825SOL    HW238109   0.493   3.896   2.223  0.9823  0.0868 -0.0347
 8826SOL     OW38110   1.880   0.323   4.251 -0.2256 -0.0234 -0.4312
 8826SOL    HW138111   1.897   0.247   4.306  2.0777 -1.4814 -3.1370
 8826SOL    HW238112   1.921   0.299   4.168  0.5697  1.5359 -0.4989
 8827SOL     OW38113   2.950   0.273   8.274  0.0380 -0.2599 -0.0783
 8827SOL    HW138114   2.971   0.272   8.181  1.2268  1.5263  0.1743
 8827SOL    HW238115   2.888   0.344   8.291 -0.1855 -0.4178 -0.2396
 8828SOL     OW38116   4.008   2.866  12.901  0.0398  0.0415 -0.0247
 8828SOL    HW138117   4.029   2.933  12.836 -3.0623  0.6751 -0.3576
 8828SOL    HW238118   3.914   2.865  12.883 -0.0877  2.1846  0.6252
 8829SOL     OW38119   3.952   4.290  14.455  0.4632  0.1839 -0.0631
 8829SOL    HW138120   3.910   4.205  14.466  0.3187  0.2561 -0.0509
 8829SOL    HW238121   4.027   4.270  14.399 -0.3329 -2.5001 -0.1540
 8830SOL     OW38122   3.994   1.396   5.726  0.3317 -0.1485  0.1772
 8830SOL    HW138123   3.966   1.487   5.732  0.9826 -0.0052  0.9847
 8830SOL    HW238124   3.939   1.356   5.793 -2.1635  2.8335 -0.0882
 8831SOL     OW38125   2.034   4.044   8.415  0.4860 -0.2601 -0.7727
 8831SOL    HW138126   2.041   4.139   8.420  1.9555 -0.5566  2.6630
 8831SOL    HW238127   2.001   4.034   8.504 -0.7868 -0.4432 -1.2607
 8832SOL     OW38128   2.442   2.343   6.231  0.0419  0.2763 -0.3196
 8832SOL    HW138129   2.363   2.330   6.179  0.0888  1.5066 -0.7001
 8832SOL    HW238130   2.407   2.299   6.309  1.6446 -0.0726  0.2113
 8833SOL     OW38131   2.527   3.209  12.949 -0.1942 -0.0047  0.3022
 8833SOL    HW138132   2.598   3.256  12.993  0.9754 -0.0857 -1.4983
 8833SOL    HW238133   2.449   3.258  12.974  0.1201  1.9340 -2.5001
 8834SOL     OW38134   0.521   4.366   6.873 -0.0894  0.1873 -0.2913
 8834SOL    HW138135   0.588   4.364   6.941  2.1910  1.9579 -2.4989
 8834SOL    HW238136   0.493   4.274   6.868 -1.1544  0.6519 -2.4970
 8835SOL     OW38137   2.802   3.240   7.253 -0.5424  0.3469 -0.4102
 8835SOL    HW138138   2.854   3.247   7.333 -0.8004  0.5275 -0.2598
 8835SOL    HW238139   2.773   3.331   7.244  1.1587  0.8830 -0.6137
 8836SOL     OW38140   1.175   0.942   6.006  0.4418  0.2467  0.1554
 8836SOL    HW138141   1.177   0.880   6.079 -2.0004 -0.3409 -0.2737
 8836SOL    HW238142   1.245   0.925   5.942 -1.1524 -3.0870 -0.6896
 8837SOL     OW38143   3.988   0.858   5.252 -0.4552 -0.6356  0.5247
 8837SOL    HW138144   3.937   0.920   5.304  2.3066  3.0251 -1.0947
 8837SOL    HW238145   4.027   0.924   5.195 -2.4714 -0.2665 -0.4406
 8838SOL     OW38146   1.977   1.438   2.325  0.1512  0.7827 -0.5182
 8838SOL    HW138147   2.068   1.466   2.315 -0.0535  1.4817 -0.4014
 8838SOL    HW238148   1.942   1.463   2.240  2.3700  0.4192 -1.5425
 8839SOL     OW38149   2.530   3.428  16.329 -0.2284 -0.1304 -0.0755
 8839SOL    HW138150   2.505   3.394  16.415 -0.5300 -1.5354 -0.7097
 8839SOL    HW238151   2.566   3.343  16.303  0.1801  0.0686 -0.1566
 8840SOL     OW38152   3.884   2.365   7.163 -0.0071  0.2529 -0.8914
 8840SOL    HW138153   3.972   2.344   7.194 -0.1385 -0.9928 -1.3478
 8840SOL    HW238154   3.834   2.328   7.236 -0.3619 -1.6021 -2.0555
 8841SOL     OW38155   0.782   3.594   5.189  0.1940 -0.3488  0.3695
 8841SOL    HW138156   0.854   3.540   5.222  1.5115  2.8921  2.8410
 8841SOL    HW238157   0.726   3.532   5.142 -1.3821  1.9204 -0.7194
 8842SOL     OW38158   1.142   4.485   2.741  0.2284  0.1092 -0.2657
 8842SOL    HW138159   1.219   4.528   2.777  0.3564 -0.3013 -0.0438
 8842SOL    HW238160   1.137   4.531   2.657  1.9509 -0.3097 -0.5941
 8843SOL     OW38161   1.022   1.839   7.547  0.3601  0.1229  0.0525
 8843SOL    HW138162   1.091   1.905   7.556  2.5350 -2.0520 -0.4110
 8843SOL    HW238163   1.074   1.782   7.490 -2.3386 -1.5870 -0.6752
 8844SOL     OW38164   2.268   0.245   6.116 -0.3743  0.5381  0.4711
 8844SOL    HW138165   2.265   0.177   6.184 -2.2103  1.8975  1.7501
 8844SOL    HW238166   2.327   0.308   6.158  0.2258  0.4419 -0.2406
 8845SOL     OW38167   0.609   0.914   7.687 -0.7982 -0.0231 -0.0014
 8845SOL    HW138168   0.515   0.931   7.693 -0.6901  0.4699  0.3588
 8845SOL    HW238169   0.641   0.993   7.642  0.9705 -0.0086  1.2996
 8846SOL     OW38170   4.664   0.483   2.241  0.0684 -0.4065  0.5894
 8846SOL    HW138171   4.646   0.422   2.169  0.7084  1.8257 -1.4642
 8846SOL    HW238172   4.576   0.491   2.277  0.5471 -0.3267  1.7335
 8847SOL     OW38173   3.206   3.782   9.218 -0.0766  0.4047  0.1329
 8847SOL    HW138174   3.245   3.781   9.305 -0.4282  2.2371  0.3142
 8847SOL    HW238175   3.205   3.690   9.191  0.1339  0.0456  1.3713
 8848SOL     OW38176   4.364   1.980   2.998  0.5091 -0.0964 -0.2019
 8848SOL    HW138177   4.286   1.934   2.967 -0.2219 -0.3994  2.0605
 8848SOL    HW238178   4.327   2.067   3.013 -0.2072 -0.1202 -1.8678
 8849SOL     OW38179   4.550   1.856   3.178 -0.1150  0.2459 -0.1699
 8849SOL    HW138180   4.488   1.911   3.130 -0.6434  1.3592  1.8086
 8849SOL    HW238181   4.489   1.793   3.215  1.2550  0.0896  1.8064
 8850SOL     OW38182   4.718   3.177   5.179 -0.5890 -0.2791 -0.0490
 8850SOL    HW138183   4.717   3.244   5.110 -1.6440  0.3158  0.5559
 8850SOL    HW238184   0.031   3.105   5.145  0.3895 -0.1993  1.3269
 8851SOL     OW38185   3.955   2.494   4.367  0.2492 -0.2454 -0.1726
 8851SOL    HW138186   4.004   2.454   4.439  1.8298  2.8409  0.4491
 8851SOL    HW238187   3.888   2.425   4.365 -3.2845  3.2386 -1.6342
 8852SOL     OW38188   0.270   0.937   4.487 -0.1680 -0.1880 -0.0206
 8852SOL    HW138189   0.275   0.935   4.583  0.4283  0.6793 -0.0327
 8852SOL    HW238190   0.231   0.852   4.467 -0.3626  0.1755 -1.1424
 8853SOL     OW38191   2.571   3.642   9.269 -0.5643  0.1305 -0.4450
 8853SOL    HW138192   2.545   3.626   9.178 -0.4756 -2.0342 -0.0858
 8853SOL    HW238193   2.627   3.718   9.253 -1.7192  0.9713 -0.5327
 8854SOL     OW38194   0.282   3.801   7.206 -0.1808  0.4606 -0.4087
 8854SOL    HW138195   0.225   3.871   7.239 -1.2911 -0.3308 -0.6586
 8854SOL    HW238196   0.221   3.756   7.148  1.7985 -0.8060 -1.5118
 8855SOL     OW38197   0.789   1.276  13.841  0.5765  0.0148  0.2398
 8855SOL    HW138198   0.774   1.365  13.873  0.1990  0.5629 -1.4350
 8855SOL    HW238199   0.709   1.236  13.875  0.4118 -0.5209 -0.7559
 8856SOL     OW38200   3.082   3.337   1.802 -0.1167 -0.1374  0.0007
 8856SOL    HW138201   3.032   3.261   1.832 -1.3248 -0.1122 -1.9883
 8856SOL    HW238202   3.171   3.301   1.810 -0.7126 -1.7233 -0.4282
 8857SOL     OW38203   0.239   1.421  15.438  0.1880  0.3562  0.4934
 8857SOL    HW138204   0.208   1.437  15.349 -3.7200  1.2096  2.0232
 8857SOL    HW238205   0.175   1.356  15.468  1.6643 -1.0424  0.6256
 8858SOL     OW38206   1.210   0.494  14.870  0.0539  0.0668 -0.3368
 8858SOL    HW138207   1.205   0.579  14.827 -0.0467  0.0421 -0.3752
 8858SOL    HW238208   1.210   0.505  14.965 -1.1586  0.5543 -0.3943
 8859SOL     OW38209   1.570   1.065   6.985  0.3079  0.0441 -0.5382
 8859SOL    HW138210   1.620   1.144   6.964  1.9255 -0.6707  0.6018
 8859SOL    HW238211   1.549   1.077   7.078  0.0155 -0.3912 -0.5505
 8860SOL     OW38212   1.266   0.117   2.158  0.1427  0.7360 -0.3537
 8860SOL    HW138213   1.200   0.048   2.146 -0.9024  1.8164 -0.9061
 8860SOL    HW238214   1.254   0.123   2.253 -0.4520 -4.1913 -0.1456
 8861SOL     OW38215   2.023   3.114  10.763 -0.0090  0.3486  0.1422
 8861SOL    HW138216   2.083   3.053  10.806 -0.8850 -1.2459 -0.8864
 8861SOL    HW238217   1.968   3.147  10.834 -0.8430  2.2206 -1.4036
 8862SOL     OW38218   2.778   2.567   4.172  0.5519 -0.3646 -0.3553
 8862SOL    HW138219   2.821   2.538   4.253  0.9016  1.5924  0.1600
 8862SOL    HW238220   2.730   2.488   4.146 -1.8943  0.9214  0.3531
 8863SOL     OW38221   0.720   1.743   8.208 -0.4021 -0.1226 -0.1895
 8863SOL    HW138222   0.723   1.747   8.304 -0.1948  1.9196 -0.2793
 8863SOL    HW238223   0.650   1.681   8.192 -1.8770  1.3269  0.6603
 8864SOL     OW38224   2.192   3.724   3.062 -0.0349  0.3397 -0.0458
 8864SOL    HW138225   2.276   3.754   3.028 -0.2989  0.1047 -0.9102
 8864SOL    HW238226   2.206   3.630   3.049  0.6715  0.5460 -0.7445
 8865SOL     OW38227   3.813   3.416   7.474 -0.4903  0.0523  0.0950
 8865SOL    HW138228   3.861   3.362   7.410 -0.8034 -1.0413  0.7854
 8865SOL    HW238229   3.855   3.402   7.559 -1.5560 -0.9655  0.4552
 8866SOL     OW38230   1.864   2.175  14.929  0.1132 -0.2523 -0.2229
 8866SOL    HW138231   1.813   2.105  14.971  0.7433 -1.4061 -1.3899
 8866SOL    HW238232   1.796   2.243  14.936 -0.6046 -1.2795  2.8949
 8867SOL     OW38233   3.770   1.935   2.320  0.5880 -0.7732  0.0917
 8867SOL    HW138234   3.715   1.989   2.376 -0.1432  1.0371 -2.3889
 8867SOL    HW238235   3.710   1.904   2.252  0.4469 -1.6966  0.6332
 8868SOL     OW38236   4.190   4.680   2.638  0.3427  0.2290  0.2134
 8868SOL    HW138237   4.162   0.029   2.653  1.8383  0.6855  0.2874
 8868SOL    HW238238   4.151   4.656   2.554  0.1822 -0.9861  0.6342
 8869SOL     OW38239   2.942   0.274  17.200 -0.2592 -0.4591  0.7649
 8869SOL    HW138240   2.886   0.325  17.258 -0.8468  0.5957 -0.7188
 8869SOL    HW238241   3.027   0.318  17.207 -0.5330  0.1868  0.1041
 8870SOL     OW38242   3.476   0.888   9.664  0.0696  0.2064  0.3238
 8870SOL    HW138243   3.562   0.850   9.683 -0.8142 -1.1691  1.6472
 8870SOL    HW238244   3.425   0.815   9.629 -0.7534  0.5936  0.7333
 8871SOL     OW38245   4.265   3.337  17.062 -0.1111  0.5853  0.3366
 8871SOL    HW138246   4.222   3.403  17.116  0.9229  1.1817  0.4181
 8871SOL    HW238247   4.345   3.315  17.110 -0.6266 -2.8477 -0.3807
 8872SOL     OW38248   0.099   1.861  12.282 -0.3459 -0.0613 -0.1041
 8872SOL    HW138249   0.045   1.817  12.347  2.7535 -1.7638  1.3128
 8872SOL    HW238250   0.067   1.946  12.312  2.0244  0.3182  1.2831
 8873SOL     OW38251   1.540   4.108   4.197 -0.4626 -0.0570 -0.1510
 8873SOL    HW138252   1.501   4.177   4.251 -0.3850  0.4723 -0.7573
 8873SOL    HW238253   1.484   4.111   4.119  0.1406  0.0916 -0.5768
 8874SOL     OW38254   0.747   2.290   0.427  0.1786  0.3053 -0.1601
 8874SOL    HW138255   0.745   2.221   0.360 -1.5709  0.3856 -0.2015
 8874SOL    HW238256   0.795   2.245   0.497  0.2604 -1.4184 -1.3251
 8875SOL     OW38257   1.993   0.086   4.367 -0.2810  0.3243 -0.6113
 8875SOL    HW138258   2.043   0.152   4.415  0.4826 -0.5102 -0.2641
 8875SOL    HW238259   2.060   0.017   4.364  1.6040  1.9977  3.0438
 8876SOL     OW38260   0.233   4.368   2.533  0.2510  0.2735 -0.1480
 8876SOL    HW138261   0.246   4.463   2.538  1.4200  0.1096 -0.0342
 8876SOL    HW238262   0.325   4.347   2.549  0.6244  1.8273 -0.1886
 8877SOL     OW38263   4.040   1.296   9.242 -0.3219 -0.3177  0.3674
 8877SOL    HW138264   4.104   1.268   9.306  0.9047  0.1668 -0.6515
 8877SOL    HW238265   4.034   1.216   9.190 -1.5443 -0.0846  0.1493
 8878SOL     OW38266   4.590   2.562   7.867  0.6532 -0.0495  0.5454
 8878SOL    HW138267   4.580   2.615   7.787 -1.0784  0.4626  1.0954
 8878SOL    HW238268   4.601   2.629   7.934 -0.1646  0.3594  0.2833
 8879SOL     OW38269   0.691   2.883   7.363 -0.4150 -1.1679  0.4496
 8879SOL    HW138270   0.778   2.856   7.333  0.5385 -0.0948  2.2576
 8879SOL    HW238271   0.642   2.890   7.281 -0.0442  1.3937  0.4358
 8880SOL     OW38272   3.061   4.705   5.580  0.3060  0.1522 -0.4313
 8880SOL    HW138273   3.153   4.714   5.604  0.1320 -0.2084  0.3545
 8880SOL    HW238274   3.067   4.711   5.484 -0.7681 -3.2648 -0.7040
 8881SOL     OW38275   2.366   1.233   6.163  0.6895  0.4057  0.5433
 8881SOL    HW138276   2.320   1.191   6.236 -2.0277 -0.2162 -1.5320
 8881SOL    HW238277   2.418   1.158   6.133 -0.9346 -0.3916 -0.2519
 8882SOL     OW38278   3.112   2.680   5.702 -0.1017 -0.2936 -0.3552
 8882SOL    HW138279   3.108   2.604   5.645 -2.1929  0.3928 -1.1056
 8882SOL    HW238280   3.119   2.757   5.645 -2.5407 -0.2461 -0.5856
 8883SOL     OW38281   1.208   4.345  10.685  0.2696  0.6106 -0.4631
 8883SOL    HW138282   1.262   4.267  10.695 -1.6921 -0.8044 -0.9477
 8883SOL    HW238283   1.122   4.310  10.707  0.5146 -0.1634 -0.7460
 8884SOL     OW38284   4.470   4.437  17.227 -0.1705  0.6453  0.0280
 8884SOL    HW138285   4.471   4.352  17.183  0.6788 -0.1096  1.5020
 8884SOL    HW238286   4.565   4.448  17.228  0.1543 -2.0917  0.0711
 8885SOL     OW38287   0.858   0.993   3.629 -0.8473 -0.5471 -0.6674
 8885SOL    HW138288   0.940   0.947   3.647 -1.6215 -1.8685 -0.4452
 8885SOL    HW238289   0.799   0.940   3.683 -0.2969  0.4327  0.9000
 8886SOL     OW38290   0.797   1.910   1.779 -0.6078 -0.0317 -0.6064
 8886SOL    HW138291   0.807   1.888   1.687  0.5385 -1.4961 -0.1353
 8886SOL    HW238292   0.745   1.840   1.819  0.8108 -0.5932  0.2424
 8887SOL     OW38293   0.104   4.305   3.966  0.3466  0.1071  0.0495
 8887SOL    HW138294   0.026   4.252   3.950 -0.1040  0.0383  2.4607
 8887SOL    HW238295   0.128   4.276   4.054  1.5886 -0.7086 -0.5534
 8888SOL     OW38296   0.086   4.194   4.667 -0.3227  0.1945 -0.1216
 8888SOL    HW138297   0.050   4.107   4.654  0.2505 -0.1442  0.5629
 8888SOL    HW238298   0.007   4.243   4.689  0.4099  0.9962  0.7491
 8889SOL     OW38299   2.088   0.718   7.536 -0.1348 -0.6811 -0.6083
 8889SOL    HW138300   2.102   0.792   7.595 -2.8190  0.1010 -0.9867
 8889SOL    HW238301   2.034   0.654   7.583 -0.5350 -3.1588 -4.4541
 8890SOL     OW38302   2.404   4.512  15.698 -0.4032  0.0121 -0.1470
 8890SOL    HW138303   2.436   4.451  15.631 -3.1993 -0.6024 -0.9232
 8890SOL    HW238304   2.473   4.513  15.765 -2.8572  1.3802  2.3511
 8891SOL     OW38305   2.752   1.065   4.141  0.0983 -0.3896 -0.0126
 8891SOL    HW138306   2.680   1.126   4.130 -1.2750 -1.7200  1.5350
 8891SOL    HW238307   2.701   0.984   4.144 -0.9503  0.2343 -1.7226
 8892SOL     OW38308   1.223   4.297   5.402 -0.1755  0.3189 -0.3095
 8892SOL    HW138309   1.192   4.231   5.465  0.1676 -0.2508 -0.7392
 8892SOL    HW238310   1.289   4.345   5.452  0.5100 -0.2978 -0.6296
 8893SOL     OW38311   0.428   1.946  15.370  0.0144  0.5065  0.5325
 8893SOL    HW138312   0.490   1.876  15.389 -0.6295  0.2960  1.9198
 8893SOL    HW238313   0.416   1.983  15.458  1.6138  1.8997  0.1666
 8894SOL     OW38314   3.001   2.604   5.232 -0.8207  0.2940 -0.3023
 8894SOL    HW138315   2.957   2.600   5.317 -0.8948  1.6880 -0.2765
 8894SOL    HW238316   3.019   2.696   5.214 -2.3739  0.7757  0.5769
 8895SOL     OW38317   1.476   3.734   4.060  0.5110 -0.8540  0.1136
 8895SOL    HW138318   1.415   3.752   3.989  1.3024  1.9845  0.1760
 8895SOL    HW238319   1.494   3.640   4.049  0.2115 -0.6723 -1.8616
 8896SOL     OW38320   2.739   4.280  12.473 -0.2631 -0.3765 -0.0391
 8896SOL    HW138321   2.651   4.287  12.436 -0.6107  2.4320  1.3230
 8896SOL    HW238322   2.754   4.371  12.499 -1.2753 -0.0125 -0.7000
 8897SOL     OW38323   1.268   3.150  17.198  0.4515  0.0067  0.0584
 8897SOL    HW138324   1.244   3.057  17.194  0.6722 -0.1167  1.7595
 8897SOL    HW238325   1.290   3.175  17.108  2.3859 -1.5538  0.0874
 8898SOL     OW38326   4.103   1.395   0.422  0.4453 -0.2221 -0.1600
 8898SOL    HW138327   4.088   1.301   0.419 -0.2442 -0.1250  0.2423
 8898SOL    HW238328   4.171   1.409   0.356 -0.0272  2.3425 -0.1132
 8899SOL     OW38329   2.613   2.625  12.876 -0.3253 -0.2486  0.3340
 8899SOL    HW138330   2.631   2.673  12.795 -0.6939 -0.8785 -0.1206
 8899SOL    HW238331   2.691   2.571  12.889 -0.1745 -0.7995 -2.8615
 8900SOL     OW38332   4.690   2.555   6.245 -0.5382 -0.4675  0.2628
 8900SOL    HW138333   4.704   2.534   6.153 -1.1129 -0.1376  0.0946
 8900SOL    HW238334   4.659   2.645   6.234 -0.5010 -0.3194  1.4063
 8901SOL     OW38335   0.143   3.603   5.183 -0.2302 -0.0135  0.3421
 8901SOL    HW138336   0.206   3.553   5.235  2.3284  2.9127  0.1135
 8901SOL    HW238337   0.118   3.662   5.254 -0.1800  0.7835 -0.2954
 8902SOL     OW38338   4.194   1.290   9.936 -0.8272  0.3202  1.1936
 8902SOL    HW138339   4.238   1.345  10.001  0.1719  0.5850  0.2919
 8902SOL    HW238340   4.126   1.241   9.982 -2.0863  0.8528 -0.1262
 8903SOL     OW38341   4.275   3.426   8.844 -0.3400 -0.2407 -0.2630
 8903SOL    HW138342   4.252   3.493   8.779 -1.3416 -0.9033 -0.6037
 8903SOL    HW238343   4.255   3.345   8.796  0.5491 -0.7130  0.1807
 8904SOL     OW38344   3.091   4.506   3.472  0.2341 -0.2655 -0.6398
 8904SOL    HW138345   3.014   4.455   3.449 -0.5977  0.4793  0.4990
 8904SOL    HW238346   3.049   4.587   3.498  0.7591 -1.0139  2.5363
 8905SOL     OW38347   4.069   2.532   9.375 -0.8025 -0.4115 -0.1819
 8905SOL    HW138348   4.053   2.438   9.384  1.0636 -0.5853  1.3297
 8905SOL    HW238349   4.066   2.552   9.281  0.6854  1.4942  0.1668
 8906SOL     OW38350   0.623   3.328   5.947 -0.2734  0.3807 -0.3117
 8906SOL    HW138351   0.671   3.411   5.941 -0.7079  0.6508 -0.0207
 8906SOL    HW238352   0.588   3.338   6.035  0.5040 -0.7070  0.1219
 8907SOL     OW38353   1.519   0.757   2.932  0.0524 -0.6851 -0.3702
 8907SOL    HW138354   1.509   0.846   2.965 -2.7193 -0.8303 -0.8563
 8907SOL    HW238355   1.612   0.748   2.910 -0.3666 -2.6206 -1.3386
 8908SOL     OW38356   2.803   0.084   8.425 -0.4408 -0.3346 -0.0930
 8908SOL    HW138357   2.835   0.131   8.503  2.1391 -1.1758 -0.6653
 8908SOL    HW238358   2.843   0.134   8.354 -0.1975  1.0241  0.9715
 8909SOL     OW38359   1.971   3.121   4.810  0.2983 -0.7039  0.3080
 8909SOL    HW138360   2.056   3.151   4.845  0.7146  1.2549 -2.3736
 8909SOL    HW238361   1.916   3.198   4.825  0.3284 -0.4507 -0.8457
 8910SOL     OW38362   0.382   3.578   8.400 -0.4333 -0.5729 -0.2299
 8910SOL    HW138363   0.401   3.550   8.311 -1.1634 -2.6741  0.2754
 8910SOL    HW238364   0.446   3.526   8.449  0.3730 -0.3471 -1.0503
 8911SOL     OW38365   0.010   4.671   7.776 -0.1504  0.3446 -0.2381
 8911SOL    HW138366   4.738   4.706   7.687 -2.8128  1.3513  0.5404
 8911SOL    HW238367   4.737   4.578   7.762  0.0428  0.2913 -0.0745
 8912SOL     OW38368   0.135   0.844   3.351 -0.0857 -0.2902  0.0896
 8912SOL    HW138369   0.169   0.886   3.272  0.6004 -1.1043 -0.0423
 8912SOL    HW238370   0.190   0.766   3.358  0.6941  0.3322  0.9980
 8913SOL     OW38371   2.550   3.458   4.670 -0.0354 -0.3429  0.4883
 8913SOL    HW138372   2.639   3.437   4.643 -0.3165  0.0482 -0.7748
 8913SOL    HW238373   2.557   3.455   4.765  1.2767 -0.6608  0.3746
 8914SOL     OW38374   2.930   3.482   3.875 -0.2822  0.5094 -0.2931
 8914SOL    HW138375   3.012   3.531   3.874  0.8732 -1.3982  1.3533
 8914SOL    HW238376   2.871   3.554   3.851 -1.2202 -0.9032 -2.2496
 8915SOL     OW38377   2.088   0.452   0.074 -0.4699 -0.7315  0.5737
 8915SOL    HW138378   2.087   0.429  17.741 -0.7964  1.5118  0.0079
 8915SOL    HW238379   2.068   0.369   0.116 -0.2417 -0.7433  0.6592
 8916SOL     OW38380   0.109   1.816   4.263  0.2160 -0.0012 -0.0964
 8916SOL    HW138381   0.178   1.799   4.199 -1.3978 -3.2033 -0.9738
 8916SOL    HW238382   0.122   1.776   4.349 -0.0332 -0.3690 -0.2291
 8917SOL     OW38383   2.133   1.815  11.981 -0.0996 -0.5188 -0.3074
 8917SOL    HW138384   2.066   1.808  12.050  0.1251  2.0042  0.1655
 8917SOL    HW238385   2.208   1.763  12.010  1.6266  1.3069 -1.4344
 8918SOL     OW38386   3.508   1.620  12.570 -0.5455 -0.6878  0.1715
 8918SOL    HW138387   3.561   1.550  12.608  0.2898  0.6127  1.4030
 8918SOL    HW238388   3.481   1.661  12.652  0.5483  0.7950 -0.2053
 8919SOL     OW38389   4.668   3.958   1.477 -0.3431  0.3310  0.0183
 8919SOL    HW138390   4.646   4.033   1.421  0.4394  1.0435  0.6560
 8919SOL    HW238391   0.023   3.965   1.477 -0.2246 -1.3053 -1.5431
 8920SOL     OW38392   0.243   0.404   1.746  0.1125  0.1066 -0.2693
 8920SOL    HW138393   0.277   0.493   1.759 -0.5413  0.2337  0.5193
 8920SOL    HW238394   0.323   0.350   1.751 -0.7829 -1.1035  0.8204
 8921SOL     OW38395   2.286   1.313   1.170  0.0619  0.2128 -0.0865
 8921SOL    HW138396   2.195   1.308   1.201 -0.1301 -1.4028 -0.8992
 8921SOL    HW238397   2.275   1.237   1.113 -2.4041  0.6244 -0.1700
 8922SOL     OW38398   1.262   3.166  16.512 -0.2550 -0.1771  0.4134
 8922SOL    HW138399   1.281   3.100  16.579 -2.6595 -1.9176 -0.6309
 8922SOL    HW238400   1.181   3.208  16.539  0.9557  2.4752 -0.0771
 8923SOL     OW38401   2.643   3.067   4.127  0.0570 -0.3678  0.1507
 8923SOL    HW138402   2.734   3.086   4.105 -0.1405  0.4168  0.0354
 8923SOL    HW238403   2.603   3.132   4.070 -1.3046 -0.4324  1.0295
 8924SOL     OW38404   3.831   4.300   2.292  0.8964 -0.2254 -0.4243
 8924SOL    HW138405   3.848   4.242   2.217  1.7345 -0.1604 -0.2754
 8924SOL    HW238406   3.871   4.253   2.365  1.5797 -2.8352 -2.4758
 8925SOL     OW38407   0.562   2.666   7.693  0.1886  0.4000  0.0592
 8925SOL    HW138408   0.485   2.710   7.727  0.7685 -2.0681  4.6724
 8925SOL    HW238409   0.567   2.591   7.753  0.4039  1.5257  1.4308
 8926SOL     OW38410   3.747   0.140   6.287  0.2320  0.4704 -0.1732
 8926SOL    HW138411   3.801   0.089   6.227 -1.0039  1.4507 -2.1117
 8926SOL    HW238412   3.724   0.068   6.346 -0.5265  0.4575 -0.4865
 8927SOL     OW38413   3.231   1.424  15.198 -0.0207 -0.2532 -0.0380
 8927SOL    HW138414   3.295   1.491  15.172 -0.3180  0.9274  2.3485
 8927SOL    HW238415   3.207   1.454  15.285  1.2469  2.3152 -0.5558
 8928SOL     OW38416   3.534   4.501   6.252 -0.2186 -0.0501 -0.2606
 8928SOL    HW138417   3.467   4.565   6.229 -0.4842  0.4077  1.7737
 8928SOL    HW238418   3.596   4.513   6.180 -1.3230  2.0728 -0.8439
 8929SOL     OW38419   1.913   1.064   6.560 -0.2615 -0.3704 -0.0714
 8929SOL    HW138420   1.924   1.058   6.465 -1.9709  1.4516 -0.3934
 8929SOL    HW238421   1.831   1.016   6.572 -0.9829  0.1953 -2.5673
 8930SOL     OW38422   4.337   3.942   4.173  0.6517 -0.0222 -0.0701
 8930SOL    HW138423   4.410   3.991   4.135 -0.3040  0.6624 -1.0664
 8930SOL    HW238424   4.372   3.883   4.239  2.7609  0.5282 -0.7155
 8931SOL     OW38425   2.363   3.848   2.869 -1.0582  0.2719 -0.1958
 8931SOL    HW138426   2.437   3.852   2.809 -1.5984 -1.3608 -0.9667
 8931SOL    HW238427   2.294   3.900   2.830 -0.2296  1.7531  0.3341
 8932SOL     OW38428   1.341   0.989  10.230 -0.4619 -0.2316 -0.4045
 8932SOL    HW138429   1.362   0.895  10.232  1.2268  0.1769  0.3586
 8932SOL    HW238430   1.351   1.009  10.323  2.2803 -0.0987 -0.7504
 8933SOL     OW38431   2.760   1.077   5.430 -0.0909  0.2343  0.0788
 8933SOL    HW138432   2.825   1.130   5.478 -0.9948  2.0896 -0.7642
 8933SOL    HW238433   2.809   0.994   5.431  1.5826  1.1979 -2.6751
 8934SOL     OW38434   0.019   3.272   8.067  0.3361  0.0115 -0.5297
 8934SOL    HW138435   0.087   3.286   8.132 -0.5654  1.6575  0.0566
 8934SOL    HW238436   0.032   3.178   8.050 -1.3918 -0.0026 -1.8284
 8935SOL     OW38437   0.143   2.593   5.299 -0.9508 -0.8335 -0.1982
 8935SOL    HW138438   0.213   2.547   5.344 -0.4599 -0.2673 -0.3898
 8935SOL    HW238439   0.159   2.679   5.336 -2.5718 -0.4783 -0.2929
 8936SOL     OW38440   2.553   2.858  13.179  0.3727  0.0668 -0.5088
 8936SOL    HW138441   2.620   2.862  13.247 -0.0570 -3.2151  0.1062
 8936SOL    HW238442   2.502   2.780  13.198 -0.4891  0.5878 -0.6594
 8937SOL     OW38443   0.247   2.190   1.747  0.7088 -0.1088  0.0081
 8937SOL    HW138444   0.180   2.130   1.716  1.2702 -1.5450  1.6021
 8937SOL    HW238445   0.190   2.266   1.762 -0.1669 -0.1461 -3.0706
 8938SOL     OW38446   2.452   2.041   2.905 -0.3037  0.2020  0.2356
 8938SOL    HW138447   2.424   1.970   2.847 -2.4184  0.4158  0.9882
 8938SOL    HW238448   2.393   2.030   2.979 -0.2987  0.3952  0.2680
 8939SOL     OW38449   3.217   1.232  12.857  0.3804 -0.7757  0.2117
 8939SOL    HW138450   3.131   1.273  12.849  1.6073  1.0835 -3.2275
 8939SOL    HW238451   3.222   1.190  12.772  0.1215 -2.4245  1.0140
 8940SOL     OW38452   1.031   2.665  13.205 -0.2422 -0.1378  0.1696
 8940SOL    HW138453   1.044   2.687  13.297  1.0932  0.4238 -0.1504
 8940SOL    HW238454   1.096   2.595  13.195  0.2787  0.6192 -1.6698
 8941SOL     OW38455   4.364   2.414   7.796 -0.4722  0.1366 -0.0421
 8941SOL    HW138456   4.366   2.339   7.737  0.6810  0.0382  0.1135
 8941SOL    HW238457   4.453   2.434   7.825 -0.7525 -1.0214  1.6612
 8942SOL     OW38458   1.388   4.402   5.062 -0.4472  0.4499 -0.2894
 8942SOL    HW138459   1.343   4.380   4.981  0.1761 -3.1152  0.3232
 8942SOL    HW238460   1.316   4.449   5.103 -0.8250  1.0515 -1.6429
 8943SOL     OW38461   0.696   0.325   5.910 -0.0902  0.3265  0.3331
 8943SOL    HW138462   0.770   0.266   5.896  0.2473  0.9673 -0.5136
 8943SOL    HW238463   0.704   0.372   5.827  0.2733  0.3867  0.4003
 8944SOL     OW38464   0.115   4.060   9.905  0.2965  0.3865  0.2102
 8944SOL    HW138465   0.160   4.041   9.823  1.3266  1.5464  0.5209
 8944SOL    HW238466   0.024   4.051   9.874 -0.0685  1.9722  0.8672
 8945SOL     OW38467   2.050   1.209   4.958  0.5782 -0.0742  0.0275
 8945SOL    HW138468   1.970   1.157   4.949  0.4942  0.0528  0.0249
 8945SOL    HW238469   2.039   1.230   5.051 -2.4716  1.1302 -0.6033
 8946SOL     OW38470   0.443   1.911   5.636  0.0776  0.2740 -0.5300
 8946SOL    HW138471   0.398   1.896   5.719  1.6255  1.8245  0.5764
 8946SOL    HW238472   0.434   2.005   5.625  0.3020  0.3140 -0.3740
 8947SOL     OW38473   2.298   4.269   7.495  0.0753 -0.0154  0.1748
 8947SOL    HW138474   2.237   4.301   7.560 -1.1118 -1.7480 -0.0824
 8947SOL    HW238475   2.388   4.276   7.527  1.2883 -1.2520 -2.9992
 8948SOL     OW38476   2.352   2.011   4.319 -0.5704  0.2429 -0.2851
 8948SOL    HW138477   2.281   2.004   4.256 -1.2226  0.3580  0.4372
 8948SOL    HW238478   2.313   1.969   4.395  1.7463  1.7837  1.7631
 8949SOL     OW38479   1.391   4.518   9.302  0.0192  0.9167 -0.2576
 8949SOL    HW138480   1.321   4.545   9.242  0.3066 -0.7752 -1.3722
 8949SOL    HW238481   1.428   4.449   9.247 -1.1439  0.8609 -0.9749
 8950SOL     OW38482   3.187   3.302   4.870  0.0410 -0.2415 -0.2385
 8950SOL    HW138483   3.169   3.391   4.900  2.9567  0.2997 -0.0923
 8950SOL    HW238484   3.098   3.278   4.845  0.4444  0.3371 -2.2291
 8951SOL     OW38485   2.127   0.786   9.034  0.1295 -0.2010  0.3934
 8951SOL    HW138486   2.164   0.783   8.946  0.1799 -0.7411  0.4314
 8951SOL    HW238487   2.163   0.707   9.075  3.1175 -0.6313 -3.0569
 8952SOL     OW38488   0.058   3.350   2.304 -0.0265  0.5506 -0.7589
 8952SOL    HW138489   0.081   3.347   2.211 -0.1207 -3.0411 -0.6822
 8952SOL    HW238490   0.139   3.370   2.352  0.1195  0.2637 -0.8836
 8953SOL     OW38491   4.265   2.684   3.100 -0.8301  0.1209  0.0852
 8953SOL    HW138492   4.174   2.669   3.124 -0.7190  0.3092  0.6320
 8953SOL    HW238493   4.288   2.771   3.132 -0.4496 -0.1200  0.4529
 8954SOL     OW38494   3.571   3.914  12.396  0.4331 -0.6446  0.2429
 8954SOL    HW138495   3.556   3.864  12.476  1.2372 -3.0183 -1.1051
 8954SOL    HW238496   3.532   3.846  12.342 -2.4284  1.0450  0.1653
 8955SOL     OW38497   3.078   3.317   8.772  0.2371 -0.5022  0.5750
 8955SOL    HW138498   3.145   3.325   8.704  1.1525 -3.9983  1.0893
 8955SOL    HW238499   3.073   3.407   8.806  1.2360  0.4547 -1.8279
 8956SOL     OW38500   2.814   3.484   5.978 -0.2853  0.3617  0.2330
 8956SOL    HW138501   2.779   3.569   5.953  0.1936  1.0665  1.9818
 8956SOL    HW238502   2.877   3.507   6.046 -0.0532 -1.6874  0.7058
 8957SOL     OW38503   3.390   0.552   7.869  0.1506  0.3492 -0.3185
 8957SOL    HW138504   3.400   0.499   7.789  0.8944  3.3578 -2.2049
 8957SOL    HW238505   3.341   0.627   7.836  1.4462  1.0403 -0.6920
 8958SOL     OW38506   3.753   4.442   0.856 -0.3626 -0.6778  0.6084
 8958SOL    HW138507   3.782   4.454   0.946  2.3583 -0.0427 -0.3652
 8958SOL    HW238508   3.806   4.513   0.819 -0.6476 -0.1309  1.2608
 8959SOL     OW38509   1.416   4.569   2.627  0.2026  0.0906 -0.4008
 8959SOL    HW138510   1.420   4.490   2.572  0.0309  0.8527 -1.5046
 8959SOL    HW238511   1.494   4.545   2.677 -0.3999  0.8995  0.9293
 8960SOL     OW38512   0.107   4.460   4.552  0.1818 -0.2321 -0.4902
 8960SOL    HW138513   0.135   4.372   4.578 -0.9369 -0.3503  0.3060
 8960SOL    HW238514   0.012   4.457   4.568  0.3628  1.8897  1.0266
 8961SOL     OW38515   4.340   2.347   9.577 -0.0806 -0.5969 -0.0481
 8961SOL    HW138516   4.255   2.341   9.619  0.7663 -1.7296  1.5168
 8961SOL    HW238517   4.368   2.438   9.591  0.2640 -0.4209 -1.9366
 8962SOL     OW38518   0.798   0.815   3.813  0.3151 -0.0054 -0.4258
 8962SOL    HW138519   0.710   0.812   3.849  0.0673 -1.7346 -1.1456
 8962SOL    HW238520   0.784   0.739   3.756  1.3040  0.3864 -1.1900
 8963SOL     OW38521   0.853   1.452  11.189  0.5487 -0.0924  0.3372
 8963SOL    HW138522   0.771   1.405  11.202  1.3086 -1.5632 -0.1983
 8963SOL    HW238523   0.923   1.390  11.209 -1.0429 -1.5005  1.5392
 8964SOL     OW38524   0.612   1.332   6.272  0.1665 -0.0352  0.0186
 8964SOL    HW138525   0.572   1.247   6.257  0.2608  0.1107 -1.0847
 8964SOL    HW238526   0.704   1.307   6.259  0.9212  2.2565  0.8097
 8965SOL     OW38527   4.313   4.562   4.436  0.0468 -0.4947  0.6454
 8965SOL    HW138528   4.243   4.498   4.423  0.6028 -0.8597 -0.6254
 8965SOL    HW238529   4.314   4.605   4.350 -0.9083  1.9296  1.8411
 8966SOL     OW38530   0.076   2.010   7.793  0.0101 -0.2109  0.7599
 8966SOL    HW138531   0.137   1.940   7.770  1.1203  1.4193 -1.1578
 8966SOL    HW238532   0.010   1.963   7.845 -0.5632 -1.5863 -1.2251
 8967SOL     OW38533   0.445   1.844   9.372 -0.5838  0.1540 -0.3207
 8967SOL    HW138534   0.530   1.802   9.356 -0.8289 -0.5652  0.2341
 8967SOL    HW238535   0.478   1.930   9.398 -1.1586  0.6714 -1.3033
 8968SOL     OW38536   4.518   1.918   0.995  0.3766  0.0816 -0.3764
 8968SOL    HW138537   4.507   2.005   1.033 -4.2225 -0.0669 -1.3755
 8968SOL    HW238538   4.602   1.932   0.951  0.3258 -1.3807 -0.9513
 8969SOL     OW38539   2.229   2.121  16.219  0.2558 -0.2323 -0.4464
 8969SOL    HW138540   2.264   2.091  16.302 -1.6532 -3.8722 -0.9637
 8969SOL    HW238541   2.300   2.156  16.166 -0.6984  0.8013 -1.0592
 8970SOL     OW38542   0.846   3.367  11.787 -0.0928  0.3891  0.0578
 8970SOL    HW138543   0.758   3.338  11.763 -0.0497  1.0940 -0.9769
 8970SOL    HW238544   0.877   3.278  11.773  0.2964  0.7256 -1.2353
 8971SOL     OW38545   3.959   1.037  10.423 -0.1548  0.2549  0.2181
 8971SOL    HW138546   3.973   1.102  10.355 -1.3269 -0.3431 -0.6032
 8971SOL    HW238547   4.046   1.035  10.463 -0.0730  1.4403  0.0799
 8972SOL     OW38548   3.513   1.943  12.567  0.2081 -0.2144  0.1366
 8972SOL    HW138549   3.469   2.027  12.574  0.2515 -0.1109 -0.7772
 8972SOL    HW238550   3.474   1.890  12.637 -0.3139  0.6365  0.4816
 8973SOL     OW38551   4.291   1.830   0.867  0.3571  0.3953  0.0872
 8973SOL    HW138552   4.262   1.799   0.952  1.6040  3.6481  1.6797
 8973SOL    HW238553   4.378   1.867   0.884  0.0850  0.7068  0.7695
 8974SOL     OW38554   1.894   3.639   2.197  0.0247 -0.4338  0.1734
 8974SOL    HW138555   1.890   3.727   2.159  0.2169 -0.5477 -0.1090
 8974SOL    HW238556   1.861   3.577   2.132  0.3599 -1.4223  0.9598
 8975SOL     OW38557   3.816   0.388   1.713  0.1463  0.5360  0.0189
 8975SOL    HW138558   3.841   0.301   1.742  1.7642  1.3070  0.9535
 8975SOL    HW238559   3.871   0.404   1.636 -0.5265  0.7667 -0.4036
 8976SOL     OW38560   2.171   3.450   4.317 -0.0518 -0.4075 -0.1808
 8976SOL    HW138561   2.258   3.464   4.354 -0.3877  0.2483  0.3835
 8976SOL    HW238562   2.127   3.493   4.391 -0.1053 -1.1383  0.2182
 8977SOL     OW38563   3.034   0.589   0.967 -0.0723  0.3657  0.5445
 8977SOL    HW138564   2.954   0.561   0.922  0.3628  0.2464 -0.1664
 8977SOL    HW238565   3.024   0.538   1.047  2.0650 -1.0402 -0.0799
 8978SOL     OW38566   4.314   4.031   3.122 -0.4380  0.0724 -0.2593
 8978SOL    HW138567   4.332   4.090   3.195 -1.1859  1.8891 -1.5574
 8978SOL    HW238568   4.281   4.101   3.066 -0.7062  0.6182  0.5805
 8979SOL     OW38569   2.656   1.409  13.263  0.1086 -0.2947  0.3657
 8979SOL    HW138570   2.624   1.363  13.340  1.2028 -0.0043  0.9839
 8979SOL    HW238571   2.678   1.340  13.200  1.3175 -0.8411  1.3925
 8980SOL     OW38572   2.632   4.109   9.421 -0.1867 -0.2002 -0.3980
 8980SOL    HW138573   2.683   4.085   9.498  0.1120 -0.1349 -0.5731
 8980SOL    HW238574   2.668   4.043   9.362 -0.9303 -0.8968 -0.0749
 8981SOL     OW38575   0.009   2.271   0.942  0.1757  0.6768  0.6083
 8981SOL    HW138576   0.028   2.273   1.036  0.9759 -3.1758  0.5284
 8981SOL    HW238577   0.010   2.179   0.914 -1.1608  1.1304 -0.9685
 8982SOL     OW38578   2.305   1.080   4.379 -0.7303  0.6736  0.1892
 8982SOL    HW138579   2.260   1.033   4.309 -1.7630 -0.4493  1.6013
 8982SOL    HW238580   2.241   1.144   4.410 -1.0780  0.6954 -0.5885
 8983SOL     OW38581   3.898   3.295   3.650  0.4309 -0.0324  0.5978
 8983SOL    HW138582   3.886   3.341   3.567  1.7526  0.3679  0.6275
 8983SOL    HW238583   3.837   3.222   3.641  0.1461  0.5588 -2.2492
 8984SOL     OW38584   0.486   2.169   2.453 -0.2239 -0.5954 -0.6956
 8984SOL    HW138585   0.401   2.175   2.497  0.1695 -0.7832  0.0915
 8984SOL    HW238586   0.511   2.079   2.474  0.8745 -0.0111  0.5026
 8985SOL     OW38587   2.807   3.752   2.703  0.4842 -0.6055  0.3122
 8985SOL    HW138588   2.858   3.697   2.762 -0.0808 -1.3928  0.0710
 8985SOL    HW238589   2.873   3.761   2.634  1.3715  0.7868  1.3389
 8986SOL     OW38590   0.017   4.720   9.921  0.1405 -0.0552 -0.2758
 8986SOL    HW138591   4.663   4.710   9.924  0.2383 -0.6771  0.6117
 8986SOL    HW238592   0.029   0.051   9.983 -1.6426 -0.8027  0.9064
 8987SOL     OW38593   4.299   2.254  12.686  0.1495  0.2107 -0.6591
 8987SOL    HW138594   4.383   2.249  12.640 -0.0074 -0.2259 -0.9013
 8987SOL    HW238595   4.292   2.349  12.687  1.7593  0.3643 -3.1499
 8988SOL     OW38596   2.769   4.467  13.014  0.0044 -0.4791  0.2599
 8988SOL    HW138597   2.679   4.479  12.984 -0.0381 -6.0246 -1.8143
 8988SOL    HW238598   2.774   4.372  13.025  0.8765 -0.6790 -1.7900
 8989SOL     OW38599   4.390   1.175  10.960 -0.7641  0.3989  0.1752
 8989SOL    HW138600   4.446   1.138  11.029  0.5321  2.1019  0.0480
 8989SOL    HW238601   4.390   1.271  10.967  0.3073  0.3733  0.6756
 8990SOL     OW38602   2.171   3.637  10.025 -0.1794 -0.6214 -0.1275
 8990SOL    HW138603   2.169   3.637  10.120 -1.8474  1.6341 -0.1557
 8990SOL    HW238604   2.158   3.731  10.011  0.4164 -0.8830 -2.5002
 8991SOL     OW38605   2.451   3.609   3.800 -0.5992  0.0605 -0.1240
 8991SOL    HW138606   2.505   3.683   3.828  0.6201 -1.7034  2.2020
 8991SOL    HW238607   2.382   3.654   3.751 -1.2781  0.0587  0.8337
 8992SOL     OW38608   1.588   0.994   4.855 -0.0072 -0.3509 -0.1660
 8992SOL    HW138609   1.494   0.994   4.869  0.0994 -0.6892  0.5238
 8992SOL    HW238610   1.604   0.902   4.831 -0.5724 -0.1093 -1.4659
 8993SOL     OW38611   3.741   0.581   8.263 -0.1783  0.1890 -0.5309
 8993SOL    HW138612   3.682   0.594   8.188 -1.1771 -0.2524  0.1787
 8993SOL    HW238613   3.695   0.626   8.334 -0.3159 -1.0874  0.1841
 8994SOL     OW38614   4.372   2.632   6.517 -0.2512 -0.0192 -0.3140
 8994SOL    HW138615   4.285   2.608   6.485 -1.1694  1.9919  0.6688
 8994SOL    HW238616   4.363   2.727   6.521 -0.4831 -0.0475 -0.1927
 8995SOL     OW38617   1.814   2.893   9.219  0.0761 -0.0602  0.5190
 8995SOL    HW138618   1.783   2.972   9.264 -0.8395 -1.2408  1.9524
 8995SOL    HW238619   1.740   2.835   9.237 -0.0590 -0.4531 -1.3373
 8996SOL     OW38620   4.192   4.479   3.598  0.0446 -0.2691 -0.3831
 8996SOL    HW138621   4.269   4.514   3.553 -0.2005  0.1026 -0.5149
 8996SOL    HW238622   4.222   4.411   3.658 -1.8490 -1.2063 -0.4921
 8997SOL     OW38623   2.436   1.627   9.248  0.0606 -0.1426 -0.0424
 8997SOL    HW138624   2.447   1.556   9.311  1.1402 -2.4549 -2.8102
 8997SOL    HW238625   2.359   1.593   9.203 -1.2155  1.6400  0.7696
 8998SOL     OW38626   3.613   0.666   4.794  0.3345 -0.9393 -0.5645
 8998SOL    HW138627   3.679   0.724   4.756 -1.9621  1.3398 -1.1389
 8998SOL    HW238628   3.632   0.664   4.888 -0.8422 -1.8480 -0.3397
 8999SOL     OW38629   4.672   2.454   4.589 -0.0925 -0.2495 -0.5654
 8999SOL    HW138630   4.705   2.397   4.519 -0.8701  0.1595 -1.2697
 8999SOL    HW238631   4.606   2.509   4.546  0.4203  1.6838  1.1211
 9000SOL     OW38632   3.056   4.147   7.425  0.1969  0.7765  0.2065
 9000SOL    HW138633   3.067   4.059   7.460  0.2000 -0.3631 -2.6745
 9000SOL    HW238634   3.145   4.161   7.393  0.0946  2.5606  0.7063
 9001SOL     OW38635   1.048   1.696   7.131 -0.5155 -0.5353 -0.4753
 9001SOL    HW138636   1.105   1.748   7.074  1.9079 -1.2453  1.2940
 9001SOL    HW238637   1.002   1.637   7.071 -1.2065  0.2821 -0.7497
 9002SOL     OW38638   0.527   3.741   1.948  0.2192 -0.6116 -0.4233
 9002SOL    HW138639   0.586   3.812   1.975  0.9406 -1.2867 -0.2475
 9002SOL    HW238640   0.443   3.774   1.981  0.9234 -1.5772  2.2736
 9003SOL     OW38641   1.715   3.910   3.738 -0.1185  0.3613 -0.4716
 9003SOL    HW138642   1.731   3.854   3.814  0.6936 -0.9932 -1.6518
 9003SOL    HW238643   1.638   3.871   3.698 -1.1229  0.8174  1.0196
 9004SOL     OW38644   4.295   3.171   2.320 -0.3276 -0.0253  0.1808
 9004SOL    HW138645   4.387   3.176   2.293 -0.7773  0.2158 -1.3074
 9004SOL    HW238646   4.273   3.079   2.310 -1.2483  0.1735  0.3580
 9005SOL     OW38647   0.628   0.428  14.685  0.4629  0.7422  0.8742
 9005SOL    HW138648   0.673   0.451  14.603 -0.9442  1.8833  0.4330
 9005SOL    HW238649   0.686   0.358  14.713 -1.9805 -1.6382 -0.0421
 9006SOL     OW38650   3.337   0.674   1.262 -0.0062 -0.0495  0.1408
 9006SOL    HW138651   3.406   0.681   1.329 -0.6222 -1.4073  0.9114
 9006SOL    HW238652   3.276   0.738   1.300  1.2716  1.0221  0.4267
 9007SOL     OW38653   4.438   0.085   4.915 -0.2331  0.1047  0.0752
 9007SOL    HW138654   4.477   4.740   4.900  0.5174  0.1768  1.6207
 9007SOL    HW238655   4.449   0.097   5.009 -0.4573 -2.2949  0.3952
 9008SOL     OW38656   0.224   3.175   1.078 -0.0089 -0.3452 -0.1420
 9008SOL    HW138657   0.200   3.111   1.010  0.4032 -0.0041 -0.6131
 9008SOL    HW238658   0.227   3.120   1.156 -2.3496  2.3062  1.7948
 9009SOL     OW38659   4.021   3.282   9.987  0.2376  0.1319 -0.0571
 9009SOL    HW138660   4.017   3.304   9.894  1.5538 -0.2430 -0.1987
 9009SOL    HW238661   4.034   3.372  10.017  1.9507 -0.3919  0.7416
 9010SOL     OW38662   3.234   4.475   8.663  0.4078 -0.3778 -0.2565
 9010SOL    HW138663   3.250   4.390   8.622 -0.3412 -0.3945 -0.5349
 9010SOL    HW238664   3.177   4.520   8.600  0.0308  2.5709  2.2504
 9011SOL     OW38665   0.789   0.726   6.065  0.5569  0.6833 -0.3887
 9011SOL    HW138666   0.713   0.699   6.117  0.3968  0.3506 -0.7938
 9011SOL    HW238667   0.818   0.641   6.031 -0.0049  1.8183 -3.6568
 9012SOL     OW38668   1.391   3.602   1.278 -0.1809 -0.2041  0.4224
 9012SOL    HW138669   1.366   3.579   1.189  1.2831 -0.2322  0.0189
 9012SOL    HW238670   1.304   3.617   1.317  0.2903  1.9660  0.6810
 9013SOL     OW38671   4.478   4.706   2.726 -0.1217  0.1623 -0.0466
 9013SOL    HW138672   4.454   0.013   2.806  0.7368  1.2662 -0.4461
 9013SOL    HW238673   4.401   4.705   2.670 -0.2165 -0.2943  0.0969
 9014SOL     OW38674   3.401   4.110  10.235 -0.8034 -0.7647  0.0176
 9014SOL    HW138675   3.487   4.108  10.193 -0.5599 -1.6634  0.5567
 9014SOL    HW238676   3.397   4.198  10.274 -1.9517 -0.3044 -1.1231
 9015SOL     OW38677   4.687   1.713   7.517  0.5080 -0.3924  0.0277
 9015SOL    HW138678   4.709   1.620   7.522  3.3596  0.3066  0.4440
 9015SOL    HW238679   4.592   1.716   7.528  0.4937 -0.6299 -0.0250
 9016SOL     OW38680   4.435   2.165  14.136 -0.1963 -0.1157  0.3796
 9016SOL    HW138681   4.529   2.147  14.133 -0.4424 -1.3530  0.0979
 9016SOL    HW238682   4.407   2.092  14.191  1.0119 -1.2369 -0.4914
 9017SOL     OW38683   0.749   1.171   7.916  0.3775  0.1288 -0.2425
 9017SOL    HW138684   0.722   1.139   7.830  2.4025  0.9096 -1.1644
 9017SOL    HW238685   0.762   1.264   7.897 -1.0730 -0.0810 -2.1969
 9018SOL     OW38686   3.798   0.815   5.581 -0.5657  0.1710  0.1513
 9018SOL    HW138687   3.840   0.887   5.535 -0.8888 -0.0821 -0.5464
 9018SOL    HW238688   3.721   0.795   5.527  0.0219 -1.2279 -0.1810
 9019SOL     OW38689   4.388   0.372   8.542  0.1923  0.0164 -0.3637
 9019SOL    HW138690   4.380   0.352   8.448  2.4142  0.7182 -0.6996
 9019SOL    HW238691   4.297   0.382   8.569  0.9750  0.7663  2.0194
 9020SOL     OW38692   1.575   0.704   4.197 -0.2265  0.1730 -0.1534
 9020SOL    HW138693   1.616   0.626   4.234 -1.3115  0.0290  0.7112
 9020SOL    HW238694   1.622   0.777   4.236 -2.9233  1.4185  0.7498
 9021SOL     OW38695   2.285   1.871   3.450 -0.9468 -0.4418 -0.2117
 9021SOL    HW138696   2.207   1.901   3.403 -1.0392 -0.0672  0.1797
 9021SOL    HW238697   2.250   1.797   3.499  0.6091  0.0948  1.6924
 9022SOL     OW38698   4.517   4.719   6.870  1.0912  0.3270  0.5946
 9022SOL    HW138699   4.510   4.643   6.929 -0.1312  3.0961  4.0266
 9022SOL    HW238700   4.586   4.688   6.812  0.5826  0.6336 -0.1697
 9023SOL     OW38701   0.440   3.502   3.545 -0.1311  0.6803  0.2268
 9023SOL    HW138702   0.370   3.556   3.583 -0.7529 -0.5256  0.8017
 9023SOL    HW238703   0.407   3.412   3.553  0.2946  0.4015 -1.1341
 9024SOL     OW38704   3.364   0.918  11.842 -0.1070  0.2198 -0.4801
 9024SOL    HW138705   3.445   0.870  11.861 -0.1765 -0.6946 -2.5113
 9024SOL    HW238706   3.364   0.929  11.747 -0.9918 -1.5016 -0.6780
 9025SOL     OW38707   0.621   1.735   2.745 -1.0455 -0.1192 -0.5090
 9025SOL    HW138708   0.580   1.773   2.666 -1.4063  0.0729 -0.2302
 9025SOL    HW238709   0.668   1.662   2.704 -1.2117  0.2452 -1.3578
 9026SOL     OW38710   2.324   0.367  16.444  0.4213  0.2394  0.1208
 9026SOL    HW138711   2.419   0.374  16.455  0.3449 -0.9660  1.5909
 9026SOL    HW238712   2.313   0.436  16.378  0.5267  2.3771  2.2953
 9027SOL     OW38713   0.096   3.801   8.650  0.0509 -0.2187 -0.4586
 9027SOL    HW138714   0.043   3.728   8.620 -0.0500 -1.4517  2.8055
 9027SOL    HW238715   0.173   3.757   8.687 -0.2867  0.8525  1.4802
 9028SOL     OW38716   2.626   3.330   3.048  0.4477  0.3346 -0.2076
 9028SOL    HW138717   2.636   3.423   3.067  0.5199  0.3734 -0.4332
 9028SOL    HW238718   2.538   3.310   3.080  0.1616  2.0787  0.0744
 9029SOL     OW38719   3.582   4.438  16.689  0.2128  0.0873  0.0076
 9029SOL    HW138720   3.616   4.395  16.768 -2.3725 -2.4249 -0.2574
 9029SOL    HW238721   3.501   4.478  16.721 -1.6342 -1.2986 -2.9651
 9030SOL     OW38722   4.340   1.883   1.703  0.6259 -0.4381 -0.3001
 9030SOL    HW138723   4.256   1.925   1.684  0.2522 -0.9042  0.3080
 9030SOL    HW238724   4.339   1.861   1.796 -2.2974 -3.3845 -1.0054
 9031SOL     OW38725   4.641   3.622   6.479  0.0063  0.0753 -0.0140
 9031SOL    HW138726   4.576   3.677   6.522  0.2619 -0.7101  1.3977
 9031SOL    HW238727   4.663   3.669   6.399 -1.9411  0.5569 -0.2490
 9032SOL     OW38728   2.060   1.481   6.330  0.0493 -0.3070 -0.2085
 9032SOL    HW138729   2.055   1.533   6.410  0.6771 -0.3440 -0.1415
 9032SOL    HW238730   2.123   1.520   6.270  0.9235 -0.2665  0.7325
 9033SOL     OW38731   4.461   0.600   6.732 -0.4392  0.3968 -0.4044
 9033SOL    HW138732   4.410   0.585   6.811 -0.6537  0.0740 -0.6055
 9033SOL    HW238733   4.552   0.619   6.754 -0.4499 -0.8519  0.7010
 9034SOL     OW38734   1.317   1.765  12.889  0.1042 -0.0642 -0.2273
 9034SOL    HW138735   1.330   1.835  12.824  0.4807 -0.7661 -0.8991
 9034SOL    HW238736   1.235   1.788  12.933  0.0908  0.5874 -0.5951
 9035SOL     OW38737   4.152   1.015   0.510 -0.4257  0.2386 -0.2276
 9035SOL    HW138738   4.175   0.970   0.429  0.9896 -0.2014  0.4301
 9035SOL    HW238739   4.058   1.032   0.497  0.1242  2.1695 -1.7378
 9036SOL     OW38740   1.053   2.368  15.005  0.5623 -0.3953 -0.0643
 9036SOL    HW138741   0.984   2.375  15.071 -1.1807 -3.5446 -1.5549
 9036SOL    HW238742   1.018   2.415  14.930 -3.0135  1.0863  2.5284
 9037SOL     OW38743   0.331   2.167  12.555 -0.2953  0.9122  0.3950
 9037SOL    HW138744   0.378   2.108  12.495 -0.2563 -1.2522  2.5390
 9037SOL    HW238745   0.343   2.248  12.506 -3.7947  0.2148 -1.6185
 9038SOL     OW38746   0.765   0.358  12.424 -0.1825 -0.5183 -0.1222
 9038SOL    HW138747   0.761   0.269  12.460 -0.4571  0.2025  1.5995
 9038SOL    HW238748   0.679   0.396  12.441 -0.2093 -0.6624  0.0660
 9039SOL     OW38749   0.337   3.074   4.211 -0.3012 -0.1302  0.1325
 9039SOL    HW138750   0.284   2.997   4.188  2.5938 -1.8320 -0.8192
 9039SOL    HW238751   0.305   3.090   4.300  2.2322  0.4397  0.9289
 9040SOL     OW38752   1.864   3.100   8.387  0.5370  0.7426 -0.0843
 9040SOL    HW138753   1.901   3.186   8.364  0.9042  0.7112  0.3634
 9040SOL    HW238754   1.938   3.048   8.419 -1.4925 -1.7988  0.4803
 9041SOL     OW38755   2.098   3.592   7.158  0.3508 -0.0659 -0.0702
 9041SOL    HW138756   2.119   3.562   7.246  2.1792  0.2233 -0.3973
 9041SOL    HW238757   2.184   3.628   7.136  0.1001  1.6299  1.7516
 9042SOL     OW38758   1.297   1.624   6.933 -0.1999 -0.2650  0.2987
 9042SOL    HW138759   1.311   1.571   7.012 -0.9347  0.9408  1.2292
 9042SOL    HW238760   1.202   1.630   6.925 -0.1449  0.7554  0.5178
 9043SOL     OW38761   1.507   1.571   0.981  0.3087 -0.8003  0.2986
 9043SOL    HW138762   1.447   1.495   0.978  0.7912 -1.2263  1.7542
 9043SOL    HW238763   1.467   1.629   0.916  0.3149 -0.8726  0.2295
 9044SOL     OW38764   3.305   0.221   4.011  0.3923 -0.0649 -0.0652
 9044SOL    HW138765   3.270   0.162   3.945 -0.0812  0.2442 -0.0910
 9044SOL    HW238766   3.320   0.304   3.965  0.5493 -0.4267 -0.6666
 9045SOL     OW38767   2.813   3.885  13.922  0.3892 -0.0488  0.2993
 9045SOL    HW138768   2.732   3.914  13.965 -0.4638  1.9822 -2.6909
 9045SOL    HW238769   2.888   3.930  13.960  0.2250  0.0396  0.5198
 9046SOL     OW38770   3.060   0.550   2.553 -0.0263 -0.1941  0.6155
 9046SOL    HW138771   2.989   0.504   2.508  1.8026 -2.1050 -0.3109
 9046SOL    HW238772   3.063   0.613   2.482  2.8691 -2.2374 -1.0813
 9047SOL     OW38773   1.189   0.378   1.985 -0.5825 -0.2288  0.6619
 9047SOL    HW138774   1.094   0.377   1.995 -0.7901  2.0394 -1.2042
 9047SOL    HW238775   1.207   0.303   2.043 -0.5554  0.4946  1.5918
 9048SOL     OW38776   4.504   2.347  14.356 -0.2406  0.5842 -0.1603
 9048SOL    HW138777   4.478   2.297  14.279  0.3445  1.3037 -0.8208
 9048SOL    HW238778   4.458   2.294  14.421  2.9529 -0.6637  1.0425
 9049SOL     OW38779   2.584   2.241   3.935 -0.1133 -0.6394  0.6397
 9049SOL    HW138780   2.643   2.186   3.884  0.0530 -0.1546  0.3153
 9049SOL    HW238781   2.602   2.244   4.029 -0.4244  2.1045  0.5990
 9050SOL     OW38782   1.018   2.928   6.083 -0.0338 -0.2278 -0.3488
 9050SOL    HW138783   1.010   2.975   6.000 -0.5217  1.9974  0.9231
 9050SOL    HW238784   0.926   2.930   6.109 -0.3574 -0.3936 -1.4801
 9051SOL     OW38785   0.713   2.030   0.062  0.7865 -0.6291  0.1810
 9051SOL    HW138786   0.683   2.025   0.153  0.6860  2.7547  0.3374
 9051SOL    HW238787   0.684   1.951   0.018 -1.0798  1.1739 -1.8466
 9052SOL     OW38788   0.770   3.075   6.167  0.0755 -0.1915  0.2771
 9052SOL    HW138789   0.705   3.028   6.219 -1.5625  3.0454  1.2126
 9052SOL    HW238790   0.715   3.142   6.126 -0.0684 -0.4251  0.0932
 9053SOL     OW38791   1.025   0.230   9.877  0.3318  0.4598 -0.2056
 9053SOL    HW138792   1.007   0.151   9.928  2.5617 -0.2495 -0.4926
 9053SOL    HW238793   1.060   0.183   9.801 -1.0584 -0.5630 -0.2090
 9054SOL     OW38794   1.847   1.209   2.183 -0.6519  0.3211 -0.2720
 9054SOL    HW138795   1.848   1.203   2.088 -1.3910  0.1628 -0.2746
 9054SOL    HW238796   1.801   1.293   2.188 -0.1735  0.3215  4.2271
 9055SOL     OW38797   3.118   3.608   5.282  0.3986 -0.2526 -0.2504
 9055SOL    HW138798   3.101   3.538   5.345 -1.9571 -1.1006 -1.8360
 9055SOL    HW238799   3.036   3.657   5.292  0.3482 -0.3012 -0.4373
 9056SOL     OW38800   2.677   2.040   2.275 -0.3302  0.6381 -0.2200
 9056SOL    HW138801   2.641   2.125   2.250 -0.3387  0.8958  0.6699
 9056SOL    HW238802   2.602   1.999   2.318 -1.2116 -1.7098 -3.9549
 9057SOL     OW38803   1.674   3.542   6.024 -0.1054 -0.6562 -0.1027
 9057SOL    HW138804   1.769   3.531   6.027  0.0059  0.3553  0.2155
 9057SOL    HW238805   1.649   3.490   6.100 -1.0898  0.2136  0.1733
 9058SOL     OW38806   3.911   3.531   7.101 -0.0445 -0.4770 -0.1524
 9058SOL    HW138807   3.971   3.493   7.037 -0.8252 -0.1858 -1.0501
 9058SOL    HW238808   3.898   3.447   7.144 -0.5617  0.6873  1.9645
 9059SOL     OW38809   1.608   2.013   9.055  0.5176 -0.1132 -0.3853
 9059SOL    HW138810   1.631   1.920   9.059  0.7484 -0.0721 -0.8804
 9059SOL    HW238811   1.645   2.038   8.971  1.3523 -0.2475 -0.0561
 9060SOL     OW38812   0.666   2.732   1.180 -0.5211  0.5141 -0.1559
 9060SOL    HW138813   0.702   2.689   1.103 -0.9618 -0.2585  0.0604
 9060SOL    HW238814   0.723   2.808   1.178  0.4067 -0.1926 -0.6335
 9061SOL     OW38815   1.548   2.140   8.536  0.9560 -0.0502  0.3499
 9061SOL    HW138816   1.618   2.110   8.478 -0.4613  0.3699 -1.6041
 9061SOL    HW238817   1.541   2.236   8.531  0.8268 -0.0069  1.3443
 9062SOL     OW38818   3.511   1.542  15.874 -0.5039 -0.4262  0.1221
 9062SOL    HW138819   3.530   1.605  15.943 -0.8310 -0.8152  0.5681
 9062SOL    HW238820   3.600   1.529  15.839 -0.0555 -1.2483  1.5847
 9063SOL     OW38821   1.007   4.727   7.821 -0.1024  0.3503 -0.2541
 9063SOL    HW138822   0.997   4.645   7.773  0.1370 -1.5143  2.8502
 9063SOL    HW238823   1.024   0.047   7.750 -0.6996  1.0661  0.2123
 9064SOL     OW38824   2.384   1.287   6.764  0.0376 -0.1894 -0.3161
 9064SOL    HW138825   2.342   1.276   6.679 -0.3875  0.3094 -0.1692
 9064SOL    HW238826   2.353   1.373   6.792 -1.7091 -1.5044  1.7629
 9065SOL     OW38827   1.455   3.504  16.162  0.0074 -0.9758 -0.0535
 9065SOL    HW138828   1.443   3.502  16.257 -1.1393  0.2698 -0.1743
 9065SOL    HW238829   1.497   3.589  16.154 -1.5344 -0.2513 -0.5344
 9066SOL     OW38830   1.553   0.662   6.411  0.1223 -0.3886 -0.0824
 9066SOL    HW138831   1.484   0.597   6.398 -0.6936  0.4969 -0.0871
 9066SOL    HW238832   1.622   0.618   6.360  0.5123 -1.0536  1.0213
 9067SOL     OW38833   2.311   0.453   2.704 -0.6488  0.0035  0.4360
 9067SOL    HW138834   2.348   0.380   2.653 -0.2374 -1.3504  2.7024
 9067SOL    HW238835   2.283   0.511   2.633 -0.2000  0.6951  0.8376
 9068SOL     OW38836   3.774   1.315   1.810 -0.0497 -0.0565 -0.0878
 9068SOL    HW138837   3.858   1.329   1.768 -0.4004  2.5113  0.0539
 9068SOL    HW238838   3.790   1.349   1.898 -0.4342  0.3266 -0.1662
 9069SOL     OW38839   0.696   0.974  15.412 -0.2516  0.2403  0.1595
 9069SOL    HW138840   0.717   0.881  15.427  2.4287  0.9745  1.0823
 9069SOL    HW238841   0.664   0.964  15.323 -1.1158 -2.5240  0.7695
 9070SOL     OW38842   0.762   1.654  11.372 -0.3468 -0.4824 -0.0770
 9070SOL    HW138843   0.679   1.628  11.410 -0.3413  0.3922  0.5396
 9070SOL    HW238844   0.771   1.567  11.334 -1.0814 -0.3265 -0.5959
 9071SOL     OW38845   0.393   4.427   2.088  0.0343  0.3043  0.3752
 9071SOL    HW138846   0.338   4.348   2.091 -1.4274  1.3697  1.6715
 9071SOL    HW238847   0.455   4.411   2.159  0.9154 -1.8680 -0.8760
 9072SOL     OW38848   0.696   0.886  14.838 -0.3854  0.0132  0.0559
 9072SOL    HW138849   0.688   0.793  14.859  0.7340 -0.2207 -0.5186
 9072SOL    HW238850   0.666   0.881  14.747 -1.7293  1.7290  0.4084
 9073SOL     OW38851   1.730   4.391   5.698  0.1027  0.4337 -0.0693
 9073SOL    HW138852   1.668   4.423   5.764 -0.8298 -1.8122  0.1610
 9073SOL    HW238853   1.769   4.478   5.690  1.0280 -0.1259 -1.4240
 9074SOL     OW38854   3.351   1.750   6.152  0.1517  0.4501  0.0835
 9074SOL    HW138855   3.278   1.806   6.177 -1.3075 -1.8962  1.1249
 9074SOL    HW238856   3.370   1.724   6.242 -0.2669 -1.8929 -0.4987
 9075SOL     OW38857   3.433   4.657   4.120  0.0180  0.1648 -0.4894
 9075SOL    HW138858   3.378   4.734   4.130 -1.3089 -1.1377  2.1782
 9075SOL    HW238859   3.382   4.589   4.076 -0.4625  0.2387 -0.0472
 9076SOL     OW38860   2.976   2.705   3.195  0.3701 -0.3172 -0.3398
 9076SOL    HW138861   2.889   2.744   3.207 -0.2595 -2.1650  1.0834
 9076SOL    HW238862   3.026   2.755   3.258 -1.1107  2.9779 -1.7449
 9077SOL     OW38863   1.065   3.975  17.549 -0.2197 -0.0928 -0.2842
 9077SOL    HW138864   1.023   4.004  17.468  1.6603 -1.0948 -1.6166
 9077SOL    HW238865   1.157   3.982  17.523 -0.4048  0.1321 -0.8954
 9078SOL     OW38866   3.222   2.307   7.921  0.3231  0.4487  0.2287
 9078SOL    HW138867   3.219   2.212   7.927  1.4890  0.3471 -0.6551
 9078SOL    HW238868   3.226   2.334   8.012 -0.3842 -1.0606  0.7141
 9079SOL     OW38869   2.906   4.456   5.608  0.2488  0.3113  0.2413
 9079SOL    HW138870   2.949   4.512   5.543  2.2897 -0.5584  0.8567
 9079SOL    HW238871   2.815   4.487   5.608 -0.5542 -2.0072 -0.0984
 9080SOL     OW38872   3.541   2.364   4.591  0.0660 -0.3497  0.2000
 9080SOL    HW138873   3.630   2.353   4.558  0.3153 -0.4262  0.8849
 9080SOL    HW238874   3.525   2.270   4.604  1.6570 -0.5279  0.9099
 9081SOL     OW38875   2.065   0.863   6.080 -0.3554  0.4751  0.2269
 9081SOL    HW138876   2.043   0.838   5.990  1.5206 -0.0131 -0.0958
 9081SOL    HW238877   2.117   0.786   6.099 -0.0877  1.5529  3.7567
 9082SOL     OW38878   3.528   3.711   5.789  0.6101  0.3078 -0.1104
 9082SOL    HW138879   3.476   3.667   5.721  0.6714  1.0065 -0.6141
 9082SOL    HW238880   3.612   3.732   5.748  1.7867 -2.3805  0.9326
 9083SOL     OW38881   4.049   2.413   2.478  0.1278 -0.2498 -0.1694
 9083SOL    HW138882   4.033   2.375   2.392 -0.6761 -1.1652  0.3837
 9083SOL    HW238883   4.032   2.507   2.471 -1.9282 -0.5676  0.6960
 9084SOL     OW38884   1.972   1.688   2.548  0.1470  0.3644 -0.0025
 9084SOL    HW138885   2.004   1.602   2.522 -0.1714 -0.2440  1.6882
 9084SOL    HW238886   2.002   1.746   2.478  3.1905 -0.5647  0.5624
 9085SOL     OW38887   3.652   3.756   6.060  0.0210 -0.4842  0.1640
 9085SOL    HW138888   3.728   3.699   6.070  1.5155  1.3462 -0.8958
 9085SOL    HW238889   3.607   3.715   5.986  1.2775  0.1776 -0.9520
 9086SOL     OW38890   2.985   2.799   6.153  0.4810 -0.4216  0.1039
 9086SOL    HW138891   2.893   2.771   6.159 -0.7795  3.4754 -0.7139
 9086SOL    HW238892   3.008   2.754   6.073  0.0985 -0.1009 -0.1878
 9087SOL     OW38893   4.686   0.963  13.944  0.0035 -0.3047 -0.0206
 9087SOL    HW138894   4.704   0.892  13.883 -1.5554 -0.8931  0.1838
 9087SOL    HW238895   4.601   0.938  13.981  0.5338  0.3880  1.6368
 9088SOL     OW38896   2.692   4.438   7.276  0.9142  0.7465  0.0821
 9088SOL    HW138897   2.626   4.401   7.217  0.9502  1.3526 -0.3351
 9088SOL    HW238898   2.750   4.366   7.300 -2.2355 -1.3466  1.3858
 9089SOL     OW38899   1.718   1.063   9.073  0.1028 -0.1797 -0.8774
 9089SOL    HW138900   1.704   1.157   9.079 -1.8940 -0.6623  2.1500
 9089SOL    HW238901   1.808   1.060   9.106 -0.2335 -1.2235 -0.0170
 9090SOL     OW38902   3.650   1.395   6.965 -0.4005  0.4252  0.4456
 9090SOL    HW138903   3.610   1.404   7.051  2.3756 -1.8839  1.9601
 9090SOL    HW238904   3.599   1.328   6.920 -0.5895  0.0989  1.1472
 9091SOL     OW38905   1.774   2.702   0.609  0.0167 -0.0662  0.0485
 9091SOL    HW138906   1.787   2.753   0.689  0.3573  0.4341 -0.3196
 9091SOL    HW238907   1.839   2.633   0.619  0.0236 -0.2978 -1.5310
 9092SOL     OW38908   0.327   3.920   6.647 -0.3814  0.1068  0.1159
 9092SOL    HW138909   0.236   3.944   6.628  0.2400  1.3288 -1.3102
 9092SOL    HW238910   0.373   3.976   6.584 -1.2492  1.2523  0.4917
 9093SOL     OW38911   1.923   1.680   2.814  0.0043 -0.1973  0.3339
 9093SOL    HW138912   1.950   1.697   2.724  0.3902  2.0692  0.8798
 9093SOL    HW238913   1.846   1.736   2.826 -0.1549 -0.5555  1.0357
 9094SOL     OW38914   1.340   2.745  12.389  0.3630  0.2062 -0.0927
 9094SOL    HW138915   1.379   2.661  12.416 -2.5040 -1.0977  0.0158
 9094SOL    HW238916   1.257   2.745  12.437  0.6335  1.0578  0.3618
 9095SOL     OW38917   2.402   2.512   1.986  0.1063  0.1238  0.1970
 9095SOL    HW138918   2.351   2.590   1.964  0.5588  0.0044 -1.3120
 9095SOL    HW238919   2.384   2.515   2.080 -1.8207  0.1711 -0.1740
 9096SOL     OW38920   0.300   1.229   5.401 -0.1196  0.3498 -0.1609
 9096SOL    HW138921   0.372   1.286   5.425  0.0638  1.1931 -2.7112
 9096SOL    HW238922   0.232   1.248   5.466  1.4175 -0.0481  1.5492
 9097SOL     OW38923   2.907   2.031   1.195  0.1766 -0.0975 -1.0301
 9097SOL    HW138924   2.850   1.973   1.145 -0.5964  0.6508 -1.0161
 9097SOL    HW238925   2.947   2.090   1.132  0.3376  0.1369 -0.7120
 9098SOL     OW38926   2.209   0.779   5.089 -0.1764  0.4726  0.6585
 9098SOL    HW138927   2.279   0.735   5.137  0.8927 -0.0088 -1.3323
 9098SOL    HW238928   2.236   0.870   5.103  1.3958  0.0682  0.3510
 9099SOL     OW38929   2.379   4.648   5.066 -0.4186  0.1228  0.0638
 9099SOL    HW138930   2.370   4.552   5.067 -1.9576  0.2888  1.4538
 9099SOL    HW238931   2.358   4.665   5.157  1.0616 -1.0055  0.6244
 9100SOL     OW38932   3.095   2.286   1.311  0.0533 -0.4888  0.2262
 9100SOL    HW138933   3.180   2.318   1.284 -0.7598 -0.0764 -1.8024
 9100SOL    HW238934   3.109   2.243   1.396 -1.3571  1.0874  1.2637
 9101SOL     OW38935   1.584   4.469   2.006 -0.3864  0.0126 -0.5765
 9101SOL    HW138936   1.575   4.535   2.074 -0.1484 -1.5175  0.9250
 9101SOL    HW238937   1.627   4.397   2.051  1.4113  1.1366 -0.5177
 9102SOL     OW38938   1.694   1.082   3.176  0.3009  0.2407  0.0265
 9102SOL    HW138939   1.615   1.081   3.122 -0.8448 -0.1649  1.7307
 9102SOL    HW238940   1.733   0.995   3.180 -0.8363 -0.1854  1.9864
 9103SOL     OW38941   3.600   0.218   4.908  0.1865 -0.0272 -0.0854
 9103SOL    HW138942   3.612   0.285   4.841 -1.7808 -0.2886 -0.7063
 9103SOL    HW238943   3.682   0.220   4.958 -1.4087 -1.8405  2.5690
 9104SOL     OW38944   0.971   4.334   6.709  0.0570 -0.0830 -0.2100
 9104SOL    HW138945   1.036   4.268   6.736 -0.4047  0.0764  1.3175
 9104SOL    HW238946   1.020   4.415   6.718  0.6288 -0.3043 -1.3980
 9105SOL     OW38947   0.165   2.755   6.804  0.1817  0.1060  0.3788
 9105SOL    HW138948   0.142   2.670   6.843  0.8863 -0.3923 -0.2781
 9105SOL    HW238949   0.081   2.797   6.789 -0.5100 -1.3719  0.1431
 9106SOL     OW38950   1.813   1.593   6.388  0.6673 -0.1940  0.2692
 9106SOL    HW138951   1.799   1.684   6.361  2.6396 -0.5750 -2.0120
 9106SOL    HW238952   1.819   1.559   6.299  1.2214  0.8195 -0.0750
 9107SOL     OW38953   1.043   1.483   8.067 -0.0245  0.0448  0.7343
 9107SOL    HW138954   1.135   1.509   8.060 -0.2624  1.3039  2.1954
 9107SOL    HW238955   1.060   1.418   8.136  0.4625 -1.3634 -0.7133
 9108SOL     OW38956   4.601   0.227   6.640 -0.2781  0.2340  0.4090
 9108SOL    HW138957   4.598   0.302   6.581 -0.5894 -1.3390 -1.5655
 9108SOL    HW238958   4.527   0.174   6.612 -1.5845  3.4123 -2.1043
 9109SOL     OW38959   1.762   3.045   5.435  0.5616 -0.5637 -0.0032
 9109SOL    HW138960   1.732   2.955   5.423  0.5723 -0.8188  1.9925
 9109SOL    HW238961   1.718   3.081   5.357 -0.7705 -1.1827  0.4744
 9110SOL     OW38962   1.047   4.314  13.261  0.0077 -0.0272  0.4680
 9110SOL    HW138963   1.013   4.244  13.205  2.6867 -0.7125 -0.2930
 9110SOL    HW238964   1.056   4.269  13.345 -0.6615  1.7226  1.4705
 9111SOL     OW38965   3.346   1.087  13.044 -0.4421 -0.7552 -0.0879
 9111SOL    HW138966   3.281   1.098  12.975 -0.9454  0.5208  0.5943
 9111SOL    HW238967   3.420   1.121  12.994 -1.6633 -0.3457 -1.5846
 9112SOL     OW38968   4.725   0.620   2.931 -0.5462  0.3020  0.1193
 9112SOL    HW138969   0.071   0.622   2.891 -0.1444 -0.5667  0.9356
 9112SOL    HW238970   4.672   0.593   2.856 -0.7073 -0.5728  0.5513
 9113SOL     OW38971   3.269   4.262   8.906  0.5421 -0.4483 -0.2785
 9113SOL    HW138972   3.327   4.336   8.925 -0.9545  0.7195 -0.3120
 9113SOL    HW238973   3.262   4.230   8.995 -0.1588  0.6118  0.0393
 9114SOL     OW38974   1.331   3.878  17.735 -0.0568  0.7912 -0.3423
 9114SOL    HW138975   1.252   3.830  17.711  0.1756 -0.2591  0.9784
 9114SOL    HW238976   1.332   3.928  17.653  0.9719  0.3142 -0.6245
 9115SOL     OW38977   2.490   2.971  10.530  0.1227  0.4914  0.7072
 9115SOL    HW138978   2.512   2.894  10.581 -0.6190 -1.2602 -1.6129
 9115SOL    HW238979   2.533   3.041  10.580  0.7050 -0.7157  1.8718
 9116SOL     OW38980   0.574   2.082   9.443  0.6448  0.2769  0.0367
 9116SOL    HW138981   0.584   2.162   9.392 -1.1888 -1.5579 -3.2141
 9116SOL    HW238982   0.669   2.067   9.446  0.6938  0.7140  0.5581
 9117SOL     OW38983   2.403   1.551  15.992  0.3068 -0.7494  0.2063
 9117SOL    HW138984   2.309   1.530  15.992  0.1154  0.0964 -0.1894
 9117SOL    HW238985   2.418   1.563  15.898 -0.0837  1.2497  0.3898
 9118SOL     OW38986   3.049   3.470   5.826 -0.3066 -0.0273 -0.6298
 9118SOL    HW138987   3.063   3.553   5.872  0.6333  0.1133 -1.1777
 9118SOL    HW238988   2.993   3.432   5.894 -1.1640  1.9010 -0.2382
 9119SOL     OW38989   1.226   2.416   6.923 -0.0949  0.2672  0.2274
 9119SOL    HW138990   1.222   2.333   6.876 -2.6469 -0.0322  0.9831
 9119SOL    HW238991   1.166   2.473   6.875 -1.3508 -1.9134 -0.8091
 9120SOL     OW38992   0.544   4.349  13.087 -0.5815  0.7050 -0.2132
 9120SOL    HW138993   0.628   4.367  13.047 -0.0633 -4.0306 -1.3082
 9120SOL    HW238994   0.538   4.415  13.156  0.8774  1.8797 -1.2330
 9121SOL     OW38995   4.559   4.254   4.814 -0.2664 -0.0106 -0.4151
 9121SOL    HW138996   4.497   4.310   4.767 -3.4071 -1.6610  1.7162
 9121SOL    HW238997   4.502   4.178   4.807  0.8065 -0.8783  0.2714
 9122SOL     OW38998   1.220   3.154   4.141  0.2602 -0.1616 -0.4245
 9122SOL    HW138999   1.139   3.192   4.107 -0.0706  0.5295  1.1513
 9122SOL    HW239000   1.272   3.229   4.170 -0.7398 -0.6934  2.7575
 9123SOL     OW39001   0.548   0.751   3.916 -0.2023  0.2629  0.0957
 9123SOL    HW139002   0.495   0.765   3.837 -0.6733 -0.8817  0.2041
 9123SOL    HW239003   0.515   0.668   3.950  1.2129 -0.6512 -0.7484
 9124SOL     OW39004   2.008   3.579   9.734 -0.4909  0.4664  0.4006
 9124SOL    HW139005   1.986   3.661   9.779  0.5568  0.7522  0.3796
 9124SOL    HW239006   1.924   3.546   9.701 -0.6656  2.3548 -1.0525
 9125SOL     OW39007   4.353   2.172   5.434  0.3745  0.6966  0.2044
 9125SOL    HW139008   4.375   2.205   5.346  1.2600  0.8996  0.5070
 9125SOL    HW239009   4.428   2.113   5.438 -0.4053 -0.2750  0.6735
 9126SOL     OW39010   1.408   1.377   6.795  0.3059 -0.2402 -0.3591
 9126SOL    HW139011   1.320   1.411   6.777  0.2420  0.4410  1.3122
 9126SOL    HW239012   1.425   1.413   6.882 -1.0212 -1.5365  0.4396
 9127SOL     OW39013   3.966   1.683   3.786  0.0028 -0.0209  0.0882
 9127SOL    HW139014   3.937   1.694   3.696 -3.5195 -0.8867  1.1417
 9127SOL    HW239015   4.060   1.700   3.775  0.0123  0.3992  0.7962
 9128SOL     OW39016   4.691   2.842   5.793  0.2046  0.1180  0.0851
 9128SOL    HW139017   0.025   2.790   5.823 -0.9029 -2.4008 -1.4931
 9128SOL    HW239018   4.632   2.767   5.787  1.0422 -0.3457 -2.4915
 9129SOL     OW39019   2.404   3.019   2.991 -0.0450  0.2103  0.7774
 9129SOL    HW139020   2.498   3.022   3.012 -0.1449  0.7544  1.1570
 9129SOL    HW239021   2.368   3.102   3.022 -1.9281 -0.6237  0.8328
 9130SOL     OW39022   1.927   0.644  15.235 -0.1537 -0.3518 -0.7415
 9130SOL    HW139023   1.882   0.568  15.198 -0.9906  0.8093 -2.0982
 9130SOL    HW239024   1.954   0.617  15.323  0.0471  0.5118 -0.5364
 9131SOL     OW39025   0.598   4.645  13.206 -0.0623  0.0257 -0.6821
 9131SOL    HW139026   0.672   4.613  13.258 -0.8526  1.6644  1.4817
 9131SOL    HW239027   0.646   4.720  13.170 -0.9300  0.0963 -1.6837
 9132SOL     OW39028   0.821   3.852   0.234  0.5016  0.0388 -0.2390
 9132SOL    HW139029   0.778   3.841   0.149  0.5489  0.4262 -0.3120
 9132SOL    HW239030   0.909   3.820   0.214  0.9564  0.1558  1.5860
 9133SOL     OW39031   2.825   3.201   7.942 -0.0096  0.1101 -0.7064
 9133SOL    HW139032   2.782   3.279   7.908  0.9408 -0.1894 -2.6161
 9133SOL    HW239033   2.754   3.156   7.988  0.4926 -1.2187 -1.2301
 9134SOL     OW39034   0.207   1.881   5.465 -0.6948 -0.6980  0.2201
 9134SOL    HW139035   0.154   1.956   5.440  1.2817  0.0367 -1.7220
 9134SOL    HW239036   0.236   1.898   5.555 -1.4824 -0.3689  0.4083
 9135SOL     OW39037   3.007   1.030  16.717 -0.9795 -0.2848 -0.2126
 9135SOL    HW139038   3.016   1.124  16.735 -0.6566 -0.3351 -0.1080
 9135SOL    HW239039   3.045   0.993  16.797  0.3768 -1.5735 -1.4656
 9136SOL     OW39040   3.304   2.984   4.390  0.0656 -0.0902 -0.2799
 9136SOL    HW139041   3.324   2.890   4.393  0.8529  0.0441 -1.1377
 9136SOL    HW239042   3.353   3.009   4.468  0.5646 -2.8832  0.3134
 9137SOL     OW39043   2.159   2.367   1.906 -0.3685  0.2579  0.1142
 9137SOL    HW139044   2.253   2.372   1.921  0.0766  0.9553 -2.9119
 9137SOL    HW239045   2.156   2.362   1.810 -0.3443 -1.0402  0.1836
 9138SOL     OW39046   1.458   1.025   3.050 -0.1058  0.4819 -0.3166
 9138SOL    HW139047   1.406   1.038   2.971  0.2589 -0.4241 -0.7056
 9138SOL    HW239048   1.388   1.009   3.113  0.3089 -1.6724 -0.4144
 9139SOL     OW39049   2.001   2.460   8.860 -1.0494  0.0106  0.4282
 9139SOL    HW139050   1.976   2.380   8.906  3.1351 -1.0766  0.8204
 9139SOL    HW239051   2.019   2.521   8.932  0.2316  0.0471  0.0653
 9140SOL     OW39052   2.784   3.594  13.213  0.4176  0.2836  0.2764
 9140SOL    HW139053   2.717   3.634  13.267 -1.4034 -2.4084  0.0063
 9140SOL    HW239054   2.797   3.654  13.139 -0.7230  0.8559  0.5536
 9141SOL     OW39055   0.317   3.564  11.241  0.4267  0.5475 -0.9753
 9141SOL    HW139056   0.302   3.611  11.323 -0.0987 -0.1068 -0.6922
 9141SOL    HW239057   0.232   3.570  11.198 -0.4001  2.9168  0.9714
 9142SOL     OW39058   3.610   3.104   2.509  0.2418  0.5875  0.3796
 9142SOL    HW139059   3.590   3.112   2.416 -3.3255  1.8568  1.2302
 9142SOL    HW239060   3.613   3.196   2.535 -0.7060  0.3285  1.3891
 9143SOL     OW39061   1.406   2.873  15.198  0.1872 -0.4511  0.4514
 9143SOL    HW139062   1.320   2.913  15.208  0.9170  0.9750  1.0095
 9143SOL    HW239063   1.454   2.955  15.190 -0.7602 -0.2250 -3.0623
 9144SOL     OW39064   3.935   1.247  10.059  0.0757 -0.0681  0.1341
 9144SOL    HW139065   3.861   1.197  10.093  0.1785 -1.1025 -1.1453
 9144SOL    HW239066   3.994   1.265  10.132  1.5545  2.1626 -1.6147
 9145SOL     OW39067   0.725   2.970   3.664 -0.8435 -0.0327  0.1491
 9145SOL    HW139068   0.755   2.925   3.585 -0.1837  1.2200 -0.3225
 9145SOL    HW239069   0.631   2.951   3.667 -1.0441  1.1656  1.2598
 9146SOL     OW39070   2.519   4.367   9.970  0.2750 -0.5197  0.4455
 9146SOL    HW139071   2.578   4.404  10.035  0.3336  1.0105 -0.4898
 9146SOL    HW239072   2.519   4.272   9.983 -0.0512 -0.5493  0.2430
 9147SOL     OW39073   2.607   1.946   3.659  0.5685  0.1701  0.0041
 9147SOL    HW139074   2.550   1.880   3.698  0.1721  0.7348  0.3890
 9147SOL    HW239075   2.691   1.939   3.704  0.9376 -0.7522 -0.8288
 9148SOL     OW39076   1.663   0.733   4.769  0.1106  0.8145 -0.2950
 9148SOL    HW139077   1.696   0.678   4.840 -0.9733 -0.2456 -0.6143
 9148SOL    HW239078   1.668   0.678   4.691  3.9843 -0.3953  0.8202
 9149SOL     OW39079   0.510   2.683   8.031 -0.2775 -0.3029  0.3215
 9149SOL    HW139080   0.604   2.679   8.048 -0.3041 -0.1773  0.5069
 9149SOL    HW239081   0.494   2.601   7.985  0.9547 -1.4477  1.9380
 9150SOL     OW39082   3.101   3.387   5.571  0.6191 -0.0959  0.3764
 9150SOL    HW139083   3.038   3.315   5.578 -0.3693  0.5093 -2.2388
 9150SOL    HW239084   3.087   3.422   5.659  1.3575 -0.7338  0.7459
 9151SOL     OW39085   0.838   2.284   2.543 -0.5609 -0.0595 -0.3307
 9151SOL    HW139086   0.913   2.306   2.489 -1.1864 -1.7616 -1.9110
 9151SOL    HW239087   0.871   2.208   2.592 -2.4155 -1.4623 -1.2199
 9152SOL     OW39088   2.091   2.537   9.132 -0.1532 -0.1557  0.2962
 9152SOL    HW139089   2.136   2.619   9.115 -0.6833 -0.2544 -1.6423
 9152SOL    HW239090   2.042   2.556   9.212  0.1522 -0.7308  0.6165
 9153SOL     OW39091   3.153   0.925   3.514 -0.6691  0.5741  0.3955
 9153SOL    HW139092   3.107   0.913   3.431 -2.3731 -0.2156  1.4556
 9153SOL    HW239093   3.075   0.946   3.566  0.1930  0.8169  1.6054
 9154SOL     OW39094   3.609   1.909  16.398 -0.3296  0.0560  0.0325
 9154SOL    HW139095   3.640   1.842  16.337 -1.2885 -1.4524  1.2297
 9154SOL    HW239096   3.587   1.856  16.474 -2.1923  2.0342  0.8837
 9155SOL     OW39097   1.214   3.553   4.332  0.1737 -0.3452  0.2531
 9155SOL    HW139098   1.289   3.497   4.310  1.4891  1.4234  0.2884
 9155SOL    HW239099   1.175   3.504   4.405 -2.0815 -1.2131 -1.5190
 9156SOL     OW39100   3.199   0.407   0.804  0.5702 -0.2549  0.0965
 9156SOL    HW139101   3.165   0.412   0.715  0.7090  2.1939  0.1841
 9156SOL    HW239102   3.167   0.491   0.837 -0.1944  0.1297 -1.6267
 9157SOL     OW39103   2.708   3.802   9.823 -0.5890  0.1193  0.2263
 9157SOL    HW139104   2.666   3.735   9.769  1.8894 -2.0901  1.0787
 9157SOL    HW239105   2.651   3.875   9.799 -0.4712  0.7386  1.7857
 9158SOL     OW39106   0.845   2.506   8.356  0.2105 -0.6254  0.0602
 9158SOL    HW139107   0.821   2.441   8.290  2.6121 -0.1861 -1.2270
 9158SOL    HW239108   0.808   2.473   8.439  0.4421  0.1218  0.4610
 9159SOL     OW39109   4.212   0.541   6.240 -0.7868 -0.3549  0.3613
 9159SOL    HW139110   4.304   0.555   6.264 -0.3965  0.6300 -1.7531
 9159SOL    HW239111   4.174   0.529   6.327  0.5373 -0.5384  0.9113
 9160SOL     OW39112   0.671   3.566   7.398  0.1106  0.0727  0.6799
 9160SOL    HW139113   0.746   3.591   7.343  0.1787 -2.0711 -0.2264
 9160SOL    HW239114   0.613   3.587   7.325 -1.2349 -0.0392  1.7390
 9161SOL     OW39115   1.387   2.091  13.878  0.7193  0.1648 -0.4856
 9161SOL    HW139116   1.423   2.044  13.803  0.8579  0.9500 -0.9179
 9161SOL    HW239117   1.308   2.122  13.833  0.1791  0.1922  0.4758
 9162SOL     OW39118   3.694   3.365   7.907 -0.2084  0.2677  0.0755
 9162SOL    HW139119   3.688   3.306   7.832  0.6514 -0.6932  0.7599
 9162SOL    HW239120   3.689   3.299   7.975 -0.5236  1.8007  1.5428
 9163SOL     OW39121   1.113   3.769   2.219  0.3201  0.0064  0.3092
 9163SOL    HW139122   1.123   3.677   2.194 -0.6501  0.4808 -1.8593
 9163SOL    HW239123   1.068   3.760   2.303  1.8496  1.5513  1.3130
 9164SOL     OW39124   3.793   1.720   3.191 -0.2246 -0.2108  0.1906
 9164SOL    HW139125   3.793   1.799   3.245 -2.2102 -0.6629  0.8525
 9164SOL    HW239126   3.733   1.664   3.240 -1.6750 -0.1507 -1.5006
 9165SOL     OW39127   0.871   3.066   1.662  0.3420 -0.3711 -0.2607
 9165SOL    HW139128   0.893   2.973   1.654  0.0234 -0.4802  0.1372
 9165SOL    HW239129   0.955   3.086   1.704 -0.3148 -0.0493  0.8991
 9166SOL     OW39130   1.217   3.403  16.100 -0.0394 -0.3704  0.4093
 9166SOL    HW139131   1.311   3.412  16.113 -0.1599 -0.8310  1.5395
 9166SOL    HW239132   1.229   3.446  16.015 -0.8823 -1.0606 -0.0675
 9167SOL     OW39133   0.447   0.549  17.325 -0.4121  0.1348  0.8476
 9167SOL    HW139134   0.472   0.636  17.295 -2.1932  0.4127  0.1816
 9167SOL    HW239135   0.532   0.512  17.350 -0.7233 -2.0873 -1.3936
 9168SOL     OW39136   4.463   4.298  10.776 -0.1486  0.0210 -0.1946
 9168SOL    HW139137   4.462   4.214  10.731  0.4285 -1.1103  1.8834
 9168SOL    HW239138   4.557   4.313  10.779  0.2345 -2.5599  0.8904
 9169SOL     OW39139   4.254   0.600   4.578 -0.1195 -0.0610 -0.3371
 9169SOL    HW139140   4.322   0.555   4.628 -0.2020 -0.7861 -0.8649
 9169SOL    HW239141   4.193   0.530   4.553 -1.3490  0.2460  1.8295
 9170SOL     OW39142   4.241   1.760   8.360 -0.2023  0.1704 -0.5504
 9170SOL    HW139143   4.174   1.702   8.396  1.4808 -2.0945 -1.0513
 9170SOL    HW239144   4.314   1.739   8.418 -1.4761 -0.0223  0.9680
 9171SOL     OW39145   3.747   2.827  15.204 -0.0772 -0.3478  0.2564
 9171SOL    HW139146   3.716   2.911  15.238 -1.0371 -0.8888  0.7059
 9171SOL    HW239147   3.839   2.852  15.193  0.5289 -2.7970 -0.2366
 9172SOL     OW39148   3.404   0.784   4.601  0.1958 -0.3498  0.3043
 9172SOL    HW139149   3.331   0.769   4.661  0.1924 -2.8078 -0.3118
 9172SOL    HW239150   3.471   0.785   4.670  1.1454  3.0262 -0.6741
 9173SOL     OW39151   2.168   1.437  15.925 -0.3462 -0.1864 -0.0344
 9173SOL    HW139152   2.077   1.435  15.953 -0.9482  1.7978 -1.8564
 9173SOL    HW239153   2.160   1.429  15.830 -0.0090 -1.3333  0.0336
 9174SOL     OW39154   1.737   1.767  15.389  0.6257 -0.6886  0.3339
 9174SOL    HW139155   1.682   1.698  15.352 -0.6710  0.4852  0.0880
 9174SOL    HW239156   1.790   1.789  15.312 -1.3903 -0.2671 -0.9461
 9175SOL     OW39157   0.797   3.643  17.632  0.4974 -0.3087 -0.2493
 9175SOL    HW139158   0.777   3.737  17.640 -2.0386 -0.7817 -0.8480
 9175SOL    HW239159   0.736   3.621  17.561  0.4279  1.3795 -0.7292
 9176SOL     OW39160   1.426   2.559  12.017  0.0635  0.0309  0.0992
 9176SOL    HW139161   1.483   2.597  11.950 -0.6743  1.0209  0.0409
 9176SOL    HW239162   1.339   2.587  11.988  1.0174  3.0250  0.2095
 9177SOL     OW39163   4.400   3.813   4.410 -0.1315 -0.0798 -0.3851
 9177SOL    HW139164   4.360   3.731   4.439  2.0677 -1.4778 -1.2332
 9177SOL    HW239165   4.421   3.863   4.489  2.0991  0.0619 -1.0715
 9178SOL     OW39166   2.499   3.471   9.899  0.2947  0.2419 -0.5874
 9178SOL    HW139167   2.418   3.503   9.860  2.0017  1.6647 -2.9160
 9178SOL    HW239168   2.510   3.523   9.979  0.9047 -0.9486  0.1137
 9179SOL     OW39169   1.158   2.591   3.891 -0.1433 -0.5944  0.0356
 9179SOL    HW139170   1.201   2.539   3.823 -2.0196  1.9015 -3.0839
 9179SOL    HW239171   1.200   2.561   3.971 -1.2386 -0.3514  0.6963
 9180SOL     OW39172   0.765   1.368  10.903  0.5693  0.1164 -0.5172
 9180SOL    HW139173   0.781   1.457  10.934  2.2553 -0.2914 -0.2043
 9180SOL    HW239174   0.848   1.344  10.861  1.0151 -0.4501  0.6643
 9181SOL     OW39175   2.359   0.775  13.537  0.1604 -0.1394  0.0169
 9181SOL    HW139176   2.354   0.854  13.590 -0.9151 -0.3769  0.2637
 9181SOL    HW239177   2.347   0.801  13.445 -1.8130 -1.1494 -0.0056
 9182SOL     OW39178   4.228   2.270   4.827 -0.2304  0.0072  0.1135
 9182SOL    HW139179   4.283   2.324   4.770 -0.1710  2.1994  2.2774
 9182SOL    HW239180   4.154   2.330   4.825  0.3145  0.6811  0.3941
 9183SOL     OW39181   3.167   2.548   6.549 -0.4099 -0.1681 -0.2970
 9183SOL    HW139182   3.227   2.621   6.541 -0.8353  0.2519  0.3190
 9183SOL    HW239183   3.170   2.516   6.459 -0.9697  1.6356 -0.9629
 9184SOL     OW39184   1.149   2.435   6.294  0.5663 -0.3779 -0.1318
 9184SOL    HW139185   1.102   2.493   6.356 -3.7624 -2.6259 -1.2923
 9184SOL    HW239186   1.239   2.448   6.322  0.3830  1.2876 -0.2912
 9185SOL     OW39187   1.948   2.828  16.418  0.3379  0.3880  0.5378
 9185SOL    HW139188   1.976   2.907  16.372  1.8545 -0.8957 -0.7429
 9185SOL    HW239189   1.922   2.861  16.504  1.5756 -1.2434  1.5406
 9186SOL     OW39190   3.736   1.620   1.804 -0.2058  0.0612 -0.0320
 9186SOL    HW139191   3.754   1.526   1.797 -0.0243  0.0809  0.1536
 9186SOL    HW239192   3.821   1.663   1.805 -1.0410  1.7175  0.6442
 9187SOL     OW39193   1.849   2.772   8.668  0.0288  0.6053  0.1171
 9187SOL    HW139194   1.784   2.777   8.738  1.3999 -1.5845  1.5458
 9187SOL    HW239195   1.889   2.859   8.667 -0.1230  0.6772  0.3965
 9188SOL     OW39196   2.799   4.662  12.331 -0.2799 -0.0254 -0.3935
 9188SOL    HW139197   2.788   0.016  12.334 -0.1365 -0.0577  1.1843
 9188SOL    HW239198   2.746   4.634  12.257 -0.5325  0.6476 -0.4647
 9189SOL     OW39199   3.098   0.326   1.478 -0.1062 -0.0059 -0.1358
 9189SOL    HW139200   3.063   0.282   1.555 -1.8636 -0.8283 -1.4133
 9189SOL    HW239201   3.187   0.290   1.479  0.1364  0.5912 -0.2494
 9190SOL     OW39202   4.469   4.095   2.820  0.5414 -0.0011 -0.0961
 9190SOL    HW139203   4.531   4.145   2.873 -0.4626  0.6019  0.5107
 9190SOL    HW239204   4.391   4.133   2.860  1.5961  0.6534  1.3484
 9191SOL     OW39205   3.078   1.569  10.636 -0.1934 -0.2918 -0.8919
 9191SOL    HW139206   3.105   1.655  10.606  1.0558  0.2263  1.7630
 9191SOL    HW239207   3.120   1.527  10.560  1.5426 -0.3109  0.0705
 9192SOL     OW39208   2.243   0.564   9.171  0.2437 -0.3788  0.2069
 9192SOL    HW139209   2.251   0.558   9.266 -1.7590  1.5210  0.4814
 9192SOL    HW239210   2.217   0.476   9.144 -0.5158 -0.0728 -0.0628
 9193SOL     OW39211   1.737   0.123  17.613 -0.3931 -0.0893  0.8554
 9193SOL    HW139212   1.725   0.028  17.604  1.4524 -0.3217  0.7523
 9193SOL    HW239213   1.668   0.159  17.558  2.6322 -1.1972 -3.6271
 9194SOL     OW39214   0.536   3.056  17.557 -0.2355 -0.1846  0.2500
 9194SOL    HW139215   0.484   3.103  17.491  0.4233  1.3520  0.8433
 9194SOL    HW239216   0.489   2.973  17.567 -0.7320 -0.2363 -2.4765
 9195SOL     OW39217   3.181   4.192   2.623  0.3089 -0.4450 -0.2108
 9195SOL    HW139218   3.230   4.261   2.669 -0.6696 -0.9511  1.5871
 9195SOL    HW239219   3.108   4.242   2.587  0.2141 -0.4158  0.0212
 9196SOL     OW39220   3.075   3.556  17.553  0.2293 -0.2123  0.4959
 9196SOL    HW139221   3.120   3.472  17.542  0.1922 -0.1579 -0.0867
 9196SOL    HW239222   3.127   3.615  17.499  3.1598 -2.3409  0.9850
 9197SOL     OW39223   3.008   0.771   6.562 -0.1086 -0.3311 -0.2613
 9197SOL    HW139224   2.948   0.699   6.582 -0.0587 -0.0852  0.7904
 9197SOL    HW239225   3.001   0.817   6.646 -4.0333  0.9230 -1.3323
 9198SOL     OW39226   3.413   0.037  11.921 -0.4029 -0.2726  0.4068
 9198SOL    HW139227   3.386   0.072  12.006 -2.0566 -0.2371 -0.1400
 9198SOL    HW239228   3.411   0.117  11.870 -1.7329 -1.6416 -1.6753
 9199SOL     OW39229   0.906   4.021  16.256  0.4801 -0.0945  0.4669
 9199SOL    HW139230   0.842   4.052  16.320 -1.4259  0.3478 -1.6480
 9199SOL    HW239231   0.858   3.949  16.214 -0.8127  1.7278 -1.1669
 9200SOL     OW39232   4.581   1.462   7.012 -0.1377 -0.5196  0.1099
 9200SOL    HW139233   4.521   1.495   7.078  1.3380 -0.3146  1.3630
 9200SOL    HW239234   4.571   1.524   6.940  0.1459  0.8791  1.2852
 9201SOL     OW39235   4.016   1.932   6.367  0.3364 -0.4342 -0.8028
 9201SOL    HW139236   3.976   1.906   6.283 -4.8441  0.9249  1.2435
 9201SOL    HW239237   3.937   1.927   6.421 -0.1094  0.6026 -1.3577
 9202SOL     OW39238   0.474   4.401   5.444 -0.5210 -0.2903  0.3485
 9202SOL    HW139239   0.437   4.488   5.456  0.6684  0.0177  1.6872
 9202SOL    HW239240   0.483   4.404   5.348 -1.4623  1.8137  0.3291
 9203SOL     OW39241   3.588   3.360   4.630 -0.5901  0.6048  0.4059
 9203SOL    HW139242   3.530   3.426   4.592 -2.7581 -0.8620  1.1632
 9203SOL    HW239243   3.533   3.298   4.679 -0.2904 -0.3062 -0.4233
 9204SOL     OW39244   3.565   4.335   4.993 -0.5262 -0.2170  0.8962
 9204SOL    HW139245   3.581   4.412   5.048 -0.2456 -0.7309  1.5304
 9204SOL    HW239246   3.539   4.381   4.912 -1.4259 -0.2558  1.1594
 9205SOL     OW39247   3.586   0.703   3.091  0.2272 -0.3348  0.5388
 9205SOL    HW139248   3.619   0.786   3.057  1.2456  0.0607  2.5317
 9205SOL    HW239249   3.671   0.660   3.087  0.8134  1.0609 -2.0847
 9206SOL     OW39250   1.885   2.280  15.782  0.0888  0.2184  0.2758
 9206SOL    HW139251   1.875   2.299  15.875  1.0004  0.8822  0.2337
 9206SOL    HW239252   1.861   2.187  15.777  1.2820 -0.0685 -0.1985
 9207SOL     OW39253   3.248   2.338   5.865 -0.5030 -0.3270 -0.4064
 9207SOL    HW139254   3.222   2.256   5.824 -0.7723 -0.2262 -0.4383
 9207SOL    HW239255   3.266   2.370   5.777  1.3816 -0.7952 -0.1774
 9208SOL     OW39256   2.754   3.500   4.444  0.0600 -0.3887  0.4090
 9208SOL    HW139257   2.767   3.414   4.484 -0.6048  0.1680  1.8161
 9208SOL    HW239258   2.795   3.480   4.360 -2.4614 -0.1562 -0.8838
 9209SOL     OW39259   2.644   2.950  10.026 -0.0174  0.7112 -0.6489
 9209SOL    HW139260   2.572   2.995   9.982 -1.8357  0.8463  2.4579
 9209SOL    HW239261   2.706   2.995   9.969  1.6450 -0.4949  0.2079
 9210SOL     OW39262   2.733   2.883   5.265 -0.0715  0.0249 -0.4953
 9210SOL    HW139263   2.666   2.931   5.217  0.8997  1.8191 -0.0178
 9210SOL    HW239264   2.675   2.820   5.309  1.1511  0.1532  1.2588
 9211SOL     OW39265   4.290   0.374   2.707 -0.2376  0.1781 -0.2953
 9211SOL    HW139266   4.198   0.360   2.728 -0.5674  0.7402 -1.3396
 9211SOL    HW239267   4.279   0.452   2.653  0.6408  0.4505 -0.0755
 9212SOL     OW39268   0.056   1.929   3.813  0.4427 -0.0821  0.3406
 9212SOL    HW139269   0.043   1.843   3.853 -1.1665  0.5825  1.2371
 9212SOL    HW239270   0.139   1.913   3.767  1.1161 -2.5287  2.3970
 9213SOL     OW39271   4.344   4.153  14.575  0.2380  0.2977 -0.5929
 9213SOL    HW139272   4.280   4.196  14.517  2.3595 -0.0359 -3.1788
 9213SOL    HW239273   4.288   4.078  14.594 -0.4976  0.2277 -2.9256
 9214SOL     OW39274   1.706   1.787   2.390 -0.0828  0.5819  0.4477
 9214SOL    HW139275   1.712   1.878   2.364 -0.0334 -0.0668 -1.8221
 9214SOL    HW239276   1.651   1.743   2.324 -1.2940 -0.9179  2.4549
 9215SOL     OW39277   2.828   0.607   0.774  0.3681  0.1012 -0.3180
 9215SOL    HW139278   2.737   0.589   0.753 -0.0712  0.0861  1.5805
 9215SOL    HW239279   2.867   0.535   0.723 -2.7716 -0.5998 -1.7286
 9216SOL     OW39280   1.858   1.130  16.826  0.1929  0.3526  1.2944
 9216SOL    HW139281   1.844   1.154  16.735 -1.1876 -2.4635  0.7790
 9216SOL    HW239282   1.781   1.167  16.870 -0.3254  0.1145  0.5826
 9217SOL     OW39283   0.628   4.205  13.336  0.1803  0.0235  0.5816
 9217SOL    HW139284   0.627   4.277  13.400 -1.2089  0.7082 -0.2251
 9217SOL    HW239285   0.563   4.235  13.273  0.5826 -0.2165  0.0531
 9218SOL     OW39286   3.831   1.743   7.867  0.4639  0.0760 -0.1153
 9218SOL    HW139287   3.759   1.798   7.896 -0.6601 -2.8178  2.6228
 9218SOL    HW239288   3.813   1.728   7.775  1.6939 -3.8736  0.2712
 9219SOL     OW39289   3.320   3.630   1.919 -0.0314 -0.2434 -0.4295
 9219SOL    HW139290   3.249   3.620   1.983 -0.8211  1.6683 -1.0073
 9219SOL    HW239291   3.380   3.561   1.947 -0.3920 -0.3884 -0.0082
 9220SOL     OW39292   0.836   4.689   5.408  0.1574 -0.7748  0.4376
 9220SOL    HW139293   0.832   4.653   5.320 -1.1390  1.1013 -0.2662
 9220SOL    HW239294   0.844   4.610   5.461 -3.5215 -1.3894  0.0677
 9221SOL     OW39295   2.798   1.083   6.929 -0.8202  0.0220 -0.2946
 9221SOL    HW139296   2.703   1.068   6.920 -0.7283 -0.6537 -0.1406
 9221SOL    HW239297   2.808   1.164   6.880 -3.1186 -0.6324 -1.8860
 9222SOL     OW39298   2.994   2.076   8.362 -0.5608  0.1289 -0.4516
 9222SOL    HW139299   2.969   2.039   8.277 -0.7572 -0.4669 -0.1337
 9222SOL    HW239300   2.931   2.036   8.422  0.0102 -1.4157 -0.8853
 9223SOL     OW39301   4.467   3.977   1.715  0.1914  0.1604  0.4353
 9223SOL    HW139302   4.504   4.052   1.761 -0.7575  1.3966 -0.8144
 9223SOL    HW239303   4.524   3.963   1.640 -0.4044 -0.2949  0.0664
 9224SOL     OW39304   2.400   3.830  11.787 -0.3413 -0.2441 -0.0240
 9224SOL    HW139305   2.311   3.855  11.762  0.2264  1.5585 -0.2982
 9224SOL    HW239306   2.412   3.774  11.711  2.5402  0.6190 -0.1973
 9225SOL     OW39307   1.227   1.497   9.206 -0.4065 -0.1993 -0.2981
 9225SOL    HW139308   1.304   1.461   9.163 -1.2133 -1.0167 -1.0401
 9225SOL    HW239309   1.184   1.541   9.133 -0.4755  0.2716  0.0253
 9226SOL     OW39310   2.675   4.176  15.492  0.2338  0.2266  0.7502
 9226SOL    HW139311   2.754   4.152  15.541 -0.4796 -1.2255  1.1757
 9226SOL    HW239312   2.612   4.109  15.518 -0.1420  0.8832  1.5137
 9227SOL     OW39313   1.450   1.085  17.130 -0.3522 -1.1276 -0.3000
 9227SOL    HW139314   1.517   1.100  17.197  0.1373 -2.3823 -0.5052
 9227SOL    HW239315   1.387   1.028  17.175 -1.3434  0.3732  0.2230
 9228SOL     OW39316   0.534   0.294   6.695 -0.3430  0.3459  0.1351
 9228SOL    HW139317   0.464   0.242   6.658 -0.0309 -1.2945  1.8783
 9228SOL    HW239318   0.512   0.383   6.668  1.8619  0.5940 -0.9324
 9229SOL     OW39319   2.492   4.386  15.476  0.2969 -0.1272  0.1246
 9229SOL    HW139320   2.476   4.389  15.382 -0.1606  0.6539  0.2302
 9229SOL    HW239321   2.565   4.324  15.476  1.1758  0.9068 -0.1406
 9230SOL     OW39322   1.383   2.562  14.557 -0.1553  0.2782  0.4774
 9230SOL    HW139323   1.471   2.524  14.562 -0.6963 -0.8367  1.5350
 9230SOL    HW239324   1.387   2.626  14.486  0.2850 -2.7119 -2.1629
 9231SOL     OW39325   4.588   2.134  11.554  0.0761 -0.2591  0.2423
 9231SOL    HW139326   4.603   2.128  11.460  2.7560  1.8442  0.5511
 9231SOL    HW239327   4.494   2.151  11.559  0.0372 -0.3161 -0.3716
 9232SOL     OW39328   4.041   2.745  10.168  0.0586  0.5667 -0.1615
 9232SOL    HW139329   4.029   2.790  10.251 -4.2657  0.5776 -0.8004
 9232SOL    HW239330   4.072   2.661  10.203  2.1108  1.2155 -0.3926
 9233SOL     OW39331   1.155   1.668  11.458  0.4077 -0.3878 -0.5102
 9233SOL    HW139332   1.187   1.635  11.374  2.3610  2.4400 -0.8810
 9233SOL    HW239333   1.222   1.621  11.507  1.8415  1.8713 -0.2797
 9234SOL     OW39334   0.839   4.719   1.572 -0.5808  0.1759  0.2049
 9234SOL    HW139335   0.853   0.046   1.637 -0.1929  0.5150 -0.2302
 9234SOL    HW239336   0.756   4.689   1.607 -0.7762  0.1578 -0.2682
 9235SOL     OW39337   2.688   4.320  16.198  0.4817  0.3509  0.0547
 9235SOL    HW139338   2.613   4.271  16.234  0.7218  1.2713  1.8337
 9235SOL    HW239339   2.656   4.406  16.226  1.0459  0.2166  1.1181
 9236SOL     OW39340   2.219   3.290   6.970  0.4230  0.5772 -0.6373
 9236SOL    HW139341   2.286   3.233   7.008 -1.2407 -0.7254  0.3577
 9236SOL    HW239342   2.145   3.236   6.998 -0.5999  4.0428  3.3064
 9237SOL     OW39343   1.789   0.642   0.696  0.2635 -0.1898 -0.2559
 9237SOL    HW139344   1.700   0.641   0.729  0.6725  0.6799  0.8781
 9237SOL    HW239345   1.782   0.685   0.611  0.2947 -0.1609 -0.2441
 9238SOL     OW39346   0.382   1.040   3.186  0.1042 -0.3190 -0.4412
 9238SOL    HW139347   0.304   1.051   3.132  0.7900  1.2867 -1.0959
 9238SOL    HW239348   0.431   1.121   3.173 -1.7098  0.7659 -0.5277
 9239SOL     OW39349   3.586   1.935  15.853 -0.1351  0.0062 -0.0957
 9239SOL    HW139350   3.538   2.011  15.822  1.0055  0.1647 -1.4376
 9239SOL    HW239351   3.677   1.943  15.824 -0.9094  1.9059 -1.9287
 9240SOL     OW39352   4.280   0.579   3.582 -0.5136  0.1034  0.2093
 9240SOL    HW139353   4.340   0.596   3.509  0.1735 -2.7762  0.1128
 9240SOL    HW239354   4.275   0.485   3.569 -0.6175  0.3117 -1.2379
 9241SOL     OW39355   1.411   2.941   3.095  0.2426  0.2812  0.2516
 9241SOL    HW139356   1.477   2.913   3.158 -0.6116 -2.0792  0.0818
 9241SOL    HW239357   1.407   3.033   3.121 -2.0116 -0.1064  1.2488
 9242SOL     OW39358   2.141   3.839   6.313 -0.0728 -0.0906  0.4892
 9242SOL    HW139359   2.230   3.806   6.305 -0.4230 -0.4377 -2.1621
 9242SOL    HW239360   2.118   3.812   6.402  1.4550 -0.3136  0.8151
 9243SOL     OW39361   1.809   2.260  12.478  0.6022 -0.2148  0.0051
 9243SOL    HW139362   1.725   2.303  12.461 -0.3980 -2.2448 -0.1558
 9243SOL    HW239363   1.863   2.325  12.433 -0.3093  0.9328  0.5306
 9244SOL     OW39364   2.213   3.375   3.532  0.3775  0.0825 -0.0816
 9244SOL    HW139365   2.254   3.399   3.449  1.2746 -0.0040  0.3364
 9244SOL    HW239366   2.154   3.450   3.536  0.6415  0.1736  1.9328
 9245SOL     OW39367   2.942   1.745  16.157 -0.0295  0.4200  0.3411
 9245SOL    HW139368   3.001   1.694  16.100 -2.5285 -0.0854 -1.8140
 9245SOL    HW239369   2.873   1.779  16.099 -1.9326 -0.7090  1.9505
 9246SOL     OW39370   1.810   2.308   3.894 -0.3465  0.6391  0.0708
 9246SOL    HW139371   1.896   2.336   3.864  0.0371 -0.2672  0.3479
 9246SOL    HW239372   1.798   2.236   3.832  0.1676  0.0678  0.6338
 9247SOL     OW39373   3.657   4.117  10.152 -0.2041 -0.0267 -0.0300
 9247SOL    HW139374   3.681   4.206  10.124 -0.0063  0.5424  1.8974
 9247SOL    HW239375   3.723   4.102  10.220 -1.0225  1.7556  1.1619
 9248SOL     OW39376   2.300   2.620   0.965 -0.4098  0.5004 -0.1010
 9248SOL    HW139377   2.272   2.584   1.049  2.4663 -1.3434  0.0673
 9248SOL    HW239378   2.386   2.585   0.945 -0.9258 -1.3862  1.0289
 9249SOL     OW39379   3.642   0.105   1.128 -0.0726  0.5104  0.3013
 9249SOL    HW139380   3.650   0.012   1.106  1.5114  0.8645 -0.6125
 9249SOL    HW239381   3.623   0.100   1.222  1.1729 -1.6475  0.4448
 9250SOL     OW39382   0.161   0.531   1.265  0.6671  0.2265  0.3817
 9250SOL    HW139383   0.133   0.583   1.190  1.3525 -1.0074 -0.7394
 9250SOL    HW239384   0.188   0.455   1.213  0.0286  0.0947  0.2435
 9251SOL     OW39385   3.141   4.529   2.179  0.0553 -0.0228 -0.2117
 9251SOL    HW139386   3.120   4.514   2.271 -1.7013 -0.7037 -0.7217
 9251SOL    HW239387   3.195   4.453   2.157 -0.2149  0.3205 -2.0501
 9252SOL     OW39388   0.353   0.987   6.449 -0.0339  0.1801  0.0603
 9252SOL    HW139389   0.360   1.058   6.513 -0.9022 -0.1640  0.5399
 9252SOL    HW239390   0.258   0.988   6.447 -0.0326 -1.5364 -1.0909
 9253SOL     OW39391   4.248   0.741  12.829  0.2121  0.0953 -0.2929
 9253SOL    HW139392   4.238   0.667  12.769 -2.5169 -0.7606  1.1835
 9253SOL    HW239393   4.164   0.783  12.810 -1.0471 -1.5880  1.4925
 9254SOL     OW39394   0.650   3.230   8.732  0.1324  0.1516  0.0172
 9254SOL    HW139395   0.700   3.170   8.788  1.5298  2.6407  1.4677
 9254SOL    HW239396   0.589   3.174   8.684 -0.5989 -0.5610  1.7643
 9255SOL     OW39397   1.739   1.718  11.217 -0.2249  0.4900  0.1437
 9255SOL    HW139398   1.772   1.784  11.157  0.4385  0.5694  0.5989
 9255SOL    HW239399   1.804   1.649  11.225 -2.5225 -1.6073  0.9736
 9256SOL     OW39400   2.120   1.900   4.188  0.1038 -0.3478  0.0741
 9256SOL    HW139401   2.056   1.912   4.258 -0.4781  1.5954 -0.7928
 9256SOL    HW239402   2.071   1.938   4.116  1.8441  0.6576 -0.5732
 9257SOL     OW39403   2.447   2.159  16.659  0.4099  0.5433  0.2683
 9257SOL    HW139404   2.513   2.214  16.618 -1.3060  1.7542 -0.8285
 9257SOL    HW239405   2.481   2.127  16.743  0.1055 -1.2344 -0.2717
 9258SOL     OW39406   0.274   4.256   3.749  0.0963  0.4269  0.4942
 9258SOL    HW139407   0.309   4.335   3.708  1.4938 -1.3286 -1.6576
 9258SOL    HW239408   0.233   4.287   3.830 -0.3311 -1.0045  0.8221
 9259SOL     OW39409   3.696   0.384   7.123 -0.2694  0.5438 -0.2960
 9259SOL    HW139410   3.637   0.309   7.114 -0.2917  0.3281  1.7931
 9259SOL    HW239411   3.772   0.368   7.067 -0.2170  2.0750 -0.6529
 9260SOL     OW39412   0.418   3.742  13.369  0.4028 -0.3729 -0.3701
 9260SOL    HW139413   0.490   3.791  13.330  0.0473  0.7724  0.4245
 9260SOL    HW239414   0.351   3.762  13.304 -0.0774 -1.9093 -0.3540
 9261SOL     OW39415   2.253   1.171  14.495  0.3036 -0.3106  0.0154
 9261SOL    HW139416   2.317   1.229  14.535 -0.1658  2.7452 -3.6803
 9261SOL    HW239417   2.305   1.095  14.469  1.3600 -0.2757  2.0150
 9262SOL     OW39418   1.294   3.102   6.231  0.5304 -0.0835  0.1813
 9262SOL    HW139419   1.205   3.124   6.261  0.2166  1.1112 -1.6297
 9262SOL    HW239420   1.353   3.142   6.295  2.0397  1.3741 -2.1036
 9263SOL     OW39421   0.143   1.995  17.575  0.1505  0.4748 -0.1660
 9263SOL    HW139422   0.181   2.047  17.504 -1.0915 -0.9613 -1.9123
 9263SOL    HW239423   0.081   1.941  17.524 -1.1293  1.3138  0.5124
 9264SOL     OW39424   2.225   0.072  16.089 -0.4712 -0.0810 -0.6250
 9264SOL    HW139425   2.318   0.075  16.066 -0.6973  1.7573 -1.3034
 9264SOL    HW239426   2.237   4.731  16.138 -0.1453  0.3846  0.0611
 9265SOL     OW39427   3.798   3.907   6.564 -0.0938 -0.3933 -0.1975
 9265SOL    HW139428   3.723   3.860   6.602 -0.2810  0.3689  0.3651
 9265SOL    HW239429   3.769   3.995   6.588 -0.8457 -0.0228 -2.4599
 9266SOL     OW39430   2.784   4.234   4.720 -0.3095 -0.0206 -0.0250
 9266SOL    HW139431   2.741   4.207   4.801  0.0827 -2.6383 -0.6592
 9266SOL    HW239432   2.798   4.148   4.679  0.6072  0.4251 -0.6313
 9267SOL     OW39433   2.572   2.735   5.934  0.4242 -0.5699 -0.3247
 9267SOL    HW139434   2.491   2.743   5.883  0.4682  0.8656 -0.1645
 9267SOL    HW239435   2.559   2.649   5.975 -0.6070 -0.7923 -1.1088
 9268SOL     OW39436   0.733   1.072   7.063  0.8791 -0.4006  0.3661
 9268SOL    HW139437   0.787   1.137   7.019  0.7954  0.4051  1.4563
 9268SOL    HW239438   0.796   1.029   7.121  1.0293  1.2884  1.4548
 9269SOL     OW39439   1.780   3.151   2.606 -0.5817  0.2287  0.4825
 9269SOL    HW139440   1.823   3.159   2.521  0.3755  1.3793  1.0717
 9269SOL    HW239441   1.695   3.111   2.588  0.1487 -0.6876 -0.8541
 9270SOL     OW39442   1.668   0.431  11.278  0.7375 -0.0948  0.4991
 9270SOL    HW139443   1.676   0.439  11.182 -0.0504 -2.9963  0.1823
 9270SOL    HW239444   1.749   0.469  11.311  1.5729 -0.6872 -0.8394
 9271SOL     OW39445   0.808   4.478   6.402 -0.3696  0.2694 -0.1411
 9271SOL    HW139446   0.829   4.387   6.427  0.6868  0.5623  0.0664
 9271SOL    HW239447   0.781   4.503   6.491  0.7547 -1.0523  0.5847
 9272SOL     OW39448   3.565   2.917  10.971 -0.5502  0.1268 -0.2023
 9272SOL    HW139449   3.593   2.836  10.929 -0.8414  0.0313 -0.2120
 9272SOL    HW239450   3.471   2.907  10.955 -0.8485 -1.7657  2.8781
 9273SOL     OW39451   4.018   3.799   5.408  0.3831  0.1581 -0.1177
 9273SOL    HW139452   4.017   3.720   5.354  2.2313 -0.0159  0.1294
 9273SOL    HW239453   4.109   3.826   5.401  0.5727 -0.4973 -0.2016
 9274SOL     OW39454   1.247   2.259   3.451 -0.0361  0.2534  0.1796
 9274SOL    HW139455   1.215   2.208   3.377  0.0967 -0.7654  0.8313
 9274SOL    HW239456   1.166   2.305   3.471 -1.9410 -2.4545 -1.3624
 9275SOL     OW39457   3.002   0.277   5.108  0.0260  0.5087  0.2138
 9275SOL    HW139458   2.964   0.190   5.117 -0.3960  0.5409 -1.1920
 9275SOL    HW239459   3.082   0.252   5.063  1.3329  2.8643  1.1920
 9276SOL     OW39460   0.597   0.034   5.682  0.0617 -0.3850 -0.3660
 9276SOL    HW139461   0.530   0.085   5.727  1.0184  0.6816 -0.1530
 9276SOL    HW239462   0.570   4.688   5.711 -0.5450  0.2893  1.0528
 9277SOL     OW39463   3.808   0.086   3.472 -0.4095 -0.1505 -0.3790
 9277SOL    HW139464   3.804   0.095   3.376 -1.4164 -0.6295 -0.3793
 9277SOL    HW239465   3.895   0.123   3.492  0.4799 -2.1228 -0.6467
 9278SOL     OW39466   2.680   4.284   4.451 -0.0111 -0.1408  0.3192
 9278SOL    HW139467   2.691   4.259   4.543  1.7847  2.2545  0.7791
 9278SOL    HW239468   2.678   4.199   4.408  0.0625  0.4483 -0.8616
 9279SOL     OW39469   0.106   3.877   7.607  0.2633  0.5825 -0.2260
 9279SOL    HW139470   0.039   3.813   7.583 -1.5273  2.1845  0.5300
 9279SOL    HW239471   0.165   3.824   7.661 -0.0197  0.4352 -0.0658
 9280SOL     OW39472   2.481   1.521   6.558  0.1238 -0.9633 -0.6059
 9280SOL    HW139473   2.412   1.467   6.521 -2.9343  2.3275  0.2830
 9280SOL    HW239474   2.448   1.609   6.541  1.1351 -0.5129 -0.2702
 9281SOL     OW39475   2.384   4.455   4.615  0.3771  0.1984 -0.2855
 9281SOL    HW139476   2.346   4.420   4.534  1.2352  1.8205 -1.3880
 9281SOL    HW239477   2.460   4.509   4.591  1.1254 -0.1501  1.3205
 9282SOL     OW39478   4.191   1.122  11.411 -0.3656 -0.0647 -0.1302
 9282SOL    HW139479   4.223   1.119  11.501 -0.3974 -1.9585 -0.1935
 9282SOL    HW239480   4.100   1.096  11.424 -0.5600  1.1901  1.0550
 9283SOL     OW39481   0.837   3.722   7.253  0.3611 -0.0551  0.7281
 9283SOL    HW139482   0.816   3.774   7.331  0.4715 -0.7386  1.2180
 9283SOL    HW239483   0.932   3.711   7.256  0.4027  0.7280  2.6183
 9284SOL     OW39484   2.861   1.496  17.679  0.7540 -0.1507 -0.3989
 9284SOL    HW139485   2.861   1.487   0.014  1.1235 -0.8110 -0.4623
 9284SOL    HW239486   2.901   1.582  17.672 -0.3885  0.4764  0.8630
 9285SOL     OW39487   3.417   1.760  12.774  0.6442  0.0955  0.2261
 9285SOL    HW139488   3.478   1.782  12.844 -0.7570  1.1056  1.1158
 9285SOL    HW239489   3.351   1.718  12.828  0.7342 -0.7472 -0.3109
 9286SOL     OW39490   4.451   4.232   5.832  0.5768  0.5445 -0.4189
 9286SOL    HW139491   4.446   4.137   5.846  0.7078  0.4018 -1.3381
 9286SOL    HW239492   4.544   4.240   5.811 -0.0108  3.3772 -1.9552
 9287SOL     OW39493   1.955   2.216   6.841 -0.2065 -0.0057 -0.3207
 9287SOL    HW139494   1.919   2.289   6.891 -1.0228 -1.1187  0.7263
 9287SOL    HW239495   1.953   2.139   6.897  1.9153  0.5327  0.4824
 9288SOL     OW39496   3.693   0.675  15.661  1.1033  0.0385 -0.6779
 9288SOL    HW139497   3.755   0.672  15.588  1.0692 -0.2431 -0.6959
 9288SOL    HW239498   3.738   0.623  15.728 -0.5171 -1.8628 -1.0729
 9289SOL     OW39499   3.051   0.790   6.075 -0.4858 -0.3096 -0.2333
 9289SOL    HW139500   3.118   0.856   6.055 -2.5758  1.8941 -0.0094
 9289SOL    HW239501   2.970   0.837   6.057 -1.1019 -1.7821 -1.3008
 9290SOL     OW39502   3.953   0.619  13.173  0.8232 -0.4536  0.6006
 9290SOL    HW139503   3.981   0.598  13.262  1.7763 -2.6623 -0.2085
 9290SOL    HW239504   3.977   0.712  13.169  1.1438 -0.5346  0.6369
 9291SOL     OW39505   2.547   2.525   6.917  0.0190  0.3170 -0.1218
 9291SOL    HW139506   2.535   2.519   7.012  0.4144 -2.6081 -0.2563
 9291SOL    HW239507   2.634   2.487   6.910 -0.3038 -0.7304  1.3142
 9292SOL     OW39508   0.386   0.444   7.665  0.3618  0.1305  0.0957
 9292SOL    HW139509   0.413   0.534   7.643 -2.0456  1.0189  0.6987
 9292SOL    HW239510   0.438   0.391   7.605  0.9328  0.4526  0.3079
 9293SOL     OW39511   0.342   3.264   8.976  0.2456 -0.2266 -0.1112
 9293SOL    HW139512   0.357   3.172   8.996  2.0960 -0.2112 -1.3505
 9293SOL    HW239513   0.247   3.260   8.970  0.3791 -0.5646 -2.0397
 9294SOL     OW39514   3.658   2.595   3.747 -0.7024  0.0331  0.2481
 9294SOL    HW139515   3.745   2.556   3.758  0.0830  0.8645 -3.0069
 9294SOL    HW239516   3.598   2.528   3.778 -0.3998 -0.8268 -0.9988
 9295SOL     OW39517   1.831   4.091   4.199 -0.0249 -0.2463  0.3364
 9295SOL    HW139518   1.848   4.181   4.170  2.3393 -1.0757 -0.8651
 9295SOL    HW239519   1.738   4.086   4.175  0.2175  0.2492 -0.7136
 9296SOL     OW39520   1.554   1.259   3.403  0.5848  0.1629 -0.7751
 9296SOL    HW139521   1.592   1.236   3.318  0.3787  2.7663 -1.5742
 9296SOL    HW239522   1.557   1.354   3.393 -2.1277  0.2262 -1.0769
 9297SOL     OW39523   2.156   4.414   2.722 -0.5053 -0.0158  0.4190
 9297SOL    HW139524   2.082   4.466   2.752  0.9469  1.1229  2.0131
 9297SOL    HW239525   2.224   4.432   2.786 -1.1210 -0.6666  1.2477
 9298SOL     OW39526   3.601   3.215  11.839 -0.0342 -0.0729 -0.0989
 9298SOL    HW139527   3.656   3.291  11.817  1.0144 -0.2325  2.0700
 9298SOL    HW239528   3.570   3.206  11.748  0.7017 -1.2972 -0.2154
 9299SOL     OW39529   2.622   3.130   1.226 -0.8413 -0.3259 -0.3004
 9299SOL    HW139530   2.621   3.042   1.264 -0.3067 -0.4573 -0.5948
 9299SOL    HW239531   2.568   3.182   1.285 -0.6173  0.2176 -0.5770
 9300SOL     OW39532   3.242   3.852   4.326  0.2164  0.6220  0.0597
 9300SOL    HW139533   3.326   3.873   4.285  1.4641  0.3869  2.4853
 9300SOL    HW239534   3.207   3.785   4.267  0.3972 -0.3706  1.0803
 9301SOL     OW39535   3.628   3.300   4.303  0.7228 -0.1119 -0.2773
 9301SOL    HW139536   3.585   3.329   4.384  2.0770 -1.9046  1.0807
 9301SOL    HW239537   3.584   3.216   4.290  1.2346 -0.5299  0.6913
 9302SOL     OW39538   3.046   4.187   6.200  0.0424  0.3718 -0.3715
 9302SOL    HW139539   3.102   4.145   6.135  0.2931 -0.9232  0.6828
 9302SOL    HW239540   3.099   4.185   6.280  0.7116  1.5620 -0.7737
 9303SOL     OW39541   4.518   4.205   5.523  0.0468 -0.1145 -0.4858
 9303SOL    HW139542   4.573   4.148   5.578  0.0386  0.2790 -0.0742
 9303SOL    HW239543   4.566   4.209   5.440  0.7666 -0.2570 -0.0740
 9304SOL     OW39544   1.384   2.866   7.587  0.0948 -0.4045 -0.4088
 9304SOL    HW139545   1.310   2.864   7.648  1.3653  1.6498  1.2020
 9304SOL    HW239546   1.438   2.939   7.616 -0.2989  0.1662 -1.1332
 9305SOL     OW39547   3.217   1.802   4.992  0.6849 -0.2430  0.1509
 9305SOL    HW139548   3.212   1.886   5.039  0.3101 -1.1248  1.6886
 9305SOL    HW239549   3.303   1.810   4.951  0.6617  0.8816  0.3214
 9306SOL     OW39550   0.416   2.192  13.814  0.5480 -0.1872  0.1648
 9306SOL    HW139551   0.510   2.172  13.819  0.6703  0.5322  0.7854
 9306SOL    HW239552   0.400   2.191  13.908  0.4444 -2.5130  0.1052
 9307SOL     OW39553   3.907   0.783  12.137  0.0272  0.2264  0.7377
 9307SOL    HW139554   3.856   0.849  12.090  2.1536 -0.1010 -1.9838
 9307SOL    HW239555   3.866   0.697  12.122  3.5084 -1.2787 -0.1083
 9308SOL     OW39556   1.827   3.399   4.344  0.4915 -0.1456  0.0949
 9308SOL    HW139557   1.872   3.330   4.295  0.7204 -1.5953  2.3100
 9308SOL    HW239558   1.893   3.435   4.404  1.0400 -0.2544 -0.4434
 9309SOL     OW39559   1.646   0.768   2.255  0.6250  0.4462  0.4465
 9309SOL    HW139560   1.690   0.769   2.169 -1.6208  0.2912 -0.7016
 9309SOL    HW239561   1.607   0.854   2.269 -2.3371 -0.6249 -1.1999
 9310SOL     OW39562   1.644   3.130   5.007  0.1196  0.2276 -0.8293
 9310SOL    HW139563   1.636   3.203   4.946 -0.1957  2.2048  1.5649
 9310SOL    HW239564   1.612   3.169   5.089  1.6541 -2.3475  0.9910
 9311SOL     OW39565   3.847   2.276   8.788  0.3261 -0.3099  0.5121
 9311SOL    HW139566   3.863   2.369   8.805  0.5760 -0.4583  1.0992
 9311SOL    HW239567   3.866   2.287   8.695 -1.6090 -0.1371  0.1408
 9312SOL     OW39568   1.566   3.190  16.569 -0.5624  0.5611 -0.4187
 9312SOL    HW139569   1.487   3.240  16.549 -0.4403  1.1637  0.6072
 9312SOL    HW239570   1.612   3.182  16.485  1.9057  0.9581  0.8689
 9313SOL     OW39571   1.514   1.755  13.084 -0.0467  0.9825 -0.8148
 9313SOL    HW139572   1.511   1.751  12.989 -0.2197 -1.0164 -0.7337
 9313SOL    HW239573   1.542   1.846  13.095  0.7514  0.6490 -0.1119
 9314SOL     OW39574   0.920   2.112   7.994  0.4433  0.4676  0.4115
 9314SOL    HW139575   0.928   2.017   7.996  1.2816  0.5244 -0.3420
 9314SOL    HW239576   0.863   2.119   7.918 -0.4462 -3.7581  0.7156
 9315SOL     OW39577   1.468   4.155  17.116 -0.0308  0.3209 -0.7424
 9315SOL    HW139578   1.534   4.121  17.176 -0.5953  2.9400  1.3193
 9315SOL    HW239579   1.519   4.196  17.046  2.4374 -2.1392 -0.4138
 9316SOL     OW39580   0.009   3.716   3.556 -0.1876 -0.5211 -0.5458
 9316SOL    HW139581   0.100   3.690   3.543  0.7816  2.2234  0.7315
 9316SOL    HW239582   0.006   3.728   3.651  0.4367 -1.2037 -0.4445
 9317SOL     OW39583   1.501   2.363   6.123  0.2427  0.3693  0.0862
 9317SOL    HW139584   1.465   2.424   6.059  0.5665  0.1806 -0.2767
 9317SOL    HW239585   1.568   2.416   6.168 -0.0880  1.2958 -0.5096
 9318SOL     OW39586   3.461   2.097   7.582 -1.1268 -0.4784 -0.2777
 9318SOL    HW139587   3.515   2.031   7.538 -1.2221 -1.9508  1.7709
 9318SOL    HW239588   3.456   2.052   7.667 -1.1358  1.6871  0.8503
 9319SOL     OW39589   0.275   0.793   5.732  0.2988  0.1767 -0.1790
 9319SOL    HW139590   0.361   0.804   5.692 -0.3881  0.5864 -1.5192
 9319SOL    HW239591   0.216   0.801   5.657 -1.0824 -0.4541  0.8373
 9320SOL     OW39592   1.255   0.331   3.807 -0.1745 -0.5291 -0.5553
 9320SOL    HW139593   1.238   0.381   3.728 -0.9321  3.0569  1.8750
 9320SOL    HW239594   1.314   0.266   3.769  0.3741 -0.3088 -0.0846
 9321SOL     OW39595   0.463   2.644  14.133 -0.1068 -0.4984  0.1420
 9321SOL    HW139596   0.464   2.550  14.116  0.5853 -0.2452 -1.2087
 9321SOL    HW239597   0.456   2.667  14.041  0.2202  1.5561  0.6246
 9322SOL     OW39598   4.571   2.182   6.401 -0.1168  0.2556 -0.4359
 9322SOL    HW139599   4.585   2.273   6.427 -2.2760 -0.0327  1.7561
 9322SOL    HW239600   4.609   2.174   6.313  0.1153 -1.4341 -0.1821
 9323SOL     OW39601   3.267   1.920   6.884  0.4990 -0.0996  0.2284
 9323SOL    HW139602   3.303   1.994   6.933  1.8626  1.2166 -2.7962
 9323SOL    HW239603   3.203   1.967   6.831  3.3479  0.6319 -2.5556
 9324SOL     OW39604   2.096   4.126  17.383 -0.5409 -0.5636 -0.3880
 9324SOL    HW139605   2.095   4.097  17.292 -1.1224 -0.3869 -0.4408
 9324SOL    HW239606   2.100   4.037  17.418  3.0176  0.1374  0.9994
 9325SOL     OW39607   0.858   1.713  10.001 -0.5807  0.2148  0.3812
 9325SOL    HW139608   0.913   1.787  10.028 -2.0153  1.3782  0.0521
 9325SOL    HW239609   0.857   1.735   9.908  0.3038  1.7393  0.7324
 9326SOL     OW39610   2.152   1.500   9.580  0.0490  0.4143  0.5159
 9326SOL    HW139611   2.078   1.468   9.632  0.4610 -1.9881 -0.3841
 9326SOL    HW239612   2.142   1.461   9.494  0.5202  0.0139  0.6445
 9327SOL     OW39613   2.906   4.212   1.891 -0.5414 -0.6463  0.4999
 9327SOL    HW139614   2.966   4.195   1.819 -0.7538 -2.8526  0.8421
 9327SOL    HW239615   2.961   4.272   1.942  0.1209  0.8242 -1.9703
 9328SOL     OW39616   3.373   2.206  12.616 -0.5383 -0.2011 -0.3217
 9328SOL    HW139617   3.313   2.149  12.568 -2.1926  1.1573  0.1420
 9328SOL    HW239618   3.307   2.261  12.657  1.0446  1.6399 -0.2518
 9329SOL     OW39619   2.824   0.523   3.803 -0.7675 -0.6956  1.1204
 9329SOL    HW139620   2.877   0.542   3.881 -0.6003 -0.0323  0.8489
 9329SOL    HW239621   2.742   0.509   3.850 -0.3695 -2.2599  1.3527
 9330SOL     OW39622   0.348   2.934  13.716  0.4129 -0.1459  0.2961
 9330SOL    HW139623   0.412   2.882  13.765  0.6223  0.6200  0.8319
 9330SOL    HW239624   0.332   3.000  13.783  1.2294  1.0840 -0.7098
 9331SOL     OW39625   2.791   1.532   8.440  0.0738  0.5490 -0.0583
 9331SOL    HW139626   2.793   1.437   8.448 -2.3287  0.3995 -1.3825
 9331SOL    HW239627   2.779   1.543   8.535 -1.0335 -0.1215 -0.1256
 9332SOL     OW39628   0.930   3.759   1.606 -0.3852  0.0287  0.3860
 9332SOL    HW139629   0.838   3.776   1.591 -0.1932  0.6582 -0.0570
 9332SOL    HW239630   0.935   3.701   1.530 -1.2825 -2.3192  2.1049
 9333SOL     OW39631   1.828   3.240   3.105  0.2594  0.5791 -0.1221
 9333SOL    HW139632   1.739   3.272   3.120  0.1619 -0.1303  0.8137
 9333SOL    HW239633   1.846   3.217   3.014 -0.0111 -1.6417  0.3910
 9334SOL     OW39634   2.931   4.660   2.024 -1.1499  0.0123  0.2190
 9334SOL    HW139635   3.004   4.631   2.078 -0.0522  3.7402  0.7132
 9334SOL    HW239636   2.963   4.648   1.934 -0.2413 -2.8175  0.9156
 9335SOL     OW39637   2.316   3.043   1.896  0.0601 -0.0710  0.1855
 9335SOL    HW139638   2.301   3.099   1.973 -0.1055  0.0169  0.0896
 9335SOL    HW239639   2.343   2.956   1.927  0.8726  0.1994  0.2232
 9336SOL     OW39640   1.167   3.415   2.412  0.2830  0.1984  0.4009
 9336SOL    HW139641   1.147   3.414   2.319 -0.2448 -1.8279  0.5232
 9336SOL    HW239642   1.145   3.326   2.439 -0.2290 -0.3228 -1.7332
 9337SOL     OW39643   3.882   3.255   2.708 -0.9216  0.2787  0.2471
 9337SOL    HW139644   3.821   3.265   2.634  1.0508 -0.9176 -1.5594
 9337SOL    HW239645   3.826   3.268   2.785 -2.1405  0.4305 -0.6540
 9338SOL     OW39646   1.649   2.390   5.701 -0.3731  0.0595 -0.8374
 9338SOL    HW139647   1.612   2.309   5.736 -0.7669  0.4171 -0.4229
 9338SOL    HW239648   1.653   2.451   5.775  1.2791  0.2232 -1.0711
 9339SOL     OW39649   3.215   3.535   2.327  0.4291  0.0062  0.1962
 9339SOL    HW139650   3.302   3.526   2.365 -0.0429  1.7043  1.6974
 9339SOL    HW239651   3.177   3.601   2.384  0.5154  0.2384 -0.0167
 9340SOL     OW39652   0.238   2.368   9.434 -0.0040 -0.2835  0.0604
 9340SOL    HW139653   0.186   2.364   9.514  0.4103 -0.6236  0.3159
 9340SOL    HW239654   0.302   2.297   9.444 -1.0520 -1.2585 -0.1658
 9341SOL     OW39655   4.090   2.225   4.536 -0.1759 -0.0672  0.9491
 9341SOL    HW139656   4.051   2.151   4.489  1.6208 -0.4922  0.1412
 9341SOL    HW239657   4.178   2.230   4.499 -1.3501  1.0617 -1.7112
 9342SOL     OW39658   3.877   4.341   1.252  0.3114  0.2981 -0.4019
 9342SOL    HW139659   3.841   4.402   1.317  0.9712  0.7055 -0.4220
 9342SOL    HW239660   3.900   4.407   1.187  0.6722  0.4321 -0.1400
 9343SOL     OW39661   4.696   2.743   6.553  0.1803 -0.0898  0.0870
 9343SOL    HW139662   4.677   2.806   6.622 -0.4522  1.2769 -1.3510
 9343SOL    HW239663   4.643   2.672   6.591 -1.1399  1.0337  0.3563
 9344SOL     OW39664   1.183   2.893   7.766  0.4310 -0.5120  0.5233
 9344SOL    HW139665   1.178   2.805   7.803 -2.5736 -0.4640  0.1966
 9344SOL    HW239666   1.148   2.949   7.836 -0.5413 -0.3203 -0.1174
 9345SOL     OW39667   1.338   2.590   1.391 -0.0921 -0.2270 -0.0040
 9345SOL    HW139668   1.386   2.509   1.409  2.1152  1.5210  2.0999
 9345SOL    HW239669   1.261   2.582   1.336 -0.6666 -0.1567  0.7894
 9346SOL     OW39670   4.445   3.014   4.176  0.7540 -0.7431  0.3736
 9346SOL    HW139671   4.391   3.081   4.135  1.0217 -1.1157 -0.5901
 9346SOL    HW239672   4.432   3.035   4.269  2.7100  0.3471  0.3808
 9347SOL     OW39673   2.998   0.160   6.527  0.0814  0.1316 -0.0178
 9347SOL    HW139674   2.984   0.169   6.433  1.0600  1.9578  0.0025
 9347SOL    HW239675   3.069   0.096   6.526 -0.8669 -0.9127  0.0144
 9348SOL     OW39676   1.841   3.649   6.364 -0.1753 -0.1205  0.1031
 9348SOL    HW139677   1.905   3.662   6.434 -0.2939 -1.3818  0.4484
 9348SOL    HW239678   1.902   3.622   6.296  0.2223 -0.7034  0.6961
 9349SOL     OW39679   0.642   1.370   3.951 -0.0657 -0.3582 -0.2955
 9349SOL    HW139680   0.613   1.448   3.905  2.6447 -1.0064 -3.0541
 9349SOL    HW239681   0.717   1.333   3.904 -0.5063  0.4081 -1.5998
 9350SOL     OW39682   2.386   2.930   5.551  0.0933  0.2437 -0.0171
 9350SOL    HW139683   2.419   3.001   5.605 -1.8570  1.0446  0.1002
 9350SOL    HW239684   2.388   2.967   5.462 -0.9129 -0.3376 -0.2848
 9351SOL     OW39685   2.116   0.463   8.770 -0.9539  0.1325 -0.3304
 9351SOL    HW139686   2.063   0.510   8.706  1.3704  1.4106 -1.3237
 9351SOL    HW239687   2.194   0.450   8.715  0.1172  0.9086  0.9870
 9352SOL     OW39688   0.011   1.293   5.185  0.0058 -0.2758 -0.2217
 9352SOL    HW139689   0.034   1.281   5.278  1.2702  3.2825 -0.0380
 9352SOL    HW239690   4.657   1.295   5.194  0.1123 -1.4020  1.1314
 9353SOL     OW39691   1.359   0.679  10.336 -0.5915 -0.6294 -0.3397
 9353SOL    HW139692   1.329   0.607  10.280  2.1291 -0.8340 -1.5379
 9353SOL    HW239693   1.449   0.649  10.352  0.0709  1.8513  0.6203
 9354SOL     OW39694   0.238   4.351   7.666 -0.1187  0.3100  0.4804
 9354SOL    HW139695   0.189   4.277   7.630  0.9039  0.4708 -1.2562
 9354SOL    HW239696   0.204   4.355   7.756  0.9145 -1.1776  0.9253
 9355SOL     OW39697   0.408   2.214   7.677 -0.4688 -0.1837  0.0084
 9355SOL    HW139698   0.336   2.273   7.652 -0.9122 -1.1192 -0.9478
 9355SOL    HW239699   0.485   2.262   7.647  0.1144 -1.6131 -0.7709
 9356SOL     OW39700   3.764   2.781   6.578 -0.5646  0.0329 -0.3586
 9356SOL    HW139701   3.751   2.812   6.667 -0.3815  1.9941 -1.0219
 9356SOL    HW239702   3.696   2.714   6.568 -0.8670  0.1125  1.1322
 9357SOL     OW39703   2.053   2.602   5.103 -0.2807 -0.1041 -0.1172
 9357SOL    HW139704   1.999   2.608   5.024 -0.2940  3.0828  0.1261
 9357SOL    HW239705   2.097   2.517   5.092 -0.4040 -0.3243  1.0638
 9358SOL     OW39706   3.568   2.304   8.572  0.2779 -0.0511 -0.3686
 9358SOL    HW139707   3.609   2.264   8.495  2.0523  1.5018 -0.2126
 9358SOL    HW239708   3.597   2.240   8.637 -0.7702 -0.1582  0.0003
 9359SOL     OW39709   1.066   3.357  11.129 -0.4865 -0.6479 -0.1220
 9359SOL    HW139710   1.157   3.327  11.134 -0.8111 -1.6585 -0.3005
 9359SOL    HW239711   1.036   3.355  11.220 -0.6407  1.9416 -0.1098
 9360SOL     OW39712   4.112   1.348   6.526 -0.3493  0.3571 -0.1696
 9360SOL    HW139713   4.070   1.398   6.597 -0.5991  1.3256 -0.9983
 9360SOL    HW239714   4.085   1.388   6.444  1.9441 -0.6885 -1.4359
 9361SOL     OW39715   1.121   2.268  16.345 -0.1961  0.2166 -0.2713
 9361SOL    HW139716   1.205   2.253  16.388  1.3076  3.1424 -2.1933
 9361SOL    HW239717   1.083   2.339  16.398 -0.4969 -1.9090  2.3620
 9362SOL     OW39718   2.008   3.593   4.452  0.4777 -0.2752 -0.2988
 9362SOL    HW139719   1.954   3.661   4.412 -0.0869 -0.2525  0.5022
 9362SOL    HW239720   1.985   3.602   4.544 -1.6240 -1.7670 -0.6619
 9363SOL     OW39721   0.434   4.081   2.141 -0.5161 -0.1434  0.2634
 9363SOL    HW139722   0.503   4.136   2.104 -0.2724  0.4918  1.6598
 9363SOL    HW239723   0.354   4.131   2.122 -0.2088  0.1192 -0.3479
 9364SOL     OW39724   0.615   3.603  17.410 -0.0149 -0.1462 -0.4620
 9364SOL    HW139725   0.532   3.557  17.418 -0.5884  1.3098  2.1404
 9364SOL    HW239726   0.626   3.616  17.316 -0.3676 -0.6884 -0.5755
 9365SOL     OW39727   3.863   2.569   9.980 -0.3563  0.2909  0.0836
 9365SOL    HW139728   3.902   2.639  10.032 -0.1457  2.1350 -2.5650
 9365SOL    HW239729   3.860   2.496  10.042 -1.9175  0.1913 -0.1307
 9366SOL     OW39730   0.878   4.004  10.287  0.2856 -0.0525 -0.1094
 9366SOL    HW139731   0.926   3.969  10.362  3.1246  2.8930 -0.5432
 9366SOL    HW239732   0.817   3.930  10.287 -1.5665  1.5005  1.7198
 9367SOL     OW39733   3.762   0.296   8.210  0.2200  0.2054  0.0853
 9367SOL    HW139734   3.672   0.296   8.243  0.4685  2.4645  0.7731
 9367SOL    HW239735   3.780   0.388   8.227  0.9507  0.0263  0.2622
 9368SOL     OW39736   1.568   3.392   5.534 -0.3043  0.5165 -0.6292
 9368SOL    HW139737   1.657   3.392   5.499 -0.4892  1.2414 -1.0886
 9368SOL    HW239738   1.580   3.436   5.618 -0.5032 -0.6122 -0.0083
 9369SOL     OW39739   0.596   1.455   8.409 -0.4687  0.3385 -0.0715
 9369SOL    HW139740   0.503   1.477   8.416 -0.2888  0.0882  2.9790
 9369SOL    HW239741   0.633   1.501   8.484  0.4294 -1.2619  0.4441
 9370SOL     OW39742   4.121   4.633   2.386 -0.1930 -0.4155 -0.1695
 9370SOL    HW139743   4.149   4.706   2.331  1.4774  0.1518  1.4171
 9370SOL    HW239744   4.044   4.607   2.336  0.5306 -1.0878 -0.9481
 9371SOL     OW39745   0.584   4.193   9.043  0.2647  0.3482  0.0927
 9371SOL    HW139746   0.569   4.255   8.972 -0.8566  0.0296  0.0470
 9371SOL    HW239747   0.535   4.226   9.118 -0.7073 -0.9836  0.0582
 9372SOL     OW39748   1.927   2.462   4.536  0.1997 -0.0929  0.0501
 9372SOL    HW139749   1.979   2.539   4.514  0.3641 -0.2552 -0.1380
 9372SOL    HW239750   1.876   2.448   4.456 -1.9039  1.3923  1.1777
 9373SOL     OW39751   2.066   2.844   4.029 -0.1225 -0.1488 -0.1632
 9373SOL    HW139752   2.119   2.768   4.054 -1.2820 -0.8558  0.1419
 9373SOL    HW239753   2.135   2.909   4.014 -1.3700  1.3152  0.4701
 9374SOL     OW39754   0.546   1.258   8.914 -0.0362 -0.1651 -0.5458
 9374SOL    HW139755   0.539   1.194   8.985  2.4661 -1.4123 -1.4555
 9374SOL    HW239756   0.520   1.337   8.962 -1.4868 -0.9016 -0.1220
 9375SOL     OW39757   1.174   1.158   0.043  0.4514  0.0505 -0.0215
 9375SOL    HW139758   1.138   1.114  17.726  0.8485 -1.2114  0.5003
 9375SOL    HW239759   1.145   1.249   0.034 -0.3984 -0.1414  0.7842
 9376SOL     OW39760   0.083   2.413   1.822  0.0316  0.0829 -0.2555
 9376SOL    HW139761   0.030   2.377   1.893 -3.1078  2.3255 -1.4500
 9376SOL    HW239762   0.012   2.438   1.763  0.1360 -2.3021 -1.3859
 9377SOL     OW39763   1.584   3.484   4.024 -0.4492 -0.3041 -0.0208
 9377SOL    HW139764   1.676   3.459   4.015 -0.0610  1.2013 -0.2007
 9377SOL    HW239765   1.526   3.415   3.993 -1.6471  0.0304  1.4823
 9378SOL     OW39766   3.789   2.964   8.218  0.0955  0.2779 -0.1096
 9378SOL    HW139767   3.755   2.874   8.219 -0.2047  0.3600 -2.0219
 9378SOL    HW239768   3.884   2.956   8.233 -0.0389 -0.7924  0.2074
 9379SOL     OW39769   0.588   1.973  17.054  0.1666  0.1388  0.3839
 9379SOL    HW139770   0.677   1.956  17.026 -0.4837 -0.9576 -1.0272
 9379SOL    HW239771   0.572   2.053  17.005  2.3426 -0.4484 -1.2848
 9380SOL     OW39772   2.376   2.173   1.721  0.2374  0.6906 -0.3582
 9380SOL    HW139773   2.313   2.206   1.657  0.9653 -0.2226 -1.5354
 9380SOL    HW239774   2.456   2.216   1.689  1.4584 -1.0274  0.3714
 9381SOL     OW39775   0.072   0.497  13.722 -0.5114 -0.0929 -0.1787
 9381SOL    HW139776   0.167   0.482  13.727 -0.4401 -0.1629 -1.9242
 9381SOL    HW239777   0.048   0.520  13.633 -0.4120  1.9275  0.3264
 9382SOL     OW39778   3.583   1.271   9.287  0.2749  0.1500 -0.1731
 9382SOL    HW139779   3.600   1.235   9.200  0.7815  0.7566 -0.3248
 9382SOL    HW239780   3.622   1.203   9.342 -1.2349 -0.4342  0.1638
 9383SOL     OW39781   1.700   0.143   7.625 -0.4448  0.0315 -0.3024
 9383SOL    HW139782   1.604   0.149   7.616 -0.5546  0.4919  1.0947
 9383SOL    HW239783   1.719   0.050   7.639  0.2330  0.3545  0.9281
 9384SOL     OW39784   0.672   2.413   2.930  0.9595 -0.0362  0.4011
 9384SOL    HW139785   0.632   2.332   2.898  1.3303  0.5123 -1.4686
 9384SOL    HW239786   0.605   2.478   2.904 -0.0693 -0.9496  0.7670
 9385SOL     OW39787   3.990   4.088   2.194  0.0029 -0.5475 -0.0785
 9385SOL    HW139788   4.081   4.100   2.166 -1.0767  3.9406 -1.7073
 9385SOL    HW239789   3.998   4.039   2.276 -0.7176  0.8682  0.8312
 9386SOL     OW39790   0.650   1.249   9.562 -0.1972  0.3346  0.0187
 9386SOL    HW139791   0.622   1.194   9.489 -3.5193  0.7614  0.9636
 9386SOL    HW239792   0.732   1.206   9.586  0.3533  1.3400 -0.0718
 9387SOL     OW39793   1.222   3.841   4.186  0.0118  0.0468  0.3949
 9387SOL    HW139794   1.263   3.877   4.265  0.5600  2.4793 -1.0167
 9387SOL    HW239795   1.135   3.815   4.217  0.5749 -2.3552 -0.0884
 9388SOL     OW39796   1.839   1.617   5.820  0.2319  0.8163  0.0378
 9388SOL    HW139797   1.934   1.624   5.808 -0.1163  0.4701 -2.8634
 9388SOL    HW239798   1.826   1.523   5.823  1.8309  0.6404  1.5391
 9389SOL     OW39799   0.656   4.474   7.568 -0.1207  1.2650 -0.6206
 9389SOL    HW139800   0.650   4.498   7.476  1.7021 -1.8716 -1.5889
 9389SOL    HW239801   0.598   4.397   7.569  1.5072  0.0560  1.6106
 9390SOL     OW39802   4.216   0.058   0.882 -0.5432 -0.0863 -0.2348
 9390SOL    HW139803   4.184   0.115   0.952  0.3771  0.2825 -0.1111
 9390SOL    HW239804   4.201   4.716   0.928 -0.5118 -0.2028 -0.4328
 9391SOL     OW39805   3.082   3.905  17.663 -0.2077 -0.5873 -0.2044
 9391SOL    HW139806   3.154   3.965  17.647 -1.3204  0.9945  0.6708
 9391SOL    HW239807   3.134   3.826  17.677 -1.2232 -1.1256  0.6258
 9392SOL     OW39808   3.003   0.318   6.265  0.5056 -0.6755 -0.1981
 9392SOL    HW139809   3.029   0.404   6.230  0.2354 -0.2308  0.6743
 9392SOL    HW239810   3.054   0.274   6.198  0.3925  0.8233 -1.2819
 9393SOL     OW39811   0.019   1.761   3.050 -0.9180 -0.6559  0.1400
 9393SOL    HW139812   4.734   1.781   2.960 -1.9577 -0.5039  0.4698
 9393SOL    HW239813   4.680   1.793   3.091 -1.3098 -3.3208  1.4532
 9394SOL     OW39814   0.023   3.356   5.400  0.1974  0.2538  0.3281
 9394SOL    HW139815   0.110   3.383   5.429 -0.0237  0.2692  0.9852
 9394SOL    HW239816   0.020   3.294   5.328  0.5544 -0.9708  1.3710
 9395SOL     OW39817   1.249   2.785   4.838 -0.0367 -0.1448  0.3260
 9395SOL    HW139818   1.200   2.719   4.789  1.7292 -1.4023  0.2417
 9395SOL    HW239819   1.301   2.822   4.767 -0.3704  1.1591  0.7676
 9396SOL     OW39820   0.967   4.348   4.236  0.8815 -0.5482  0.4233
 9396SOL    HW139821   1.033   4.351   4.166 -1.5501 -1.0714 -1.9114
 9396SOL    HW239822   1.018   4.393   4.304 -0.5326 -1.7619  2.2689
 9397SOL     OW39823   3.633   4.695   8.427  0.0925  0.5445  0.0754
 9397SOL    HW139824   3.603   4.606   8.408  1.3238  0.1982 -0.2867
 9397SOL    HW239825   3.577   0.000   8.365 -0.5550  1.0553  1.0507
 9398SOL     OW39826   2.195   4.475  13.204 -0.1951 -0.0529 -0.1960
 9398SOL    HW139827   2.178   4.555  13.154 -2.9967 -0.8670 -0.5124
 9398SOL    HW239828   2.243   4.511  13.279 -1.0817 -0.6595  0.6525
 9399SOL     OW39829   3.015   0.759  11.650 -0.3408 -0.3193  0.1385
 9399SOL    HW139830   2.974   0.811  11.719 -1.7458 -0.9339 -0.2426
 9399SOL    HW239831   2.985   0.807  11.573  1.9654  3.4436  1.5869
 9400SOL     OW39832   0.480   2.200   9.729 -0.0826 -0.2083  0.7863
 9400SOL    HW139833   0.479   2.124   9.670  2.3686 -0.3758  1.0001
 9400SOL    HW239834   0.388   2.196   9.755 -0.4512  0.2036 -0.4547
 9401SOL     OW39835   2.882   0.710   9.595  0.7392 -0.0587  0.3579
 9401SOL    HW139836   2.891   0.614   9.593 -0.1092 -0.1424  0.6419
 9401SOL    HW239837   2.962   0.732   9.642  1.9698  1.5041 -2.4919
 9402SOL     OW39838   2.494   2.036  11.487  0.1707 -0.0760 -0.1852
 9402SOL    HW139839   2.496   2.128  11.513 -0.9964 -0.1297  0.0908
 9402SOL    HW239840   2.529   1.989  11.562 -1.2972 -1.8085 -0.5981
 9403SOL     OW39841   2.740   3.644   4.124 -0.0632  0.9753 -0.4135
 9403SOL    HW139842   2.815   3.690   4.162 -0.0828  0.4659  0.2579
 9403SOL    HW239843   2.723   3.703   4.051  0.5347  0.8902 -0.6163
 9404SOL     OW39844   2.233   1.294  16.440  0.1147  0.8296 -0.1313
 9404SOL    HW139845   2.279   1.375  16.461 -0.2655  0.8296  0.7019
 9404SOL    HW239846   2.173   1.295  16.515 -0.1778 -0.2582 -0.3490
 9405SOL     OW39847   0.651   3.769   4.048 -0.7652  0.7699  0.6915
 9405SOL    HW139848   0.566   3.772   4.093 -1.9226 -0.1626 -1.4478
 9405SOL    HW239849   0.622   3.766   3.957  0.4139  3.4190  0.2210
 9406SOL     OW39850   0.780   1.248   2.644 -0.0789 -0.2880 -0.5479
 9406SOL    HW139851   0.830   1.273   2.567  0.6038  0.2781  0.0747
 9406SOL    HW239852   0.693   1.232   2.607 -1.0718  1.4688  1.0093
 9407SOL     OW39853   4.583   4.018   7.295 -0.3431  0.5889 -0.1751
 9407SOL    HW139854   4.658   4.072   7.322  1.0586 -0.7415 -1.4624
 9407SOL    HW239855   4.532   4.094   7.269 -0.5282  0.5578  0.1037
 9408SOL     OW39856   3.952   1.897   6.115 -0.0640  0.5397 -0.7392
 9408SOL    HW139857   3.883   1.957   6.089 -0.8092  0.0353  0.0933
 9408SOL    HW239858   4.003   1.883   6.035 -1.2678 -1.0604 -1.2269
 9409SOL     OW39859   0.030   1.138   8.516  0.9044 -0.5473  0.2905
 9409SOL    HW139860   0.114   1.183   8.504  1.0554 -0.2115  2.5535
 9409SOL    HW239861   4.710   1.211   8.528  1.3207 -0.5092  2.1710
 9410SOL     OW39862   2.774   0.650  12.044 -0.7642 -0.1020 -0.4206
 9410SOL    HW139863   2.837   0.707  12.001  1.2069 -0.4125  2.0163
 9410SOL    HW239864   2.733   0.713  12.104 -0.8864 -0.0039 -0.6082
 9411SOL     OW39865   3.942   4.317   8.575  0.0846 -0.3040  0.4969
 9411SOL    HW139866   3.973   4.240   8.622  1.9195  0.9775  1.4138
 9411SOL    HW239867   3.854   4.331   8.610 -0.5870 -1.5852 -0.6866
 9412SOL     OW39868   4.438   2.631   8.774 -0.4697 -0.9705  0.4360
 9412SOL    HW139869   4.412   2.704   8.831  0.0957 -0.3917 -0.0491
 9412SOL    HW239870   4.356   2.591   8.744  0.6073 -1.3653 -1.9655
 9413SOL     OW39871   0.987   2.271   5.019  0.2470 -0.0150  0.0542
 9413SOL    HW139872   0.911   2.293   5.073  1.3345 -0.7384  1.8823
 9413SOL    HW239873   1.059   2.271   5.083 -0.9886  0.5666  1.4422
 9414SOL     OW39874   2.784   1.669   8.210  0.7466  0.6149  0.0259
 9414SOL    HW139875   2.773   1.599   8.274 -1.1216  2.2203  1.4314
 9414SOL    HW239876   2.693   1.685   8.184  0.2469  1.8978  2.5863
 9415SOL     OW39877   0.453   3.254   1.925  0.1255 -0.3648  0.3276
 9415SOL    HW139878   0.414   3.309   1.857  0.2933 -2.4515 -1.4997
 9415SOL    HW239879   0.541   3.249   1.886 -0.2527 -0.4786 -0.5082
 9416SOL     OW39880   3.036   2.459   3.433  0.4618  0.3383  0.2797
 9416SOL    HW139881   3.118   2.443   3.388 -0.0683  0.3936 -0.6982
 9416SOL    HW239882   3.050   2.545   3.472  3.1645 -0.4576  1.0285
 9417SOL     OW39883   0.730   4.407   2.441  0.1836  0.0884  0.4278
 9417SOL    HW139884   0.806   4.463   2.458  0.2617  0.1479 -0.1329
 9417SOL    HW239885   0.699   4.407   2.532  0.2101  0.5972  0.4372
 9418SOL     OW39886   3.141   3.620   0.928  0.1846  0.2358 -0.1296
 9418SOL    HW139887   3.187   3.669   0.997 -2.0432  2.1575  0.0090
 9418SOL    HW239888   3.155   3.680   0.855  1.1099  1.1306  0.7846
 9419SOL     OW39889   0.553   1.123   9.327  0.0950 -0.1965  0.1448
 9419SOL    HW139890   0.520   1.180   9.257 -1.5270 -0.6865  0.5045
 9419SOL    HW239891   0.579   1.044   9.280 -0.9405  0.7628 -2.0466
 9420SOL     OW39892   1.507   4.023   6.227  0.5778 -0.0272  0.2828
 9420SOL    HW139893   1.523   3.999   6.318  0.3926  2.6395  1.0223
 9420SOL    HW239894   1.569   3.964   6.184 -0.9464 -3.0150  2.2047
 9421SOL     OW39895   2.649   1.056   4.615 -0.3407 -0.2732 -0.1021
 9421SOL    HW139896   2.672   1.015   4.698  0.1154 -1.2304 -0.6957
 9421SOL    HW239897   2.601   0.987   4.570  0.1993 -0.1806 -0.8266
 9422SOL     OW39898   1.647   3.174   0.202 -0.1207  0.5456 -0.6729
 9422SOL    HW139899   1.707   3.170   0.276 -1.1607  0.1797  0.1552
 9422SOL    HW239900   1.696   3.161   0.121  0.1691  0.7022 -0.5210
 9423SOL     OW39901   2.339   0.951   9.100  0.0231 -0.0619 -0.6256
 9423SOL    HW139902   2.314   1.014   9.168 -0.8365 -0.0874 -0.9155
 9423SOL    HW239903   2.253   0.909   9.098  1.6319 -3.3370 -1.0520
 9424SOL     OW39904   0.617   1.229   6.703 -0.2945 -0.1635 -0.5905
 9424SOL    HW139905   0.596   1.258   6.792  1.6754 -1.2073  0.2041
 9424SOL    HW239906   0.533   1.218   6.657 -0.4741 -0.3059 -0.2278
 9425SOL     OW39907   4.712   0.564   6.846 -0.0042 -0.0962  0.4013
 9425SOL    HW139908   0.062   0.535   6.839  0.9753  2.2332  3.3260
 9425SOL    HW239909   4.677   0.540   6.932 -0.8831  2.5571  0.8114
 9426SOL     OW39910   2.304   1.699  12.338  0.1361 -0.4377  0.2927
 9426SOL    HW139911   2.210   1.684  12.340  0.6247 -3.7283 -0.9748
 9426SOL    HW239912   2.322   1.676  12.247 -1.2042 -0.5376  0.0474
 9427SOL     OW39913   1.554   0.236   6.497  0.0892 -0.5532  0.5648
 9427SOL    HW139914   1.497   0.307   6.527 -0.0996 -0.6291  0.3850
 9427SOL    HW239915   1.524   0.168   6.557  1.4582 -0.5409  1.2607
 9428SOL     OW39916   1.152   4.621  11.955 -0.4452 -0.2018  0.2653
 9428SOL    HW139917   1.062   4.642  11.978  0.0577 -0.1198  2.1404
 9428SOL    HW239918   1.190   4.596  12.039  1.4282  1.7277 -0.0089
 9429SOL     OW39919   2.844   3.328   8.977 -0.1406  0.2471  0.3242
 9429SOL    HW139920   2.816   3.320   8.886 -1.0292 -3.0501  0.8758
 9429SOL    HW239921   2.760   3.329   9.022 -1.1824 -1.4011 -1.5915
 9430SOL     OW39922   1.113   0.323   6.891 -0.3361  0.2811 -0.4084
 9430SOL    HW139923   1.026   0.339   6.854 -0.7220 -1.1937 -0.1295
 9430SOL    HW239924   1.134   0.414   6.912  0.8277  0.2116 -1.2405
 9431SOL     OW39925   1.066   2.160  16.098 -0.0108 -0.1078  0.0250
 9431SOL    HW139926   1.138   2.209  16.059 -0.4068  1.9474  1.8825
 9431SOL    HW239927   1.058   2.210  16.179 -2.2945 -1.2808  0.5416
 9432SOL     OW39928   4.312   3.142   1.575 -0.2691  0.5378  0.0083
 9432SOL    HW139929   4.280   3.108   1.491 -1.1940 -0.2451  0.6686
 9432SOL    HW239930   4.228   3.130   1.620 -1.5298  1.1960 -2.2082
 9433SOL     OW39931   4.422   2.419   3.537 -0.2924 -0.2452 -0.1242
 9433SOL    HW139932   4.483   2.455   3.473  0.8671 -0.0418  1.0703
 9433SOL    HW239933   4.348   2.475   3.515  1.5608  2.0204 -0.6307
 9434SOL     OW39934   1.809   2.400   6.964 -0.0788 -0.5839  0.7838
 9434SOL    HW139935   1.807   2.495   6.955 -0.0407 -0.9838 -3.2655
 9434SOL    HW239936   1.791   2.380   7.056 -1.6443  1.1746  0.8606
 9435SOL     OW39937   0.602   4.051   5.213  0.7031  0.0176 -0.2934
 9435SOL    HW139938   0.507   4.046   5.220  0.6095  0.6402 -1.1526
 9435SOL    HW239939   0.615   4.136   5.172  1.6068  0.1007  0.1556
 9436SOL     OW39940   1.915   4.618   7.105 -0.0390 -0.2127  0.4130
 9436SOL    HW139941   1.937   4.583   7.018 -2.0312 -0.0225 -0.1828
 9436SOL    HW239942   1.868   4.543   7.141  1.1851 -0.6694  1.0228
 9437SOL     OW39943   2.263   0.737   2.281  0.0537 -0.3746 -0.3182
 9437SOL    HW139944   2.356   0.736   2.258  0.0305  0.7137 -0.4733
 9437SOL    HW239945   2.260   0.831   2.297 -0.2601 -0.1338 -1.7921
 9438SOL     OW39946   1.360   3.575   8.527 -0.3691  0.0797  0.2629
 9438SOL    HW139947   1.415   3.502   8.499  2.2453  1.2573  2.2871
 9438SOL    HW239948   1.308   3.525   8.591 -1.5098 -1.1452 -1.6232
 9439SOL     OW39949   0.087   0.550   8.118 -0.8591 -0.4316 -0.1055
 9439SOL    HW139950   0.152   0.614   8.091 -0.1053 -1.6331 -1.1583
 9439SOL    HW239951   0.020   0.563   8.051  0.2033 -2.3369 -1.5596
 9440SOL     OW39952   1.236   4.221  12.415 -0.0067 -0.0446  0.0256
 9440SOL    HW139953   1.329   4.234  12.396 -0.1114  1.4083  0.5726
 9440SOL    HW239954   1.231   4.144  12.472 -1.0042 -0.5026 -0.6720
 9441SOL     OW39955   0.931   4.715   3.996  1.1276  0.3956  0.3136
 9441SOL    HW139956   0.961   4.720   4.086 -0.0010  0.0004  0.7126
 9441SOL    HW239957   0.872   0.050   3.992  0.6703  0.0971  1.6208
 9442SOL     OW39958   4.376   0.748  10.116 -0.6195 -0.0451 -0.0813
 9442SOL    HW139959   4.298   0.695  10.129 -0.4358 -0.7006 -1.5295
 9442SOL    HW239960   4.401   0.704  10.034  0.0933  0.8882 -0.3801
 9443SOL     OW39961   1.600   2.431   3.767 -0.1322  0.3996  0.4938
 9443SOL    HW139962   1.677   2.399   3.814  0.2126  0.3942 -0.0659
 9443SOL    HW239963   1.566   2.346   3.741 -2.7915  0.7852  2.7599
 9444SOL     OW39964   0.950   1.882   9.169  0.3626 -0.2559  0.1085
 9444SOL    HW139965   0.956   1.917   9.080 -2.4072 -1.2839 -0.4663
 9444SOL    HW239966   1.038   1.914   9.191  0.6106 -1.6464  1.1116
 9445SOL     OW39967   0.426   1.962   2.840  0.2203 -0.5810 -0.1088
 9445SOL    HW139968   0.349   1.979   2.787 -0.2956  0.6193  1.0278
 9445SOL    HW239969   0.429   1.866   2.837 -2.5382 -0.7968  4.1975
 9446SOL     OW39970   3.537   4.046   5.254  0.0031 -0.0535 -0.0099
 9446SOL    HW139971   3.624   4.021   5.287 -0.2196 -1.9770 -0.8942
 9446SOL    HW239972   3.478   4.012   5.321  1.5669 -0.7820  1.0097
 9447SOL     OW39973   3.080   3.362  11.004 -0.5767 -0.4807  0.3906
 9447SOL    HW139974   3.101   3.416  10.928  0.6589  0.1190  1.1597
 9447SOL    HW239975   3.099   3.419  11.079  0.0678 -0.2391  0.0479
 9448SOL     OW39976   3.794   1.366   4.481  0.5850  0.0989 -0.3262
 9448SOL    HW139977   3.792   1.387   4.574 -2.4774  1.5032 -0.6932
 9448SOL    HW239978   3.855   1.293   4.472 -0.7498 -0.9158 -1.1541
 9449SOL     OW39979   4.529   3.456   8.594  0.4899  0.3935 -0.4994
 9449SOL    HW139980   4.566   3.385   8.542 -2.1645 -1.4338  0.0933
 9449SOL    HW239981   4.532   3.424   8.684 -0.2379 -0.9711 -0.9639
 9450SOL     OW39982   1.874   2.737   0.883 -0.2083 -0.0871 -0.3406
 9450SOL    HW139983   1.809   2.784   0.935  1.5739 -0.1568  1.9501
 9450SOL    HW239984   1.833   2.652   0.891  0.3958 -0.4443 -1.0702
 9451SOL     OW39985   4.246   0.737   6.002 -0.2547 -0.1146 -0.0739
 9451SOL    HW139986   4.208   0.650   6.010 -0.0131 -0.0452  1.9738
 9451SOL    HW239987   4.339   0.713   5.996 -0.2547  0.1623 -1.2058
 9452SOL     OW39988   3.167   2.110   6.688 -0.1412  0.5050  0.1284
 9452SOL    HW139989   3.199   2.121   6.599 -0.5069  0.9835  0.0582
 9452SOL    HW239990   3.150   2.202   6.705 -1.7738  0.2747 -0.2947
 9453SOL     OW39991   2.990   3.390   2.318 -0.0234  0.4987  0.5530
 9453SOL    HW139992   3.068   3.442   2.300 -1.5674  2.8697  0.8180
 9453SOL    HW239993   2.914   3.446   2.301 -0.1769 -0.3144 -1.4537
 9454SOL     OW39994   0.728   0.045   8.886 -0.6124  0.1883 -0.3160
 9454SOL    HW139995   0.802   0.104   8.876 -0.5780 -0.0546 -1.5068
 9454SOL    HW239996   0.652   0.101   8.875  0.0139  0.3683 -3.8566
 9455SOL     OW39997   3.017   3.747   5.937 -0.0095 -0.4879  0.1107
 9455SOL    HW139998   3.034   3.723   6.028  0.6231 -0.9327 -0.1263
 9455SOL    HW239999   3.100   3.788   5.914  1.3487 -2.0067  2.2629
 9456SOL     OW40000   0.020   4.115   3.224 -0.2116  0.6016 -0.4970
 9456SOL    HW140001   0.063   4.067   3.295  3.0143  1.0527 -2.1279
 9456SOL    HW240002   4.682   4.157   3.258 -0.5492 -0.4696  0.0187
 9457SOL     OW40003   4.540   4.256   3.253  0.3897  0.0555 -0.0717
 9457SOL    HW140004   4.537   4.349   3.230 -2.2002 -0.2723 -1.0887
 9457SOL    HW240005   4.458   4.246   3.302  1.3400 -2.0059  1.1241
 9458SOL     OW40006   4.195   3.561   2.006  0.5308  0.1066 -0.0729
 9458SOL    HW140007   4.277   3.609   2.003 -0.4952  1.8664  0.3564
 9458SOL    HW240008   4.195   3.502   1.930 -0.0894 -1.6314  1.2625
 9459SOL     OW40009   1.636   1.220  14.293  0.1445  0.6200 -0.8017
 9459SOL    HW140010   1.566   1.216  14.229 -2.1080 -0.2777  1.7277
 9459SOL    HW240011   1.709   1.174  14.253  0.3755  0.9718 -0.7911
 9460SOL     OW40012   3.359   0.833   5.284 -0.2070  0.1481  0.2050
 9460SOL    HW140013   3.364   0.796   5.196 -0.8737 -0.4003  0.4015
 9460SOL    HW240014   3.271   0.809   5.311 -0.2167 -1.0074 -0.8632
 9461SOL     OW40015   4.473   4.196   2.576  0.3478 -0.0844  0.2694
 9461SOL    HW140016   4.450   4.143   2.653  1.5509 -1.3095 -0.2257
 9461SOL    HW240017   4.551   4.243   2.604 -0.1802  1.0937 -0.2294
 9462SOL     OW40018   3.960   0.255   5.179  0.2798  0.2668  1.0444
 9462SOL    HW140019   4.049   0.287   5.192 -0.2121  2.0925 -0.1180
 9462SOL    HW240020   3.973   0.209   5.096 -1.7337 -0.0438  0.9064
 9463SOL     OW40021   1.370   3.863   2.312 -0.7138 -0.3095 -1.2677
 9463SOL    HW140022   1.281   3.877   2.280 -1.6075  1.1477  1.9122
 9463SOL    HW240023   1.383   3.773   2.281 -0.7508 -2.0450  3.8132
 9464SOL     OW40024   2.070   1.257   8.500  0.2215 -0.2144  0.0075
 9464SOL    HW140025   2.131   1.292   8.434  1.0917  0.8475  1.3762
 9464SOL    HW240026   2.058   1.175   8.452 -4.4190  0.3087  0.2940
 9465SOL     OW40027   0.535   3.909   4.314 -0.5449 -0.2380  0.6966
 9465SOL    HW140028   0.498   3.821   4.324  0.2245 -0.5015  1.1970
 9465SOL    HW240029   0.478   3.928   4.239  1.6974  2.1670 -0.3907
 9466SOL     OW40030   4.537   3.907   8.084 -0.2036 -0.2021  0.1589
 9466SOL    HW140031   4.518   3.842   8.016  0.1739  1.8866 -1.9763
 9466SOL    HW240032   4.628   3.890   8.107 -0.6143 -1.3513  0.8746
 9467SOL     OW40033   2.788   2.647   7.195 -0.0518 -0.1989 -0.0787
 9467SOL    HW140034   2.853   2.587   7.157  0.4949 -0.0391  0.6043
 9467SOL    HW240035   2.710   2.592   7.203  0.4311 -0.8991 -0.1209
 9468SOL     OW40036   1.314   2.560   3.607  0.1207  0.0007  0.4904
 9468SOL    HW140037   1.385   2.606   3.651 -0.2579  0.4812  0.6019
 9468SOL    HW240038   1.311   2.475   3.650 -1.4040 -0.3925 -0.4141
 9469SOL     OW40039   1.792   0.346   6.837 -0.7717  0.3278 -0.0911
 9469SOL    HW140040   1.779   0.252   6.834  0.4668  0.1279  0.9108
 9469SOL    HW240041   1.736   0.360   6.913 -1.4602 -0.7809 -0.4101
 9470SOL     OW40042   1.256   1.336  15.108 -0.4834 -0.0268  0.4582
 9470SOL    HW140043   1.282   1.354  15.199  1.2927  0.1116 -0.0808
 9470SOL    HW240044   1.302   1.253  15.096  2.1439  1.4655  0.3869
 9471SOL     OW40045   3.605   3.952   8.064 -0.1071 -0.5423  0.1045
 9471SOL    HW140046   3.666   3.907   8.122 -3.5292 -4.5408  0.6592
 9471SOL    HW240047   3.516   3.925   8.086 -0.2513 -1.2339 -1.2646
 9472SOL     OW40048   0.787   1.953   2.343 -0.0699  0.1200  0.3751
 9472SOL    HW140049   0.852   1.939   2.275  0.4166 -0.5906  0.9822
 9472SOL    HW240050   0.731   1.875   2.339  0.6977 -0.4293  0.2954
 9473SOL     OW40051   2.817   3.694   1.649  0.1562 -0.3645 -0.4116
 9473SOL    HW140052   2.857   3.629   1.708  1.0569  1.4140  0.9214
 9473SOL    HW240053   2.897   3.740   1.622  0.0813  1.0147  1.7610
 9474SOL     OW40054   2.397   2.135  17.278 -0.2379 -0.0224  0.3198
 9474SOL    HW140055   2.336   2.199  17.315 -1.4743 -0.7663 -0.4344
 9474SOL    HW240056   2.339   2.064  17.251  1.5544 -2.5230  2.9717
 9475SOL     OW40057   1.627   3.040  15.124  0.0512  0.9064  0.2104
 9475SOL    HW140058   1.690   3.089  15.072  0.2598  0.0734 -0.3161
 9475SOL    HW240059   1.593   3.115  15.174 -2.0918 -1.2459  1.9646
 9476SOL     OW40060   1.425   3.026   0.513  0.0663 -0.8758  0.9851
 9476SOL    HW140061   1.460   2.970   0.444 -0.1491  0.8039 -0.4938
 9476SOL    HW240062   1.494   3.021   0.578 -0.1475 -2.2755  1.1050
 9477SOL     OW40063   0.488   0.121   4.400 -0.0213 -0.8260  0.0501
 9477SOL    HW140064   0.485   0.025   4.395  0.2485 -0.8674  0.7310
 9477SOL    HW240065   0.402   0.135   4.440 -1.2014 -1.1595 -2.3318
 9478SOL     OW40066   1.732   4.289   2.622  0.1592 -0.1346  0.2126
 9478SOL    HW140067   1.725   4.197   2.594  1.4640 -0.1911  0.0469
 9478SOL    HW240068   1.793   4.283   2.695 -1.2284  0.0847  1.3780
 9479SOL     OW40069   0.298   2.205   3.620  0.2499 -0.0969  0.7769
 9479SOL    HW140070   0.255   2.174   3.540  1.3753  2.6949 -0.9220
 9479SOL    HW240071   0.280   2.299   3.617 -0.6197 -0.3509 -2.0298
 9480SOL     OW40072   0.714   0.444   8.730 -0.0628  0.2731  0.0049
 9480SOL    HW140073   0.726   0.535   8.756 -0.1642  0.7270 -1.5876
 9480SOL    HW240074   0.745   0.408   8.813  2.0161 -1.0009 -1.3271
 9481SOL     OW40075   4.730   3.237   4.482 -0.3493 -0.3761 -0.2592
 9481SOL    HW140076   0.006   3.157   4.432 -2.8802 -1.0030 -0.0625
 9481SOL    HW240077   4.638   3.240   4.506  0.0821  1.4480  1.2094
 9482SOL     OW40078   1.491   2.690   0.033 -0.1224 -0.3984 -0.2618
 9482SOL    HW140079   1.397   2.711   0.035 -0.2024 -0.8162  0.7382
 9482SOL    HW240080   1.533   2.776   0.031 -4.0948  1.4696 -2.9682
 9483SOL     OW40081   3.511   3.861   8.760  0.3774  0.1240 -0.3859
 9483SOL    HW140082   3.468   3.947   8.765  1.4646  0.7048 -1.2193
 9483SOL    HW240083   3.538   3.872   8.669 -2.2935  2.7497 -0.8464
 9484SOL     OW40084   1.013   1.041   3.336 -0.0812 -0.4974  0.9932
 9484SOL    HW140085   1.023   1.082   3.422  0.0670  2.2149 -0.3225
 9484SOL    HW240086   1.078   1.085   3.281 -0.5893 -0.5289  0.3619
 9485SOL     OW40087   0.846   3.835  16.519  0.5818  0.1207 -0.3501
 9485SOL    HW140088   0.931   3.865  16.550  0.6292 -0.0186 -0.3473
 9485SOL    HW240089   0.790   3.913  16.515  1.8799  1.0302 -0.7166
 9486SOL     OW40090   2.555   3.166   4.368 -0.3520 -0.2156  0.0721
 9486SOL    HW140091   2.551   3.211   4.284  0.1866  1.2484  0.8468
 9486SOL    HW240092   2.598   3.084   4.341 -0.7474  0.0864 -1.4426
 9487SOL     OW40093   2.538   1.846   3.422 -0.2129 -0.4616 -0.0115
 9487SOL    HW140094   2.573   1.902   3.492  2.5774 -1.6830 -0.4186
 9487SOL    HW240095   2.444   1.848   3.441  0.2811 -1.6470  2.5823
 9488SOL     OW40096   1.769   1.366   4.995 -1.0129  0.6236  0.0363
 9488SOL    HW140097   1.779   1.461   4.998 -1.4357  0.7655 -2.9596
 9488SOL    HW240098   1.820   1.345   4.916 -0.9654 -0.7607  0.4351
 9489SOL     OW40099   3.982   0.062   1.154  0.3625  0.3460  0.3562
 9489SOL    HW140100   4.051   0.111   1.199  1.5018 -0.6743 -0.2687
 9489SOL    HW240101   3.906   0.106   1.192  0.3273  0.3617  0.2664
 9490SOL     OW40102   2.977   1.131   3.965  0.0184  0.3347 -0.1234
 9490SOL    HW140103   2.943   1.166   3.882  1.4681 -0.9947 -1.2639
 9490SOL    HW240104   2.899   1.085   3.996  0.6292  0.6020  1.7696
 9491SOL     OW40105   3.071   1.831   6.213  0.0522 -0.4443 -0.2402
 9491SOL    HW140106   3.013   1.792   6.278  0.2159 -0.2573  0.0168
 9491SOL    HW240107   3.049   1.923   6.229 -0.1375 -0.4811 -0.2937
 9492SOL     OW40108   2.092   1.043   9.256 -0.2889  0.0550 -0.4161
 9492SOL    HW140109   2.070   1.064   9.165 -3.0161  1.1951  0.5110
 9492SOL    HW240110   2.046   0.960   9.269 -0.6240 -0.2476 -3.6816
 9493SOL     OW40111   1.847   3.849  13.631 -0.1819  0.0040 -0.8788
 9493SOL    HW140112   1.815   3.935  13.659  2.1871  0.6710 -0.1824
 9493SOL    HW240113   1.765   3.805  13.610 -1.9873  3.2500 -0.6366
 9494SOL     OW40114   1.008   3.090   7.184 -0.3805 -1.1650 -0.3809
 9494SOL    HW140115   1.094   3.128   7.167 -0.3643 -0.3785  1.4201
 9494SOL    HW240116   1.033   3.000   7.163 -2.8607 -1.7442 -0.8426
 9495SOL     OW40117   1.793   2.317   4.171 -0.4185  0.3744  0.2403
 9495SOL    HW140118   1.801   2.309   4.076  0.4706  0.7292  0.2820
 9495SOL    HW240119   1.887   2.333   4.178  0.0769 -1.5676 -2.0681
 9496SOL     OW40120   4.462   3.759   7.357 -0.2790  0.7559 -0.0548
 9496SOL    HW140121   4.498   3.837   7.315  0.5425  1.0957  1.2922
 9496SOL    HW240122   4.501   3.692   7.300  1.4852  2.0793 -0.4066
 9497SOL     OW40123   3.898   1.405   7.717  0.2695 -0.2580 -0.0701
 9497SOL    HW140124   3.993   1.410   7.708  0.1951  1.2007 -0.0851
 9497SOL    HW240125   3.880   1.487   7.671 -0.0063 -0.3115 -0.0562
 9498SOL     OW40126   1.769   4.163   3.802 -0.3990  0.0284  0.6170
 9498SOL    HW140127   1.686   4.210   3.794 -0.9503 -0.8384  1.2008
 9498SOL    HW240128   1.743   4.075   3.776  0.5507  0.6265 -2.4179
 9499SOL     OW40129   0.123   3.315   2.047 -0.1684 -0.3215  0.0236
 9499SOL    HW140130   0.179   3.387   2.019  1.6753 -0.5128  3.2463
 9499SOL    HW240131   0.053   3.335   1.984 -0.2837 -1.3452 -0.1693
 9500SOL     OW40132   2.628   2.566  16.713 -0.1819 -0.5317 -0.1975
 9500SOL    HW140133   2.660   2.479  16.688 -1.2323 -0.6141 -1.2627
 9500SOL    HW240134   2.710   2.599  16.750  0.2698  1.1262 -2.7151
 9501SOL     OW40135   2.718   2.249   8.462 -0.3814  0.5302  0.0289
 9501SOL    HW140136   2.623   2.243   8.467 -0.3453 -0.8408 -0.8949
 9501SOL    HW240137   2.734   2.155   8.452  1.4421  0.5782  2.4484
 9502SOL     OW40138   0.554   3.576   7.648 -0.0565 -0.7954  0.0563
 9502SOL    HW140139   0.637   3.577   7.696 -1.1578  0.6063  1.9414
 9502SOL    HW240140   0.580   3.572   7.556 -1.3007  0.7987 -0.3692
 9503SOL     OW40141   0.188   0.263   2.161 -0.3388 -0.4582  0.0993
 9503SOL    HW140142   0.242   0.316   2.219  0.7460 -0.6993 -0.6962
 9503SOL    HW240143   0.152   0.332   2.105 -0.0155 -0.4317 -0.0744
 9504SOL     OW40144   2.431   2.526  16.026 -0.4037 -0.6920  0.1893
 9504SOL    HW140145   2.417   2.620  16.011 -2.2269 -1.2436 -1.5104
 9504SOL    HW240146   2.362   2.508  16.089 -1.5224  1.7401 -0.3397
 9505SOL     OW40147   0.158   4.089   8.625  0.7021 -0.0525 -0.5560
 9505SOL    HW140148   0.181   4.074   8.716  1.6181 -0.1769 -0.8103
 9505SOL    HW240149   0.146   3.996   8.608  1.5696  0.0812 -1.9206
 9506SOL     OW40150   0.726   0.122  13.040  0.1168  0.2162  0.0277
 9506SOL    HW140151   0.781   0.065  12.986 -1.0798 -0.3389 -0.5919
 9506SOL    HW240152   0.782   0.199  13.049 -0.1565  0.4105  0.0709
 9507SOL     OW40153   0.005   2.159   2.780  0.0768 -0.0998 -0.6867
 9507SOL    HW140154   4.706   2.075   2.804 -1.4845  1.1268  1.0258
 9507SOL    HW240155   4.690   2.217   2.832  0.1381 -0.1946 -0.5139
 9508SOL     OW40156   3.691   3.662  14.137 -0.5625 -0.5622  0.5511
 9508SOL    HW140157   3.690   3.730  14.069 -2.3227 -1.5924 -0.4700
 9508SOL    HW240158   3.627   3.599  14.105  1.0499 -2.1658  0.5002
 9509SOL     OW40159   3.926   3.890   7.900 -0.0659  0.2589 -0.2144
 9509SOL    HW140160   3.937   3.897   7.995  0.7074 -1.9376 -0.1415
 9509SOL    HW240161   4.015   3.858   7.883 -1.0047 -1.4596 -1.9221
 9510SOL     OW40162   1.013   1.639  16.710  0.8176  0.7778  0.3114
 9510SOL    HW140163   0.983   1.710  16.653 -0.0405  1.0866  1.1514
 9510SOL    HW240164   1.082   1.601  16.655 -0.5477  0.7378 -1.3460
 9511SOL     OW40165   0.796   0.408   4.209 -0.4299 -0.0628 -0.1637
 9511SOL    HW140166   0.868   0.379   4.154 -0.4722  1.0108 -0.7886
 9511SOL    HW240167   0.802   0.342   4.279  0.1093  0.3867  0.2151
 9512SOL     OW40168   4.158   1.100   6.557  0.0690  0.5327 -0.0040
 9512SOL    HW140169   4.131   1.184   6.520  1.9006  2.0989  2.2691
 9512SOL    HW240170   4.229   1.126   6.615  1.5103 -0.9014 -1.1088
 9513SOL     OW40171   3.599   4.498  11.494  0.1549  0.0336  0.4160
 9513SOL    HW140172   3.584   4.569  11.557  0.1859  1.8161 -1.5943
 9513SOL    HW240173   3.644   4.553  11.431 -0.1828  1.9732  1.8561
 9514SOL     OW40174   4.563   1.984   8.444  0.2533 -0.1986  0.0098
 9514SOL    HW140175   4.640   1.967   8.497  2.0410  2.1235 -1.8476
 9514SOL    HW240176   4.600   2.001   8.357 -1.0940 -0.6603 -0.6616
 9515SOL     OW40177   3.332   4.370  17.124  0.3724  0.2903 -0.1798
 9515SOL    HW140178   3.415   4.325  17.140 -0.3265 -0.6467  0.7331
 9515SOL    HW240179   3.357   4.449  17.075 -1.7202  1.5019  0.7112
 9516SOL     OW40180   0.851   2.853   2.716 -0.1336  0.3423 -0.2864
 9516SOL    HW140181   0.917   2.797   2.757  0.5178  0.1586 -1.6119
 9516SOL    HW240182   0.857   2.840   2.622 -2.0191 -1.0969 -0.1881
 9517SOL     OW40183   3.377   3.989   2.859  0.2374  0.2371  0.8004
 9517SOL    HW140184   3.329   3.990   2.942  2.4438  3.0045  2.0396
 9517SOL    HW240185   3.458   4.009   2.906 -0.5867 -0.4212  2.5120
 9518SOL     OW40186   1.352   2.843  12.147 -0.1578 -1.1444 -0.2295
 9518SOL    HW140187   1.408   2.772  12.116  0.1357 -1.1090  0.2154
 9518SOL    HW240188   1.351   2.808  12.236 -0.4121  0.2758  0.3260
 9519SOL     OW40189   1.891   1.368   4.600  0.1905 -0.3336 -0.5145
 9519SOL    HW140190   1.852   1.282   4.585 -3.5089  1.3218 -0.3886
 9519SOL    HW240191   1.826   1.437   4.584  0.9590  0.0739 -1.8831
 9520SOL     OW40192   1.283   3.941   2.600 -0.2930  0.1215 -0.1007
 9520SOL    HW140193   1.355   3.918   2.541 -0.7943 -0.9562 -0.2934
 9520SOL    HW240194   1.216   3.975   2.540  0.7811  0.6954 -0.9830
 9521SOL     OW40195   1.893   4.271  10.372 -0.2152  0.1662  0.8333
 9521SOL    HW140196   1.803   4.294  10.397  0.3117  1.4692  1.5217
 9521SOL    HW240197   1.884   4.291  10.279  2.4733  1.1616  0.8107
 9522SOL     OW40198   0.030   3.267   3.115 -0.1539  0.3936  0.0836
 9522SOL    HW140199   4.694   3.223   3.151  0.5613 -1.8255 -1.0280
 9522SOL    HW240200   0.075   3.293   3.195  0.5752 -0.0498 -0.1815
 9523SOL     OW40201   0.711   0.405  17.289  0.1603  0.1812  0.3106
 9523SOL    HW140202   0.727   0.480  17.232 -0.1404 -0.1338 -0.1900
 9523SOL    HW240203   0.803   0.387  17.311 -0.1929 -2.1583 -0.1100
 9524SOL     OW40204   0.789   3.098   4.151 -0.6894  0.3524 -0.3427
 9524SOL    HW140205   0.708   3.099   4.099 -2.0589 -0.8211  1.7852
 9524SOL    HW240206   0.841   3.028   4.112 -0.9134  0.5726 -1.0296
 9525SOL     OW40207   1.570   2.736   7.441  0.1676  0.4158 -0.0715
 9525SOL    HW140208   1.512   2.661   7.435  0.1945  0.1130  3.5371
 9525SOL    HW240209   1.514   2.796   7.491  0.1884 -1.2955  1.9724
 9526SOL     OW40210   4.147   0.784   3.437  0.5556 -0.0211 -0.3866
 9526SOL    HW140211   4.187   0.698   3.451  0.1928 -0.1440 -0.0844
 9526SOL    HW240212   4.193   0.823   3.512  0.5127 -0.0596 -0.3395
 9527SOL     OW40213   4.568   2.428   9.041  0.4748 -0.0946  0.2609
 9527SOL    HW140214   4.622   2.375   9.099 -0.4901 -1.2201  0.1170
 9527SOL    HW240215   4.542   2.500   9.098 -0.1578 -1.3747  1.5627
 9528SOL     OW40216   4.440   1.620   3.334  0.1595 -0.1045  0.1782
 9528SOL    HW140217   4.393   1.537   3.344  0.2483 -0.2755 -0.7861
 9528SOL    HW240218   4.377   1.680   3.373  0.2105 -0.7589  1.2620
 9529SOL     OW40219   1.907   0.680   7.181 -0.3142 -0.0727 -0.3148
 9529SOL    HW140220   1.984   0.638   7.142 -0.1618 -1.0957  1.0944
 9529SOL    HW240221   1.856   0.602   7.200 -0.1420 -0.1624 -0.2267
 9530SOL     OW40222   3.179   2.470   1.062  0.3596  0.5390 -0.5806
 9530SOL    HW140223   3.205   2.532   0.993  2.6981 -0.8687 -0.9739
 9530SOL    HW240224   3.123   2.530   1.111 -0.7159 -0.1079 -1.0413
 9531SOL     OW40225   1.842   3.556   3.933  0.0716  0.5972 -0.2499
 9531SOL    HW140226   1.805   3.484   3.881  1.3211  0.5642 -1.0904
 9531SOL    HW240227   1.923   3.525   3.973  0.4354  1.9194  0.0277
 9532SOL     OW40228   0.353   2.108  13.501 -0.2406  0.1656 -0.3990
 9532SOL    HW140229   0.298   2.059  13.563 -0.6779  0.0846 -0.8430
 9532SOL    HW240230   0.280   2.147  13.451 -1.1998  0.3494  1.1367
 9533SOL     OW40231   4.361   0.832   5.003  0.0490  0.8550  0.8881
 9533SOL    HW140232   4.306   0.755   4.992  2.5212 -0.8926  0.6144
 9533SOL    HW240233   4.420   0.810   5.075  1.3986 -1.4236 -0.9089
 9534SOL     OW40234   4.378   1.007   1.902 -0.2976  0.4782  0.4262
 9534SOL    HW140235   4.356   1.021   1.995  1.9162 -1.8628  1.2898
 9534SOL    HW240236   4.435   0.930   1.908  0.5867  1.0567 -0.5424
 9535SOL     OW40237   0.126   3.543  13.620 -0.3646 -0.5910 -0.0063
 9535SOL    HW140238   0.199   3.553  13.559 -2.7958  4.4549 -2.0977
 9535SOL    HW240239   0.106   3.450  13.627  0.7974 -0.9983 -2.4083
 9536SOL     OW40240   2.129   0.469   8.370 -0.2857  0.5169 -0.6971
 9536SOL    HW140241   2.045   0.428   8.386  1.1854 -0.8964  3.2391
 9536SOL    HW240242   2.126   0.541   8.432 -1.3372 -1.2693  1.3187
 9537SOL     OW40243   2.529   1.061   6.855 -0.1377 -0.0470  0.2429
 9537SOL    HW140244   2.499   1.149   6.831  1.2349 -0.5051 -3.2195
 9537SOL    HW240245   2.473   1.015   6.792 -1.3852  0.7710  0.7446
 9538SOL     OW40246   3.064   2.771   4.644 -0.0194  0.3804  0.0228
 9538SOL    HW140247   3.114   2.726   4.575  0.3299 -1.5799  1.5790
 9538SOL    HW240248   2.989   2.712   4.638  1.2958 -1.1984 -0.9037
 9539SOL     OW40249   0.005   3.719   6.258 -0.7078  0.3225  0.2242
 9539SOL    HW140250   0.081   3.768   6.229  1.0120 -1.6593  1.3570
 9539SOL    HW240251   0.002   3.666   6.178 -1.5433  1.5575 -0.5444
 9540SOL     OW40252   2.289   0.396   5.221 -0.0294  0.1613 -0.3802
 9540SOL    HW140253   2.201   0.431   5.205  0.6541  0.5225 -3.4374
 9540SOL    HW240254   2.299   0.326   5.157 -0.0977 -0.4899  0.3243
 9541SOL     OW40255   2.367   3.995   5.999  0.2393  0.3839 -0.1672
 9541SOL    HW140256   2.398   4.059   5.935  0.6369  0.4683  0.1044
 9541SOL    HW240257   2.424   4.001   6.076  0.2351  1.1650 -0.2289
 9542SOL     OW40258   2.773   0.404   2.607  0.0634  0.0699  0.4294
 9542SOL    HW140259   2.798   0.369   2.692  0.7970  0.3799  0.3394
 9542SOL    HW240260   2.771   0.317   2.566  0.4109 -0.8868  2.4667
 9543SOL     OW40261   2.328   1.310   7.317  0.4950 -0.0002  0.4236
 9543SOL    HW140262   2.256   1.348   7.266  0.3958 -1.0960 -0.2555
 9543SOL    HW240263   2.336   1.376   7.386  1.5354 -0.8871  1.1469
 9544SOL     OW40264   1.439   1.846  14.223 -0.2045  0.0436  0.1590
 9544SOL    HW140265   1.398   1.764  14.194  0.8110 -0.2215 -0.5615
 9544SOL    HW240266   1.370   1.889  14.272 -0.7359 -0.7047  0.0714
 9545SOL     OW40267   1.676   4.237   7.628 -0.9735  0.4607 -0.7272
 9545SOL    HW140268   1.754   4.281   7.593 -0.7265  0.4241 -0.2241
 9545SOL    HW240269   1.701   4.145   7.618  0.3332  0.6236  1.1267
 9546SOL     OW40270   1.417   4.645   8.795 -0.0062  0.5426 -0.1637
 9546SOL    HW140271   1.386   4.559   8.822  0.1549  0.5622  0.0804
 9546SOL    HW240272   1.508   4.623   8.811 -0.0957  1.0397  1.0094
 9547SOL     OW40273   2.300   2.776   6.977  0.0145  0.3506 -0.0132
 9547SOL    HW140274   2.284   2.690   7.015 -0.0123  0.7596  0.9028
 9547SOL    HW240275   2.229   2.787   6.914  1.6619 -0.6228 -2.0392
 9548SOL     OW40276   1.084   3.004   0.660  0.6950  0.1194  0.3838
 9548SOL    HW140277   1.173   3.032   0.637  0.8147 -2.1856 -2.0483
 9548SOL    HW240278   1.086   2.924   0.607 -0.6715  0.4569 -0.1659
 9549SOL     OW40279   0.841   0.239   3.919  0.1129  0.5518 -0.1020
 9549SOL    HW140280   0.912   0.293   3.953  0.3022 -0.5623  1.2991
 9549SOL    HW240281   0.763   0.294   3.930 -1.5042 -2.2055  2.2984
 9550SOL     OW40282   2.748   3.590   8.031  0.2653  0.8277 -0.0946
 9550SOL    HW140283   2.734   3.519   7.968 -0.0972  1.4028 -0.6592
 9550SOL    HW240284   2.744   3.659   7.964  0.6651  1.1992  0.2640
 9551SOL     OW40285   2.564   1.072   6.064  0.8237 -0.1335 -0.1629
 9551SOL    HW140286   2.544   1.113   5.980  0.5264 -1.4147 -0.7219
 9551SOL    HW240287   2.635   1.131   6.090  0.2365  0.7553 -0.5424
 9552SOL     OW40288   1.605   3.276   2.376 -0.3801  0.1464  0.0626
 9552SOL    HW140289   1.519   3.304   2.407  0.6497  2.1114  1.1194
 9552SOL    HW240290   1.637   3.359   2.341 -0.9183 -0.0193 -0.8118
 9553SOL     OW40291   3.494   3.645   9.944  0.0365  0.2366 -0.0919
 9553SOL    HW140292   3.561   3.679  10.003 -0.2426 -0.5316  0.6707
 9553SOL    HW240293   3.426   3.628  10.008  1.8845  1.8874  2.2958
 9554SOL     OW40294   2.407   1.625   2.725 -0.0670  0.5022  0.0991
 9554SOL    HW140295   2.481   1.587   2.773 -0.0814  0.6964  0.2757
 9554SOL    HW240296   2.331   1.588   2.770  0.3330  0.0118  0.3693
 9555SOL     OW40297   4.533   2.988  17.292 -0.1338 -0.8011 -0.3747
 9555SOL    HW140298   4.586   2.913  17.319  0.7753 -0.6588 -1.7469
 9555SOL    HW240299   4.516   3.032  17.375 -1.5091 -0.1256 -1.0008
 9556SOL     OW40300   0.607   4.712   2.815  0.5093  0.0573  0.0587
 9556SOL    HW140301   0.551   4.665   2.753  0.7443 -2.0337  1.4317
 9556SOL    HW240302   0.613   0.053   2.766  0.6118 -0.2955 -0.5222
 9557SOL     OW40303   1.566   1.840   8.717 -0.4407 -0.0818  0.0618
 9557SOL    HW140304   1.554   1.765   8.659  0.2914 -0.4861  0.4323
 9557SOL    HW240305   1.641   1.882   8.674 -0.6766  1.5430  1.2522
 9558SOL     OW40306   0.580   1.384   5.052  0.6383 -0.2868 -0.3277
 9558SOL    HW140307   0.516   1.430   5.107  0.4405  0.9184 -1.5544
 9558SOL    HW240308   0.533   1.311   5.013  0.3405 -0.4293  0.2970
 9559SOL     OW40309   1.721   0.547   4.565 -0.3432 -0.4001  0.1639
 9559SOL    HW140310   1.699   0.534   4.472  0.4568  0.4025 -0.1373
 9559SOL    HW240311   1.695   0.460   4.597  0.8018 -1.3372 -1.4222
 9560SOL     OW40312   1.517   3.103   1.155 -0.0292  0.8479  0.0480
 9560SOL    HW140313   1.468   3.022   1.166  1.6273  0.0968  1.8836
 9560SOL    HW240314   1.527   3.137   1.244  0.3608  0.2064  0.2453
 9561SOL     OW40315   2.454   2.593  11.790 -0.4570 -0.5368 -0.4528
 9561SOL    HW140316   2.427   2.508  11.753 -0.5177 -1.5756  1.9542
 9561SOL    HW240317   2.548   2.599  11.777 -0.4885  0.2160 -0.3346
 9562SOL     OW40318   3.216   2.913  11.525 -0.5908 -0.6237  0.1211
 9562SOL    HW140319   3.121   2.910  11.539 -0.7953  1.4245 -0.7415
 9562SOL    HW240320   3.241   2.894  11.435 -1.6714  2.8959 -0.9372
 9563SOL     OW40321   1.129   0.313   4.286 -0.1918  0.7417 -0.2973
 9563SOL    HW140322   1.043   0.315   4.327  0.1822 -0.4338  0.5536
 9563SOL    HW240323   1.101   0.366   4.211  2.3385  0.1050 -1.7002
 9564SOL     OW40324   3.177   3.500  12.249  0.1071  0.0125 -0.0361
 9564SOL    HW140325   3.226   3.530  12.325  0.8718  0.1576 -0.5777
 9564SOL    HW240326   3.209   3.411  12.233 -0.3962 -0.2054  0.1720
 9565SOL     OW40327   2.367   0.992  14.341 -0.0347 -0.6703  0.2268
 9565SOL    HW140328   2.321   0.944  14.271 -0.7724  0.9507 -0.3928
 9565SOL    HW240329   2.414   1.057  14.289 -0.7410  1.2666  2.0126
 9566SOL     OW40330   4.532   3.537   5.454  0.3983 -0.2651  0.3847
 9566SOL    HW140331   4.614   3.516   5.409  0.1828 -0.5627  0.1386
 9566SOL    HW240332   4.517   3.466   5.516  1.6947 -1.6280 -0.8740
 9567SOL     OW40333   3.095   1.956   1.967  0.1543  0.0194  0.5249
 9567SOL    HW140334   3.039   1.920   1.899  0.0123  1.0811  0.0789
 9567SOL    HW240335   3.032   1.989   2.031 -1.2205 -1.7951  0.1070
 9568SOL     OW40336   0.577   2.924   7.119  0.3451  0.7228  0.2506
 9568SOL    HW140337   0.603   3.000   7.068 -0.3988  0.3491 -0.6922
 9568SOL    HW240338   0.609   2.848   7.070  0.5005  0.8617  0.1413
 9569SOL     OW40339   3.711   3.330   1.040 -0.2474 -0.8649  0.3650
 9569SOL    HW140340   3.735   3.406   1.093 -1.3721  1.0213 -1.7682
 9569SOL    HW240341   3.790   3.286   1.009  0.2837 -0.5968  1.3685
 9570SOL     OW40342   0.115   0.929   1.299  0.8580  0.0838 -0.0823
 9570SOL    HW140343   0.026   0.908   1.269  1.2329  0.3127 -1.3473
 9570SOL    HW240344   0.105   1.023   1.315 -2.3314 -0.4195  1.0331
 9571SOL     OW40345   0.753   2.599  12.605 -0.5200  0.2067  0.0556
 9571SOL    HW140346   0.696   2.590  12.681 -0.0410  0.3637  0.4338
 9571SOL    HW240347   0.841   2.590  12.643 -0.9079  1.3212  1.1913
   4.74061   4.74061  17.75988
